                         Program Version 5.0.3 -  RELEASE  -
|  1> !ri-mp2 aug-cc-pvtz aug-cc-pvtz/c tightscf
|  2> %pal nprocs 16 end
|  3>
|  4> * xyz 0 1
|  5> C      0.000000    0.000000    2.071388
|  6> C      0.000000    1.208808    1.386957
|  7> C      0.000000   -1.208808    1.386957
|  8> C      0.000000    0.000000   -0.713068
|  9> C      0.000000    1.191420   -0.000840
| 10> C      0.000000   -1.191420   -0.000840
| 11> Cl     0.000000    2.703797   -0.881717
| 12> Cl     0.000000   -2.703797   -0.881717
| 13> H      0.000000    0.000000    3.152761
| 14> H      0.000000    2.149253    1.916981
| 15> H      0.000000   -2.149253    1.916981
| 16> H      0.000000    0.000000   -1.791679
| 17> *
| 18>
| 19>                          ****END OF INPUT****

CARTESIAN COORDINATES (ANGSTROEM)
---------------------------------
  C      0.000000    0.000000    2.071388
  C      0.000000    1.208808    1.386957
  C      0.000000   -1.208808    1.386957
  C      0.000000    0.000000   -0.713068
  C      0.000000    1.191420   -0.000840
  C      0.000000   -1.191420   -0.000840
  Cl     0.000000    2.703797   -0.881717
  Cl     0.000000   -2.703797   -0.881717
  H      0.000000    0.000000    3.152761
  H      0.000000    2.149253    1.916981
  H      0.000000   -2.149253    1.916981
  H      0.000000    0.000000   -1.791679

 Total Charge           Charge          ....    0
 Multiplicity           Mult            ....    1
 Number of Electrons    NEL             ....   74
 Basis Dimension        Dim             ....  468

ORBITAL ENERGIES
----------------

  NO   OCC          E(Eh)            E(eV)
   0   2.0000    -104.851387     -2853.1513
   1   2.0000    -104.851387     -2853.1513
   2   2.0000     -11.320309      -308.0413
   3   2.0000     -11.320300      -308.0410
   4   2.0000     -11.265687      -306.5549
   5   2.0000     -11.264742      -306.5292
   6   2.0000     -11.260959      -306.4263
   7   2.0000     -11.260741      -306.4203
   8   2.0000     -10.575000      -287.7604
   9   2.0000     -10.575000      -287.7604
  10   2.0000      -8.041884      -218.8308
  11   2.0000      -8.041884      -218.8308
  12   2.0000      -8.039974      -218.7788
  13   2.0000      -8.039974      -218.7788
  14   2.0000      -8.039973      -218.7788
  15   2.0000      -8.039973      -218.7788
  16   2.0000      -1.216307       -33.0974
  17   2.0000      -1.161441       -31.6044
  18   2.0000      -1.110734       -30.2246
  19   2.0000      -1.030156       -28.0320
  20   2.0000      -1.005122       -27.3508
  21   2.0000      -0.856472       -23.3058
  22   2.0000      -0.825748       -22.4697
  23   2.0000      -0.721093       -19.6219
  24   2.0000      -0.676490       -18.4082
  25   2.0000      -0.649196       -17.6655
  26   2.0000      -0.609988       -16.5986
  27   2.0000      -0.601579       -16.3698
  28   2.0000      -0.571506       -15.5515
  29   2.0000      -0.536550       -14.6003
  30   2.0000      -0.528656       -14.3854
  31   2.0000      -0.512157       -13.9365
  32   2.0000      -0.468990       -12.7619
  33   2.0000      -0.462798       -12.5934
  34   2.0000      -0.461165       -12.5489
  35   2.0000      -0.360138        -9.7998
  36   2.0000      -0.346985        -9.4419
  37   0.0000       0.026651         0.7252
  38   0.0000       0.036549         0.9945
  39   0.0000       0.038455         1.0464
  40   0.0000       0.049863         1.3568
  41   0.0000       0.072213         1.9650

MULLIKEN ATOMIC CHARGES
-----------------------
   0 C :   -0.102922
   1 C :   -0.760408
   2 C :   -0.760408
   3 C :   -1.068553
   4 C :    0.702820
   5 C :    0.702820
   6 Cl:   -0.461168
   7 Cl:   -0.461168
   8 H :    0.507874
   9 H :    0.539478
  10 H :    0.539478
  11 H :    0.622157
Sum of atomic charges:    0.0000000

LOEWDIN ATOMIC CHARGES
----------------------
   0 C :    0.182226
   1 C :    0.108328
   2 C :    0.108328
   3 C :    0.014894
   4 C :   -0.772960
   5 C :   -0.772960
   6 Cl:    0.968742
   7 Cl:    0.968742
   8 H :   -0.179648
   9 H :   -0.202352
  10 H :   -0.202352
  11 H :   -0.220988

  Mayer bond orders larger than 0.100000
B(  0-C ,  1-C ) :   1.0559 B(  0-C ,  2-C ) :   1.0559 B(  0-C ,  3-C ) :  -0.1247
B(  0-C ,  8-H ) :   0.7891 B(  1-C ,  2-C ) :   0.2754 B(  1-C ,  3-C ) :   0.4194
B(  1-C ,  4-C ) :   0.9679 B(  1-C ,  5-C ) :  -0.1047 B(  1-C ,  9-H ) :   0.7090
B(  2-C ,  3-C ) :   0.4194 B(  2-C ,  4-C ) :  -0.1047 B(  2-C ,  5-C ) :   0.9679
B(  2-C , 10-H ) :   0.7090 B(  3-C ,  4-C ) :   0.9805 B(  3-C ,  5-C ) :   0.9805
B(  3-C , 11-H ) :   0.5498 B(  4-C ,  6-Cl) :   0.8116 B(  5-C ,  7-Cl) :   0.8116

MP2 TOTAL ENERGY:    -1149.991790101 Eh
FINAL SINGLE POINT ENERGY     -1149.991790100661

DIPOLE MOMENT
-------------
                                X             Y             Z
Electronic contribution:     -0.00000       0.00000      -6.55447
Nuclear contribution   :      0.00000       0.00000       7.29650
                        -----------------------------------------
Total Dipole Moment    :     -0.00000       0.00000       0.74204
                        -----------------------------------------
Magnitude (a.u.)       :      0.74204
Magnitude (Debye)      :      1.88611

Rotational constants in cm-1:     0.094051     0.028243     0.021721
Rotational constants in MHz :  2819.574862   846.713009   651.168375

                             ****ORCA TERMINATED NORMALLY****
TOTAL RUN TIME: 0 days 0 hours 3 minutes 59 seconds 560 msec
