                         Program Version 5.0.3 -  RELEASE  -
|  1> !ri-mp2 aug-cc-pvtz aug-cc-pvtz/c tightscf
|  2> %pal nprocs 16 end
|  3>
|  4> * xyz 0 1
|  5> C      0.000000    0.466246    0.000000
|  6> C     -0.565797    2.760319    0.000000
|  7> C     -0.633002   -0.915121    0.000000
|  8> O      1.170077    0.724321    0.000000
|  9> O     -0.987371    1.382600    0.000000
| 10> Cl     0.569257   -2.233268    0.000000
| 11> H      0.026696    2.973494    0.887304
| 12> H     -1.480710    3.343662    0.000000
| 13> H      0.026696    2.973494   -0.887304
| 14> H     -1.259449   -1.024561   -0.881342
| 15> H     -1.259449   -1.024561    0.881342
| 16> *
| 17>
| 18>                          ****END OF INPUT****

CARTESIAN COORDINATES (ANGSTROEM)
---------------------------------
  C      0.000000    0.466246    0.000000
  C     -0.565797    2.760319    0.000000
  C     -0.633002   -0.915121    0.000000
  O      1.170077    0.724321    0.000000
  O     -0.987371    1.382600    0.000000
  Cl     0.569257   -2.233268    0.000000
  H      0.026696    2.973494    0.887304
  H     -1.480710    3.343662    0.000000
  H      0.026696    2.973494   -0.887304
  H     -1.259449   -1.024561   -0.881342
  H     -1.259449   -1.024561    0.881342

 Total Charge           Charge          ....    0
 Multiplicity           Mult            ....    1
 Number of Electrons    NEL             ....   56
 Basis Dimension        Dim             ....  395

ORBITAL ENERGIES
----------------

  NO   OCC          E(Eh)            E(eV)
   0   2.0000    -104.836580     -2852.7484
   1   2.0000     -20.620257      -561.1057
   2   2.0000     -20.562326      -559.5293
   3   2.0000     -11.399210      -310.1883
   4   2.0000     -11.318794      -308.0000
   5   2.0000     -11.297967      -307.4333
   6   2.0000     -10.560428      -287.3638
   7   2.0000      -8.027313      -218.4343
   8   2.0000      -8.025359      -218.3811
   9   2.0000      -8.025354      -218.3810
  10   2.0000      -1.477476       -40.2042
  11   2.0000      -1.378853       -37.5205
  12   2.0000      -1.147542       -31.2262
  13   2.0000      -1.017610       -27.6906
  14   2.0000      -0.934521       -25.4296
  15   2.0000      -0.789172       -21.4745
  16   2.0000      -0.722881       -19.6706
  17   2.0000      -0.698468       -19.0063
  18   2.0000      -0.688342       -18.7307
  19   2.0000      -0.638711       -17.3802
  20   2.0000      -0.612436       -16.6652
  21   2.0000      -0.556140       -15.1333
  22   2.0000      -0.551397       -15.0043
  23   2.0000      -0.544550       -14.8179
  24   2.0000      -0.479705       -13.0534
  25   2.0000      -0.472663       -12.8618
  26   2.0000      -0.446428       -12.1479
  27   2.0000      -0.444724       -12.1016
  28   0.0000       0.024867         0.6767
  29   0.0000       0.036264         0.9868
  30   0.0000       0.039847         1.0843
  31   0.0000       0.045926         1.2497
  32   0.0000       0.056624         1.5408

MULLIKEN ATOMIC CHARGES
-----------------------
   0 C :    0.353809
   1 C :   -0.719889
   2 C :   -0.082369
   3 O :   -0.617432
   4 O :   -0.315840
   5 Cl:   -0.279848
   6 H :    0.348755
   7 H :    0.356147
   8 H :    0.348755
   9 H :    0.303956
  10 H :    0.303956
Sum of atomic charges:    0.0000000

LOEWDIN ATOMIC CHARGES
----------------------
   0 C :   -0.914622
   1 C :    0.368967
   2 C :   -0.307406
   3 O :    0.439446
   4 O :    0.547931
   5 Cl:    0.908599
   6 H :   -0.180325
   7 H :   -0.186450
   8 H :   -0.180325
   9 H :   -0.247907
  10 H :   -0.247907

  Mayer bond orders larger than 0.100000
B(  0-C ,  2-C ) :   0.8054 B(  0-C ,  3-O ) :   1.6269 B(  0-C ,  4-O ) :   1.1045
B(  1-C ,  4-O ) :   0.8108 B(  1-C ,  6-H ) :   0.8819 B(  1-C ,  7-H ) :   0.8930
B(  1-C ,  8-H ) :   0.8819 B(  2-C ,  5-Cl) :   0.8390 B(  2-C ,  9-H ) :   0.9235
B(  2-C , 10-H ) :   0.9235

MP2 TOTAL ENERGY:     -727.042741035 Eh
FINAL SINGLE POINT ENERGY      -727.042741035074

DIPOLE MOMENT
-------------
                                X             Y             Z
Electronic contribution:      3.40086      -9.38126       0.00000
Nuclear contribution   :     -4.61080      10.14640       0.00000
                        -----------------------------------------
Total Dipole Moment    :     -1.20994       0.76514       0.00000
                        -----------------------------------------
Magnitude (a.u.)       :      1.43157
Magnitude (Debye)      :      3.63877

Rotational constants in cm-1:     0.329383     0.045787     0.040813
Rotational constants in MHz :  9874.644410  1372.661064  1223.536428

                             ****ORCA TERMINATED NORMALLY****
TOTAL RUN TIME: 0 days 0 hours 2 minutes 4 seconds 92 msec
