                         Program Version 5.0.3 -  RELEASE  -
|  1> !ri-mp2 aug-cc-pvtz aug-cc-pvtz/c tightscf
|  2> %pal nprocs 16 end
|  3>
|  4> * xyz 0 1
|  5> C     -0.671285   -0.386770    0.000000
|  6> C      0.000000    0.736156    0.000000
|  7> C      1.508464    0.811358    0.000000
|  8> O     -1.266323   -1.387836    0.000000
|  9> H     -0.595082    1.639797    0.000000
| 10> H      1.954606   -0.181706    0.000000
| 11> H      1.873994    1.340067    0.882008
| 12> H      1.873994    1.340067   -0.882008
| 13> *
| 14>
| 15>                          ****END OF INPUT****

CARTESIAN COORDINATES (ANGSTROEM)
---------------------------------
  C     -0.671285   -0.386770    0.000000
  C      0.000000    0.736156    0.000000
  C      1.508464    0.811358    0.000000
  O     -1.266323   -1.387836    0.000000
  H     -0.595082    1.639797    0.000000
  H      1.954606   -0.181706    0.000000
  H      1.873994    1.340067    0.882008
  H      1.873994    1.340067   -0.882008

 Total Charge           Charge          ....    0
 Multiplicity           Mult            ....    1
 Number of Electrons    NEL             ....   30
 Basis Dimension        Dim             ....  276

ORBITAL ENERGIES
----------------

  NO   OCC          E(Eh)            E(eV)
   0   2.0000     -20.618792      -561.0658
   1   2.0000     -11.369510      -309.3801
   2   2.0000     -11.245149      -305.9961
   3   2.0000     -11.240937      -305.8814
   4   2.0000      -1.462615       -39.7998
   5   2.0000      -1.083870       -29.4936
   6   2.0000      -0.934313       -25.4239
   7   2.0000      -0.743049       -20.2194
   8   2.0000      -0.682986       -18.5850
   9   2.0000      -0.639359       -17.3979
  10   2.0000      -0.619321       -16.8526
  11   2.0000      -0.578409       -15.7393
  12   2.0000      -0.556956       -15.1555
  13   2.0000      -0.532202       -14.4819
  14   2.0000      -0.347491        -9.4557
  15   0.0000       0.026735         0.7275
  16   0.0000       0.038291         1.0419
  17   0.0000       0.044612         1.2139
  18   0.0000       0.047571         1.2945
  19   0.0000       0.073198         1.9918

MULLIKEN ATOMIC CHARGES
-----------------------
   0 C :    0.296507
   1 C :   -0.188151
   2 C :   -0.795603
   3 O :   -0.480085
   4 H :    0.344925
   5 H :    0.252495
   6 H :    0.284957
   7 H :    0.284957
Sum of atomic charges:   -0.0000000

LOEWDIN ATOMIC CHARGES
----------------------
   0 C :   -0.267000
   1 C :    0.131384
   2 C :    0.520846
   3 O :    0.400825
   4 H :   -0.234912
   5 H :   -0.186071
   6 H :   -0.182536
   7 H :   -0.182536

  Mayer bond orders larger than 0.100000
B(  0-C ,  1-C ) :   1.5997 B(  0-C ,  3-O ) :   1.8859 B(  1-C ,  2-C ) :   0.8808
B(  1-C ,  3-O ) :  -0.1306 B(  1-C ,  4-H ) :   0.8673 B(  2-C ,  5-H ) :   0.9787
B(  2-C ,  6-H ) :   0.9262 B(  2-C ,  7-H ) :   0.9262

MP2 TOTAL ENERGY:     -191.557463354 Eh
FINAL SINGLE POINT ENERGY      -191.557463353727

DIPOLE MOMENT
-------------
                                X             Y             Z
Electronic contribution:     -4.58059      -3.42745      -0.00000
Nuclear contribution   :      5.11279       4.13677       0.00000
                        -----------------------------------------
Total Dipole Moment    :      0.53221       0.70932      -0.00000
                        -----------------------------------------
Magnitude (a.u.)       :      0.88678
Magnitude (Debye)      :      2.25401

Rotational constants in cm-1:     1.318442     0.149613     0.137811
Rotational constants in MHz : 39525.888585  4485.293078  4131.476334

                             ****ORCA TERMINATED NORMALLY****
TOTAL RUN TIME: 0 days 0 hours 0 minutes 43 seconds 210 msec
