                         Program Version 5.0.3 -  RELEASE  -
|  1> !ri-mp2 aug-cc-pvtz aug-cc-pvtz/c tightscf
|  2> %pal nprocs 16 end
|  3>
|  4> * xyz 0 1
|  5> O     -0.793144    1.368201   -0.000236
|  6> C     -0.564751    0.180694   -0.000163
|  7> C      0.769320   -0.452538   -0.000259
|  8> C      1.881122    0.280508    0.000126
|  9> C      3.269891   -0.259619    0.000137
| 10> O     -1.538842   -0.759642    0.000060
| 11> C     -2.885236   -0.262814    0.000226
| 12> H      0.797736   -1.534345   -0.001112
| 13> H      1.768232    1.360075    0.000946
| 14> H      3.819852    0.096612    0.875095
| 15> H      3.287143   -1.348669   -0.000445
| 16> H      3.820235    0.097410   -0.874284
| 17> H     -3.068501    0.342864    0.886099
| 18> H     -3.068919    0.342320   -0.885935
| 19> H     -3.521975   -1.142120    0.000642
| 20> *
| 21>
| 22>                          ****END OF INPUT****

CARTESIAN COORDINATES (ANGSTROEM)
---------------------------------
  O     -0.793144    1.368201   -0.000236
  C     -0.564751    0.180694   -0.000163
  C      0.769320   -0.452538   -0.000259
  C      1.881122    0.280508    0.000126
  C      3.269891   -0.259619    0.000137
  O     -1.538842   -0.759642    0.000060
  C     -2.885236   -0.262814    0.000226
  H      0.797736   -1.534345   -0.001112
  H      1.768232    1.360075    0.000946
  H      3.819852    0.096612    0.875095
  H      3.287143   -1.348669   -0.000445
  H      3.820235    0.097410   -0.874284
  H     -3.068501    0.342864    0.886099
  H     -3.068919    0.342320   -0.885935
  H     -3.521975   -1.142120    0.000642

 Total Charge           Charge          ....    0
 Multiplicity           Mult            ....    1
 Number of Electrons    NEL             ....   54
 Basis Dimension        Dim             ....  506

ORBITAL ENERGIES
----------------

  NO   OCC          E(Eh)            E(eV)
   0   2.0000     -20.598840      -560.5229
   1   2.0000     -20.534710      -558.7779
   2   2.0000     -11.375210      -309.5352
   3   2.0000     -11.280635      -306.9617
   4   2.0000     -11.262426      -306.4662
   5   2.0000     -11.238173      -305.8062
   6   2.0000     -11.235683      -305.7385
   7   2.0000      -1.452100       -39.5136
   8   2.0000      -1.350754       -36.7559
   9   2.0000      -1.098585       -29.8940
  10   2.0000      -0.999736       -27.2042
  11   2.0000      -0.945742       -25.7350
  12   2.0000      -0.818490       -22.2722
  13   2.0000      -0.750428       -20.4202
  14   2.0000      -0.712648       -19.3921
  15   2.0000      -0.671084       -18.2611
  16   2.0000      -0.665054       -18.0970
  17   2.0000      -0.607262       -16.5244
  18   2.0000      -0.597527       -16.2595
  19   2.0000      -0.584662       -15.9095
  20   2.0000      -0.551246       -15.0002
  21   2.0000      -0.548465       -14.9245
  22   2.0000      -0.525917       -14.3109
  23   2.0000      -0.519184       -14.1277
  24   2.0000      -0.458933       -12.4882
  25   2.0000      -0.446053       -12.1377
  26   2.0000      -0.377861       -10.2821
  27   0.0000       0.027137         0.7384
  28   0.0000       0.032930         0.8961
  29   0.0000       0.039143         1.0651
  30   0.0000       0.043899         1.1946
  31   0.0000       0.051683         1.4064

MULLIKEN ATOMIC CHARGES
-----------------------
   0 O :   -0.844693
   1 C :    0.569733
   2 C :   -0.206878
   3 C :   -0.232543
   4 C :   -0.779032
   5 O :   -0.356325
   6 C :   -0.728914
   7 H :    0.320644
   8 H :    0.308607
   9 H :    0.290358
  10 H :    0.306066
  11 H :    0.290406
  12 H :    0.354079
  13 H :    0.354051
  14 H :    0.354441
Sum of atomic charges:   -0.0000000

LOEWDIN ATOMIC CHARGES
----------------------
   0 O :    0.448469
   1 C :   -0.868497
   2 C :    0.195590
   3 C :    0.210422
   4 C :    0.572119
   5 O :    0.549564
   6 C :    0.352752
   7 H :   -0.205642
   8 H :   -0.179191
   9 H :   -0.171127
  10 H :   -0.178346
  11 H :   -0.171110
  12 H :   -0.182877
  13 H :   -0.182856
  14 H :   -0.189270

  Mayer bond orders larger than 0.100000
B(  0-O ,  1-C ) :   1.4752 B(  0-O ,  2-C ) :  -0.1465 B(  1-C ,  2-C ) :   0.6860
B(  1-C ,  5-O ) :   1.1055 B(  2-C ,  3-C ) :   1.1893 B(  2-C ,  7-H ) :   1.0143
B(  3-C ,  4-C ) :   0.7449 B(  3-C ,  8-H ) :   0.9367 B(  4-C ,  9-H ) :   0.9668
B(  4-C , 10-H ) :   0.9433 B(  4-C , 11-H ) :   0.9668 B(  5-O ,  6-C ) :   0.8166
B(  6-C , 12-H ) :   0.8836 B(  6-C , 13-H ) :   0.8836 B(  6-C , 14-H ) :   0.8897

MP2 TOTAL ENERGY:     -345.159320451 Eh
FINAL SINGLE POINT ENERGY      -345.159320450686

DIPOLE MOMENT
-------------
                                X             Y             Z
Electronic contribution:     -3.39727       1.15757      -0.00084
Nuclear contribution   :      3.84631      -1.79931       0.00102
                        -----------------------------------------
Total Dipole Moment    :      0.44904      -0.64173       0.00017
                        -----------------------------------------
Magnitude (a.u.)       :      0.78323
Magnitude (Debye)      :      1.99082

Rotational constants in cm-1:     0.304551     0.041279     0.036849
Rotational constants in MHz :  9130.208382  1237.524976  1104.698963

                             ****ORCA TERMINATED NORMALLY****
TOTAL RUN TIME: 0 days 0 hours 3 minutes 35 seconds 764 msec
