                         Program Version 5.0.3 -  RELEASE  -
|  1> !ri-mp2 aug-cc-pvtz aug-cc-pvtz/c tightscf
|  2> %pal nprocs 16 end
|  3>
|  4> * xyz 0 1
|  5> C      0.050669    0.624607    0.000000
|  6> C     -1.855094    2.001586    0.000000
|  7> C      0.511832   -0.857791    0.000000
|  8> O      0.811982    1.547940    0.000000
|  9> O     -1.275222    0.677957    0.000000
| 10> F      0.050669   -1.497770    1.087625
| 11> F      0.050669   -1.497770   -1.087625
| 12> F      1.840087   -0.932253    0.000000
| 13> H     -1.541783    2.544186    0.888968
| 14> H     -2.927775    1.844167    0.000000
| 15> H     -1.541783    2.544186   -0.888968
| 16> *
| 17>
| 18>                          ****END OF INPUT****

CARTESIAN COORDINATES (ANGSTROEM)
---------------------------------
  C      0.050669    0.624607    0.000000
  C     -1.855094    2.001586    0.000000
  C      0.511832   -0.857791    0.000000
  O      0.811982    1.547940    0.000000
  O     -1.275222    0.677957    0.000000
  F      0.050669   -1.497770    1.087625
  F      0.050669   -1.497770   -1.087625
  F      1.840087   -0.932253    0.000000
  H     -1.541783    2.544186    0.888968
  H     -2.927775    1.844167    0.000000
  H     -1.541783    2.544186   -0.888968

 Total Charge           Charge          ....    0
 Multiplicity           Mult            ....    1
 Number of Electrons    NEL             ....   64
 Basis Dimension        Dim             ....  437

ORBITAL ENERGIES
----------------

  NO   OCC          E(Eh)            E(eV)
   0   2.0000     -26.357521      -717.2246
   1   2.0000     -26.357500      -717.2240
   2   2.0000     -26.355278      -717.1636
   3   2.0000     -20.643521      -561.7388
   4   2.0000     -20.592091      -560.3393
   5   2.0000     -11.534690      -313.8749
   6   2.0000     -11.427542      -310.9592
   7   2.0000     -11.313590      -307.8584
   8   2.0000      -1.746813       -47.5332
   9   2.0000      -1.652255       -44.9602
  10   2.0000      -1.651517       -44.9401
  11   2.0000      -1.504178       -40.9308
  12   2.0000      -1.407367       -38.2964
  13   2.0000      -1.056241       -28.7418
  14   2.0000      -0.981857       -26.7177
  15   2.0000      -0.882629       -24.0175
  16   2.0000      -0.840339       -22.8668
  17   2.0000      -0.838949       -22.8290
  18   2.0000      -0.799655       -21.7597
  19   2.0000      -0.730667       -19.8825
  20   2.0000      -0.727991       -19.8097
  21   2.0000      -0.710774       -19.3411
  22   2.0000      -0.699784       -19.0421
  23   2.0000      -0.692428       -18.8419
  24   2.0000      -0.679781       -18.4978
  25   2.0000      -0.678183       -18.4543
  26   2.0000      -0.664528       -18.0827
  27   2.0000      -0.608717       -16.5640
  28   2.0000      -0.583966       -15.8905
  29   2.0000      -0.562740       -15.3129
  30   2.0000      -0.498309       -13.5597
  31   2.0000      -0.496024       -13.4975
  32   0.0000       0.024396         0.6639
  33   0.0000       0.043469         1.1829
  34   0.0000       0.043488         1.1834
  35   0.0000       0.057455         1.5634
  36   0.0000       0.074886         2.0378

MULLIKEN ATOMIC CHARGES
-----------------------
   0 C :    0.082006
   1 C :   -0.696374
   2 C :    1.556126
   3 O :   -0.603162
   4 O :   -0.297977
   5 F :   -0.375398
   6 F :   -0.375398
   7 F :   -0.355670
   8 H :    0.355111
   9 H :    0.355626
  10 H :    0.355111
Sum of atomic charges:   -0.0000000

LOEWDIN ATOMIC CHARGES
----------------------
   0 C :   -0.857745
   1 C :    0.390608
   2 C :   -1.504478
   3 O :    0.461109
   4 O :    0.549705
   5 F :    0.492742
   6 F :    0.492742
   7 F :    0.510388
   8 H :   -0.176772
   9 H :   -0.181525
  10 H :   -0.176772

  Mayer bond orders larger than 0.100000
B(  0-C ,  2-C ) :   0.6783 B(  0-C ,  3-O ) :   1.6816 B(  0-C ,  4-O ) :   1.1266
B(  0-C ,  7-F ) :   0.1091 B(  1-C ,  4-O ) :   0.7904 B(  1-C ,  8-H ) :   0.8772
B(  1-C ,  9-H ) :   0.8980 B(  1-C , 10-H ) :   0.8772 B(  2-C ,  5-F ) :   0.7945
B(  2-C ,  6-F ) :   0.7945 B(  2-C ,  7-F ) :   0.8065

MP2 TOTAL ENERGY:     -565.351159907 Eh
FINAL SINGLE POINT ENERGY      -565.351159906996

DIPOLE MOMENT
-------------
                                X             Y             Z
Electronic contribution:      6.36978      -9.55430      -0.00000
Nuclear contribution   :     -7.44932      10.18153       0.00000
                        -----------------------------------------
Total Dipole Moment    :     -1.07954       0.62723      -0.00000
                        -----------------------------------------
Magnitude (a.u.)       :      1.24853
Magnitude (Debye)      :      3.17351

Rotational constants in cm-1:     0.119639     0.050280     0.044003
Rotational constants in MHz :  3586.694278  1507.362099  1319.188846

                             ****ORCA TERMINATED NORMALLY****
TOTAL RUN TIME: 0 days 0 hours 2 minutes 31 seconds 908 msec
