                         Program Version 5.0.3 -  RELEASE  -
|  1> !ri-mp2 aug-cc-pvtz aug-cc-pvtz/c tightscf
|  2> %pal nprocs 16 end
|  3>
|  4> * xyz 0 1
|  5> C     -0.005439    0.742948    1.206807
|  6> C     -0.005439    0.742948   -1.206807
|  7> C     -0.005439   -0.778359    1.177882
|  8> C     -0.005439   -0.778359   -1.177882
|  9> N      0.657361    1.234334    0.000000
| 10> O     -0.635671   -1.270842    0.000000
| 11> H     -1.046564    1.092682    1.289352
| 12> H      0.540160    1.092900    2.084922
| 13> H      0.540160    1.092900   -2.084922
| 14> H     -1.046564    1.092682   -1.289352
| 15> H      1.027148   -1.146672    1.227425
| 16> H     -0.566071   -1.185206    2.018469
| 17> H     -0.566071   -1.185206   -2.018469
| 18> H      1.027148   -1.146672   -1.227425
| 19> H      0.705027    2.243917    0.000000
| 20> *
| 21>
| 22>                          ****END OF INPUT****

CARTESIAN COORDINATES (ANGSTROEM)
---------------------------------
  C     -0.005439    0.742948    1.206807
  C     -0.005439    0.742948   -1.206807
  C     -0.005439   -0.778359    1.177882
  C     -0.005439   -0.778359   -1.177882
  N      0.657361    1.234334    0.000000
  O     -0.635671   -1.270842    0.000000
  H     -1.046564    1.092682    1.289352
  H      0.540160    1.092900    2.084922
  H      0.540160    1.092900   -2.084922
  H     -1.046564    1.092682   -1.289352
  H      1.027148   -1.146672    1.227425
  H     -0.566071   -1.185206    2.018469
  H     -0.566071   -1.185206   -2.018469
  H      1.027148   -1.146672   -1.227425
  H      0.705027    2.243917    0.000000

 Total Charge           Charge          ....    0
 Multiplicity           Mult            ....    1
 Number of Electrons    NEL             ....   48
 Basis Dimension        Dim             ....  483

ORBITAL ENERGIES
----------------

  NO   OCC          E(Eh)            E(eV)
   0   2.0000     -20.550900      -559.2184
   1   2.0000     -15.546437      -423.0401
   2   2.0000     -11.268981      -306.6446
   3   2.0000     -11.268964      -306.6441
   4   2.0000     -11.249186      -306.1059
   5   2.0000     -11.249172      -306.1055
   6   2.0000      -1.370307       -37.2879
   7   2.0000      -1.206043       -32.8181
   8   2.0000      -1.033894       -28.1337
   9   2.0000      -0.928772       -25.2732
  10   2.0000      -0.872204       -23.7339
  11   2.0000      -0.777501       -21.1569
  12   2.0000      -0.703520       -19.1438
  13   2.0000      -0.639106       -17.3910
  14   2.0000      -0.637868       -17.3573
  15   2.0000      -0.604472       -16.4485
  16   2.0000      -0.602088       -16.3837
  17   2.0000      -0.584882       -15.9154
  18   2.0000      -0.543675       -14.7942
  19   2.0000      -0.500862       -13.6292
  20   2.0000      -0.491686       -13.3795
  21   2.0000      -0.455507       -12.3950
  22   2.0000      -0.416753       -11.3404
  23   2.0000      -0.372292       -10.1306
  24   0.0000       0.028665         0.7800
  25   0.0000       0.036472         0.9924
  26   0.0000       0.039656         1.0791
  27   0.0000       0.041192         1.1209
  28   0.0000       0.053352         1.4518

MULLIKEN ATOMIC CHARGES
-----------------------
   0 C :   -0.424530
   1 C :   -0.424530
   2 C :   -0.295989
   3 C :   -0.295989
   4 N :   -0.411899
   5 O :   -0.691569
   6 H :    0.228256
   7 H :    0.383909
   8 H :    0.383909
   9 H :    0.228256
  10 H :    0.272670
  11 H :    0.387911
  12 H :    0.387911
  13 H :    0.272670
  14 H :   -0.000987
Sum of atomic charges:   -0.0000000

LOEWDIN ATOMIC CHARGES
----------------------
   0 C :    0.159034
   1 C :    0.159034
   2 C :    0.035760
   3 C :    0.035760
   4 N :    0.556136
   5 O :    0.565167
   6 H :   -0.141627
   7 H :   -0.147881
   8 H :   -0.147881
   9 H :   -0.141627
  10 H :   -0.152159
  11 H :   -0.159756
  12 H :   -0.159756
  13 H :   -0.152159
  14 H :   -0.308043

  Mayer bond orders larger than 0.100000
B(  0-C ,  2-C ) :   0.9988 B(  0-C ,  4-N ) :   0.8592 B(  0-C ,  6-H ) :   0.9931
B(  0-C ,  7-H ) :   0.8498 B(  1-C ,  3-C ) :   0.9988 B(  1-C ,  4-N ) :   0.8592
B(  1-C ,  8-H ) :   0.8498 B(  1-C ,  9-H ) :   0.9931 B(  2-C ,  3-C ) :   0.1008
B(  2-C ,  5-O ) :   0.8510 B(  2-C , 10-H ) :   0.9683 B(  2-C , 11-H ) :   0.8705
B(  3-C ,  5-O ) :   0.8510 B(  3-C , 12-H ) :   0.8705 B(  3-C , 13-H ) :   0.9683
B(  4-N , 14-H ) :   1.0504

MP2 TOTAL ENERGY:     -287.255466496 Eh
FINAL SINGLE POINT ENERGY      -287.255466496165

DIPOLE MOMENT
-------------
                                X             Y             Z
Electronic contribution:     -0.53204      -1.36772       0.00000
Nuclear contribution   :      0.62933       2.00586       0.00000
                        -----------------------------------------
Total Dipole Moment    :      0.09729       0.63813       0.00000
                        -----------------------------------------
Magnitude (a.u.)       :      0.64551
Magnitude (Debye)      :      1.64075

Rotational constants in cm-1:     0.163475     0.154787     0.089125
Rotational constants in MHz :  4900.866611  4640.407030  2671.896327

                             ****ORCA TERMINATED NORMALLY****
TOTAL RUN TIME: 0 days 0 hours 3 minutes 39 seconds 825 msec
