                         Program Version 5.0.3 -  RELEASE  -
|  1> !ri-mp2 aug-cc-pvtz aug-cc-pvtz/c tightscf
|  2> %pal nprocs 16 end
|  3> %maxcore 3800
|  4>
|  5> * xyz 0 1
|  6> C     -3.009194    0.132720    0.000067
|  7> C      5.949220   -0.256907    0.000078
|  8> C     -5.358960   -0.130980   -0.000089
|  9> C     -1.695422   -0.613559    0.000091
| 10> C      4.637910    0.526987   -0.000135
| 11> C     -0.471203    0.295500   -0.000112
| 12> C      3.398027   -0.367925    0.000074
| 13> C      0.841821   -0.487584    0.000072
| 14> C      2.080878    0.408235   -0.000139
| 15> O     -3.143099    1.330753    0.000219
| 16> O     -4.051638   -0.727268   -0.000120
| 17> H      6.025429   -0.898227   -0.880487
| 18> H      6.025395   -0.897805    0.880953
| 19> H      6.812866    0.409515   -0.000065
| 20> H     -6.058778   -0.960891   -0.000238
| 21> H     -5.497418    0.485846   -0.886256
| 22> H     -5.497491    0.485592    0.886244
| 23> H     -1.693478   -1.276884   -0.869154
| 24> H     -1.693380   -1.276583    0.869569
| 25> H      4.606452    1.184753    0.873644
| 26> H      4.606474    1.184314   -0.874245
| 27> H     -0.510948    0.953181    0.870826
| 28> H     -0.510932    0.952783   -0.871354
| 29> H      3.430023   -1.026718   -0.874390
| 30> H      3.430000   -1.026275    0.874873
| 31> H      0.873319   -1.146380   -0.874384
| 32> H      0.873315   -1.145960    0.874844
| 33> H      2.049304    1.066245   -0.874663
| 34> H      2.049281    1.066686    0.874053
| 35> *
| 36>
| 37>                          ****END OF INPUT****

CARTESIAN COORDINATES (ANGSTROEM)
---------------------------------
  C     -3.009194    0.132720    0.000067
  C      5.949220   -0.256907    0.000078
  C     -5.358960   -0.130980   -0.000089
  C     -1.695422   -0.613559    0.000091
  C      4.637910    0.526987   -0.000135
  C     -0.471203    0.295500   -0.000112
  C      3.398027   -0.367925    0.000074
  C      0.841821   -0.487584    0.000072
  C      2.080878    0.408235   -0.000139
  O     -3.143099    1.330753    0.000219
  O     -4.051638   -0.727268   -0.000120
  H      6.025429   -0.898227   -0.880487
  H      6.025395   -0.897805    0.880953
  H      6.812866    0.409515   -0.000065
  H     -6.058778   -0.960891   -0.000238
  H     -5.497418    0.485846   -0.886256
  H     -5.497491    0.485592    0.886244
  H     -1.693478   -1.276884   -0.869154
  H     -1.693380   -1.276583    0.869569
  H      4.606452    1.184753    0.873644
  H      4.606474    1.184314   -0.874245
  H     -0.510948    0.953181    0.870826
  H     -0.510932    0.952783   -0.871354
  H      3.430023   -1.026718   -0.874390
  H      3.430000   -1.026275    0.874873
  H      0.873319   -1.146380   -0.874384
  H      0.873315   -1.145960    0.874844
  H      2.049304    1.066245   -0.874663
  H      2.049281    1.066686    0.874053

 Total Charge           Charge          ....    0
 Multiplicity           Mult            ....    1
 Number of Electrons    NEL             ....   88
 Basis Dimension        Dim             ....  920

ORBITAL ENERGIES
----------------

  NO   OCC          E(Eh)            E(eV)
   0   2.0000     -20.600132      -560.5581
   1   2.0000     -20.541998      -558.9762
   2   2.0000     -11.375070      -309.5314
   3   2.0000     -11.283377      -307.0363
   4   2.0000     -11.240389      -305.8665
   5   2.0000     -11.221543      -305.3537
   6   2.0000     -11.219677      -305.3029
   7   2.0000     -11.216124      -305.2063
   8   2.0000     -11.215876      -305.1995
   9   2.0000     -11.214714      -305.1679
  10   2.0000     -11.209900      -305.0369
  11   2.0000      -1.456056       -39.6213
  12   2.0000      -1.356096       -36.9012
  13   2.0000      -1.097436       -29.8627
  14   2.0000      -1.066945       -29.0330
  15   2.0000      -1.018685       -27.7198
  16   2.0000      -0.972819       -26.4717
  17   2.0000      -0.925866       -25.1941
  18   2.0000      -0.855487       -23.2790
  19   2.0000      -0.800318       -21.7778
  20   2.0000      -0.788326       -21.4514
  21   2.0000      -0.764734       -20.8095
  22   2.0000      -0.695312       -18.9204
  23   2.0000      -0.678980       -18.4760
  24   2.0000      -0.669405       -18.2154
  25   2.0000      -0.656003       -17.8507
  26   2.0000      -0.628743       -17.1090
  27   2.0000      -0.597073       -16.2472
  28   2.0000      -0.589529       -16.0419
  29   2.0000      -0.583786       -15.8856
  30   2.0000      -0.566656       -15.4195
  31   2.0000      -0.548380       -14.9222
  32   2.0000      -0.531596       -14.4655
  33   2.0000      -0.520148       -14.1539
  34   2.0000      -0.518995       -14.1226
  35   2.0000      -0.517618       -14.0851
  36   2.0000      -0.488442       -13.2912
  37   2.0000      -0.481382       -13.0991
  38   2.0000      -0.469178       -12.7670
  39   2.0000      -0.461349       -12.5539
  40   2.0000      -0.461081       -12.5466
  41   2.0000      -0.459241       -12.4966
  42   2.0000      -0.452181       -12.3045
  43   2.0000      -0.436210       -11.8699
  44   0.0000       0.028733         0.7819
  45   0.0000       0.029743         0.8093
  46   0.0000       0.035650         0.9701
  47   0.0000       0.036530         0.9940
  48   0.0000       0.040043         1.0896

MULLIKEN ATOMIC CHARGES
-----------------------
   0 C :    0.309220
   1 C :   -1.005421
   2 C :   -0.776250
   3 C :   -0.093389
   4 C :   -0.509840
   5 C :   -0.256980
   6 C :   -0.315603
   7 C :   -0.245505
   8 C :   -0.350901
   9 O :   -0.811289
  10 O :   -0.401934
  11 H :    0.260020
  12 H :    0.260024
  13 H :    0.274749
  14 H :    0.357329
  15 H :    0.368011
  16 H :    0.368005
  17 H :    0.172183
  18 H :    0.172225
  19 H :    0.221722
  20 H :    0.221729
  21 H :    0.195809
  22 H :    0.195790
  23 H :    0.226725
  24 H :    0.226728
  25 H :    0.231602
  26 H :    0.231631
  27 H :    0.236802
  28 H :    0.236807
Sum of atomic charges:   -0.0000000

LOEWDIN ATOMIC CHARGES
----------------------
   0 C :   -0.806966
   1 C :    0.577908
   2 C :    0.357133
   3 C :    0.274582
   4 C :    0.257020
   5 C :    0.268116
   6 C :    0.269733
   7 C :    0.279286
   8 C :    0.279795
   9 O :    0.469194
  10 O :    0.560564
  11 H :   -0.171810
  12 H :   -0.171811
  13 H :   -0.174222
  14 H :   -0.188946
  15 H :   -0.182497
  16 H :   -0.182497
  17 H :   -0.147738
  18 H :   -0.147728
  19 H :   -0.147912
  20 H :   -0.147912
  21 H :   -0.141587
  22 H :   -0.141574
  23 H :   -0.141555
  24 H :   -0.141555
  25 H :   -0.139598
  26 H :   -0.139600
  27 H :   -0.138912
  28 H :   -0.138911

  Mayer bond orders larger than 0.100000
B(  0-C ,  3-C ) :   0.6053 B(  0-C ,  5-C ) :  -0.1081 B(  0-C ,  9-O ) :   1.4293
B(  0-C , 10-O ) :   1.1066 B(  1-C ,  4-C ) :   0.9286 B(  1-C , 11-H ) :   0.9734
B(  1-C , 12-H ) :   0.9734 B(  1-C , 13-H ) :   0.9918 B(  2-C , 10-O ) :   0.8131
B(  2-C , 14-H ) :   0.9050 B(  2-C , 15-H ) :   0.8794 B(  2-C , 16-H ) :   0.8794
B(  3-C ,  5-C ) :   0.9940 B(  3-C , 10-O ) :  -0.1305 B(  3-C , 17-H ) :   0.9667
B(  3-C , 18-H ) :   0.9666 B(  4-C ,  6-C ) :   0.9075 B(  4-C , 19-H ) :   0.9798
B(  4-C , 20-H ) :   0.9797 B(  5-C ,  7-C ) :   0.9386 B(  5-C , 21-H ) :   0.9764
B(  5-C , 22-H ) :   0.9763 B(  6-C ,  8-C ) :   0.9930 B(  6-C , 23-H ) :   0.9638
B(  6-C , 24-H ) :   0.9638 B(  7-C ,  8-C ) :   0.9135 B(  7-C , 25-H ) :   0.9546
B(  7-C , 26-H ) :   0.9546 B(  8-C , 27-H ) :   0.9491 B(  8-C , 28-H ) :   0.9490

MP2 TOTAL ENERGY:     -503.280019488 Eh
FINAL SINGLE POINT ENERGY      -503.280019487590

DIPOLE MOMENT
-------------
                                X             Y             Z
Electronic contribution:    -20.07991       1.24507       0.00016
Nuclear contribution   :     20.05919      -1.93980      -0.00024
                        -----------------------------------------
Total Dipole Moment    :     -0.02072      -0.69473      -0.00008
                        -----------------------------------------
Magnitude (a.u.)       :      0.69504
Magnitude (Debye)      :      1.76665

Rotational constants in cm-1:     0.200807     0.008008     0.007789
Rotational constants in MHz :  6020.030529   240.080918   233.511893

                             ****ORCA TERMINATED NORMALLY****
TOTAL RUN TIME: 0 days 0 hours 23 minutes 7 seconds 141 msec
