                         Program Version 5.0.3 -  RELEASE  -
|  1> !ri-mp2 aug-cc-pvtz aug-cc-pvtz/c tightscf
|  2> %pal nprocs 16 end
|  3>
|  4> * xyz 0 1
|  5> C      0.000000    0.000000        0.000000
|  6> H      0.628317    0.628317        0.628317
|  7> H     -0.628317   -0.628317        0.628317
|  8> H     -0.628317    0.628317       -0.628317
|  9> H      0.628317   -0.628317       -0.628317
| 10> *
| 11>
| 12>                          ****END OF INPUT****

CARTESIAN COORDINATES (ANGSTROEM)
---------------------------------
  C      0.000000    0.000000    0.000000
  H      0.628317    0.628317    0.628317
  H     -0.628317   -0.628317    0.628317
  H     -0.628317    0.628317   -0.628317
  H      0.628317   -0.628317   -0.628317

 Total Charge           Charge          ....    0
 Multiplicity           Mult            ....    1
 Number of Electrons    NEL             ....   10
 Basis Dimension        Dim             ....  138

ORBITAL ENERGIES
----------------

  NO   OCC          E(Eh)            E(eV)
   0   2.0000     -11.206451      -304.9430
   1   2.0000      -0.943066       -25.6621
   2   2.0000      -0.544943       -14.8286
   3   2.0000      -0.544943       -14.8286
   4   2.0000      -0.544943       -14.8286
   5   0.0000       0.030798         0.8381
   6   0.0000       0.050469         1.3733
   7   0.0000       0.050469         1.3733
   8   0.0000       0.050469         1.3733
   9   0.0000       0.123956         3.3730

MULLIKEN ATOMIC CHARGES
-----------------------
   0 C :   -1.185207
   1 H :    0.296302
   2 H :    0.296302
   3 H :    0.296302
   4 H :    0.296302
Sum of atomic charges:    0.0000000

LOEWDIN ATOMIC CHARGES
----------------------
   0 C :    0.861577
   1 H :   -0.215394
   2 H :   -0.215394
   3 H :   -0.215394
   4 H :   -0.215394

  Mayer bond orders larger than 0.100000
B(  0-C ,  1-H ) :   0.9108 B(  0-C ,  2-H ) :   0.9108 B(  0-C ,  3-H ) :   0.9108
B(  0-C ,  4-H ) :   0.9108

MP2 TOTAL ENERGY:      -40.414422314 Eh
FINAL SINGLE POINT ENERGY       -40.414422314266

DIPOLE MOMENT
-------------
                                X             Y             Z
Electronic contribution:     -0.00000      -0.00000       0.00000
Nuclear contribution   :      0.00000       0.00000       0.00000
                        -----------------------------------------
Total Dipole Moment    :     -0.00000      -0.00000       0.00000
                        -----------------------------------------
Magnitude (a.u.)       :      0.00000
Magnitude (Debye)      :      0.00000

Rotational constants in cm-1:     5.295278     5.295278     5.295278
Rotational constants in MHz : 158748.439259 158748.439259 158748.439259

                             ****ORCA TERMINATED NORMALLY****
TOTAL RUN TIME: 0 days 0 hours 0 minutes 27 seconds 900 msec
