                         Program Version 5.0.3 -  RELEASE  -
|  1> !ri-mp2 aug-cc-pvtz aug-cc-pvtz/c tightscf
|  2> %pal nprocs 16 end
|  3>
|  4> * xyz 0 1
|  5> S     -0.076909    1.429668   -0.296124
|  6> S     -2.320711   -0.430992    0.003087
|  7> N      0.165442   -1.221447    0.348448
|  8> N      2.533503   -1.512399   -0.373747
|  9> C     -0.698146   -0.166640    0.047913
| 10> C      1.601582    1.576805    0.424261
| 11> C      1.436783   -1.360875   -0.047466
| 12> H      2.364171    1.136291   -0.207540
| 13> H      1.754503    2.651749    0.498792
| 14> H      1.630211    1.146821    1.421550
| 15> H     -0.320892   -2.072484    0.604643
| 16> *
| 17>
| 18>                          ****END OF INPUT****

CARTESIAN COORDINATES (ANGSTROEM)
---------------------------------
  S     -0.076909    1.429668   -0.296124
  S     -2.320711   -0.430992    0.003087
  N      0.165442   -1.221447    0.348448
  N      2.533503   -1.512399   -0.373747
  C     -0.698146   -0.166640    0.047913
  C      1.601582    1.576805    0.424261
  C      1.436783   -1.360875   -0.047466
  H      2.364171    1.136291   -0.207540
  H      1.754503    2.651749    0.498792
  H      1.630211    1.146821    1.421550
  H     -0.320892   -2.072484    0.604643

 Total Charge           Charge          ....    0
 Multiplicity           Mult            ....    1
 Number of Electrons    NEL             ....   68
 Basis Dimension        Dim             ....  422

ORBITAL ENERGIES
----------------

  NO   OCC          E(Eh)            E(eV)
   0   2.0000     -92.009254     -2503.6991
   1   2.0000     -91.943639     -2501.9136
   2   2.0000     -15.681409      -426.7128
   3   2.0000     -15.596785      -424.4101
   4   2.0000     -11.415117      -310.6211
   5   2.0000     -11.338125      -308.5261
   6   2.0000     -11.286495      -307.1211
   7   2.0000      -9.009287      -245.1552
   8   2.0000      -8.946540      -243.4477
   9   2.0000      -6.690411      -182.0553
  10   2.0000      -6.689022      -182.0175
  11   2.0000      -6.688359      -181.9995
  12   2.0000      -6.627693      -180.3487
  13   2.0000      -6.626242      -180.3092
  14   2.0000      -6.625218      -180.2813
  15   2.0000      -1.352649       -36.8075
  16   2.0000      -1.238179       -33.6926
  17   2.0000      -1.114943       -30.3391
  18   2.0000      -1.040135       -28.3035
  19   2.0000      -0.921402       -25.0726
  20   2.0000      -0.867795       -23.6139
  21   2.0000      -0.811530       -22.0829
  22   2.0000      -0.662305       -18.0222
  23   2.0000      -0.644511       -17.5380
  24   2.0000      -0.624976       -17.0065
  25   2.0000      -0.606448       -16.5023
  26   2.0000      -0.590359       -16.0645
  27   2.0000      -0.538692       -14.6585
  28   2.0000      -0.507088       -13.7986
  29   2.0000      -0.498140       -13.5551
  30   2.0000      -0.477152       -12.9840
  31   2.0000      -0.418168       -11.3789
  32   2.0000      -0.367746       -10.0069
  33   2.0000      -0.352169        -9.5830
  34   0.0000       0.023390         0.6365
  35   0.0000       0.030253         0.8232
  36   0.0000       0.039131         1.0648
  37   0.0000       0.045259         1.2316
  38   0.0000       0.053116         1.4454

MULLIKEN ATOMIC CHARGES
-----------------------
   0 S :    0.010445
   1 S :   -0.368612
   2 N :    0.362945
   3 N :   -0.552728
   4 C :    0.283040
   5 C :   -0.779944
   6 C :   -0.071208
   7 H :    0.344850
   8 H :    0.268979
   9 H :    0.319317
  10 H :    0.182915
Sum of atomic charges:    0.0000000

LOEWDIN ATOMIC CHARGES
----------------------
   0 S :    1.154982
   1 S :    0.839904
   2 N :    0.327754
   3 N :    0.273121
   4 C :   -1.381357
   5 C :    0.259915
   6 C :   -0.381431
   7 H :   -0.274789
   8 H :   -0.249767
   9 H :   -0.234409
  10 H :   -0.333923

  Mayer bond orders larger than 0.100000
B(  0-S ,  4-C ) :   0.9906 B(  0-S ,  5-C ) :   0.9268 B(  1-S ,  4-C ) :   1.7212
B(  2-N ,  3-N ) :  -0.2463 B(  2-N ,  4-C ) :   1.0155 B(  2-N ,  6-C ) :   0.8577
B(  2-N , 10-H ) :   0.9967 B(  3-N ,  6-C ) :   2.6613 B(  5-C ,  7-H ) :   0.8653
B(  5-C ,  8-H ) :   0.9728 B(  5-C ,  9-H ) :   0.8829

MP2 TOTAL ENERGY:    -1021.209737512 Eh
FINAL SINGLE POINT ENERGY     -1021.209737512034

DIPOLE MOMENT
-------------
                                X             Y             Z
Electronic contribution:     -4.95714      -2.38599      -1.56808
Nuclear contribution   :      5.33041       2.71989       2.24733
                        -----------------------------------------
Total Dipole Moment    :      0.37327       0.33390       0.67924
                        -----------------------------------------
Magnitude (a.u.)       :      0.84391
Magnitude (Debye)      :      2.14506

Rotational constants in cm-1:     0.083659     0.048456     0.032002
Rotational constants in MHz :  2508.044266  1452.686550   959.381262

                             ****ORCA TERMINATED NORMALLY****
TOTAL RUN TIME: 0 days 0 hours 3 minutes 3 seconds 605 msec
