                         Program Version 5.0.3 -  RELEASE  -
|  1> !ri-mp2 aug-cc-pvtz aug-cc-pvtz/c tightscf
|  2> %pal nprocs 16 end
|  3> %maxcore 3800
|  4>
|  5> * xyz 0 1
|  6> C      1.212750   -0.008767    0.000000
|  7> C     -1.191217   -0.059999    0.000000
|  8> C      1.253899   -1.395528    0.000000
|  9> C     -1.163891   -1.439772    0.000000
| 10> C      0.000000    0.676566    0.000000
| 11> C      0.059380   -2.119086    0.000000
| 12> C      0.029615    2.157734    0.000000
| 13> C      1.187057   -4.229322    0.000000
| 14> C     -1.258011    4.136065    0.000000
| 15> O      1.037630    2.827599    0.000000
| 16> O     -0.016913   -3.473560    0.000000
| 17> O     -1.208484    2.702078    0.000000
| 18> H      2.130570    0.561741    0.000000
| 19> H     -2.138564    0.457542    0.000000
| 20> H      2.208636   -1.897967    0.000000
| 21> H     -2.077198   -2.017737    0.000000
| 22> H      1.783547   -4.025408    0.892035
| 23> H      1.783547   -4.025408   -0.892035
| 24> H      0.883035   -5.272089    0.000000
| 25> H     -2.313254    4.391701    0.000000
| 26> H     -0.767834    4.535668   -0.886018
| 27> H     -0.767834    4.535668    0.886018
| 28> *
| 29>
| 30>                          ****END OF INPUT****

CARTESIAN COORDINATES (ANGSTROEM)
---------------------------------
  C      1.212750   -0.008767    0.000000
  C     -1.191217   -0.059999    0.000000
  C      1.253899   -1.395528    0.000000
  C     -1.163891   -1.439772    0.000000
  C      0.000000    0.676566    0.000000
  C      0.059380   -2.119086    0.000000
  C      0.029615    2.157734    0.000000
  C      1.187057   -4.229322    0.000000
  C     -1.258011    4.136065    0.000000
  O      1.037630    2.827599    0.000000
  O     -0.016913   -3.473560    0.000000
  O     -1.208484    2.702078    0.000000
  H      2.130570    0.561741    0.000000
  H     -2.138564    0.457542    0.000000
  H      2.208636   -1.897967    0.000000
  H     -2.077198   -2.017737    0.000000
  H      1.783547   -4.025408    0.892035
  H      1.783547   -4.025408   -0.892035
  H      0.883035   -5.272089    0.000000
  H     -2.313254    4.391701    0.000000
  H     -0.767834    4.535668   -0.886018
  H     -0.767834    4.535668    0.886018

 Total Charge           Charge          ....    0
 Multiplicity           Mult            ....    1
 Number of Electrons    NEL             ....   88
 Basis Dimension        Dim             ....  782

ORBITAL ENERGIES
----------------

  NO   OCC          E(Eh)            E(eV)
   0   2.0000     -20.599142      -560.5311
   1   2.0000     -20.598453      -560.5124
   2   2.0000     -20.535376      -558.7960
   3   2.0000     -11.376981      -309.5834
   4   2.0000     -11.318389      -307.9890
   5   2.0000     -11.293531      -307.3126
   6   2.0000     -11.281849      -306.9947
   7   2.0000     -11.252934      -306.2079
   8   2.0000     -11.252704      -306.2016
   9   2.0000     -11.240733      -305.8759
  10   2.0000     -11.238224      -305.8076
  11   2.0000     -11.233856      -305.6887
  12   2.0000      -1.454097       -39.5680
  13   2.0000      -1.423740       -38.7419
  14   2.0000      -1.351642       -36.7801
  15   2.0000      -1.164892       -31.6983
  16   2.0000      -1.049150       -28.5488
  17   2.0000      -1.033387       -28.1199
  18   2.0000      -0.977898       -26.6099
  19   2.0000      -0.950232       -25.8571
  20   2.0000      -0.849886       -23.1266
  21   2.0000      -0.842643       -22.9295
  22   2.0000      -0.775479       -21.1019
  23   2.0000      -0.740400       -20.1473
  24   2.0000      -0.711396       -19.3581
  25   2.0000      -0.686628       -18.6841
  26   2.0000      -0.667655       -18.1678
  27   2.0000      -0.665508       -18.1094
  28   2.0000      -0.656776       -17.8718
  29   2.0000      -0.636361       -17.3163
  30   2.0000      -0.607905       -16.5419
  31   2.0000      -0.600751       -16.3473
  32   2.0000      -0.584276       -15.8989
  33   2.0000      -0.557986       -15.1836
  34   2.0000      -0.555570       -15.1178
  35   2.0000      -0.533330       -14.5126
  36   2.0000      -0.532317       -14.4851
  37   2.0000      -0.523578       -14.2473
  38   2.0000      -0.490548       -13.3485
  39   2.0000      -0.476554       -12.9677
  40   2.0000      -0.459026       -12.4907
  41   2.0000      -0.447770       -12.1844
  42   2.0000      -0.352551        -9.5934
  43   2.0000      -0.325773        -8.8647
  44   0.0000       0.025398         0.6911
  45   0.0000       0.031168         0.8481
  46   0.0000       0.035439         0.9643
  47   0.0000       0.041314         1.1242
  48   0.0000       0.043916         1.1950

MULLIKEN ATOMIC CHARGES
-----------------------
   0 C :   -1.191730
   1 C :   -0.191017
   2 C :   -0.345032
   3 C :   -1.117506
   4 C :    1.868833
   5 C :    1.192919
   6 C :    0.433177
   7 C :   -0.894522
   8 C :   -0.831160
   9 O :   -0.986147
  10 O :   -0.813385
  11 O :   -0.404200
  12 H :    0.003819
  13 H :    0.160125
  14 H :    0.383332
  15 H :    0.541280
  16 H :    0.364976
  17 H :    0.364976
  18 H :    0.376457
  19 H :    0.347590
  20 H :    0.368608
  21 H :    0.368608
Sum of atomic charges:    0.0000000

LOEWDIN ATOMIC CHARGES
----------------------
   0 C :    0.207909
   1 C :    0.205999
   2 C :    0.225169
   3 C :    0.225348
   4 C :   -0.135236
   5 C :   -0.376394
   6 C :   -0.832915
   7 C :    0.352146
   8 C :    0.358744
   9 O :    0.461239
  10 O :    0.579132
  11 O :    0.560232
  12 H :   -0.178587
  13 H :   -0.187160
  14 H :   -0.206604
  15 H :   -0.182392
  16 H :   -0.173232
  17 H :   -0.173232
  18 H :   -0.179728
  19 H :   -0.187507
  20 H :   -0.181464
  21 H :   -0.181464

  Mayer bond orders larger than 0.100000
B(  0-C ,  1-C ) :  -0.7145 B(  0-C ,  2-C ) :   1.0971 B(  0-C ,  3-C ) :   0.2235
B(  0-C ,  5-C ) :  -0.1685 B(  0-C ,  6-C ) :   0.4599 B(  0-C ,  9-O ) :  -0.1162
B(  0-C , 11-O ) :   0.1359 B(  0-C , 12-H ) :   1.5695 B(  0-C , 13-H ) :   0.2560
B(  0-C , 14-H ) :  -0.2059 B(  1-C ,  2-C ) :  -0.1294 B(  1-C ,  3-C ) :   1.1411
B(  1-C ,  4-C ) :   0.5362 B(  1-C ,  5-C ) :  -0.1970 B(  1-C ,  6-C ) :   0.3302
B(  1-C , 11-O ) :  -0.2018 B(  1-C , 13-H ) :   1.3721 B(  2-C ,  3-C ) :   0.3179
B(  2-C ,  4-C ) :   0.1810 B(  2-C ,  5-C ) :   1.2204 B(  2-C , 10-O ) :  -0.3336
B(  2-C , 12-H ) :  -0.2049 B(  2-C , 14-H ) :   0.8528 B(  3-C ,  5-C ) :   0.7912
B(  3-C , 10-O ) :   0.2088 B(  3-C , 11-O ) :  -0.1092 B(  3-C , 15-H ) :   0.5645
B(  4-C ,  5-C ) :   0.1523 B(  4-C , 12-H ) :  -0.3196 B(  4-C , 13-H ) :  -0.3465
B(  5-C , 10-O ) :   0.4345 B(  5-C , 14-H ) :   0.1378 B(  6-C ,  9-O ) :   1.1954
B(  6-C , 11-O ) :   1.1158 B(  6-C , 14-H ) :   0.1991 B(  6-C , 15-H ) :   0.1552
B(  7-C , 10-O ) :   1.0078 B(  7-C , 16-H ) :   0.8786 B(  7-C , 17-H ) :   0.8786
B(  7-C , 18-H ) :   0.9140 B(  8-C , 11-O ) :   0.8679 B(  8-C , 19-H ) :   0.9043
B(  8-C , 20-H ) :   0.8784 B(  8-C , 21-H ) :   0.8784 B(  9-O , 12-H ) :   0.1883
B( 12-H , 13-H ) :   0.1804

MP2 TOTAL ENERGY:     -573.611271976 Eh
FINAL SINGLE POINT ENERGY      -573.611271976245

DIPOLE MOMENT
-------------
                                X             Y             Z
Electronic contribution:     -0.88777       1.91586       0.00000
Nuclear contribution   :      0.71776      -2.70903       0.00000
                        -----------------------------------------
Total Dipole Moment    :     -0.17002      -0.79317       0.00000
                        -----------------------------------------
Magnitude (a.u.)       :      0.81119
Magnitude (Debye)      :      2.06187

Rotational constants in cm-1:     0.108844     0.014265     0.012672
Rotational constants in MHz :  3263.051885   427.649565   379.908430

                             ****ORCA TERMINATED NORMALLY****
TOTAL RUN TIME: 0 days 0 hours 18 minutes 26 seconds 15 msec
