                         Program Version 5.0.3 -  RELEASE  -
|  1> !ri-mp2 aug-cc-pvtz aug-cc-pvtz/c tightscf
|  2> %pal nprocs 16 end
|  3> %maxcore 3800
|  4>
|  5> * xyz 0 1
|  6> C      1.195072    0.696188   -0.000003
|  7> C     -1.200452    0.686869   -0.000003
|  8> C      0.005380   -1.383057   -0.000003
|  9> C      0.000000    1.404022   -0.000002
| 10> C      1.215919   -0.702011   -0.000002
| 11> C     -1.215919   -0.702011   -0.000002
| 12> C     -0.014264    2.911190    0.000003
| 13> C      2.528296   -1.443242    0.000003
| 14> C     -2.514032   -1.467948    0.000003
| 15> H      2.133281    1.239569   -0.000006
| 16> H     -2.140139    1.227691   -0.000006
| 17> H      0.006857   -2.467260   -0.000006
| 18> H     -0.532837    3.302058   -0.878113
| 19> H     -0.532703    3.302052    0.878201
| 20> H      0.996060    3.318393   -0.000072
| 21> H      2.375782   -2.521810   -0.000072
| 22> H      3.126084   -1.189578   -0.878113
| 23> H      3.126012   -1.189692    0.878201
| 24> H     -2.593309   -2.112360    0.878201
| 25> H     -3.371843   -0.796583   -0.000072
| 26> H     -2.593247   -2.112479   -0.878113
| 27> *
| 28>
| 29>                          ****END OF INPUT****

CARTESIAN COORDINATES (ANGSTROEM)
---------------------------------
  C      1.195072    0.696188   -0.000003
  C     -1.200452    0.686869   -0.000003
  C      0.005380   -1.383057   -0.000003
  C      0.000000    1.404022   -0.000002
  C      1.215919   -0.702011   -0.000002
  C     -1.215919   -0.702011   -0.000002
  C     -0.014264    2.911190    0.000003
  C      2.528296   -1.443242    0.000003
  C     -2.514032   -1.467948    0.000003
  H      2.133281    1.239569   -0.000006
  H     -2.140139    1.227691   -0.000006
  H      0.006857   -2.467260   -0.000006
  H     -0.532837    3.302058   -0.878113
  H     -0.532703    3.302052    0.878201
  H      0.996060    3.318393   -0.000072
  H      2.375782   -2.521810   -0.000072
  H      3.126084   -1.189578   -0.878113
  H      3.126012   -1.189692    0.878201
  H     -2.593309   -2.112360    0.878201
  H     -3.371843   -0.796583   -0.000072
  H     -2.593247   -2.112479   -0.878113

 Total Charge           Charge          ....    0
 Multiplicity           Mult            ....    1
 Number of Electrons    NEL             ....   66
 Basis Dimension        Dim             ....  690

ORBITAL ENERGIES
----------------

  NO   OCC          E(Eh)            E(eV)
   0   2.0000     -11.235824      -305.7423
   1   2.0000     -11.235788      -305.7413
   2   2.0000     -11.235786      -305.7413
   3   2.0000     -11.219545      -305.2993
   4   2.0000     -11.219544      -305.2993
   5   2.0000     -11.219544      -305.2993
   6   2.0000     -11.214856      -305.1718
   7   2.0000     -11.214855      -305.1717
   8   2.0000     -11.214787      -305.1699
   9   2.0000      -1.154694       -31.4208
  10   2.0000      -1.052138       -28.6301
  11   2.0000      -1.052138       -28.6301
  12   2.0000      -0.948079       -25.7985
  13   2.0000      -0.922714       -25.1083
  14   2.0000      -0.922714       -25.1083
  15   2.0000      -0.780313       -21.2334
  16   2.0000      -0.780312       -21.2334
  17   2.0000      -0.672220       -18.2920
  18   2.0000      -0.650545       -17.7022
  19   2.0000      -0.593425       -16.1479
  20   2.0000      -0.582180       -15.8419
  21   2.0000      -0.565063       -15.3761
  22   2.0000      -0.565062       -15.3761
  23   2.0000      -0.557028       -15.1575
  24   2.0000      -0.557028       -15.1575
  25   2.0000      -0.547029       -14.8854
  26   2.0000      -0.547029       -14.8854
  27   2.0000      -0.512257       -13.9392
  28   2.0000      -0.473021       -12.8715
  29   2.0000      -0.473020       -12.8715
  30   2.0000      -0.463326       -12.6077
  31   2.0000      -0.315615        -8.5883
  32   2.0000      -0.315615        -8.5883
  33   0.0000       0.029194         0.7944
  34   0.0000       0.032056         0.8723
  35   0.0000       0.032056         0.8723
  36   0.0000       0.042844         1.1658
  37   0.0000       0.045667         1.2427

MULLIKEN ATOMIC CHARGES
-----------------------
   0 C :   -0.980593
   1 C :   -0.980606
   2 C :   -0.980579
   3 C :    1.148473
   4 C :    1.148513
   5 C :    1.148493
   6 C :   -0.894656
   7 C :   -0.894640
   8 C :   -0.894653
   9 H :   -0.061659
  10 H :   -0.061642
  11 H :   -0.061652
  12 H :    0.266394
  13 H :    0.266414
  14 H :    0.255594
  15 H :    0.255593
  16 H :    0.266394
  17 H :    0.266414
  18 H :    0.266415
  19 H :    0.255589
  20 H :    0.266395
Sum of atomic charges:   -0.0000000

LOEWDIN ATOMIC CHARGES
----------------------
   0 C :    0.229392
   1 C :    0.229392
   2 C :    0.229394
   3 C :   -0.118347
   4 C :   -0.118345
   5 C :   -0.118345
   6 C :    0.581106
   7 C :    0.581106
   8 C :    0.581106
   9 H :   -0.177203
  10 H :   -0.177202
  11 H :   -0.177203
  12 H :   -0.166965
  13 H :   -0.166963
  14 H :   -0.181022
  15 H :   -0.181022
  16 H :   -0.166965
  17 H :   -0.166963
  18 H :   -0.166963
  19 H :   -0.181022
  20 H :   -0.166965

  Mayer bond orders larger than 0.100000
B(  0-C ,  3-C ) :   0.5662 B(  0-C ,  4-C ) :   0.3658 B(  0-C ,  5-C ) :  -0.1621
B(  0-C ,  7-C ) :   0.1372 B(  0-C ,  9-H ) :   1.6771 B(  0-C , 10-H ) :   0.1717
B(  0-C , 11-H ) :   0.1886 B(  1-C ,  3-C ) :   0.3658 B(  1-C ,  4-C ) :  -0.1622
B(  1-C ,  5-C ) :   0.5662 B(  1-C ,  6-C ) :   0.1372 B(  1-C ,  9-H ) :   0.1886
B(  1-C , 10-H ) :   1.6770 B(  1-C , 11-H ) :   0.1718 B(  2-C ,  3-C ) :  -0.1622
B(  2-C ,  4-C ) :   0.5662 B(  2-C ,  5-C ) :   0.3658 B(  2-C ,  8-C ) :   0.1371
B(  2-C ,  9-H ) :   0.1717 B(  2-C , 10-H ) :   0.1886 B(  2-C , 11-H ) :   1.6770
B(  3-C ,  4-C ) :   0.4984 B(  3-C ,  5-C ) :   0.4983 B(  3-C ,  6-C ) :   0.4444
B(  3-C ,  9-H ) :  -0.2043 B(  3-C , 10-H ) :  -0.2593 B(  3-C , 11-H ) :  -0.1153
B(  3-C , 12-H ) :  -0.1072 B(  3-C , 13-H ) :  -0.1072 B(  4-C ,  5-C ) :   0.4984
B(  4-C ,  7-C ) :   0.4444 B(  4-C ,  9-H ) :  -0.2593 B(  4-C , 10-H ) :  -0.1153
B(  4-C , 11-H ) :  -0.2043 B(  4-C , 16-H ) :  -0.1072 B(  4-C , 17-H ) :  -0.1072
B(  5-C ,  8-C ) :   0.4444 B(  5-C ,  9-H ) :  -0.1152 B(  5-C , 10-H ) :  -0.2043
B(  5-C , 11-H ) :  -0.2593 B(  5-C , 18-H ) :  -0.1072 B(  5-C , 20-H ) :  -0.1072
B(  6-C , 12-H ) :   1.0361 B(  6-C , 13-H ) :   1.0361 B(  6-C , 14-H ) :   1.0053
B(  7-C , 15-H ) :   1.0053 B(  7-C , 16-H ) :   1.0361 B(  7-C , 17-H ) :   1.0361
B(  8-C , 18-H ) :   1.0361 B(  8-C , 19-H ) :   1.0053 B(  8-C , 20-H ) :   1.0361

MP2 TOTAL ENERGY:     -349.433245257 Eh
FINAL SINGLE POINT ENERGY      -349.433245256770

DIPOLE MOMENT
-------------
                                X             Y             Z
Electronic contribution:      0.00000      -0.00001      -0.00002
Nuclear contribution   :     -0.00000       0.00000       0.00003
                        -----------------------------------------
Total Dipole Moment    :      0.00000      -0.00001       0.00001
                        -----------------------------------------
Magnitude (a.u.)       :      0.00001
Magnitude (Debye)      :      0.00003

Rotational constants in cm-1:     0.058428     0.058428     0.029694
Rotational constants in MHz :  1751.618159  1751.617658   890.199095

                             ****ORCA TERMINATED NORMALLY****
TOTAL RUN TIME: 0 days 0 hours 11 minutes 25 seconds 555 msec
