                         Program Version 5.0.3 -  RELEASE  -
|  1> !ri-mp2 aug-cc-pvtz aug-cc-pvtz/c tightscf
|  2> %pal nprocs 16 end
|  3>
|  4> * xyz 0 1
|  5> C      0.233750   -0.388334    1.091648
|  6> C      0.233750   -0.388334   -1.091648
|  7> C     -0.103047    0.613325    0.000000
|  8> C      0.233750   -1.499323    0.000000
|  9> C     -0.627950    1.827559    0.000000
| 10> H     -0.477778   -0.485850    1.911239
| 11> H     -0.477778   -0.485850   -1.911239
| 12> H      1.227026   -0.224070    1.515020
| 13> H      1.227026   -0.224070   -1.515020
| 14> H     -0.853925    2.345913    0.923515
| 15> H     -0.853925    2.345913   -0.923515
| 16> H      1.077726   -2.185964    0.000000
| 17> H     -0.689886   -2.075382    0.000000
| 18> *
| 19>
| 20>                          ****END OF INPUT****

CARTESIAN COORDINATES (ANGSTROEM)
---------------------------------
  C      0.233750   -0.388334    1.091648
  C      0.233750   -0.388334   -1.091648
  C     -0.103047    0.613325    0.000000
  C      0.233750   -1.499323    0.000000
  C     -0.627950    1.827559    0.000000
  H     -0.477778   -0.485850    1.911239
  H     -0.477778   -0.485850   -1.911239
  H      1.227026   -0.224070    1.515020
  H      1.227026   -0.224070   -1.515020
  H     -0.853925    2.345913    0.923515
  H     -0.853925    2.345913   -0.923515
  H      1.077726   -2.185964    0.000000
  H     -0.689886   -2.075382    0.000000

 Total Charge           Charge          ....    0
 Multiplicity           Mult            ....    1
 Number of Electrons    NEL             ....   38
 Basis Dimension        Dim             ....  414

ORBITAL ENERGIES
----------------

  NO   OCC          E(Eh)            E(eV)
   0   2.0000     -11.234650      -305.7104
   1   2.0000     -11.224605      -305.4370
   2   2.0000     -11.224331      -305.4296
   3   2.0000     -11.223832      -305.4160
   4   2.0000     -11.208392      -304.9958
   5   2.0000      -1.136988       -30.9390
   6   2.0000      -0.986805       -26.8523
   7   2.0000      -0.907532       -24.6952
   8   2.0000      -0.827649       -22.5215
   9   2.0000      -0.706995       -19.2383
  10   2.0000      -0.644499       -17.5377
  11   2.0000      -0.634967       -17.2783
  12   2.0000      -0.598659       -16.2903
  13   2.0000      -0.543153       -14.7799
  14   2.0000      -0.498974       -13.5778
  15   2.0000      -0.473442       -12.8830
  16   2.0000      -0.468317       -12.7436
  17   2.0000      -0.442200       -12.0329
  18   2.0000      -0.347761        -9.4630
  19   0.0000       0.031656         0.8614
  20   0.0000       0.036320         0.9883
  21   0.0000       0.039282         1.0689
  22   0.0000       0.040571         1.1040
  23   0.0000       0.054813         1.4915

MULLIKEN ATOMIC CHARGES
-----------------------
   0 C :   -0.686500
   1 C :   -0.686500
   2 C :    0.742151
   3 C :   -0.584118
   4 C :   -1.104319
   5 H :    0.306924
   6 H :    0.306924
   7 H :    0.245864
   8 H :    0.245864
   9 H :    0.307005
  10 H :    0.307005
  11 H :    0.373516
  12 H :    0.226183
Sum of atomic charges:    0.0000000

LOEWDIN ATOMIC CHARGES
----------------------
   0 C :    0.315439
   1 C :    0.315439
   2 C :   -0.113419
   3 C :    0.323908
   4 C :    0.540525
   5 H :   -0.151536
   6 H :   -0.151536
   7 H :   -0.151675
   8 H :   -0.151675
   9 H :   -0.230198
  10 H :   -0.230198
  11 H :   -0.157236
  12 H :   -0.157839

  Mayer bond orders larger than 0.100000
B(  0-C ,  2-C ) :   0.9230 B(  0-C ,  3-C ) :   1.1485 B(  0-C ,  4-C ) :  -0.1541
B(  0-C ,  5-H ) :   0.9057 B(  0-C ,  7-H ) :   0.9569 B(  1-C ,  2-C ) :   0.9230
B(  1-C ,  3-C ) :   1.1485 B(  1-C ,  4-C ) :  -0.1541 B(  1-C ,  6-H ) :   0.9057
B(  1-C ,  8-H ) :   0.9569 B(  2-C ,  3-C ) :  -0.2015 B(  2-C ,  4-C ) :   1.0814
B(  3-C , 11-H ) :   0.8244 B(  3-C , 12-H ) :   0.9910 B(  4-C ,  9-H ) :   1.0144
B(  4-C , 10-H ) :   1.0144

MP2 TOTAL ENERGY:     -194.854400366 Eh
FINAL SINGLE POINT ENERGY      -194.854400366356

DIPOLE MOMENT
-------------
                                X             Y             Z
Electronic contribution:     -0.10607       0.80012       0.00000
Nuclear contribution   :      0.18699      -1.03653       0.00000
                        -----------------------------------------
Total Dipole Moment    :      0.08092      -0.23641       0.00000
                        -----------------------------------------
Magnitude (a.u.)       :      0.24987
Magnitude (Debye)      :      0.63513

Rotational constants in cm-1:     0.349076     0.153921     0.115539
Rotational constants in MHz : 10465.029066  4614.429823  3463.762590

                             ****ORCA TERMINATED NORMALLY****
TOTAL RUN TIME: 0 days 0 hours 2 minutes 14 seconds 162 msec
