                         Program Version 5.0.3 -  RELEASE  -
|  1> !ri-mp2 aug-cc-pvtz aug-cc-pvtz/c tightscf
|  2> %pal nprocs 16 end
|  3>
|  4> * xyz 0 1
|  5> C      2.288662    0.176351    0.057230
|  6> C      1.130294   -0.527360   -0.632556
|  7> C     -0.786688    1.583975   -0.306161
|  8> S     -0.501180   -0.154526    0.071483
|  9> O     -0.417269   -0.287283    1.523670
| 10> O     -1.483277   -0.935076   -0.675425
| 11> H      2.280785   -0.024085    1.126808
| 12> H      3.231448   -0.185743   -0.353456
| 13> H      2.258771    1.255472   -0.093143
| 14> H      1.185809   -1.610963   -0.523095
| 15> H      1.058079   -0.300708   -1.695857
| 16> H     -0.772893    1.722266   -1.384003
| 17> H     -1.774988    1.803771    0.091152
| 18> H     -0.037380    2.193478    0.190821
| 19> *
| 20>
| 21>                          ****END OF INPUT****

CARTESIAN COORDINATES (ANGSTROEM)
---------------------------------
  C      2.288662    0.176351    0.057230
  C      1.130294   -0.527360   -0.632556
  C     -0.786688    1.583975   -0.306161
  S     -0.501180   -0.154526    0.071483
  O     -0.417269   -0.287283    1.523670
  O     -1.483277   -0.935076   -0.675425
  H      2.280785   -0.024085    1.126808
  H      3.231448   -0.185743   -0.353456
  H      2.258771    1.255472   -0.093143
  H      1.185809   -1.610963   -0.523095
  H      1.058079   -0.300708   -1.695857
  H     -0.772893    1.722266   -1.384003
  H     -1.774988    1.803771    0.091152
  H     -0.037380    2.193478    0.190821

 Total Charge           Charge          ....    0
 Multiplicity           Mult            ....    1
 Number of Electrons    NEL             ....   58
 Basis Dimension        Dim             ....  464

ORBITAL ENERGIES
----------------

  NO   OCC          E(Eh)            E(eV)
   0   2.0000     -92.176455     -2508.2488
   1   2.0000     -20.539855      -558.9179
   2   2.0000     -20.539371      -558.9047
   3   2.0000     -11.282745      -307.0191
   4   2.0000     -11.277473      -306.8756
   5   2.0000     -11.248906      -306.0983
   6   2.0000      -9.146369      -248.8854
   7   2.0000      -6.830917      -185.8787
   8   2.0000      -6.830407      -185.8648
   9   2.0000      -6.830362      -185.8636
  10   2.0000      -1.438404       -39.1410
  11   2.0000      -1.327113       -36.1126
  12   2.0000      -1.091347       -29.6971
  13   2.0000      -1.030796       -28.0494
  14   2.0000      -0.918809       -25.0021
  15   2.0000      -0.802240       -21.8301
  16   2.0000      -0.686467       -18.6797
  17   2.0000      -0.677732       -18.4420
  18   2.0000      -0.652749       -17.7622
  19   2.0000      -0.636860       -17.3298
  20   2.0000      -0.603359       -16.4182
  21   2.0000      -0.596646       -16.2356
  22   2.0000      -0.581378       -15.8201
  23   2.0000      -0.551905       -15.0181
  24   2.0000      -0.533247       -14.5104
  25   2.0000      -0.490008       -13.3338
  26   2.0000      -0.487355       -13.2616
  27   2.0000      -0.463829       -12.6214
  28   2.0000      -0.430348       -11.7104
  29   0.0000       0.021237         0.5779
  30   0.0000       0.031850         0.8667
  31   0.0000       0.036795         1.0012
  32   0.0000       0.042544         1.1577
  33   0.0000       0.052958         1.4411

MULLIKEN ATOMIC CHARGES
-----------------------
   0 C :   -0.891172
   1 C :   -0.585143
   2 C :   -1.034388
   3 S :    2.229759
   4 O :   -1.049615
   5 O :   -1.044808
   6 H :    0.299033
   7 H :    0.292352
   8 H :    0.299145
   9 H :    0.284073
  10 H :    0.279191
  11 H :    0.299351
  12 H :    0.308192
  13 H :    0.314031
Sum of atomic charges:   -0.0000000

LOEWDIN ATOMIC CHARGES
----------------------
   0 C :    0.549435
   1 C :    0.184979
   2 C :    0.507930
   3 S :    0.255928
   4 O :    0.021548
   5 O :    0.017380
   6 H :   -0.179915
   7 H :   -0.169505
   8 H :   -0.181868
   9 H :   -0.190010
  10 H :   -0.189572
  11 H :   -0.205705
  12 H :   -0.207013
  13 H :   -0.213611

  Mayer bond orders larger than 0.100000
B(  0-C ,  1-C ) :   0.9021 B(  0-C ,  6-H ) :   0.9291 B(  0-C ,  7-H ) :   0.9546
B(  0-C ,  8-H ) :   0.9200 B(  1-C ,  3-S ) :   0.9370 B(  1-C ,  9-H ) :   0.9276
B(  1-C , 10-H ) :   0.9018 B(  2-C ,  3-S ) :   0.8688 B(  2-C , 11-H ) :   0.8960
B(  2-C , 12-H ) :   0.9286 B(  2-C , 13-H ) :   0.8876 B(  3-S ,  4-O ) :   1.1792
B(  3-S ,  5-O ) :   1.1606

MP2 TOTAL ENERGY:     -666.818756200 Eh
FINAL SINGLE POINT ENERGY      -666.818756199616

DIPOLE MOMENT
-------------
                                X             Y             Z
Electronic contribution:     -6.06148      -3.58270       1.70499
Nuclear contribution   :      7.46815       4.87358      -2.64841
                        -----------------------------------------
Total Dipole Moment    :      1.40667       1.29088      -0.94342
                        -----------------------------------------
Magnitude (a.u.)       :      2.12959
Magnitude (Debye)      :      5.41299

Rotational constants in cm-1:     0.138131     0.078156     0.075366
Rotational constants in MHz :  4141.072994  2343.058360  2259.428298

                             ****ORCA TERMINATED NORMALLY****
TOTAL RUN TIME: 0 days 0 hours 3 minutes 13 seconds 50 msec
