                         Program Version 5.0.3 -  RELEASE  -
|  1> !ri-mp2 aug-cc-pvtz aug-cc-pvtz/c tightscf
|  2> %pal nprocs 16 end
|  3>
|  4> * xyz 0 1
|  5> S     1.487854   -0.652185    0.000095
|  6> S    -2.683866    0.052343   -0.000262
|  7> N     0.082020    0.281815    0.000072
|  8> C     2.714170    0.680388    0.000283
|  9> C    -1.107551    0.131432   -0.000082
| 10> H     3.680142    0.176343    0.000324
| 11> H     2.621166    1.288815   -0.895396
| 12> H     2.621025    1.288688    0.896033
| 13> *
| 14>
| 15>                          ****END OF INPUT****

CARTESIAN COORDINATES (ANGSTROEM)
---------------------------------
  S      1.487854   -0.652185    0.000095
  S     -2.683866    0.052343   -0.000262
  N      0.082020    0.281815    0.000072
  C      2.714170    0.680388    0.000283
  C     -1.107551    0.131432   -0.000082
  H      3.680142    0.176343    0.000324
  H      2.621166    1.288815   -0.895396
  H      2.621025    1.288688    0.896033

 Total Charge           Charge          ....    0
 Multiplicity           Mult            ....    1
 Number of Electrons    NEL             ....   54
 Basis Dimension        Dim             ....  307

ORBITAL ENERGIES
----------------

  NO   OCC          E(Eh)            E(eV)
   0   2.0000     -92.025787     -2504.1490
   1   2.0000     -91.957455     -2502.2896
   2   2.0000     -15.622923      -425.1213
   3   2.0000     -11.380404      -309.6765
   4   2.0000     -11.279009      -306.9174
   5   2.0000      -9.021222      -245.4799
   6   2.0000      -8.960603      -243.8304
   7   2.0000      -6.702689      -182.3894
   8   2.0000      -6.700844      -182.3392
   9   2.0000      -6.699719      -182.3086
  10   2.0000      -6.642171      -180.7427
  11   2.0000      -6.639778      -180.6775
  12   2.0000      -6.639395      -180.6671
  13   2.0000      -1.297268       -35.3005
  14   2.0000      -1.084078       -29.4993
  15   2.0000      -1.027618       -27.9629
  16   2.0000      -0.913090       -24.8465
  17   2.0000      -0.700695       -19.0669
  18   2.0000      -0.625353       -17.0167
  19   2.0000      -0.609488       -16.5850
  20   2.0000      -0.606486       -16.5033
  21   2.0000      -0.579984       -15.7822
  22   2.0000      -0.579699       -15.7744
  23   2.0000      -0.489583       -13.3222
  24   2.0000      -0.417331       -11.3562
  25   2.0000      -0.373781       -10.1711
  26   2.0000      -0.332286        -9.0419
  27   0.0000       0.024274         0.6605
  28   0.0000       0.041375         1.1259
  29   0.0000       0.043491         1.1834
  30   0.0000       0.052018         1.4155
  31   0.0000       0.062434         1.6989

MULLIKEN ATOMIC CHARGES
-----------------------
   0 S :    0.154902
   1 S :   -0.223806
   2 N :    0.119192
   3 C :   -0.713062
   4 C :   -0.252439
   5 H :    0.338477
   6 H :    0.288367
   7 H :    0.288370
Sum of atomic charges:    0.0000000

LOEWDIN ATOMIC CHARGES
----------------------
   0 S :    1.007427
   1 S :    0.810062
   2 N :   -0.271788
   3 C :    0.233005
   4 C :   -1.030608
   5 H :   -0.258147
   6 H :   -0.244975
   7 H :   -0.244976

  Mayer bond orders larger than 0.100000
B(  0-S ,  2-N ) :   0.7916 B(  0-S ,  3-C ) :   0.9533 B(  1-S ,  4-C ) :   1.8063
B(  2-N ,  4-C ) :   1.9451 B(  3-C ,  5-H ) :   0.8847 B(  3-C ,  6-H ) :   0.9137
B(  3-C ,  7-H ) :   0.9137

MP2 TOTAL ENERGY:     -927.922530575 Eh
FINAL SINGLE POINT ENERGY      -927.922530575049

DIPOLE MOMENT
-------------
                                X             Y             Z
Electronic contribution:     -7.28610      -2.44263      -0.00081
Nuclear contribution   :      8.63965       2.67491       0.00093
                        -----------------------------------------
Total Dipole Moment    :      1.35356       0.23228       0.00013
                        -----------------------------------------
Magnitude (a.u.)       :      1.37334
Magnitude (Debye)      :      3.49076

Rotational constants in cm-1:     0.664029     0.038867     0.036979
Rotational constants in MHz : 19907.094246  1165.216423  1108.595706

                             ****ORCA TERMINATED NORMALLY****
TOTAL RUN TIME: 0 days 0 hours 1 minutes 9 seconds 368 msec
