                         Program Version 5.0.3 -  RELEASE  -
|  1> !ri-mp2 aug-cc-pvtz aug-cc-pvtz/c tightscf
|  2> %pal nprocs 16 end
|  3>
|  4> * xyz 0 1
|  5> C     -1.527992   -0.778219   -0.025802
|  6> C     -1.527998    0.778215   -0.025762
|  7> C     -0.054746   -1.195602    0.153522
|  8> C     -0.054742    1.195610    0.153491
|  9> C      0.759977   -0.000005   -0.361654
| 10> C      2.225909   -0.000001    0.053568
| 11> H     -2.163452   -1.189245    0.758393
| 12> H     -1.917173   -1.155891   -0.972214
| 13> H     -1.917255    1.155933   -0.972124
| 14> H     -2.163406    1.189187    0.758504
| 15> H      0.170715   -1.346139    1.213831
| 16> H      0.187200   -2.127106   -0.360157
| 17> H      0.187182    2.127090   -0.360241
| 18> H      0.170755    1.346201    1.213784
| 19> H      0.706863   -0.000021   -1.457058
| 20> H      2.748064    0.880936   -0.324665
| 21> H      2.320004    0.000014    1.142416
| 22> H      2.748063   -0.880949   -0.324642
| 23> *
| 24>
| 25>                          ****END OF INPUT****

CARTESIAN COORDINATES (ANGSTROEM)
---------------------------------
  C     -1.527992   -0.778219   -0.025802
  C     -1.527998    0.778215   -0.025762
  C     -0.054746   -1.195602    0.153522
  C     -0.054742    1.195610    0.153491
  C      0.759977   -0.000005   -0.361654
  C      2.225909   -0.000001    0.053568
  H     -2.163452   -1.189245    0.758393
  H     -1.917173   -1.155891   -0.972214
  H     -1.917255    1.155933   -0.972124
  H     -2.163406    1.189187    0.758504
  H      0.170715   -1.346139    1.213831
  H      0.187200   -2.127106   -0.360157
  H      0.187182    2.127090   -0.360241
  H      0.170755    1.346201    1.213784
  H      0.706863   -0.000021   -1.457058
  H      2.748064    0.880936   -0.324665
  H      2.320004    0.000014    1.142416
  H      2.748063   -0.880949   -0.324642

 Total Charge           Charge          ....    0
 Multiplicity           Mult            ....    1
 Number of Electrons    NEL             ....   48
 Basis Dimension        Dim             ....  552

ORBITAL ENERGIES
----------------

  NO   OCC          E(Eh)            E(eV)
   0   2.0000     -11.217262      -305.2372
   1   2.0000     -11.211487      -305.0801
   2   2.0000     -11.210962      -305.0658
   3   2.0000     -11.209353      -305.0220
   4   2.0000     -11.209336      -305.0215
   5   2.0000     -11.207558      -304.9732
   6   2.0000      -1.119737       -30.4696
   7   2.0000      -1.001259       -27.2456
   8   2.0000      -0.956260       -26.0212
   9   2.0000      -0.887519       -24.1506
  10   2.0000      -0.770509       -20.9666
  11   2.0000      -0.758002       -20.6263
  12   2.0000      -0.651077       -17.7167
  13   2.0000      -0.621747       -16.9186
  14   2.0000      -0.586717       -15.9654
  15   2.0000      -0.573887       -15.6163
  16   2.0000      -0.551593       -15.0096
  17   2.0000      -0.518689       -14.1143
  18   2.0000      -0.472845       -12.8668
  19   2.0000      -0.465907       -12.6780
  20   2.0000      -0.460655       -12.5351
  21   2.0000      -0.449151       -12.2220
  22   2.0000      -0.447766       -12.1843
  23   2.0000      -0.439536       -11.9604
  24   0.0000       0.031445         0.8557
  25   0.0000       0.036390         0.9902
  26   0.0000       0.037884         1.0309
  27   0.0000       0.038240         1.0406
  28   0.0000       0.053186         1.4473

MULLIKEN ATOMIC CHARGES
-----------------------
   0 C :   -0.595989
   1 C :   -0.596031
   2 C :   -0.635610
   3 C :   -0.635572
   4 C :    0.237459
   5 C :   -1.013522
   6 H :    0.317495
   7 H :    0.194420
   8 H :    0.194453
   9 H :    0.317462
  10 H :    0.145672
  11 H :    0.384284
  12 H :    0.384287
  13 H :    0.145683
  14 H :    0.389598
  15 H :    0.252862
  16 H :    0.260177
  17 H :    0.252871
Sum of atomic charges:   -0.0000000

LOEWDIN ATOMIC CHARGES
----------------------
   0 C :    0.321072
   1 C :    0.321076
   2 C :    0.302105
   3 C :    0.302110
   4 C :   -0.043063
   5 C :    0.593055
   6 H :   -0.152771
   7 H :   -0.153675
   8 H :   -0.153676
   9 H :   -0.152772
  10 H :   -0.142853
  11 H :   -0.138993
  12 H :   -0.138994
  13 H :   -0.142856
  14 H :   -0.123009
  15 H :   -0.164976
  16 H :   -0.166804
  17 H :   -0.164975

  Mayer bond orders larger than 0.100000
B(  0-C ,  1-C ) :   0.9787 B(  0-C ,  2-C ) :   1.0189 B(  0-C ,  6-H ) :   0.9002
B(  0-C ,  7-H ) :   1.0302 B(  1-C ,  3-C ) :   1.0189 B(  1-C ,  8-H ) :   1.0302
B(  1-C ,  9-H ) :   0.9002 B(  2-C ,  3-C ) :   0.1193 B(  2-C ,  4-C ) :   0.8322
B(  2-C , 10-H ) :   1.0704 B(  2-C , 11-H ) :   0.8380 B(  3-C ,  4-C ) :   0.8322
B(  3-C , 12-H ) :   0.8380 B(  3-C , 13-H ) :   1.0704 B(  4-C ,  5-C ) :   0.6401
B(  4-C , 14-H ) :   0.8313 B(  5-C , 15-H ) :   1.0058 B(  5-C , 16-H ) :   0.9966
B(  5-C , 17-H ) :   1.0058

MP2 TOTAL ENERGY:     -235.338941457 Eh
FINAL SINGLE POINT ENERGY      -235.338941456754

DIPOLE MOMENT
-------------
                                X             Y             Z
Electronic contribution:     -1.16209      -0.00001      -0.37281
Nuclear contribution   :      1.15419       0.00001       0.33829
                        -----------------------------------------
Total Dipole Moment    :     -0.00790      -0.00000      -0.03452
                        -----------------------------------------
Magnitude (a.u.)       :      0.03541
Magnitude (Debye)      :      0.09001

Rotational constants in cm-1:     0.208324     0.097515     0.073456
Rotational constants in MHz :  6245.405843  2923.430510  2202.144883

                             ****ORCA TERMINATED NORMALLY****
TOTAL RUN TIME: 0 days 0 hours 5 minutes 10 seconds 741 msec
