                         Program Version 5.0.3 -  RELEASE  -
|  1> !ri-mp2 aug-cc-pvtz aug-cc-pvtz/c tightscf
|  2> %pal nprocs 16 end
|  3> %maxcore 3800
|  4>
|  5> * xyz 0 1
|  6> C     -1.286273    0.390991    0.000000
|  7> C      1.112125    0.088865    0.000000
|  8> C     -1.467836   -0.981974    0.000000
|  9> C      0.942643   -1.286930    0.000000
| 10> C      0.000000    0.932795    0.000000
| 11> C     -0.346334   -1.799458    0.000000
| 12> C      0.128280    2.421778    0.000000
| 13> C      1.617644    4.250574    0.000000
| 14> N     -0.530904   -3.266994    0.000000
| 15> O     -0.811383    3.179716    0.000000
| 16> O     -1.675584   -3.692985    0.000000
| 17> O      0.472906   -3.963304    0.000000
| 18> O      1.410358    2.826665    0.000000
| 19> H     -2.134031    1.060043    0.000000
| 20> H      2.105499    0.509823    0.000000
| 21> H     -2.451989   -1.422851    0.000000
| 22> H      1.785123   -1.960132    0.000000
| 23> H      2.694123    4.387094    0.000000
| 24> H      1.172868    4.697195    0.886917
| 25> H      1.172868    4.697195   -0.886917
| 26> *
| 27>
| 28>                          ****END OF INPUT****

CARTESIAN COORDINATES (ANGSTROEM)
---------------------------------
  C     -1.286273    0.390991    0.000000
  C      1.112125    0.088865    0.000000
  C     -1.467836   -0.981974    0.000000
  C      0.942643   -1.286930    0.000000
  C      0.000000    0.932795    0.000000
  C     -0.346334   -1.799458    0.000000
  C      0.128280    2.421778    0.000000
  C      1.617644    4.250574    0.000000
  N     -0.530904   -3.266994    0.000000
  O     -0.811383    3.179716    0.000000
  O     -1.675584   -3.692985    0.000000
  O      0.472906   -3.963304    0.000000
  O      1.410358    2.826665    0.000000
  H     -2.134031    1.060043    0.000000
  H      2.105499    0.509823    0.000000
  H     -2.451989   -1.422851    0.000000
  H      1.785123   -1.960132    0.000000
  H      2.694123    4.387094    0.000000
  H      1.172868    4.697195    0.886917
  H      1.172868    4.697195   -0.886917

 Total Charge           Charge          ....    0
 Multiplicity           Mult            ....    1
 Number of Electrons    NEL             ....   94
 Basis Dimension        Dim             ....  759

ORBITAL ENERGIES
----------------

  NO   OCC          E(Eh)            E(eV)
   0   2.0000     -20.624237      -561.2140
   1   2.0000     -20.611343      -560.8632
   2   2.0000     -20.611116      -560.8570
   3   2.0000     -20.564574      -559.5905
   4   2.0000     -15.862658      -431.6449
   5   2.0000     -11.404643      -310.3361
   6   2.0000     -11.325330      -308.1779
   7   2.0000     -11.301000      -307.5159
   8   2.0000     -11.287511      -307.1488
   9   2.0000     -11.281346      -306.9810
  10   2.0000     -11.280476      -306.9574
  11   2.0000     -11.278223      -306.8961
  12   2.0000     -11.275408      -306.8194
  13   2.0000      -1.616302       -43.9818
  14   2.0000      -1.481599       -40.3164
  15   2.0000      -1.409559       -38.3560
  16   2.0000      -1.380058       -37.5533
  17   2.0000      -1.213363       -33.0173
  18   2.0000      -1.114090       -30.3159
  19   2.0000      -1.064238       -28.9594
  20   2.0000      -1.013539       -27.5798
  21   2.0000      -0.964660       -26.2497
  22   2.0000      -0.878020       -23.8921
  23   2.0000      -0.859505       -23.3883
  24   2.0000      -0.801430       -21.8080
  25   2.0000      -0.791317       -21.5328
  26   2.0000      -0.753745       -20.5104
  27   2.0000      -0.737648       -20.0724
  28   2.0000      -0.728660       -19.8279
  29   2.0000      -0.700359       -19.0577
  30   2.0000      -0.690590       -18.7919
  31   2.0000      -0.664345       -18.0778
  32   2.0000      -0.660665       -17.9776
  33   2.0000      -0.636706       -17.3257
  34   2.0000      -0.630335       -17.1523
  35   2.0000      -0.583309       -15.8726
  36   2.0000      -0.581347       -15.8192
  37   2.0000      -0.550953       -14.9922
  38   2.0000      -0.538927       -14.6650
  39   2.0000      -0.535938       -14.5836
  40   2.0000      -0.503744       -13.7076
  41   2.0000      -0.503306       -13.6957
  42   2.0000      -0.482996       -13.1430
  43   2.0000      -0.475372       -12.9355
  44   2.0000      -0.462774       -12.5927
  45   2.0000      -0.389309       -10.5936
  46   2.0000      -0.377442       -10.2707
  47   0.0000       0.015865         0.4317
  48   0.0000       0.021955         0.5974
  49   0.0000       0.032048         0.8721
  50   0.0000       0.033065         0.8997
  51   0.0000       0.043852         1.1933

MULLIKEN ATOMIC CHARGES
-----------------------
   0 C :   -1.000719
   1 C :   -0.270904
   2 C :   -0.509446
   3 C :   -0.739201
   4 C :    1.683834
   5 C :    0.714230
   6 C :    0.452380
   7 C :   -0.830010
   8 N :    0.689344
   9 O :   -0.987829
  10 O :   -0.673493
  11 O :   -0.667744
  12 O :   -0.400427
  13 H :    0.123155
  14 H :    0.205527
  15 H :    0.572421
  16 H :    0.545900
  17 H :    0.349947
  18 H :    0.371518
  19 H :    0.371518
Sum of atomic charges:    0.0000000

LOEWDIN ATOMIC CHARGES
----------------------
   0 C :    0.230056
   1 C :    0.232245
   2 C :    0.230999
   3 C :    0.228008
   4 C :   -0.111194
   5 C :   -0.203354
   6 C :   -0.818348
   7 C :    0.374725
   8 N :   -0.702884
   9 O :    0.476192
  10 O :    0.396915
  11 O :    0.395946
  12 O :    0.564676
  13 H :   -0.179791
  14 H :   -0.187101
  15 H :   -0.192335
  16 H :   -0.193511
  17 H :   -0.184147
  18 H :   -0.178550
  19 H :   -0.178550

  Mayer bond orders larger than 0.100000
B(  0-C ,  1-C ) :  -0.5538 B(  0-C ,  2-C ) :   1.4975 B(  0-C ,  4-C ) :   0.2165
B(  0-C ,  5-C ) :  -0.2087 B(  0-C ,  6-C ) :   0.3762 B(  0-C , 13-H ) :   1.3433
B(  0-C , 14-H ) :   0.1850 B(  1-C ,  3-C ) :   1.2710 B(  1-C ,  4-C ) :   0.5683
B(  1-C ,  5-C ) :  -0.1394 B(  1-C ,  6-C ) :   0.2613 B(  1-C ,  9-O ) :  -0.1190
B(  1-C , 12-O ) :  -0.1706 B(  1-C , 14-H ) :   1.2598 B(  2-C ,  4-C ) :   0.1510
B(  2-C ,  5-C ) :   1.0270 B(  2-C ,  8-N ) :  -0.2351 B(  2-C , 15-H ) :   0.5747
B(  3-C ,  4-C ) :   0.1699 B(  3-C ,  5-C ) :   0.9111 B(  3-C ,  8-N ) :  -0.1919
B(  3-C , 16-H ) :   0.6093 B(  4-C , 12-O ) :   0.1038 B(  4-C , 13-H ) :  -0.2215
B(  4-C , 14-H ) :  -0.2730 B(  5-C ,  8-N ) :   1.2738 B(  5-C , 10-O ) :   0.3274
B(  5-C , 11-O ) :   0.2884 B(  5-C , 13-H ) :  -0.1176 B(  5-C , 15-H ) :   0.1093
B(  6-C ,  9-O ) :   1.2318 B(  6-C , 12-O ) :   1.1217 B(  7-C , 12-O ) :   0.8498
B(  7-C , 17-H ) :   0.9018 B(  7-C , 18-H ) :   0.8763 B(  7-C , 19-H ) :   0.8763
B(  8-N , 10-O ) :   1.0513 B(  8-N , 11-O ) :   1.0673 B(  9-O , 13-H ) :   0.1474
B( 10-O , 11-O ) :   0.1097 B( 13-H , 14-H ) :   0.1008

MP2 TOTAL ENERGY:     -663.506472781 Eh
FINAL SINGLE POINT ENERGY      -663.506472780702

DIPOLE MOMENT
-------------
                                X             Y             Z
Electronic contribution:     -3.26687     -10.01798      -0.00000
Nuclear contribution   :      4.22163      11.61987       0.00000
                        -----------------------------------------
Total Dipole Moment    :      0.95476       1.60189      -0.00000
                        -----------------------------------------
Magnitude (a.u.)       :      1.86484
Magnitude (Debye)      :      4.74005

Rotational constants in cm-1:     0.091572     0.012078     0.010692
Rotational constants in MHz :  2745.268352   362.082112   320.534210

                             ****ORCA TERMINATED NORMALLY****
TOTAL RUN TIME: 0 days 0 hours 15 minutes 28 seconds 826 msec
