                         Program Version 5.0.3 -  RELEASE  -
|  1> !ri-mp2 aug-cc-pvtz aug-cc-pvtz/c tightscf
|  2> %pal nprocs 16 end
|  3>
|  4> * xyz 0 1
|  5> C      1.328264    0.334723    0.000000
|  6> O      0.000000    0.884876    0.000000
|  7> H      1.983497    1.199685    0.000000
|  8> H      1.493655   -0.273528    0.888518
|  9> H      1.493655   -0.273528   -0.888518
| 10> N     -1.045924   -0.048758    0.000000
| 11> O     -0.702365   -1.174834    0.000000
| 12> *
| 13>
| 14>                          ****END OF INPUT****

CARTESIAN COORDINATES (ANGSTROEM)
---------------------------------
  C      1.328264    0.334723    0.000000
  O      0.000000    0.884876    0.000000
  H      1.983497    1.199685    0.000000
  H      1.493655   -0.273528    0.888518
  H      1.493655   -0.273528   -0.888518
  N     -1.045924   -0.048758    0.000000
  O     -0.702365   -1.174834    0.000000

 Total Charge           Charge          ....    0
 Multiplicity           Mult            ....    1
 Number of Electrons    NEL             ....   32
 Basis Dimension        Dim             ....  253

ORBITAL ENERGIES
----------------

  NO   OCC          E(Eh)            E(eV)
   0   2.0000     -20.653606      -562.0132
   1   2.0000     -20.634379      -561.4900
   2   2.0000     -15.786628      -429.5760
   3   2.0000     -11.295761      -307.3733
   4   2.0000      -1.600359       -43.5480
   5   2.0000      -1.400552       -38.1110
   6   2.0000      -1.020264       -27.7628
   7   2.0000      -0.877923       -23.8895
   8   2.0000      -0.762936       -20.7605
   9   2.0000      -0.725971       -19.7547
  10   2.0000      -0.703061       -19.1313
  11   2.0000      -0.603018       -16.4089
  12   2.0000      -0.602349       -16.3907
  13   2.0000      -0.549780       -14.9603
  14   2.0000      -0.487198       -13.2573
  15   2.0000      -0.457287       -12.4434
  16   0.0000       0.028511         0.7758
  17   0.0000       0.045463         1.2371
  18   0.0000       0.045835         1.2472
  19   0.0000       0.069973         1.9041
  20   0.0000       0.093237         2.5371

MULLIKEN ATOMIC CHARGES
-----------------------
   0 C :   -0.672397
   1 O :   -0.280890
   2 H :    0.403887
   3 H :    0.327699
   4 H :    0.327699
   5 N :    0.190385
   6 O :   -0.296382
Sum of atomic charges:    0.0000000

LOEWDIN ATOMIC CHARGES
----------------------
   0 C :    0.278037
   1 O :    0.345642
   2 H :   -0.199070
   3 H :   -0.203985
   4 H :   -0.203985
   5 N :   -0.278140
   6 O :    0.261500

  Mayer bond orders larger than 0.100000
B(  0-C ,  1-O ) :   0.7857 B(  0-C ,  2-H ) :   0.8334 B(  0-C ,  3-H ) :   0.8978
B(  0-C ,  4-H ) :   0.8978 B(  1-O ,  5-N ) :   0.8431 B(  5-N ,  6-O ) :   1.6064

MP2 TOTAL ENERGY:     -244.632192019 Eh
FINAL SINGLE POINT ENERGY      -244.632192018843

DIPOLE MOMENT
-------------
                                X             Y             Z
Electronic contribution:     -4.07076      -0.60915       0.00000
Nuclear contribution   :      4.87718       0.63778       0.00000
                        -----------------------------------------
Total Dipole Moment    :      0.80641       0.02863       0.00000
                        -----------------------------------------
Magnitude (a.u.)       :      0.80692
Magnitude (Debye)      :      2.05103

Rotational constants in cm-1:     0.686746     0.245408     0.187190
Rotational constants in MHz : 20588.123612  7357.147190  5611.815014

                             ****ORCA TERMINATED NORMALLY****
TOTAL RUN TIME: 0 days 0 hours 0 minutes 40 seconds 181 msec
