                         Program Version 5.0.3 -  RELEASE  -
|  1> !ri-mp2 aug-cc-pvtz aug-cc-pvtz/c tightscf
|  2> %pal nprocs 16 end
|  3> %maxcore 3800
|  4>
|  5> * xyz 0 1
|  6> C      1.247559   -0.078864    0.000000
|  7> S      0.450603   -1.735060    0.000000
|  8> C      0.228680    1.019883    0.000000
|  9> C      1.856507   -2.863468    0.000000
| 10> O     -0.258876   -1.906083    1.263753
| 11> O     -0.258876   -1.906083   -1.263753
| 12> C     -0.258876    1.531692    1.203024
| 13> C     -0.258876    1.531692   -1.203024
| 14> C     -1.209742    2.543679    1.202823
| 15> C     -1.209742    2.543679   -1.202823
| 16> C     -1.686443    3.052509    0.000000
| 17> H      1.873727   -0.060312    0.890609
| 18> H      1.873727   -0.060312   -0.890609
| 19> H      1.425456   -3.862087    0.000000
| 20> H      2.444385   -2.705370   -0.900271
| 21> H      2.444385   -2.705370    0.900271
| 22> H      0.101136    1.130017    2.140706
| 23> H      0.101136    1.130017   -2.140706
| 24> H     -1.579760    2.932792    2.141610
| 25> H     -1.579760    2.932792   -2.141610
| 26> H     -2.426453    3.841310    0.000000
| 27> *
| 28>
| 29>                          ****END OF INPUT****

CARTESIAN COORDINATES (ANGSTROEM)
---------------------------------
  C      1.247559   -0.078864    0.000000
  S      0.450603   -1.735060    0.000000
  C      0.228680    1.019883    0.000000
  C      1.856507   -2.863468    0.000000
  O     -0.258876   -1.906083    1.263753
  O     -0.258876   -1.906083   -1.263753
  C     -0.258876    1.531692    1.203024
  C     -0.258876    1.531692   -1.203024
  C     -1.209742    2.543679    1.202823
  C     -1.209742    2.543679   -1.202823
  C     -1.686443    3.052509    0.000000
  H      1.873727   -0.060312    0.890609
  H      1.873727   -0.060312   -0.890609
  H      1.425456   -3.862087    0.000000
  H      2.444385   -2.705370   -0.900271
  H      2.444385   -2.705370    0.900271
  H      0.101136    1.130017    2.140706
  H      0.101136    1.130017   -2.140706
  H     -1.579760    2.932792    2.141610
  H     -1.579760    2.932792   -2.141610
  H     -2.426453    3.841310    0.000000

 Total Charge           Charge          ....    0
 Multiplicity           Mult            ....    1
 Number of Electrons    NEL             ....   90
 Basis Dimension        Dim             ....  740

ORBITAL ENERGIES
----------------

  NO   OCC          E(Eh)            E(eV)
   0   2.0000     -92.177055     -2508.2652
   1   2.0000     -20.539985      -558.9214
   2   2.0000     -20.539964      -558.9208
   3   2.0000     -11.287099      -307.1376
   4   2.0000     -11.278585      -306.9059
   5   2.0000     -11.257162      -306.3230
   6   2.0000     -11.242970      -305.9368
   7   2.0000     -11.242914      -305.9352
   8   2.0000     -11.241356      -305.8928
   9   2.0000     -11.239265      -305.8360
  10   2.0000     -11.238901      -305.8260
  11   2.0000      -9.146816      -248.8975
  12   2.0000      -6.831318      -185.8896
  13   2.0000      -6.830806      -185.8757
  14   2.0000      -6.830748      -185.8741
  15   2.0000      -1.438424       -39.1415
  16   2.0000      -1.327434       -36.1213
  17   2.0000      -1.169647       -31.8277
  18   2.0000      -1.084768       -29.5180
  19   2.0000      -1.039997       -28.2998
  20   2.0000      -1.024020       -27.8650
  21   2.0000      -0.970296       -26.4031
  22   2.0000      -0.838363       -22.8130
  23   2.0000      -0.836799       -22.7705
  24   2.0000      -0.796669       -21.6785
  25   2.0000      -0.708776       -19.2868
  26   2.0000      -0.683700       -18.6044
  27   2.0000      -0.671120       -18.2621
  28   2.0000      -0.664662       -18.0864
  29   2.0000      -0.642813       -17.4918
  30   2.0000      -0.637613       -17.3503
  31   2.0000      -0.605846       -16.4859
  32   2.0000      -0.602320       -16.3900
  33   2.0000      -0.596117       -16.2212
  34   2.0000      -0.581675       -15.8282
  35   2.0000      -0.579143       -15.7593
  36   2.0000      -0.516528       -14.0554
  37   2.0000      -0.506855       -13.7922
  38   2.0000      -0.501108       -13.6358
  39   2.0000      -0.489854       -13.3296
  40   2.0000      -0.486033       -13.2256
  41   2.0000      -0.463786       -12.6203
  42   2.0000      -0.436028       -11.8649
  43   2.0000      -0.343453        -9.3458
  44   2.0000      -0.339413        -9.2359
  45   0.0000       0.022313         0.6072
  46   0.0000       0.030276         0.8238
  47   0.0000       0.033828         0.9205
  48   0.0000       0.037187         1.0119
  49   0.0000       0.042677         1.1613

MULLIKEN ATOMIC CHARGES
-----------------------
   0 C :   -0.336121
   1 S :    2.387272
   2 C :    1.502523
   3 C :   -1.101435
   4 O :   -1.071617
   5 O :   -1.071617
   6 C :   -0.937213
   7 C :   -0.937222
   8 C :   -0.711160
   9 C :   -0.711137
  10 C :   -0.052329
  11 H :    0.253228
  12 H :    0.253229
  13 H :    0.282615
  14 H :    0.301240
  15 H :    0.301241
  16 H :    0.083800
  17 H :    0.083803
  18 H :    0.546308
  19 H :    0.546304
  20 H :    0.388286
Sum of atomic charges:   -0.0000000

LOEWDIN ATOMIC CHARGES
----------------------
   0 C :    0.198345
   1 S :    0.267399
   2 C :   -0.166203
   3 C :    0.509084
   4 O :    0.025205
   5 O :    0.025205
   6 C :    0.212376
   7 C :    0.212376
   8 C :    0.207252
   9 C :    0.207252
  10 C :    0.202113
  11 H :   -0.190400
  12 H :   -0.190400
  13 H :   -0.207629
  14 H :   -0.207619
  15 H :   -0.207619
  16 H :   -0.174046
  17 H :   -0.174046
  18 H :   -0.182879
  19 H :   -0.182879
  20 H :   -0.182884

  Mayer bond orders larger than 0.100000
B(  0-C ,  1-S ) :   0.7064 B(  0-C ,  2-C ) :   0.6606 B(  0-C , 11-H ) :   0.9891
B(  0-C , 12-H ) :   0.9891 B(  0-C , 16-H ) :  -0.1298 B(  0-C , 17-H ) :  -0.1298
B(  1-S ,  2-C ) :   0.1169 B(  1-S ,  3-C ) :   0.8208 B(  1-S ,  4-O ) :   1.1677
B(  1-S ,  5-O ) :   1.1677 B(  2-C ,  6-C ) :   0.4367 B(  2-C ,  7-C ) :   0.4367
B(  2-C ,  8-C ) :   0.1245 B(  2-C ,  9-C ) :   0.1245 B(  2-C , 16-H ) :  -0.2407
B(  2-C , 17-H ) :  -0.2407 B(  3-C , 13-H ) :   0.9666 B(  3-C , 14-H ) :   0.8917
B(  3-C , 15-H ) :   0.8917 B(  6-C ,  7-C ) :  -0.2529 B(  6-C ,  8-C ) :   1.3695
B(  6-C , 10-C ) :  -0.2224 B(  6-C , 16-H ) :   1.5035 B(  6-C , 17-H ) :   0.1993
B(  6-C , 20-H ) :   0.1211 B(  7-C ,  9-C ) :   1.3695 B(  7-C , 10-C ) :  -0.2224
B(  7-C , 16-H ) :   0.1993 B(  7-C , 17-H ) :   1.5035 B(  7-C , 20-H ) :   0.1211
B(  8-C ,  9-C ) :   0.1945 B(  8-C , 10-C ) :   1.0746 B(  8-C , 16-H ) :  -0.1028
B(  8-C , 18-H ) :   0.6741 B(  8-C , 20-H ) :  -0.1695 B(  9-C , 10-C ) :   1.0746
B(  9-C , 17-H ) :  -0.1028 B(  9-C , 19-H ) :   0.6741 B(  9-C , 20-H ) :  -0.1695
B( 10-C , 20-H ) :   0.9178 B( 16-H , 17-H ) :   0.1213

MP2 TOTAL ENERGY:     -858.158039343 Eh
FINAL SINGLE POINT ENERGY      -858.158039343210

DIPOLE MOMENT
-------------
                                X             Y             Z
Electronic contribution:     -2.86718      -1.97022      -0.00000
Nuclear contribution   :      4.62311       2.54883       0.00000
                        -----------------------------------------
Total Dipole Moment    :      1.75592       0.57861      -0.00000
                        -----------------------------------------
Magnitude (a.u.)       :      1.84880
Magnitude (Debye)      :      4.69927

Rotational constants in cm-1:     0.078914     0.019061     0.017643
Rotational constants in MHz :  2365.779656   571.436141   528.935352

                             ****ORCA TERMINATED NORMALLY****
TOTAL RUN TIME: 0 days 0 hours 16 minutes 5 seconds 434 msec
