                         Program Version 5.0.3 -  RELEASE  -
|  1> !ri-mp2 aug-cc-pvtz aug-cc-pvtz/c tightscf
|  2> %pal nprocs 16 end
|  3>
|  4> * xyz 0 1
|  5> O      0.000000    2.236047    0.597444
|  6> C      0.000000    1.129930    0.158173
|  7> O      0.000000    0.000000    0.969792
|  8> C      0.000000   -1.129930    0.158173
|  9> O      0.000000   -2.236047    0.597444
| 10> C      0.000000   -0.664242   -1.254113
| 11> C      0.000000    0.664242   -1.254113
| 12> H      0.000000   -1.352815   -2.083086
| 13> H      0.000000    1.352815   -2.083086
| 14> *
| 15>
| 16>                          ****END OF INPUT****

CARTESIAN COORDINATES (ANGSTROEM)
---------------------------------
  O      0.000000    2.236047    0.597444
  C      0.000000    1.129930    0.158173
  O      0.000000    0.000000    0.969792
  C      0.000000   -1.129930    0.158173
  O      0.000000   -2.236047    0.597444
  C      0.000000   -0.664242   -1.254113
  C      0.000000    0.664242   -1.254113
  H      0.000000   -1.352815   -2.083086
  H      0.000000    1.352815   -2.083086

 Total Charge           Charge          ....    0
 Multiplicity           Mult            ....    1
 Number of Electrons    NEL             ....   50
 Basis Dimension        Dim             ....  368

ORBITAL ENERGIES
----------------

  NO   OCC          E(Eh)            E(eV)
   0   2.0000     -20.650308      -561.9234
   1   2.0000     -20.592743      -560.3570
   2   2.0000     -20.592742      -560.3570
   3   2.0000     -11.424625      -310.8798
   4   2.0000     -11.424608      -310.8794
   5   2.0000     -11.313793      -307.8640
   6   2.0000     -11.312002      -307.8152
   7   2.0000      -1.520500       -41.3749
   8   2.0000      -1.447748       -39.3952
   9   2.0000      -1.400751       -38.1164
  10   2.0000      -1.157771       -31.5046
  11   2.0000      -0.959685       -26.1144
  12   2.0000      -0.863433       -23.4952
  13   2.0000      -0.832522       -22.6541
  14   2.0000      -0.737385       -20.0653
  15   2.0000      -0.700725       -19.0677
  16   2.0000      -0.694542       -18.8994
  17   2.0000      -0.674161       -18.3449
  18   2.0000      -0.643252       -17.5038
  19   2.0000      -0.620444       -16.8831
  20   2.0000      -0.582784       -15.8584
  21   2.0000      -0.510162       -13.8822
  22   2.0000      -0.509772       -13.8716
  23   2.0000      -0.478636       -13.0243
  24   2.0000      -0.450661       -12.2631
  25   0.0000       0.017678         0.4810
  26   0.0000       0.018970         0.5162
  27   0.0000       0.032884         0.8948
  28   0.0000       0.058656         1.5961
  29   0.0000       0.069891         1.9018

MULLIKEN ATOMIC CHARGES
-----------------------
   0 O :   -0.659404
   1 C :    0.554148
   2 O :   -0.095867
   3 C :    0.554148
   4 O :   -0.659404
   5 C :   -0.393543
   6 C :   -0.393543
   7 H :    0.546732
   8 H :    0.546732
Sum of atomic charges:   -0.0000000

LOEWDIN ATOMIC CHARGES
----------------------
   0 O :    0.454195
   1 C :   -0.804195
   2 O :    0.561637
   3 C :   -0.804195
   4 O :    0.454195
   5 C :    0.237780
   6 C :    0.237780
   7 H :   -0.168598
   8 H :   -0.168598

  Mayer bond orders larger than 0.100000
B(  0-O ,  1-C ) :   1.5951 B(  1-C ,  2-O ) :   0.9479 B(  1-C ,  6-C ) :   0.9349
B(  2-O ,  3-C ) :   0.9479 B(  3-C ,  4-O ) :   1.5951 B(  3-C ,  5-C ) :   0.9349
B(  5-C ,  6-C ) :   1.6214 B(  5-C ,  7-H ) :   0.6813 B(  6-C ,  8-H ) :   0.6813

MP2 TOTAL ENERGY:     -378.682558970 Eh
FINAL SINGLE POINT ENERGY      -378.682558970228

DIPOLE MOMENT
-------------
                                X             Y             Z
Electronic contribution:      0.00000       0.00000       2.07559
Nuclear contribution   :      0.00000       0.00000      -3.95703
                        -----------------------------------------
Total Dipole Moment    :      0.00000       0.00000      -1.88144
                        -----------------------------------------
Magnitude (a.u.)       :      1.88144
Magnitude (Debye)      :      4.78224

Rotational constants in cm-1:     0.229583     0.082254     0.060558
Rotational constants in MHz :  6882.739770  2465.923572  1815.479884

                             ****ORCA TERMINATED NORMALLY****
TOTAL RUN TIME: 0 days 0 hours 1 minutes 58 seconds 128 msec
