                         Program Version 5.0.3 -  RELEASE  -
|  1> !ri-mp2 aug-cc-pvtz aug-cc-pvtz/c tightscf
|  2> %pal nprocs 16 end
|  3> %maxcore 3800
|  4>
|  5> * xyz 0 1
|  6> N      1.383360   -1.709403   -0.280672
|  7> C      0.902676   -0.326707   -0.137165
|  8> C      2.097848    0.644277   -0.084187
|  9> O      1.986464    1.809740    0.191438
| 10> O      3.270321    0.085065   -0.408810
| 11> H      3.067922   -0.861838   -0.574079
| 12> C     -0.045437   -0.081707    1.039348
| 13> C     -1.394296   -0.791390    0.929264
| 14> S     -2.401897   -0.377571   -0.542342
| 15> C     -2.782880    1.376943   -0.230855
| 16> H      0.370857   -0.069835   -1.056761
| 17> H      0.441708   -0.411029    1.964287
| 18> H     -0.185549    0.993103    1.140986
| 19> H     -1.266805   -1.872991    0.865831
| 20> H     -1.989980   -0.594509    1.821028
| 21> H     -3.454759    1.689893   -1.027050
| 22> H     -3.289548    1.495435    0.725679
| 23> H     -1.889992    1.996927   -0.261114
| 24> H      1.404146   -2.198452    0.605725
| 25> H      0.817076   -2.246682   -0.921820
| 26> *
| 27>
| 28>                          ****END OF INPUT****

CARTESIAN COORDINATES (ANGSTROEM)
---------------------------------
  N      1.383360   -1.709403   -0.280672
  C      0.902676   -0.326707   -0.137165
  C      2.097848    0.644277   -0.084187
  O      1.986464    1.809740    0.191438
  O      3.270321    0.085065   -0.408810
  H      3.067922   -0.861838   -0.574079
  C     -0.045437   -0.081707    1.039348
  C     -1.394296   -0.791390    0.929264
  S     -2.401897   -0.377571   -0.542342
  C     -2.782880    1.376943   -0.230855
  H      0.370857   -0.069835   -1.056761
  H      0.441708   -0.411029    1.964287
  H     -0.185549    0.993103    1.140986
  H     -1.266805   -1.872991    0.865831
  H     -1.989980   -0.594509    1.821028
  H     -3.454759    1.689893   -1.027050
  H     -3.289548    1.495435    0.725679
  H     -1.889992    1.996927   -0.261114
  H      1.404146   -2.198452    0.605725
  H      0.817076   -2.246682   -0.921820

 Total Charge           Charge          ....    0
 Multiplicity           Mult            ....    1
 Number of Electrons    NEL             ....   80
 Basis Dimension        Dim             ....  671

ORBITAL ENERGIES
----------------

  NO   OCC          E(Eh)            E(eV)
   0   2.0000     -91.956810     -2502.2720
   1   2.0000     -20.595703      -560.4376
   2   2.0000     -20.535123      -558.7891
   3   2.0000     -15.583955      -424.0610
   4   2.0000     -11.374363      -309.5121
   5   2.0000     -11.291776      -307.2649
   6   2.0000     -11.273159      -306.7582
   7   2.0000     -11.259428      -306.3846
   8   2.0000     -11.248850      -306.0968
   9   2.0000      -8.956806      -243.7271
  10   2.0000      -6.638121      -180.6324
  11   2.0000      -6.637129      -180.6055
  12   2.0000      -6.636250      -180.5815
  13   2.0000      -1.450941       -39.4821
  14   2.0000      -1.355352       -36.8810
  15   2.0000      -1.224526       -33.3211
  16   2.0000      -1.096045       -29.8249
  17   2.0000      -1.027408       -27.9572
  18   2.0000      -0.964530       -26.2462
  19   2.0000      -0.884289       -24.0627
  20   2.0000      -0.810329       -22.0502
  21   2.0000      -0.789622       -21.4867
  22   2.0000      -0.742612       -20.2075
  23   2.0000      -0.699641       -19.0382
  24   2.0000      -0.667785       -18.1713
  25   2.0000      -0.637757       -17.3542
  26   2.0000      -0.625495       -17.0206
  27   2.0000      -0.617683       -16.8080
  28   2.0000      -0.608243       -16.5511
  29   2.0000      -0.589702       -16.0466
  30   2.0000      -0.582760       -15.8577
  31   2.0000      -0.549006       -14.9392
  32   2.0000      -0.531982       -14.4760
  33   2.0000      -0.528709       -14.3869
  34   2.0000      -0.487198       -13.2573
  35   2.0000      -0.468942       -12.7606
  36   2.0000      -0.465917       -12.6783
  37   2.0000      -0.435460       -11.8495
  38   2.0000      -0.418067       -11.3762
  39   2.0000      -0.350721        -9.5436
  40   0.0000       0.019799         0.5388
  41   0.0000       0.030177         0.8212
  42   0.0000       0.033069         0.8999
  43   0.0000       0.040536         1.1030
  44   0.0000       0.047205         1.2845

MULLIKEN ATOMIC CHARGES
-----------------------
   0 N :   -0.585090
   1 C :    0.572032
   2 C :    0.479992
   3 O :   -0.804374
   4 O :   -0.550592
   5 H :    0.252412
   6 C :   -0.437596
   7 C :   -0.283612
   8 S :   -0.353392
   9 C :   -0.765483
  10 H :    0.386878
  11 H :    0.356333
  12 H :    0.229491
  13 H :    0.234069
  14 H :    0.239489
  15 H :    0.292600
  16 H :    0.278854
  17 H :    0.287634
  18 H :    0.103347
  19 H :    0.067007
Sum of atomic charges:    0.0000000

LOEWDIN ATOMIC CHARGES
----------------------
   0 N :    0.870339
   1 C :   -0.129012
   2 C :   -0.770649
   3 O :    0.439648
   4 O :    0.841630
   5 H :   -0.589949
   6 C :    0.219671
   7 C :   -0.048215
   8 S :    1.186080
   9 C :    0.240238
  10 H :   -0.169518
  11 H :   -0.138367
  12 H :   -0.182725
  13 H :   -0.233798
  14 H :   -0.214180
  15 H :   -0.255830
  16 H :   -0.238812
  17 H :   -0.243984
  18 H :   -0.292347
  19 H :   -0.290218

  Mayer bond orders larger than 0.100000
B(  0-N ,  1-C ) :   0.5137 B(  0-N ,  2-C ) :   0.1620 B(  0-N ,  5-H ) :   0.1074
B(  0-N , 18-H ) :   0.9820 B(  0-N , 19-H ) :   1.0779 B(  1-C ,  2-C ) :   0.6376
B(  1-C ,  4-O ) :   0.1274 B(  1-C ,  6-C ) :   0.9041 B(  1-C , 10-H ) :   0.9030
B(  2-C ,  3-O ) :   1.3825 B(  2-C ,  4-O ) :   0.7158 B(  4-O ,  5-H ) :   0.8587
B(  6-C ,  7-C ) :   0.8998 B(  6-C ,  8-S ) :   0.1017 B(  6-C , 11-H ) :   0.8782
B(  6-C , 12-H ) :   1.0284 B(  7-C ,  8-S ) :   0.8936 B(  7-C , 13-H ) :   0.9980
B(  7-C , 14-H ) :   0.9423 B(  8-S ,  9-C ) :   0.9385 B(  9-C , 15-H ) :   0.9542
B(  9-C , 16-H ) :   0.9213 B(  9-C , 17-H ) :   0.9123

MP2 TOTAL ENERGY:     -799.381080978 Eh
FINAL SINGLE POINT ENERGY      -799.381080978418

DIPOLE MOMENT
-------------
                                X             Y             Z
Electronic contribution:      4.77798       0.60344      -2.88998
Nuclear contribution   :     -5.85023      -2.06274       3.31729
                        -----------------------------------------
Total Dipole Moment    :     -1.07225      -1.45930       0.42731
                        -----------------------------------------
Magnitude (a.u.)       :      1.86061
Magnitude (Debye)      :      4.72929

Rotational constants in cm-1:     0.080085     0.023355     0.020332
Rotational constants in MHz :  2400.884606   700.166264   609.539398

                             ****ORCA TERMINATED NORMALLY****
TOTAL RUN TIME: 0 days 0 hours 11 minutes 2 seconds 537 msec
