                         Program Version 5.0.3 -  RELEASE  -
|  1> !ri-mp2 aug-cc-pvtz aug-cc-pvtz/c tightscf
|  2> %pal nprocs 16 end
|  3>
|  4> * xyz 0 1
|  5> H      2.599637   -1.376904    0.000000
|  6> H      2.446132    0.154878    0.891870
|  7> H      2.446132    0.154878   -0.891870
|  8> C      2.130026   -0.397042    0.000000
|  9> O      0.728282   -0.616731    0.000000
| 10> H      0.230030    1.194926   -0.885833
| 11> H      0.230030    1.194926    0.885833
| 12> C      0.000000    0.588434    0.000000
| 13> N     -2.565567    0.100471    0.000000
| 14> C     -1.433235    0.293249    0.000000
| 15> *
| 16>
| 17>                          ****END OF INPUT****

CARTESIAN COORDINATES (ANGSTROEM)
---------------------------------
  H      2.599637   -1.376904    0.000000
  H      2.446132    0.154878    0.891870
  H      2.446132    0.154878   -0.891870
  C      2.130026   -0.397042    0.000000
  O      0.728282   -0.616731    0.000000
  H      0.230030    1.194926   -0.885833
  H      0.230030    1.194926    0.885833
  C      0.000000    0.588434    0.000000
  N     -2.565567    0.100471    0.000000
  C     -1.433235    0.293249    0.000000

 Total Charge           Charge          ....    0
 Multiplicity           Mult            ....    1
 Number of Electrons    NEL             ....   38
 Basis Dimension        Dim             ....  345

ORBITAL ENERGIES
----------------

  NO   OCC          E(Eh)            E(eV)
   0   2.0000     -20.595864      -560.4419
   1   2.0000     -15.577185      -423.8767
   2   2.0000     -11.343816      -308.6809
   3   2.0000     -11.297621      -307.4239
   4   2.0000     -11.277369      -306.8728
   5   2.0000      -1.414304       -38.4852
   6   2.0000      -1.226910       -33.3859
   7   2.0000      -1.037359       -28.2280
   8   2.0000      -0.927648       -25.2426
   9   2.0000      -0.740396       -20.1472
  10   2.0000      -0.708413       -19.2769
  11   2.0000      -0.688965       -18.7477
  12   2.0000      -0.606508       -16.5039
  13   2.0000      -0.603779       -16.4297
  14   2.0000      -0.557857       -15.1801
  15   2.0000      -0.524067       -14.2606
  16   2.0000      -0.482335       -13.1250
  17   2.0000      -0.476661       -12.9706
  18   2.0000      -0.453544       -12.3415
  19   0.0000       0.021329         0.5804
  20   0.0000       0.035893         0.9767
  21   0.0000       0.036287         0.9874
  22   0.0000       0.047427         1.2906
  23   0.0000       0.060068         1.6345

MULLIKEN ATOMIC CHARGES
-----------------------
   0 H :    0.364227
   1 H :    0.336520
   2 H :    0.336520
   3 C :   -0.791314
   4 O :   -0.529547
   5 H :    0.348951
   6 H :    0.348951
   7 C :    0.148529
   8 N :   -0.485884
   9 C :   -0.076953
Sum of atomic charges:    0.0000000

LOEWDIN ATOMIC CHARGES
----------------------
   0 H :   -0.182734
   1 H :   -0.176040
   2 H :   -0.176040
   3 C :    0.334083
   4 O :    0.536116
   5 H :   -0.165416
   6 H :   -0.165416
   7 C :   -0.053080
   8 N :    0.255333
   9 C :   -0.206806

  Mayer bond orders larger than 0.100000
B(  0-H ,  3-C ) :   0.9184 B(  1-H ,  3-C ) :   0.8758 B(  2-H ,  3-C ) :   0.8758
B(  3-C ,  4-O ) :   0.8822 B(  4-O ,  7-C ) :   0.9870 B(  5-H ,  7-C ) :   0.8829
B(  6-H ,  7-C ) :   0.8829 B(  7-C ,  9-C ) :   0.8455 B(  8-N ,  9-C ) :   2.2871

MP2 TOTAL ENERGY:     -246.817926431 Eh
FINAL SINGLE POINT ENERGY      -246.817926431352

DIPOLE MOMENT
-------------
                                X             Y             Z
Electronic contribution:     -6.06512      -0.58374      -0.00000
Nuclear contribution   :      7.98056       1.31889       0.00000
                        -----------------------------------------
Total Dipole Moment    :      1.91544       0.73515      -0.00000
                        -----------------------------------------
Magnitude (a.u.)       :      2.05168
Magnitude (Debye)      :      5.21494

Rotational constants in cm-1:     0.996231     0.082021     0.078016
Rotational constants in MHz : 29866.240300  2458.936483  2338.875178

                             ****ORCA TERMINATED NORMALLY****
TOTAL RUN TIME: 0 days 0 hours 1 minutes 22 seconds 407 msec
