                         Program Version 5.0.3 -  RELEASE  -
|  1> !ri-mp2 aug-cc-pvtz aug-cc-pvtz/c tightscf
|  2> %pal nprocs 16 end
|  3>
|  4> * xyz 0 1
|  5> C      0.838039    1.595359    0.000000
|  6> O      0.838039   -0.743500    1.259473
|  7> O      0.838039   -0.743500   -1.259473
|  8> S      0.445322   -0.156189    0.000000
|  9> Cl    -1.666500   -0.052456    0.000000
| 10> H      0.421587    2.033909    0.900953
| 11> H      1.925327    1.646800    0.000000
| 12> H      0.421587    2.033909   -0.900953
| 13> *
| 14>
| 15>                          ****END OF INPUT****

CARTESIAN COORDINATES (ANGSTROEM)
---------------------------------
  C      0.838039    1.595359    0.000000
  O      0.838039   -0.743500    1.259473
  O      0.838039   -0.743500   -1.259473
  S      0.445322   -0.156189    0.000000
  Cl    -1.666500   -0.052456    0.000000
  H      0.421587    2.033909    0.900953
  H      1.925327    1.646800    0.000000
  H      0.421587    2.033909   -0.900953

 Total Charge           Charge          ....    0
 Multiplicity           Mult            ....    1
 Number of Electrons    NEL             ....   58
 Basis Dimension        Dim             ....  307

ORBITAL ENERGIES
----------------

  NO   OCC          E(Eh)            E(eV)
   0   2.0000    -104.873533     -2853.7539
   1   2.0000     -92.243657     -2510.0775
   2   2.0000     -20.590181      -560.2873
   3   2.0000     -20.590157      -560.2867
   4   2.0000     -11.311321      -307.7967
   5   2.0000     -10.596979      -288.3585
   6   2.0000      -9.209531      -250.6041
   7   2.0000      -8.063483      -219.4185
   8   2.0000      -8.061618      -219.3678
   9   2.0000      -8.061551      -219.3660
  10   2.0000      -6.894974      -187.6218
  11   2.0000      -6.892927      -187.5661
  12   2.0000      -6.892882      -187.5649
  13   2.0000      -1.490930       -40.5703
  14   2.0000      -1.379449       -37.5367
  15   2.0000      -1.141326       -31.0571
  16   2.0000      -1.063242       -28.9323
  17   2.0000      -0.851037       -23.1579
  18   2.0000      -0.714476       -19.4419
  19   2.0000      -0.700792       -19.0695
  20   2.0000      -0.689758       -18.7693
  21   2.0000      -0.634616       -17.2688
  22   2.0000      -0.630950       -17.1690
  23   2.0000      -0.547194       -14.8899
  24   2.0000      -0.535343       -14.5674
  25   2.0000      -0.517315       -14.0769
  26   2.0000      -0.492740       -13.4081
  27   2.0000      -0.479524       -13.0485
  28   2.0000      -0.476884       -12.9767
  29   0.0000       0.020993         0.5713
  30   0.0000       0.041493         1.1291
  31   0.0000       0.041876         1.1395
  32   0.0000       0.057405         1.5621
  33   0.0000       0.069534         1.8921

MULLIKEN ATOMIC CHARGES
-----------------------
   0 C :   -0.901078
   1 O :   -0.872140
   2 O :   -0.872140
   3 S :    1.933124
   4 Cl:   -0.322564
   5 H :    0.364723
   6 H :    0.305351
   7 H :    0.364723
Sum of atomic charges:   -0.0000000

LOEWDIN ATOMIC CHARGES
----------------------
   0 C :    0.438568
   1 O :   -0.025472
   2 O :   -0.025472
   3 S :   -0.226929
   4 Cl:    0.489155
   5 H :   -0.220748
   6 H :   -0.208353
   7 H :   -0.220748

  Mayer bond orders larger than 0.100000
B(  0-C ,  3-S ) :   0.8702 B(  0-C ,  5-H ) :   0.8609 B(  0-C ,  6-H ) :   0.8953
B(  0-C ,  7-H ) :   0.8609 B(  1-O ,  3-S ) :   1.5314 B(  1-O ,  4-Cl) :   0.1084
B(  2-O ,  3-S ) :   1.5314 B(  2-O ,  4-Cl) :   0.1084 B(  3-S ,  4-Cl) :   0.7616

MP2 TOTAL ENERGY:    -1047.489942023 Eh
FINAL SINGLE POINT ENERGY     -1047.489942022800

DIPOLE MOMENT
-------------
                                X             Y             Z
Electronic contribution:     -4.86836      -3.76849      -0.00000
Nuclear contribution   :      4.91204       5.48801       0.00000
                        -----------------------------------------
Total Dipole Moment    :      0.04368       1.71952      -0.00000
                        -----------------------------------------
Magnitude (a.u.)       :      1.72007
Magnitude (Debye)      :      4.37207

Rotational constants in cm-1:     0.150134     0.087791     0.084493
Rotational constants in MHz :  4500.918194  2631.911946  2533.032070

                             ****ORCA TERMINATED NORMALLY****
TOTAL RUN TIME: 0 days 0 hours 1 minutes 17 seconds 694 msec
