                         Program Version 5.0.3 -  RELEASE  -
|  1> !ri-mp2 aug-cc-pvtz aug-cc-pvtz/c tightscf
|  2> %pal nprocs 16 end
|  3>
|  4> * xyz 0 1
|  5> C      0.017458    0.114976   -0.000014
|  6> C     -2.442157   -0.010060    0.000035
|  7> C      2.370388   -0.058037    0.000016
|  8> N     -1.126195   -0.614338   -0.000060
|  9> O      0.091274    1.325205   -0.000014
| 10> O      1.096157   -0.714172    0.000010
| 11> H     -2.316092    1.068892   -0.000449
| 12> H     -3.008671   -0.296928    0.887756
| 13> H     -3.009081   -0.297691   -0.887170
| 14> H      2.483823    0.563324    0.886629
| 15> H      2.483850    0.563286   -0.886620
| 16> H      3.107408   -0.855675    0.000044
| 17> H     -1.031457   -1.614379    0.000035
| 18> *
| 19>
| 20>                          ****END OF INPUT****

CARTESIAN COORDINATES (ANGSTROEM)
---------------------------------
  C      0.017458    0.114976   -0.000014
  C     -2.442157   -0.010060    0.000035
  C      2.370388   -0.058037    0.000016
  N     -1.126195   -0.614338   -0.000060
  O      0.091274    1.325205   -0.000014
  O      1.096157   -0.714172    0.000010
  H     -2.316092    1.068892   -0.000449
  H     -3.008671   -0.296928    0.887756
  H     -3.009081   -0.297691   -0.887170
  H      2.483823    0.563324    0.886629
  H      2.483850    0.563286   -0.886620
  H      3.107408   -0.855675    0.000044
  H     -1.031457   -1.614379    0.000035

 Total Charge           Charge          ....    0
 Multiplicity           Mult            ....    1
 Number of Electrons    NEL             ....   48
 Basis Dimension        Dim             ....  437

ORBITAL ENERGIES
----------------

  NO   OCC          E(Eh)            E(eV)
   0   2.0000     -20.597700      -560.4919
   1   2.0000     -20.522081      -558.4342
   2   2.0000     -15.585956      -424.1154
   3   2.0000     -11.396664      -310.1190
   4   2.0000     -11.281168      -306.9762
   5   2.0000     -11.261752      -306.4479
   6   2.0000      -1.456720       -39.6394
   7   2.0000      -1.349778       -36.7293
   8   2.0000      -1.235454       -33.6184
   9   2.0000      -0.990165       -26.9438
  10   2.0000      -0.923048       -25.1174
  11   2.0000      -0.794198       -21.6112
  12   2.0000      -0.747866       -20.3505
  13   2.0000      -0.677964       -18.4484
  14   2.0000      -0.676131       -18.3985
  15   2.0000      -0.626433       -17.0461
  16   2.0000      -0.614004       -16.7079
  17   2.0000      -0.589761       -16.0482
  18   2.0000      -0.549723       -14.9587
  19   2.0000      -0.548728       -14.9317
  20   2.0000      -0.529506       -14.4086
  21   2.0000      -0.462984       -12.5984
  22   2.0000      -0.453720       -12.3463
  23   2.0000      -0.398703       -10.8493
  24   0.0000       0.026239         0.7140
  25   0.0000       0.034712         0.9446
  26   0.0000       0.043287         1.1779
  27   0.0000       0.043524         1.1843
  28   0.0000       0.055391         1.5073

MULLIKEN ATOMIC CHARGES
-----------------------
   0 C :    0.464553
   1 C :   -0.839921
   2 C :   -0.761026
   3 N :   -0.014385
   4 O :   -0.689970
   5 O :   -0.346978
   6 H :    0.425199
   7 H :    0.323536
   8 H :    0.323586
   9 H :    0.353283
  10 H :    0.353270
  11 H :    0.341276
  12 H :    0.067577
Sum of atomic charges:    0.0000000

LOEWDIN ATOMIC CHARGES
----------------------
   0 C :   -0.974790
   1 C :    0.496089
   2 C :    0.349175
   3 N :    0.515147
   4 O :    0.438239
   5 O :    0.558103
   6 H :   -0.195175
   7 H :   -0.167577
   8 H :   -0.167587
   9 H :   -0.182610
  10 H :   -0.182609
  11 H :   -0.189901
  12 H :   -0.296504

  Mayer bond orders larger than 0.100000
B(  0-C ,  3-N ) :   1.1424 B(  0-C ,  4-O ) :   1.6023 B(  0-C ,  5-O ) :   1.0550
B(  1-C ,  3-N ) :   0.8846 B(  1-C ,  6-H ) :   0.8565 B(  1-C ,  7-H ) :   0.9027
B(  1-C ,  8-H ) :   0.9026 B(  2-C ,  5-O ) :   0.8547 B(  2-C ,  9-H ) :   0.8849
B(  2-C , 10-H ) :   0.8849 B(  2-C , 11-H ) :   0.9090 B(  3-N ,  4-O ) :  -0.1011
B(  3-N , 12-H ) :   1.0890

MP2 TOTAL ENERGY:     -323.201564343 Eh
FINAL SINGLE POINT ENERGY      -323.201564342669

DIPOLE MOMENT
-------------
                                X             Y             Z
Electronic contribution:      1.10515      -0.09589      -0.00016
Nuclear contribution   :     -1.29322      -0.87335       0.00023
                        -----------------------------------------
Total Dipole Moment    :     -0.18807      -0.96924       0.00007
                        -----------------------------------------
Magnitude (a.u.)       :      0.98732
Magnitude (Debye)      :      2.50957

Rotational constants in cm-1:     0.335570     0.074489     0.062389
Rotational constants in MHz : 10060.137430  2233.115820  1870.376049

                             ****ORCA TERMINATED NORMALLY****
TOTAL RUN TIME: 0 days 0 hours 2 minutes 24 seconds 173 msec
