                         Program Version 5.0.3 -  RELEASE  -
|  1> !ri-mp2 aug-cc-pvtz aug-cc-pvtz/c tightscf
|  2> %pal nprocs 16 end
|  3>
|  4> * xyz 0 1
|  5> C     -0.309415   -2.118342    0.000000
|  6> C      0.000000    0.358652    0.000000
|  7> C      0.510898    2.662545    0.000000
|  8> C      0.648261   -1.022919    0.000000
|  9> N     -1.032584   -3.010339    0.000000
| 10> O     -1.177335    0.583267    0.000000
| 11> O      0.963844    1.293027    0.000000
| 12> H      1.413063    3.264948    0.000000
| 13> H     -0.085786    2.861008    0.887616
| 14> H     -0.085786    2.861008   -0.887616
| 15> H      1.298037   -1.102284    0.873564
| 16> H      1.298037   -1.102284   -0.873564
| 17> *
| 18>
| 19>                          ****END OF INPUT****

CARTESIAN COORDINATES (ANGSTROEM)
---------------------------------
  C     -0.309415   -2.118342    0.000000
  C      0.000000    0.358652    0.000000
  C      0.510898    2.662545    0.000000
  C      0.648261   -1.022919    0.000000
  N     -1.032584   -3.010339    0.000000
  O     -1.177335    0.583267    0.000000
  O      0.963844    1.293027    0.000000
  H      1.413063    3.264948    0.000000
  H     -0.085786    2.861008    0.887616
  H     -0.085786    2.861008   -0.887616
  H      1.298037   -1.102284    0.873564
  H      1.298037   -1.102284   -0.873564

 Total Charge           Charge          ....    0
 Multiplicity           Mult            ....    1
 Number of Electrons    NEL             ....   52
 Basis Dimension        Dim             ....  437

ORBITAL ENERGIES
----------------

  NO   OCC          E(Eh)            E(eV)
   0   2.0000     -20.631198      -561.4034
   1   2.0000     -20.574167      -559.8515
   2   2.0000     -15.577811      -423.8938
   3   2.0000     -11.414034      -310.5917
   4   2.0000     -11.311864      -307.8115
   5   2.0000     -11.305888      -307.6489
   6   2.0000     -11.282050      -307.0002
   7   2.0000      -1.489608       -40.5343
   8   2.0000      -1.391064       -37.8528
   9   2.0000      -1.230740       -33.4901
  10   2.0000      -1.092806       -29.7368
  11   2.0000      -0.987989       -26.8846
  12   2.0000      -0.817795       -22.2533
  13   2.0000      -0.743566       -20.2335
  14   2.0000      -0.726504       -19.7692
  15   2.0000      -0.709064       -19.2946
  16   2.0000      -0.675167       -18.3722
  17   2.0000      -0.648448       -17.6452
  18   2.0000      -0.615757       -16.7556
  19   2.0000      -0.563020       -15.3206
  20   2.0000      -0.562378       -15.3031
  21   2.0000      -0.555157       -15.1066
  22   2.0000      -0.489905       -13.3310
  23   2.0000      -0.489646       -13.3239
  24   2.0000      -0.470137       -12.7931
  25   2.0000      -0.466463       -12.6931
  26   0.0000       0.020078         0.5463
  27   0.0000       0.031881         0.8675
  28   0.0000       0.036001         0.9796
  29   0.0000       0.042658         1.1608
  30   0.0000       0.053459         1.4547

MULLIKEN ATOMIC CHARGES
-----------------------
   0 C :    0.195719
   1 C :    0.241485
   2 C :   -0.735603
   3 C :    0.195910
   4 N :   -0.597132
   5 O :   -0.658729
   6 O :   -0.321273
   7 H :    0.354579
   8 H :    0.355641
   9 H :    0.355641
  10 H :    0.306880
  11 H :    0.306880
Sum of atomic charges:   -0.0000000

LOEWDIN ATOMIC CHARGES
----------------------
   0 C :   -0.220620
   1 C :   -0.827945
   2 C :    0.378428
   3 C :    0.230447
   4 N :    0.269180
   5 O :    0.476404
   6 O :    0.561068
   7 H :   -0.184693
   8 H :   -0.178384
   9 H :   -0.178384
  10 H :   -0.162751
  11 H :   -0.162751

  Mayer bond orders larger than 0.100000
B(  0-C ,  1-C ) :   0.1836 B(  0-C ,  3-C ) :   0.8813 B(  0-C ,  4-N ) :   2.2356
B(  1-C ,  3-C ) :   0.6339 B(  1-C ,  5-O ) :   1.6637 B(  1-C ,  6-O ) :   1.1492
B(  2-C ,  6-O ) :   0.8084 B(  2-C ,  7-H ) :   0.9011 B(  2-C ,  8-H ) :   0.8792
B(  2-C ,  9-H ) :   0.8792 B(  3-C ,  5-O ) :  -0.1010 B(  3-C , 10-H ) :   0.9005
B(  3-C , 11-H ) :   0.9005

MP2 TOTAL ENERGY:     -360.007948814 Eh
FINAL SINGLE POINT ENERGY      -360.007948813745

DIPOLE MOMENT
-------------
                                X             Y             Z
Electronic contribution:     -2.04495      -5.19267       0.00000
Nuclear contribution   :      3.77292       6.69631       0.00000
                        -----------------------------------------
Total Dipole Moment    :      1.72797       1.50364       0.00000
                        -----------------------------------------
Magnitude (a.u.)       :      2.29059
Magnitude (Debye)      :      5.82222

Rotational constants in cm-1:     0.317898     0.046654     0.041307
Rotational constants in MHz :  9530.352229  1398.664634  1238.356893

                             ****ORCA TERMINATED NORMALLY****
TOTAL RUN TIME: 0 days 0 hours 2 minutes 44 seconds 779 msec
