                         Program Version 5.0.3 -  RELEASE  -
|  1> !ri-mp2 aug-cc-pvtz aug-cc-pvtz/c tightscf
|  2> %pal nprocs 16 end
|  3>
|  4> * xyz 0 1
|  5> N      0.000000    0.723823    0.000000
|  6> N     -0.513023    1.731413    0.000000
|  7> N      0.675733   -0.298488    0.000000
|  8> C     -0.069885   -1.567760    0.000000
|  9> H      0.668896   -2.362474    0.000000
| 10> H     -0.694278   -1.664099    0.890793
| 11> H     -0.694278   -1.664099   -0.890793
| 12> *
| 13>
| 14>                          ****END OF INPUT****

CARTESIAN COORDINATES (ANGSTROEM)
---------------------------------
  N      0.000000    0.723823    0.000000
  N     -0.513023    1.731413    0.000000
  N      0.675733   -0.298488    0.000000
  C     -0.069885   -1.567760    0.000000
  H      0.668896   -2.362474    0.000000
  H     -0.694278   -1.664099    0.890793
  H     -0.694278   -1.664099   -0.890793

 Total Charge           Charge          ....    0
 Multiplicity           Mult            ....    1
 Number of Electrons    NEL             ....   30
 Basis Dimension        Dim             ....  253

ORBITAL ENERGIES
----------------

  NO   OCC          E(Eh)            E(eV)
   0   2.0000     -15.781491      -429.4362
   1   2.0000     -15.663150      -426.2160
   2   2.0000     -15.606930      -424.6862
   3   2.0000     -11.279008      -306.9174
   4   2.0000      -1.505650       -40.9708
   5   2.0000      -1.293383       -35.1947
   6   2.0000      -0.998077       -27.1590
   7   2.0000      -0.738338       -20.0912
   8   2.0000      -0.709804       -19.3147
   9   2.0000      -0.705265       -19.1912
  10   2.0000      -0.666679       -18.1413
  11   2.0000      -0.594045       -16.1648
  12   2.0000      -0.575727       -15.6663
  13   2.0000      -0.440024       -11.9737
  14   2.0000      -0.377715       -10.2782
  15   0.0000       0.028212         0.7677
  16   0.0000       0.044207         1.2029
  17   0.0000       0.045311         1.2330
  18   0.0000       0.065055         1.7702
  19   0.0000       0.092977         2.5300

MULLIKEN ATOMIC CHARGES
-----------------------
   0 N :    1.256292
   1 N :   -0.795280
   2 N :   -0.762336
   3 C :   -0.725625
   4 H :    0.394188
   5 H :    0.316381
   6 H :    0.316381
Sum of atomic charges:    0.0000000

LOEWDIN ATOMIC CHARGES
----------------------
   0 N :   -0.261676
   1 N :    0.270069
   2 N :    0.184072
   3 C :    0.387491
   4 H :   -0.200535
   5 H :   -0.189710
   6 H :   -0.189710

  Mayer bond orders larger than 0.100000
B(  0-N ,  1-N ) :   1.4481 B(  0-N ,  2-N ) :   0.8979 B(  1-N ,  2-N ) :   0.5055
B(  2-N ,  3-C ) :   0.8478 B(  3-C ,  4-H ) :   0.8655 B(  3-C ,  5-H ) :   0.9004
B(  3-C ,  6-H ) :   0.9004

MP2 TOTAL ENERGY:     -203.743892134 Eh
FINAL SINGLE POINT ENERGY      -203.743892133547

DIPOLE MOMENT
-------------
                                X             Y             Z
Electronic contribution:      0.33853       4.86484      -0.00000
Nuclear contribution   :     -0.70971      -5.60698       0.00000
                        -----------------------------------------
Total Dipole Moment    :     -0.37119      -0.74214      -0.00000
                        -----------------------------------------
Magnitude (a.u.)       :      0.82979
Magnitude (Debye)      :      2.10915

Rotational constants in cm-1:     1.534572     0.178354     0.164781
Rotational constants in MHz : 46005.303092  5346.932212  4940.004015

                             ****ORCA TERMINATED NORMALLY****
TOTAL RUN TIME: 0 days 0 hours 0 minutes 50 seconds 624 msec
