                         Program Version 5.0.3 -  RELEASE  -
|  1> !ri-mp2 aug-cc-pvtz aug-cc-pvtz/c tightscf
|  2> %pal nprocs 16 end
|  3>
|  4> * xyz 0 1
|  5> C     -2.888226    0.352672    0.043352
|  6> C      2.230326    1.007436    0.361276
|  7> C     -1.472280    0.450501   -0.510263
|  8> S      1.475203   -0.449173   -0.449721
|  9> S     -0.358677   -0.632636    0.485898
| 10> H     -3.263170   -0.670018   -0.003336
| 11> H     -2.934951    0.684419    1.080970
| 12> H     -3.559094    0.983985   -0.541222
| 13> H      1.664668    1.911244    0.149935
| 14> H      3.229499    1.100849   -0.064440
| 15> H      2.305148    0.847335    1.433383
| 16> H     -1.100520    1.472025   -0.456081
| 17> H     -1.424923    0.115456   -1.544229
| 18> *
| 19>
| 20>                          ****END OF INPUT****

CARTESIAN COORDINATES (ANGSTROEM)
---------------------------------
  C     -2.888226    0.352672    0.043352
  C      2.230326    1.007436    0.361276
  C     -1.472280    0.450501   -0.510263
  S      1.475203   -0.449173   -0.449721
  S     -0.358677   -0.632636    0.485898
  H     -3.263170   -0.670018   -0.003336
  H     -2.934951    0.684419    1.080970
  H     -3.559094    0.983985   -0.541222
  H      1.664668    1.911244    0.149935
  H      3.229499    1.100849   -0.064440
  H      2.305148    0.847335    1.433383
  H     -1.100520    1.472025   -0.456081
  H     -1.424923    0.115456   -1.544229

 Total Charge           Charge          ....    0
 Multiplicity           Mult            ....    1
 Number of Electrons    NEL             ....   58
 Basis Dimension        Dim             ....  422

ORBITAL ENERGIES
----------------

  NO   OCC          E(Eh)            E(eV)
   0   2.0000     -91.972691     -2502.7042
   1   2.0000     -91.969341     -2502.6130
   2   2.0000     -11.262998      -306.4818
   3   2.0000     -11.257664      -306.3366
   4   2.0000     -11.230036      -305.5848
   5   2.0000      -8.970713      -244.1055
   6   2.0000      -8.967665      -244.0226
   7   2.0000      -6.651776      -181.0040
   8   2.0000      -6.650611      -180.9723
   9   2.0000      -6.649713      -180.9479
  10   2.0000      -6.648673      -180.9196
  11   2.0000      -6.647508      -180.8879
  12   2.0000      -6.646649      -180.8645
  13   2.0000      -1.086505       -29.5653
  14   2.0000      -1.035768       -28.1847
  15   2.0000      -0.945556       -25.7299
  16   2.0000      -0.852977       -23.2107
  17   2.0000      -0.779391       -21.2083
  18   2.0000      -0.634154       -17.2562
  19   2.0000      -0.608418       -16.5559
  20   2.0000      -0.595116       -16.1939
  21   2.0000      -0.580437       -15.7945
  22   2.0000      -0.542334       -14.7577
  23   2.0000      -0.522089       -14.2068
  24   2.0000      -0.505478       -13.7548
  25   2.0000      -0.471682       -12.8351
  26   2.0000      -0.433587       -11.7985
  27   2.0000      -0.352707        -9.5976
  28   2.0000      -0.347689        -9.4611
  29   0.0000       0.028977         0.7885
  30   0.0000       0.034125         0.9286
  31   0.0000       0.040807         1.1104
  32   0.0000       0.043657         1.1880
  33   0.0000       0.053773         1.4632

MULLIKEN ATOMIC CHARGES
-----------------------
   0 C :   -0.923504
   1 C :   -0.744952
   2 C :   -0.321047
   3 S :   -0.214476
   4 S :   -0.139057
   5 H :    0.303797
   6 H :    0.305812
   7 H :    0.286562
   8 H :    0.294983
   9 H :    0.293403
  10 H :    0.296244
  11 H :    0.279752
  12 H :    0.282485
Sum of atomic charges:   -0.0000000

LOEWDIN ATOMIC CHARGES
----------------------
   0 C :    0.480930
   1 C :    0.150927
   2 C :   -0.149209
   3 S :    0.652535
   4 S :    0.692941
   5 H :   -0.188942
   6 H :   -0.188484
   7 H :   -0.178375
   8 H :   -0.261857
   9 H :   -0.267838
  10 H :   -0.263991
  11 H :   -0.238348
  12 H :   -0.240288

  Mayer bond orders larger than 0.100000
B(  0-C ,  2-C ) :   0.9222 B(  0-C ,  5-H ) :   0.9275 B(  0-C ,  6-H ) :   0.9183
B(  0-C ,  7-H ) :   0.9510 B(  1-C ,  3-S ) :   0.9308 B(  1-C ,  8-H ) :   0.9036
B(  1-C ,  9-H ) :   0.9238 B(  1-C , 10-H ) :   0.9167 B(  2-C ,  4-S ) :   0.9300
B(  2-C , 11-H ) :   0.9094 B(  2-C , 12-H ) :   0.9297 B(  3-S ,  4-S ) :   1.0505

MP2 TOTAL ENERGY:     -914.306879622 Eh
FINAL SINGLE POINT ENERGY      -914.306879621921

DIPOLE MOMENT
-------------
                                X             Y             Z
Electronic contribution:      4.92974      -5.62520      -0.12786
Nuclear contribution   :     -5.15143       6.52125       0.05422
                        -----------------------------------------
Total Dipole Moment    :     -0.22169       0.89605      -0.07365
                        -----------------------------------------
Magnitude (a.u.)       :      0.92600
Magnitude (Debye)      :      2.35371

Rotational constants in cm-1:     0.242208     0.049771     0.047006
Rotational constants in MHz :  7261.206508  1492.094161  1409.209997

                             ****ORCA TERMINATED NORMALLY****
TOTAL RUN TIME: 0 days 0 hours 2 minutes 14 seconds 62 msec
