                         Program Version 5.0.3 -  RELEASE  -
|  1> !ri-mp2 aug-cc-pvtz aug-cc-pvtz/c tightscf
|  2> %pal nprocs 16 end
|  3>
|  4> * xyz 0 1
|  5> S     -1.181973   -0.258533   -0.605061
|  6> S      0.526277   -0.912219    0.396167
|  7> N      2.499926    1.048130   -0.266984
|  8> C     -1.850452    1.006228    0.528769
|  9> C      1.684030    0.266004   -0.023640
| 10> H     -2.789196    1.324506    0.074977
| 11> H     -1.175486    1.854944    0.595860
| 12> H     -2.045134    0.582281    1.509582
| 13> *
| 14>
| 15>                          ****END OF INPUT****

CARTESIAN COORDINATES (ANGSTROEM)
---------------------------------
  S     -1.181973   -0.258533   -0.605061
  S      0.526277   -0.912219    0.396167
  N      2.499926    1.048130   -0.266984
  C     -1.850452    1.006228    0.528769
  C      1.684030    0.266004   -0.023640
  H     -2.789196    1.324506    0.074977
  H     -1.175486    1.854944    0.595860
  H     -2.045134    0.582281    1.509582

 Total Charge           Charge          ....    0
 Multiplicity           Mult            ....    1
 Number of Electrons    NEL             ....   54
 Basis Dimension        Dim             ....  307

ORBITAL ENERGIES
----------------

  NO   OCC          E(Eh)            E(eV)
   0   2.0000     -92.044009     -2504.6448
   1   2.0000     -92.015269     -2503.8628
   2   2.0000     -15.588965      -424.1973
   3   2.0000     -11.302040      -307.5441
   4   2.0000     -11.285264      -307.0876
   5   2.0000      -9.041358      -246.0279
   6   2.0000      -9.013104      -245.2590
   7   2.0000      -6.722467      -182.9276
   8   2.0000      -6.721057      -182.8893
   9   2.0000      -6.720020      -182.8610
  10   2.0000      -6.694062      -182.1547
  11   2.0000      -6.692631      -182.1157
  12   2.0000      -6.691688      -182.0901
  13   2.0000      -1.235656       -33.6239
  14   2.0000      -1.111942       -30.2575
  15   2.0000      -1.019068       -27.7303
  16   2.0000      -0.873806       -23.7775
  17   2.0000      -0.680929       -18.5290
  18   2.0000      -0.624322       -16.9887
  19   2.0000      -0.615975       -16.7615
  20   2.0000      -0.571498       -15.5512
  21   2.0000      -0.558163       -15.1884
  22   2.0000      -0.535541       -14.5728
  23   2.0000      -0.503605       -13.7038
  24   2.0000      -0.452714       -12.3190
  25   2.0000      -0.402460       -10.9515
  26   2.0000      -0.390115       -10.6156
  27   0.0000       0.024238         0.6596
  28   0.0000       0.038070         1.0359
  29   0.0000       0.044767         1.2182
  30   0.0000       0.052335         1.4241
  31   0.0000       0.055310         1.5051

MULLIKEN ATOMIC CHARGES
-----------------------
   0 S :   -0.082501
   1 S :    0.045168
   2 N :   -0.349067
   3 C :   -0.731156
   4 C :    0.187946
   5 H :    0.310341
   6 H :    0.309252
   7 H :    0.310016
Sum of atomic charges:    0.0000000

LOEWDIN ATOMIC CHARGES
----------------------
   0 S :    0.697167
   1 S :    0.650429
   2 N :    0.123458
   3 C :    0.167005
   4 C :   -0.864089
   5 H :   -0.261317
   6 H :   -0.254421
   7 H :   -0.258232

  Mayer bond orders larger than 0.100000
B(  0-S ,  1-S ) :   1.0741 B(  0-S ,  3-C ) :   0.9276 B(  1-S ,  4-C ) :   1.0085
B(  2-N ,  4-C ) :   2.5914 B(  3-C ,  5-H ) :   0.9022 B(  3-C ,  6-H ) :   0.8998
B(  3-C ,  7-H ) :   0.9009

MP2 TOTAL ENERGY:     -927.930010929 Eh
FINAL SINGLE POINT ENERGY      -927.930010928553

DIPOLE MOMENT
-------------
                                X             Y             Z
Electronic contribution:      4.22796      -3.87822      -1.57185
Nuclear contribution   :     -5.76147       3.66812       2.10723
                        -----------------------------------------
Total Dipole Moment    :     -1.53351      -0.21010       0.53539
                        -----------------------------------------
Magnitude (a.u.)       :      1.63781
Magnitude (Debye)      :      4.16299

Rotational constants in cm-1:     0.195972     0.066517     0.057654
Rotational constants in MHz :  5875.105092  1994.130646  1728.413958

                             ****ORCA TERMINATED NORMALLY****
TOTAL RUN TIME: 0 days 0 hours 1 minutes 8 seconds 880 msec
