                         Program Version 5.0.3 -  RELEASE  -
|  1> !ri-mp2 aug-cc-pvtz aug-cc-pvtz/c tightscf
|  2> %pal nprocs 16 end
|  3>
|  4> * xyz 0 1
|  5> C     -0.006539    1.816315    0.000770
|  6> C     -1.206885    1.122732    0.003227
|  7> C      1.203615    1.128282   -0.003363
|  8> C      0.003201   -0.944349   -0.003037
|  9> C     -1.217101   -0.275020    0.000767
| 10> C      1.224038   -0.263414   -0.004087
| 11> C     -2.520205   -1.031510   -0.000034
| 12> C      2.523101   -1.026861    0.003313
| 13> H     -0.009355    2.898503    0.000809
| 14> H     -2.143779    1.666030    0.005352
| 15> H      2.135935    1.678679   -0.006919
| 16> H      0.006865   -2.028704   -0.006327
| 17> H     -2.355320   -2.108183    0.003671
| 18> H     -3.122522   -0.782103    0.875925
| 19> H     -3.118135   -0.787666   -0.880617
| 20> H      2.555129   -1.763345   -0.801592
| 21> H      3.375896   -0.360048   -0.117283
| 22> H      2.655935   -1.570209    0.941651
| 23> *
| 24>
| 25>                          ****END OF INPUT****

CARTESIAN COORDINATES (ANGSTROEM)
---------------------------------
  C     -0.006539    1.816315    0.000770
  C     -1.206885    1.122732    0.003227
  C      1.203615    1.128282   -0.003363
  C      0.003201   -0.944349   -0.003037
  C     -1.217101   -0.275020    0.000767
  C      1.224038   -0.263414   -0.004087
  C     -2.520205   -1.031510   -0.000034
  C      2.523101   -1.026861    0.003313
  H     -0.009355    2.898503    0.000809
  H     -2.143779    1.666030    0.005352
  H      2.135935    1.678679   -0.006919
  H      0.006865   -2.028704   -0.006327
  H     -2.355320   -2.108183    0.003671
  H     -3.122522   -0.782103    0.875925
  H     -3.118135   -0.787666   -0.880617
  H      2.555129   -1.763345   -0.801592
  H      3.375896   -0.360048   -0.117283
  H      2.655935   -1.570209    0.941651

 Total Charge           Charge          ....    0
 Multiplicity           Mult            ....    1
 Number of Electrons    NEL             ....   58
 Basis Dimension        Dim             ....  598

ORBITAL ENERGIES
----------------

  NO   OCC          E(Eh)            E(eV)
   0   2.0000     -11.238210      -305.8072
   1   2.0000     -11.237778      -305.7955
   2   2.0000     -11.229438      -305.5685
   3   2.0000     -11.221323      -305.3477
   4   2.0000     -11.221226      -305.3451
   5   2.0000     -11.221177      -305.3438
   6   2.0000     -11.221109      -305.3419
   7   2.0000     -11.220773      -305.3328
   8   2.0000      -1.154017       -31.4024
   9   2.0000      -1.054943       -28.7065
  10   2.0000      -1.026589       -27.9349
  11   2.0000      -0.938220       -25.5303
  12   2.0000      -0.924882       -25.1673
  13   2.0000      -0.812726       -22.1154
  14   2.0000      -0.779713       -21.2171
  15   2.0000      -0.681443       -18.5430
  16   2.0000      -0.642424       -17.4813
  17   2.0000      -0.616136       -16.7659
  18   2.0000      -0.579462       -15.7680
  19   2.0000      -0.568228       -15.4623
  20   2.0000      -0.567046       -15.4301
  21   2.0000      -0.559511       -15.2251
  22   2.0000      -0.549822       -14.9614
  23   2.0000      -0.525186       -14.2910
  24   2.0000      -0.479596       -13.0505
  25   2.0000      -0.478607       -13.0236
  26   2.0000      -0.475934       -12.9508
  27   2.0000      -0.326959        -8.8970
  28   2.0000      -0.317487        -8.6393
  29   0.0000       0.029695         0.8080
  30   0.0000       0.032168         0.8753
  31   0.0000       0.033919         0.9230
  32   0.0000       0.044862         1.2208
  33   0.0000       0.045874         1.2483

MULLIKEN ATOMIC CHARGES
-----------------------
   0 C :   -0.543513
   1 C :   -0.802396
   2 C :   -0.694988
   3 C :   -1.131430
   4 C :    1.209840
   5 C :    1.222260
   6 C :   -0.934237
   7 C :   -0.799686
   8 H :    0.574955
   9 H :    0.250846
  10 H :    0.019851
  11 H :    0.065458
  12 H :    0.239338
  13 H :    0.260019
  14 H :    0.259336
  15 H :    0.257504
  16 H :    0.263968
  17 H :    0.282875
Sum of atomic charges:    0.0000000

LOEWDIN ATOMIC CHARGES
----------------------
   0 C :    0.197682
   1 C :    0.208646
   2 C :    0.210233
   3 C :    0.229157
   4 C :   -0.123209
   5 C :   -0.122464
   6 C :    0.578946
   7 C :    0.579131
   8 H :   -0.184131
   9 H :   -0.179543
  10 H :   -0.185938
  11 H :   -0.176426
  12 H :   -0.181448
  13 H :   -0.167413
  14 H :   -0.167213
  15 H :   -0.169278
  16 H :   -0.180874
  17 H :   -0.165859

  Mayer bond orders larger than 0.100000
B(  0-C ,  1-C ) :   1.0365 B(  0-C ,  2-C ) :   1.0395 B(  0-C ,  4-C ) :   0.2589
B(  0-C ,  5-C ) :   0.2321 B(  0-C ,  8-H ) :   0.5694 B(  0-C ,  9-H ) :  -0.1521
B(  0-C , 10-H ) :  -0.1253 B(  1-C ,  3-C ) :   0.1080 B(  1-C ,  4-C ) :   0.5676
B(  1-C ,  5-C ) :  -0.1299 B(  1-C ,  6-C ) :   0.1332 B(  1-C ,  9-H ) :   1.1640
B(  1-C , 10-H ) :   0.1105 B(  2-C ,  5-C ) :   0.6292 B(  2-C ,  9-H ) :   0.2098
B(  2-C , 10-H ) :   1.5970 B(  3-C ,  4-C ) :   0.6119 B(  3-C ,  5-C ) :   0.5064
B(  3-C ,  9-H ) :   0.1350 B(  3-C , 10-H ) :   0.1883 B(  3-C , 11-H ) :   1.4172
B(  4-C ,  5-C ) :   0.3890 B(  4-C ,  6-C ) :   0.3893 B(  4-C ,  9-H ) :  -0.2248
B(  5-C ,  7-C ) :   0.4547 B(  5-C , 10-H ) :  -0.2517 B(  5-C , 11-H ) :  -0.1450
B(  6-C , 12-H ) :   1.0299 B(  6-C , 13-H ) :   1.0302 B(  6-C , 14-H ) :   1.0337
B(  7-C , 15-H ) :   1.0344 B(  7-C , 16-H ) :   0.9950 B(  7-C , 17-H ) :   0.9992

MP2 TOTAL ENERGY:     -310.203742967 Eh
FINAL SINGLE POINT ENERGY      -310.203742966841

DIPOLE MOMENT
-------------
                                X             Y             Z
Electronic contribution:      0.00541       3.08916      -0.01090
Nuclear contribution   :     -0.01985      -3.23913       0.01505
                        -----------------------------------------
Total Dipole Moment    :     -0.01444      -0.14997       0.00415
                        -----------------------------------------
Magnitude (a.u.)       :      0.15072
Magnitude (Debye)      :      0.38310

Rotational constants in cm-1:     0.119814     0.058907     0.040075
Rotational constants in MHz :  3591.922440  1765.975691  1201.419058

                             ****ORCA TERMINATED NORMALLY****
TOTAL RUN TIME: 0 days 0 hours 6 minutes 48 seconds 266 msec
