                         Program Version 5.0.3 -  RELEASE  -
|  1> !ri-mp2 aug-cc-pvtz aug-cc-pvtz/c tightscf
|  2> %pal nprocs 16 end
|  3>
|  4> * xyz 0 1
|  5> C      0.091342    3.082579    0.000000
|  6> C      0.094844    2.390597    1.206836
|  7> C      0.094844    2.390597   -1.206836
|  8> C      0.094844    1.001048    1.213029
|  9> C      0.094844    1.001048   -1.213029
| 10> C      0.088331    0.322160    0.000000
| 11> C     -1.655962   -1.917459    0.000000
| 12> O      0.656057   -1.929130   -1.266976
| 13> O      0.656057   -1.929130    1.266976
| 14> S      0.091079   -1.476746    0.000000
| 15> H      0.094921    4.164148    0.000000
| 16> H      0.106394    2.931653    2.142942
| 17> H      0.106394    2.931653   -2.142942
| 18> H      0.122551    0.445707    2.139560
| 19> H      0.122551    0.445707   -2.139560
| 20> H     -2.120878   -1.521537   -0.898564
| 21> H     -1.683749   -3.005188    0.000000
| 22> H     -2.120878   -1.521537    0.898564
| 23> *
| 24>
| 25>                          ****END OF INPUT****

CARTESIAN COORDINATES (ANGSTROEM)
---------------------------------
  C      0.091342    3.082579    0.000000
  C      0.094844    2.390597    1.206836
  C      0.094844    2.390597   -1.206836
  C      0.094844    1.001048    1.213029
  C      0.094844    1.001048   -1.213029
  C      0.088331    0.322160    0.000000
  C     -1.655962   -1.917459    0.000000
  O      0.656057   -1.929130   -1.266976
  O      0.656057   -1.929130    1.266976
  S      0.091079   -1.476746    0.000000
  H      0.094921    4.164148    0.000000
  H      0.106394    2.931653    2.142942
  H      0.106394    2.931653   -2.142942
  H      0.122551    0.445707    2.139560
  H      0.122551    0.445707   -2.139560
  H     -2.120878   -1.521537   -0.898564
  H     -1.683749   -3.005188    0.000000
  H     -2.120878   -1.521537    0.898564

 Total Charge           Charge          ....    0
 Multiplicity           Mult            ....    1
 Number of Electrons    NEL             ....   82
 Basis Dimension        Dim             ....  648

ORBITAL ENERGIES
----------------

  NO   OCC          E(Eh)            E(eV)
   0   2.0000     -92.182399     -2508.4106
   1   2.0000     -20.541806      -558.9710
   2   2.0000     -20.541786      -558.9704
   3   2.0000     -11.280920      -306.9694
   4   2.0000     -11.275324      -306.8172
   5   2.0000     -11.267619      -306.6075
   6   2.0000     -11.267546      -306.6055
   7   2.0000     -11.264588      -306.5250
   8   2.0000     -11.258642      -306.3632
   9   2.0000     -11.258505      -306.3595
  10   2.0000      -9.151353      -249.0210
  11   2.0000      -6.835952      -186.0157
  12   2.0000      -6.835611      -186.0064
  13   2.0000      -6.835519      -186.0039
  14   2.0000      -1.441567       -39.2270
  15   2.0000      -1.330865       -36.2147
  16   2.0000      -1.185957       -32.2715
  17   2.0000      -1.068682       -29.0803
  18   2.0000      -1.045709       -28.4552
  19   2.0000      -1.027459       -27.9586
  20   2.0000      -0.892166       -24.2771
  21   2.0000      -0.857323       -23.3290
  22   2.0000      -0.805992       -21.9322
  23   2.0000      -0.736678       -20.0460
  24   2.0000      -0.683047       -18.5867
  25   2.0000      -0.665399       -18.1064
  26   2.0000      -0.660370       -17.9696
  27   2.0000      -0.643106       -17.4998
  28   2.0000      -0.639027       -17.3888
  29   2.0000      -0.617137       -16.7932
  30   2.0000      -0.601563       -16.3694
  31   2.0000      -0.598894       -16.2967
  32   2.0000      -0.546802       -14.8792
  33   2.0000      -0.532191       -14.4817
  34   2.0000      -0.523911       -14.2563
  35   2.0000      -0.494398       -13.4533
  36   2.0000      -0.491384       -13.3712
  37   2.0000      -0.467505       -12.7214
  38   2.0000      -0.437880       -11.9153
  39   2.0000      -0.372061       -10.1243
  40   2.0000      -0.363455        -9.8901
  41   0.0000       0.021785         0.5928
  42   0.0000       0.029719         0.8087
  43   0.0000       0.030419         0.8278
  44   0.0000       0.042119         1.1461
  45   0.0000       0.047035         1.2799

MULLIKEN ATOMIC CHARGES
-----------------------
   0 C :   -0.328401
   1 C :   -0.475125
   2 C :   -0.475120
   3 C :   -0.842856
   4 C :   -0.842852
   5 C :    0.990721
   6 C :   -1.080310
   7 O :   -1.062537
   8 O :   -1.062537
   9 S :    2.023427
  10 H :    0.511503
  11 H :    0.395322
  12 H :    0.395320
  13 H :    0.460460
  14 H :    0.460461
  15 H :    0.328979
  16 H :    0.274566
  17 H :    0.328978
Sum of atomic charges:   -0.0000000

LOEWDIN ATOMIC CHARGES
----------------------
   0 C :    0.208861
   1 C :    0.209105
   2 C :    0.209105
   3 C :    0.164813
   4 C :    0.164813
   5 C :   -0.237497
   6 C :    0.510403
   7 O :    0.032486
   8 O :    0.032486
   9 S :    0.254577
  10 H :   -0.177357
  11 H :   -0.181460
  12 H :   -0.181460
  13 H :   -0.194655
  14 H :   -0.194655
  15 H :   -0.206409
  16 H :   -0.206747
  17 H :   -0.206409

  Mayer bond orders larger than 0.100000
B(  0-C ,  1-C ) :   1.1277 B(  0-C ,  2-C ) :   1.1277 B(  0-C ,  3-C ) :   0.1648
B(  0-C ,  4-C ) :   0.1648 B(  0-C , 10-H ) :   0.7376 B(  1-C ,  3-C ) :   1.1379
B(  1-C , 11-H ) :   0.9847 B(  2-C ,  4-C ) :   1.1379 B(  2-C , 12-H ) :   0.9847
B(  3-C ,  4-C ) :   0.3453 B(  3-C ,  5-C ) :   0.5983 B(  3-C , 13-H ) :   0.7592
B(  4-C ,  5-C ) :   0.5983 B(  4-C , 14-H ) :   0.7592 B(  5-C ,  6-C ) :   0.1028
B(  5-C ,  9-S ) :   1.0960 B(  6-C ,  9-S ) :   0.8956 B(  6-C , 15-H ) :   0.8777
B(  6-C , 16-H ) :   0.9484 B(  6-C , 17-H ) :   0.8777 B(  7-O ,  9-S ) :   1.1330
B(  8-O ,  9-S ) :   1.1330

MP2 TOTAL ENERGY:     -818.929350348 Eh
FINAL SINGLE POINT ENERGY      -818.929350347518

DIPOLE MOMENT
-------------
                                X             Y             Z
Electronic contribution:      3.73563      -3.17592      -0.00000
Nuclear contribution   :     -5.27950       4.78706       0.00000
                        -----------------------------------------
Total Dipole Moment    :     -1.54388       1.61114      -0.00000
                        -----------------------------------------
Magnitude (a.u.)       :      2.23144
Magnitude (Debye)      :      5.67186

Rotational constants in cm-1:     0.084039     0.027272     0.024043
Rotational constants in MHz :  2519.411417   817.595621   720.777186

                             ****ORCA TERMINATED NORMALLY****
TOTAL RUN TIME: 0 days 0 hours 11 minutes 15 seconds 625 msec
