                         Program Version 5.0.3 -  RELEASE  -
|  1> !ri-mp2 aug-cc-pvtz aug-cc-pvtz/c tightscf
|  2> %pal nprocs 16 end
|  3>
|  4> * xyz 0 1
|  5> N     -1.672206    0.735432    0.281233
|  6> H     -2.635471    0.448331    0.316740
|  7> H     -1.408035    1.582616    0.748896
|  8> C      1.669363   -0.902956    0.274192
|  9> H      1.491299   -1.339113    1.259311
| 10> H      1.537891   -1.708491   -0.448267
| 11> H      2.695543   -0.542835    0.230507
| 12> C      1.067908    1.453999   -0.283116
| 13> H      0.354906    2.225169   -0.540582
| 14> H      2.112388    1.736805   -0.297815
| 15> C     -0.747453   -0.216273   -0.042278
| 16> O     -1.070845   -1.348227   -0.361502
| 17> C      0.697462    0.204449   -0.006366
| 18> *
| 19>
| 20>                          ****END OF INPUT****

CARTESIAN COORDINATES (ANGSTROEM)
---------------------------------
  N     -1.672206    0.735432    0.281233
  H     -2.635471    0.448331    0.316740
  H     -1.408035    1.582616    0.748896
  C      1.669363   -0.902956    0.274192
  H      1.491299   -1.339113    1.259311
  H      1.537891   -1.708491   -0.448267
  H      2.695543   -0.542835    0.230507
  C      1.067908    1.453999   -0.283116
  H      0.354906    2.225169   -0.540582
  H      2.112388    1.736805   -0.297815
  C     -0.747453   -0.216273   -0.042278
  O     -1.070845   -1.348227   -0.361502
  C      0.697462    0.204449   -0.006366

 Total Charge           Charge          ....    0
 Multiplicity           Mult            ....    1
 Number of Electrons    NEL             ....   46
 Basis Dimension        Dim             ....  437

ORBITAL ENERGIES
----------------

  NO   OCC          E(Eh)            E(eV)
   0   2.0000     -20.522628      -558.4491
   1   2.0000     -15.585397      -424.1002
   2   2.0000     -11.356085      -309.0148
   3   2.0000     -11.259027      -306.3737
   4   2.0000     -11.244382      -305.9752
   5   2.0000     -11.224345      -305.4300
   6   2.0000      -1.384253       -37.6674
   7   2.0000      -1.213777       -33.0286
   8   2.0000      -1.094107       -29.7722
   9   2.0000      -0.947716       -25.7887
  10   2.0000      -0.864786       -23.5320
  11   2.0000      -0.761223       -20.7139
  12   2.0000      -0.717322       -19.5193
  13   2.0000      -0.670469       -18.2444
  14   2.0000      -0.629035       -17.1169
  15   2.0000      -0.602212       -16.3870
  16   2.0000      -0.585489       -15.9320
  17   2.0000      -0.552673       -15.0390
  18   2.0000      -0.536357       -14.5950
  19   2.0000      -0.527910       -14.3652
  20   2.0000      -0.431793       -11.7497
  21   2.0000      -0.415541       -11.3074
  22   2.0000      -0.379937       -10.3386
  23   0.0000       0.023259         0.6329
  24   0.0000       0.033097         0.9006
  25   0.0000       0.037717         1.0263
  26   0.0000       0.046707         1.2710
  27   0.0000       0.052977         1.4416

MULLIKEN ATOMIC CHARGES
-----------------------
   0 N :   -0.372082
   1 H :    0.128661
   2 H :    0.138867
   3 C :   -0.903044
   4 H :    0.291022
   5 H :    0.270464
   6 H :    0.251187
   7 C :   -1.240104
   8 H :    0.369559
   9 H :    0.338510
  10 C :    0.585863
  11 O :   -0.798097
  12 C :    0.939195
Sum of atomic charges:   -0.0000000

LOEWDIN ATOMIC CHARGES
----------------------
   0 N :    0.846485
   1 H :   -0.292153
   2 H :   -0.318095
   3 C :    0.554588
   4 H :   -0.164582
   5 H :   -0.174535
   6 H :   -0.180172
   7 C :    0.547357
   8 H :   -0.221519
   9 H :   -0.207609
  10 C :   -0.689516
  11 O :    0.439590
  12 C :   -0.139839

  Mayer bond orders larger than 0.100000
B(  0-N ,  1-H ) :   1.0404 B(  0-N ,  2-H ) :   1.0379 B(  0-N , 10-C ) :   1.0002
B(  3-C ,  4-H ) :   0.9451 B(  3-C ,  5-H ) :   0.9873 B(  3-C ,  6-H ) :   0.9849
B(  3-C , 12-C ) :   0.8183 B(  7-C ,  8-H ) :   0.9211 B(  7-C ,  9-H ) :   0.9415
B(  7-C , 12-C ) :   1.2483 B( 10-C , 11-O ) :   1.2959 B( 10-C , 12-C ) :   0.6112

MP2 TOTAL ENERGY:     -286.083046535 Eh
FINAL SINGLE POINT ENERGY      -286.083046534864

DIPOLE MOMENT
-------------
                                X             Y             Z
Electronic contribution:     -3.92094      -1.05529      -0.70765
Nuclear contribution   :      4.18408       2.42157       1.28384
                        -----------------------------------------
Total Dipole Moment    :      0.26314       1.36628       0.57619
                        -----------------------------------------
Magnitude (a.u.)       :      1.50598
Magnitude (Debye)      :      3.82790

Rotational constants in cm-1:     0.175280     0.111638     0.072886
Rotational constants in MHz :  5254.771624  3346.824446  2185.063911

                             ****ORCA TERMINATED NORMALLY****
TOTAL RUN TIME: 0 days 0 hours 2 minutes 54 seconds 27 msec
