                         Program Version 5.0.3 -  RELEASE  -
|  1> !ri-mp2 aug-cc-pvtz aug-cc-pvtz/c tightscf
|  2> %pal nprocs 16 end
|  3>
|  4> * xyz 0 1
|  5> C      0.000000    0.105348    0.000000
|  6> C      2.229810   -1.101248    0.000000
|  7> C     -2.125328    1.140307    0.000000
|  8> C      0.712415   -1.227832    0.000000
|  9> O      0.529639    1.188224    0.000000
| 10> O     -1.340167   -0.063276    0.000000
| 11> H      2.578825   -0.559466    0.877868
| 12> H      2.691306   -2.088610    0.000000
| 13> H      2.578825   -0.559466   -0.877868
| 14> H     -3.160662    0.813935    0.000000
| 15> H     -1.911948    1.735162   -0.886287
| 16> H     -1.911948    1.735162    0.886287
| 17> H      0.359222   -1.787875    0.869073
| 18> H      0.359222   -1.787875   -0.869073
| 19> *
| 20>
| 21>                          ****END OF INPUT****

CARTESIAN COORDINATES (ANGSTROEM)
---------------------------------
  C      0.000000    0.105348    0.000000
  C      2.229810   -1.101248    0.000000
  C     -2.125328    1.140307    0.000000
  C      0.712415   -1.227832    0.000000
  O      0.529639    1.188224    0.000000
  O     -1.340167   -0.063276    0.000000
  H      2.578825   -0.559466    0.877868
  H      2.691306   -2.088610    0.000000
  H      2.578825   -0.559466   -0.877868
  H     -3.160662    0.813935    0.000000
  H     -1.911948    1.735162   -0.886287
  H     -1.911948    1.735162    0.886287
  H      0.359222   -1.787875    0.869073
  H      0.359222   -1.787875   -0.869073

 Total Charge           Charge          ....    0
 Multiplicity           Mult            ....    1
 Number of Electrons    NEL             ....   48
 Basis Dimension        Dim             ....  460

ORBITAL ENERGIES
----------------

  NO   OCC          E(Eh)            E(eV)
   0   2.0000     -20.601352      -560.5913
   1   2.0000     -20.543214      -559.0093
   2   2.0000     -11.375949      -309.5553
   3   2.0000     -11.284248      -307.0600
   4   2.0000     -11.244118      -305.9680
   5   2.0000     -11.219784      -305.3058
   6   2.0000      -1.457308       -39.6554
   7   2.0000      -1.357355       -36.9355
   8   2.0000      -1.064434       -28.9647
   9   2.0000      -0.973908       -26.5014
  10   2.0000      -0.878809       -23.9136
  11   2.0000      -0.766897       -20.8683
  12   2.0000      -0.700005       -19.0481
  13   2.0000      -0.677565       -18.4375
  14   2.0000      -0.669533       -18.2189
  15   2.0000      -0.619702       -16.8630
  16   2.0000      -0.601254       -16.3609
  17   2.0000      -0.542132       -14.7522
  18   2.0000      -0.537974       -14.6390
  19   2.0000      -0.524468       -14.2715
  20   2.0000      -0.518287       -14.1033
  21   2.0000      -0.496321       -13.5056
  22   2.0000      -0.462118       -12.5749
  23   2.0000      -0.446017       -12.1367
  24   0.0000       0.028369         0.7720
  25   0.0000       0.033786         0.9194
  26   0.0000       0.040759         1.1091
  27   0.0000       0.042488         1.1562
  28   0.0000       0.053263         1.4493

MULLIKEN ATOMIC CHARGES
-----------------------
   0 C :    0.453736
   1 C :   -0.844212
   2 C :   -0.734836
   3 C :   -0.214278
   4 O :   -0.732796
   5 O :   -0.353480
   6 H :    0.279425
   7 H :    0.276449
   8 H :    0.279425
   9 H :    0.358465
  10 H :    0.354074
  11 H :    0.354074
  12 H :    0.261977
  13 H :    0.261977
Sum of atomic charges:    0.0000000

LOEWDIN ATOMIC CHARGES
----------------------
   0 C :   -0.818722
   1 C :    0.568599
   2 C :    0.357342
   3 C :    0.251965
   4 O :    0.465440
   5 O :    0.558806
   6 H :   -0.171785
   7 H :   -0.173358
   8 H :   -0.171785
   9 H :   -0.188783
  10 H :   -0.182405
  11 H :   -0.182405
  12 H :   -0.156455
  13 H :   -0.156455

  Mayer bond orders larger than 0.100000
B(  0-C ,  3-C ) :   0.6344 B(  0-C ,  4-O ) :   1.5487 B(  0-C ,  5-O ) :   1.0503
B(  1-C ,  3-C ) :   0.9309 B(  1-C ,  6-H ) :   0.9349 B(  1-C ,  7-H ) :   0.9883
B(  1-C ,  8-H ) :   0.9349 B(  2-C ,  5-O ) :   0.8184 B(  2-C ,  9-H ) :   0.8997
B(  2-C , 10-H ) :   0.8832 B(  2-C , 11-H ) :   0.8832 B(  3-C , 12-H ) :   0.9486
B(  3-C , 13-H ) :   0.9486

MP2 TOTAL ENERGY:     -307.155166948 Eh
FINAL SINGLE POINT ENERGY      -307.155166948465

DIPOLE MOMENT
-------------
                                X             Y             Z
Electronic contribution:     -2.07380       1.94760       0.00000
Nuclear contribution   :      1.60644      -2.53879       0.00000
                        -----------------------------------------
Total Dipole Moment    :     -0.46735      -0.59119       0.00000
                        -----------------------------------------
Magnitude (a.u.)       :      0.75361
Magnitude (Debye)      :      1.91553

Rotational constants in cm-1:     0.319299     0.071005     0.060015
Rotational constants in MHz :  9572.352740  2128.678736  1799.203763

                             ****ORCA TERMINATED NORMALLY****
TOTAL RUN TIME: 0 days 0 hours 3 minutes 7 seconds 971 msec
