                         Program Version 5.0.3 -  RELEASE  -
|  1> !ri-mp2 aug-cc-pvtz aug-cc-pvtz/c tightscf
|  2> %pal nprocs 16 end
|  3>
|  4> * xyz 0 1
|  5> C     -2.942068    0.313165   -0.088641
|  6> C      0.735707    0.108753   -0.508616
|  7> C     -0.654620   -0.311306    0.007121
|  8> O     -1.574078    0.542788   -0.481566
|  9> F     -0.678682   -0.369389    1.367117
| 10> F     -0.901211   -1.593523   -0.415518
| 11> Cl     1.144790    1.756836    0.037582
| 12> Cl     1.979103   -1.067794   -0.011846
| 13> H     -3.270321   -0.674881   -0.406191
| 14> H     -3.516616    1.078339   -0.599716
| 15> H     -3.051412    0.421676    0.988511
| 16> H      0.709733    0.121384   -1.591166
| 17> *
| 18>
| 19>                          ****END OF INPUT****

CARTESIAN COORDINATES (ANGSTROEM)
---------------------------------
  C     -2.942068    0.313165   -0.088641
  C      0.735707    0.108753   -0.508616
  C     -0.654620   -0.311306    0.007121
  O     -1.574078    0.542788   -0.481566
  F     -0.678682   -0.369389    1.367117
  F     -0.901211   -1.593523   -0.415518
  Cl     1.144790    1.756836    0.037582
  Cl     1.979103   -1.067794   -0.011846
  H     -3.270321   -0.674881   -0.406191
  H     -3.516616    1.078339   -0.599716
  H     -3.051412    0.421676    0.988511
  H      0.709733    0.121384   -1.591166

 Total Charge           Charge          ....    0
 Multiplicity           Mult            ....    1
 Number of Electrons    NEL             ....   82
 Basis Dimension        Dim             ....  468

ORBITAL ENERGIES
----------------

  NO   OCC          E(Eh)            E(eV)
   0   2.0000    -104.857641     -2853.3215
   1   2.0000    -104.856845     -2853.2998
   2   2.0000     -26.332030      -716.5310
   3   2.0000     -26.330309      -716.4841
   4   2.0000     -20.617143      -561.0210
   5   2.0000     -11.494078      -312.7698
   6   2.0000     -11.389023      -309.9111
   7   2.0000     -11.304320      -307.6062
   8   2.0000     -10.581504      -287.9374
   9   2.0000     -10.580780      -287.9177
  10   2.0000      -8.048332      -219.0063
  11   2.0000      -8.047610      -218.9866
  12   2.0000      -8.046277      -218.9503
  13   2.0000      -8.046226      -218.9489
  14   2.0000      -8.045556      -218.9307
  15   2.0000      -8.045501      -218.9292
  16   2.0000      -1.691564       -46.0298
  17   2.0000      -1.620470       -44.0952
  18   2.0000      -1.443782       -39.2873
  19   2.0000      -1.207592       -32.8602
  20   2.0000      -1.102708       -30.0062
  21   2.0000      -1.034379       -28.1469
  22   2.0000      -0.939339       -25.5607
  23   2.0000      -0.880009       -23.9463
  24   2.0000      -0.802512       -21.8374
  25   2.0000      -0.788243       -21.4492
  26   2.0000      -0.764393       -20.8002
  27   2.0000      -0.702379       -19.1127
  28   2.0000      -0.687482       -18.7073
  29   2.0000      -0.655629       -17.8406
  30   2.0000      -0.644871       -17.5478
  31   2.0000      -0.637955       -17.3596
  32   2.0000      -0.631450       -17.1826
  33   2.0000      -0.589245       -16.0342
  34   2.0000      -0.584642       -15.9089
  35   2.0000      -0.545183       -14.8352
  36   2.0000      -0.508926       -13.8486
  37   2.0000      -0.479869       -13.0579
  38   2.0000      -0.477081       -12.9820
  39   2.0000      -0.457018       -12.4361
  40   2.0000      -0.450601       -12.2615
  41   0.0000       0.026790         0.7290
  42   0.0000       0.038257         1.0410
  43   0.0000       0.045136         1.2282
  44   0.0000       0.047830         1.3015
  45   0.0000       0.070394         1.9155

MULLIKEN ATOMIC CHARGES
-----------------------
   0 C :   -0.888805
   1 C :    0.053745
   2 C :    1.486514
   3 O :   -0.506543
   4 F :   -0.445686
   5 F :   -0.451613
   6 Cl:   -0.298715
   7 Cl:   -0.323857
   8 H :    0.385287
   9 H :    0.358138
  10 H :    0.375682
  11 H :    0.255852
Sum of atomic charges:   -0.0000000

LOEWDIN ATOMIC CHARGES
----------------------
   0 C :    0.383542
   1 C :   -1.218506
   2 C :   -1.567583
   3 O :    0.526957
   4 F :    0.483407
   5 F :    0.474818
   6 Cl:    0.900071
   7 Cl:    0.897330
   8 H :   -0.182500
   9 H :   -0.182314
  10 H :   -0.182787
  11 H :   -0.332434

  Mayer bond orders larger than 0.100000
B(  0-C ,  3-O ) :   0.8616 B(  0-C ,  8-H ) :   0.8415 B(  0-C ,  9-H ) :   0.9230
B(  0-C , 10-H ) :   0.8512 B(  1-C ,  2-C ) :   0.9333 B(  1-C ,  5-F ) :   0.1286
B(  1-C ,  6-Cl) :   0.8714 B(  1-C ,  7-Cl) :   0.8121 B(  1-C , 11-H ) :   0.9274
B(  2-C ,  3-O ) :   1.0224 B(  2-C ,  4-F ) :   0.5447 B(  2-C ,  5-F ) :   0.4985

MP2 TOTAL ENERGY:    -1310.505748657 Eh
FINAL SINGLE POINT ENERGY     -1310.505748657348

DIPOLE MOMENT
-------------
                                X             Y             Z
Electronic contribution:     10.31217      -1.56524       1.94935
Nuclear contribution   :    -11.26067       1.78105      -2.42044
                        -----------------------------------------
Total Dipole Moment    :     -0.94849       0.21580      -0.47109
                        -----------------------------------------
Magnitude (a.u.)       :      1.08081
Magnitude (Debye)      :      2.74719

Rotational constants in cm-1:     0.064997     0.037720     0.027785
Rotational constants in MHz :  1948.572381  1130.822555   832.979021

                             ****ORCA TERMINATED NORMALLY****
TOTAL RUN TIME: 0 days 0 hours 3 minutes 21 seconds 280 msec
