                         Program Version 5.0.3 -  RELEASE  -
|  1> !ri-mp2 aug-cc-pvtz aug-cc-pvtz/c tightscf
|  2> %pal nprocs 16 end
|  3>
|  4> * xyz 0 1
|  5> N      0.000000    0.625382    0.000000
|  6> O     -1.204276    0.568235    0.000000
|  7> O      0.724269    1.578295    0.000000
|  8> O      0.708849   -0.603160    0.000000
|  9> C     -0.143421   -1.760352    0.000000
| 10> H      0.559744   -2.588769    0.000000
| 11> H     -0.764976   -1.786875    0.892235
| 12> H     -0.764976   -1.786875   -0.892235
| 13> *
| 14>
| 15>                          ****END OF INPUT****

CARTESIAN COORDINATES (ANGSTROEM)
---------------------------------
  N      0.000000    0.625382    0.000000
  O     -1.204276    0.568235    0.000000
  O      0.724269    1.578295    0.000000
  O      0.708849   -0.603160    0.000000
  C     -0.143421   -1.760352    0.000000
  H      0.559744   -2.588769    0.000000
  H     -0.764976   -1.786875    0.892235
  H     -0.764976   -1.786875   -0.892235

 Total Charge           Charge          ....    0
 Multiplicity           Mult            ....    1
 Number of Electrons    NEL             ....   40
 Basis Dimension        Dim             ....  299

ORBITAL ENERGIES
----------------

  NO   OCC          E(Eh)            E(eV)
   0   2.0000     -20.673069      -562.5428
   1   2.0000     -20.634108      -561.4826
   2   2.0000     -20.632643      -561.4428
   3   2.0000     -15.925279      -433.3489
   4   2.0000     -11.314975      -307.8961
   5   2.0000      -1.674288       -45.5597
   6   2.0000      -1.454629       -39.5825
   7   2.0000      -1.430509       -38.9261
   8   2.0000      -1.021268       -27.7901
   9   2.0000      -0.886860       -24.1327
  10   2.0000      -0.810120       -22.0445
  11   2.0000      -0.786355       -21.3978
  12   2.0000      -0.770025       -20.9534
  13   2.0000      -0.657252       -17.8847
  14   2.0000      -0.655816       -17.8457
  15   2.0000      -0.594270       -16.1709
  16   2.0000      -0.526214       -14.3190
  17   2.0000      -0.521613       -14.1938
  18   2.0000      -0.520268       -14.1572
  19   2.0000      -0.486659       -13.2427
  20   0.0000       0.024432         0.6648
  21   0.0000       0.042750         1.1633
  22   0.0000       0.042882         1.1669
  23   0.0000       0.065675         1.7871
  24   0.0000       0.091206         2.4818

MULLIKEN ATOMIC CHARGES
-----------------------
   0 N :    1.018135
   1 O :   -0.517268
   2 O :   -0.577479
   3 O :   -0.333411
   4 C :   -0.672984
   5 H :    0.394675
   6 H :    0.344166
   7 H :    0.344166
Sum of atomic charges:   -0.0000000

LOEWDIN ATOMIC CHARGES
----------------------
   0 N :   -0.975112
   1 O :    0.379171
   2 O :    0.367576
   3 O :    0.480962
   4 C :    0.323430
   5 H :   -0.190127
   6 H :   -0.192950
   7 H :   -0.192950

  Mayer bond orders larger than 0.100000
B(  0-N ,  1-O ) :   1.3217 B(  0-N ,  2-O ) :   1.3175 B(  0-N ,  3-O ) :   0.9527
B(  1-O ,  2-O ) :   0.1096 B(  3-O ,  4-C ) :   0.7702 B(  4-C ,  5-H ) :   0.8428
B(  4-C ,  6-H ) :   0.8828 B(  4-C ,  7-H ) :   0.8828

MP2 TOTAL ENERGY:     -319.725142620 Eh
FINAL SINGLE POINT ENERGY      -319.725142620447

DIPOLE MOMENT
-------------
                                X             Y             Z
Electronic contribution:      0.77723       4.60934       0.00000
Nuclear contribution   :     -0.94256      -5.98194       0.00000
                        -----------------------------------------
Total Dipole Moment    :     -0.16533      -1.37260       0.00000
                        -----------------------------------------
Magnitude (a.u.)       :      1.38252
Magnitude (Debye)      :      3.51410

Rotational constants in cm-1:     0.395497     0.155802     0.114201
Rotational constants in MHz : 11856.695021  4670.820984  3423.668225

                             ****ORCA TERMINATED NORMALLY****
TOTAL RUN TIME: 0 days 0 hours 1 minutes 17 seconds 171 msec
