                         Program Version 5.0.3 -  RELEASE  -
|  1> !ri-mp2 aug-cc-pvtz aug-cc-pvtz/c tightscf
|  2> %pal nprocs 16 end
|  3>
|  4> * xyz 0 1
|  5> C      0.042677    0.344157    0.000000
|  6> C     -0.973754   -1.889957    0.743851
|  7> C     -0.973754   -1.889957   -0.743851
|  8> C      0.111176   -1.135227    0.000000
|  9> C      1.324994    2.327509    0.000000
| 10> O     -0.973754    0.998522    0.000000
| 11> O      1.277432    0.891383    0.000000
| 12> H     -1.716618   -1.286124    1.243595
| 13> H     -0.669468   -2.784850    1.266689
| 14> H     -0.669468   -2.784850   -1.266689
| 15> H     -1.716618   -1.286124   -1.243595
| 16> H      1.106406   -1.551725    0.000000
| 17> H      2.379774    2.584262    0.000000
| 18> H      0.834268    2.725508    0.886305
| 19> H      0.834268    2.725508   -0.886305
| 20> *
| 21>
| 22>                          ****END OF INPUT****

CARTESIAN COORDINATES (ANGSTROEM)
---------------------------------
  C      0.042677    0.344157    0.000000
  C     -0.973754   -1.889957    0.743851
  C     -0.973754   -1.889957   -0.743851
  C      0.111176   -1.135227    0.000000
  C      1.324994    2.327509    0.000000
  O     -0.973754    0.998522    0.000000
  O      1.277432    0.891383    0.000000
  H     -1.716618   -1.286124    1.243595
  H     -0.669468   -2.784850    1.266689
  H     -0.669468   -2.784850   -1.266689
  H     -1.716618   -1.286124   -1.243595
  H      1.106406   -1.551725    0.000000
  H      2.379774    2.584262    0.000000
  H      0.834268    2.725508    0.886305
  H      0.834268    2.725508   -0.886305

 Total Charge           Charge          ....    0
 Multiplicity           Mult            ....    1
 Number of Electrons    NEL             ....   54
 Basis Dimension        Dim             ....  506

ORBITAL ENERGIES
----------------

  NO   OCC          E(Eh)            E(eV)
   0   2.0000     -20.601743      -560.6019
   1   2.0000     -20.537231      -558.8465
   2   2.0000     -11.376706      -309.5759
   3   2.0000     -11.282980      -307.0255
   4   2.0000     -11.247701      -306.0655
   5   2.0000     -11.241821      -305.9055
   6   2.0000     -11.241114      -305.8863
   7   2.0000      -1.455596       -39.6088
   8   2.0000      -1.354381       -36.8546
   9   2.0000      -1.159192       -31.5432
  10   2.0000      -0.988801       -26.9066
  11   2.0000      -0.878387       -23.9021
  12   2.0000      -0.835241       -22.7281
  13   2.0000      -0.761417       -20.7192
  14   2.0000      -0.722222       -19.6527
  15   2.0000      -0.676885       -18.4190
  16   2.0000      -0.667235       -18.1564
  17   2.0000      -0.650300       -17.6956
  18   2.0000      -0.606365       -16.5000
  19   2.0000      -0.560830       -15.2610
  20   2.0000      -0.556721       -15.1492
  21   2.0000      -0.526789       -14.3347
  22   2.0000      -0.525162       -14.2904
  23   2.0000      -0.461593       -12.5606
  24   2.0000      -0.454212       -12.3597
  25   2.0000      -0.438968       -11.9449
  26   2.0000      -0.425892       -11.5891
  27   0.0000       0.028309         0.7703
  28   0.0000       0.033430         0.9097
  29   0.0000       0.039370         1.0713
  30   0.0000       0.041080         1.1178
  31   0.0000       0.054266         1.4766

MULLIKEN ATOMIC CHARGES
-----------------------
   0 C :    0.713819
   1 C :   -0.919668
   2 C :   -0.919668
   3 C :    0.166482
   4 C :   -0.747883
   5 O :   -0.878865
   6 O :   -0.409739
   7 H :    0.372763
   8 H :    0.389994
   9 H :    0.389994
  10 H :    0.372763
  11 H :    0.395770
  12 H :    0.352634
  13 H :    0.360802
  14 H :    0.360802
Sum of atomic charges:    0.0000000

LOEWDIN ATOMIC CHARGES
----------------------
   0 C :   -0.816093
   1 C :    0.368997
   2 C :    0.368997
   3 C :    0.023887
   4 C :    0.358944
   5 O :    0.469288
   6 O :    0.563925
   7 H :   -0.160342
   8 H :   -0.153826
   9 H :   -0.153826
  10 H :   -0.160342
  11 H :   -0.156942
  12 H :   -0.188635
  13 H :   -0.182018
  14 H :   -0.182018

  Mayer bond orders larger than 0.100000
B(  0-C ,  3-C ) :   0.6570 B(  0-C ,  5-O ) :   1.4067 B(  0-C ,  6-O ) :   0.9585
B(  1-C ,  2-C ) :   1.2624 B(  1-C ,  3-C ) :   0.6178 B(  1-C ,  7-H ) :   0.8290
B(  1-C ,  8-H ) :   0.7984 B(  2-C ,  3-C ) :   0.6178 B(  2-C ,  9-H ) :   0.7984
B(  2-C , 10-H ) :   0.8290 B(  3-C , 11-H ) :   0.8660 B(  4-C ,  6-O ) :   0.8324
B(  4-C , 12-H ) :   0.8984 B(  4-C , 13-H ) :   0.8787 B(  4-C , 14-H ) :   0.8787

MP2 TOTAL ENERGY:     -345.152537184 Eh
FINAL SINGLE POINT ENERGY      -345.152537184200

DIPOLE MOMENT
-------------
                                X             Y             Z
Electronic contribution:      0.21773       1.26190      -0.00000
Nuclear contribution   :      0.39236      -1.64973       0.00000
                        -----------------------------------------
Total Dipole Moment    :      0.61009      -0.38783      -0.00000
                        -----------------------------------------
Magnitude (a.u.)       :      0.72292
Magnitude (Debye)      :      1.83752

Rotational constants in cm-1:     0.242266     0.053877     0.049579
Rotational constants in MHz :  7262.940520  1615.202984  1486.336825

                             ****ORCA TERMINATED NORMALLY****
TOTAL RUN TIME: 0 days 0 hours 4 minutes 21 seconds 633 msec
