                         Program Version 5.0.3 -  RELEASE  -
|  1> !ri-mp2 aug-cc-pvtz aug-cc-pvtz/c tightscf
|  2> %pal nprocs 16 end
|  3>
|  4> * xyz 0 1
|  5> C      0.056004    0.583317       0.000000
|  6> N      0.056004   -0.680483       0.000000
|  7> H     -0.843040    1.205928       0.000000
|  8> H      1.009028    1.110493       0.000000
|  9> H     -0.894042   -1.052940       0.000000
| 10> *
| 11>
| 12>                          ****END OF INPUT****

CARTESIAN COORDINATES (ANGSTROEM)
---------------------------------
  C      0.056004    0.583317    0.000000
  N      0.056004   -0.680483    0.000000
  H     -0.843040    1.205928    0.000000
  H      1.009028    1.110493    0.000000
  H     -0.894042   -1.052940    0.000000

 Total Charge           Charge          ....    0
 Multiplicity           Mult            ....    1
 Number of Electrons    NEL             ....   16
 Basis Dimension        Dim             ....  161

ORBITAL ENERGIES
----------------

  NO   OCC          E(Eh)            E(eV)
   0   2.0000     -15.565115      -423.5483
   1   2.0000     -11.284660      -307.0712
   2   2.0000      -1.212646       -32.9978
   3   2.0000      -0.845035       -22.9946
   4   2.0000      -0.687179       -18.6991
   5   2.0000      -0.606929       -16.5154
   6   2.0000      -0.452791       -12.3211
   7   2.0000      -0.430644       -11.7184
   8   0.0000       0.027787         0.7561
   9   0.0000       0.041316         1.1243
  10   0.0000       0.047818         1.3012
  11   0.0000       0.075591         2.0569
  12   0.0000       0.096794         2.6339

MULLIKEN ATOMIC CHARGES
-----------------------
   0 C :   -0.686682
   1 N :   -0.523040
   2 H :    0.484441
   3 H :    0.507072
   4 H :    0.218208
Sum of atomic charges:    0.0000000

LOEWDIN ATOMIC CHARGES
----------------------
   0 C :    0.297085
   1 N :    0.592230
   2 H :   -0.210715
   3 H :   -0.234188
   4 H :   -0.444412

  Mayer bond orders larger than 0.100000
B(  0-C ,  1-N ) :   1.7562 B(  0-C ,  2-H ) :   0.7078 B(  0-C ,  3-H ) :   0.6903
B(  1-N ,  4-H ) :   0.8723

MP2 TOTAL ENERGY:      -94.446552542 Eh
FINAL SINGLE POINT ENERGY       -94.446552541605

DIPOLE MOMENT
-------------
                                X             Y             Z
Electronic contribution:      0.19067      -0.63492      -0.00000
Nuclear contribution   :     -0.75296       1.30317       0.00000
                        -----------------------------------------
Total Dipole Moment    :     -0.56229       0.66825      -0.00000
                        -----------------------------------------
Magnitude (a.u.)       :      0.87334
Magnitude (Debye)      :      2.21986

Rotational constants in cm-1:     6.645702     1.168981     0.994115
Rotational constants in MHz : 199233.123545 35045.156770 29802.831227

                             ****ORCA TERMINATED NORMALLY****
TOTAL RUN TIME: 0 days 0 hours 0 minutes 30 seconds 97 msec
