                         Program Version 5.0.3 -  RELEASE  -
|  1> !ri-mp2 aug-cc-pvtz aug-cc-pvtz/c tightscf
|  2> %pal nprocs 16 end
|  3>
|  4> * xyz 0 1
|  5> C     -1.779558   -0.307747   -0.176939
|  6> C     -0.520387    0.167305    0.499192
|  7> C      0.364858    1.153255   -0.152316
|  8> S      1.096395   -0.525749   -0.053924
|  9> H     -1.640106   -0.377917   -1.255255
| 10> H     -2.077985   -1.288840    0.191938
| 11> H     -2.597663    0.389956    0.023094
| 12> H     -0.579906    0.234408    1.579077
| 13> H      0.109461    1.476866   -1.153106
| 14> H      0.854404    1.900623    0.457404
| 15> *
| 16>
| 17>                          ****END OF INPUT****

CARTESIAN COORDINATES (ANGSTROEM)
---------------------------------
  C     -1.779558   -0.307747   -0.176939
  C     -0.520387    0.167305    0.499192
  C      0.364858    1.153255   -0.152316
  S      1.096395   -0.525749   -0.053924
  H     -1.640106   -0.377917   -1.255255
  H     -2.077985   -1.288840    0.191938
  H     -2.597663    0.389956    0.023094
  H     -0.579906    0.234408    1.579077
  H      0.109461    1.476866   -1.153106
  H      0.854404    1.900623    0.457404

 Total Charge           Charge          ....    0
 Multiplicity           Mult            ....    1
 Number of Electrons    NEL             ....   40
 Basis Dimension        Dim             ....  326

ORBITAL ENERGIES
----------------

  NO   OCC          E(Eh)            E(eV)
   0   2.0000     -91.939433     -2501.7992
   1   2.0000     -11.281707      -306.9909
   2   2.0000     -11.272264      -306.7339
   3   2.0000     -11.231505      -305.6248
   4   2.0000      -8.940077      -243.2719
   5   2.0000      -6.621006      -180.1667
   6   2.0000      -6.619911      -180.1369
   7   2.0000      -6.618619      -180.1018
   8   2.0000      -1.146802       -31.2061
   9   2.0000      -0.979196       -26.6453
  10   2.0000      -0.835387       -22.7320
  11   2.0000      -0.793394       -21.5894
  12   2.0000      -0.664343       -18.0777
  13   2.0000      -0.606309       -16.4985
  14   2.0000      -0.579456       -15.7678
  15   2.0000      -0.547493       -14.8980
  16   2.0000      -0.521683       -14.1957
  17   2.0000      -0.429773       -11.6947
  18   2.0000      -0.407748       -11.0954
  19   2.0000      -0.342620        -9.3232
  20   0.0000       0.028736         0.7819
  21   0.0000       0.036693         0.9985
  22   0.0000       0.039007         1.0614
  23   0.0000       0.047064         1.2807
  24   0.0000       0.056651         1.5415

MULLIKEN ATOMIC CHARGES
-----------------------
   0 C :   -0.837245
   1 C :   -0.105975
   2 C :   -0.696462
   3 S :   -0.259911
   4 H :    0.337230
   5 H :    0.268220
   6 H :    0.259456
   7 H :    0.380366
   8 H :    0.312340
   9 H :    0.341981
Sum of atomic charges:   -0.0000000

LOEWDIN ATOMIC CHARGES
----------------------
   0 C :    0.525987
   1 C :   -0.395426
   2 C :   -0.049568
   3 S :    1.097908
   4 H :   -0.186099
   5 H :   -0.177214
   6 H :   -0.171309
   7 H :   -0.204790
   8 H :   -0.219680
   9 H :   -0.219810

  Mayer bond orders larger than 0.100000
B(  0-C ,  1-C ) :   0.7974 B(  0-C ,  4-H ) :   0.9147 B(  0-C ,  5-H ) :   0.9731
B(  0-C ,  6-H ) :   0.9608 B(  1-C ,  2-C ) :   0.9630 B(  1-C ,  3-S ) :   0.9065
B(  1-C ,  7-H ) :   0.7602 B(  2-C ,  3-S ) :   1.0234 B(  2-C ,  8-H ) :   0.8796
B(  2-C ,  9-H ) :   0.8526

MP2 TOTAL ENERGY:     -515.367409723 Eh
FINAL SINGLE POINT ENERGY      -515.367409723191

DIPOLE MOMENT
-------------
                                X             Y             Z
Electronic contribution:      5.30133      -1.77902       0.27902
Nuclear contribution   :     -6.04463       2.38246      -0.15724
                        -----------------------------------------
Total Dipole Moment    :     -0.74330       0.60344       0.12179
                        -----------------------------------------
Magnitude (a.u.)       :      0.96513
Magnitude (Debye)      :      2.45316

Rotational constants in cm-1:     0.389340     0.159695     0.129653
Rotational constants in MHz : 11672.108221  4787.544231  3886.903740

                             ****ORCA TERMINATED NORMALLY****
TOTAL RUN TIME: 0 days 0 hours 1 minutes 9 seconds 85 msec
