                         Program Version 5.0.3 -  RELEASE  -
|  1> !ri-mp2 aug-cc-pvtz aug-cc-pvtz/c tightscf
|  2> %pal nprocs 16 end
|  3>
|  4> * xyz 0 1
|  5> C     -1.883880    0.052683    0.051156
|  6> H     -2.056506    0.749901   -0.773592
|  7> H     -2.696495   -0.669693    0.034127
|  8> H     -1.939587    0.605039    0.992852
|  9> H     -0.628998   -1.659843   -0.030177
| 10> N     -0.629825   -0.657566   -0.098325
| 11> C      0.625516   -0.112385   -0.011604
| 12> H     -0.085368    1.818229   -0.316218
| 13> H      1.594033    1.648111   -0.085107
| 14> N      0.672759    1.267776    0.047964
| 15> O      1.632821   -0.800625    0.036666
| 16> *
| 17>
| 18>                          ****END OF INPUT****

CARTESIAN COORDINATES (ANGSTROEM)
---------------------------------
  C     -1.883880    0.052683    0.051156
  H     -2.056506    0.749901   -0.773592
  H     -2.696495   -0.669693    0.034127
  H     -1.939587    0.605039    0.992852
  H     -0.628998   -1.659843   -0.030177
  N     -0.629825   -0.657566   -0.098325
  C      0.625516   -0.112385   -0.011604
  H     -0.085368    1.818229   -0.316218
  H      1.594033    1.648111   -0.085107
  N      0.672759    1.267776    0.047964
  O      1.632821   -0.800625    0.036666

 Total Charge           Charge          ....    0
 Multiplicity           Mult            ....    1
 Number of Electrons    NEL             ....   40
 Basis Dimension        Dim             ....  368

ORBITAL ENERGIES
----------------

  NO   OCC          E(Eh)            E(eV)
   0   2.0000     -20.502800      -557.9096
   1   2.0000     -15.581570      -423.9961
   2   2.0000     -15.580268      -423.9606
   3   2.0000     -11.372609      -309.4644
   4   2.0000     -11.278130      -306.8935
   5   2.0000      -1.384655       -37.6784
   6   2.0000      -1.240483       -33.7553
   7   2.0000      -1.188403       -32.3381
   8   2.0000      -0.961968       -26.1765
   9   2.0000      -0.818551       -22.2739
  10   2.0000      -0.740014       -20.1368
  11   2.0000      -0.681233       -18.5373
  12   2.0000      -0.647555       -17.6209
  13   2.0000      -0.639120       -17.3913
  14   2.0000      -0.592087       -16.1115
  15   2.0000      -0.567681       -15.4474
  16   2.0000      -0.562791       -15.3143
  17   2.0000      -0.436665       -11.8823
  18   2.0000      -0.422913       -11.5080
  19   2.0000      -0.394137       -10.7250
  20   0.0000       0.021405         0.5825
  21   0.0000       0.032166         0.8753
  22   0.0000       0.043068         1.1719
  23   0.0000       0.044564         1.2126
  24   0.0000       0.055617         1.5134

MULLIKEN ATOMIC CHARGES
-----------------------
   0 C :   -0.824716
   1 H :    0.306502
   2 H :    0.381472
   3 H :    0.325647
   4 H :    0.146944
   5 N :    0.006759
   6 C :    0.269193
   7 H :    0.176734
   8 H :    0.133574
   9 N :   -0.219742
  10 O :   -0.702368
Sum of atomic charges:   -0.0000000

LOEWDIN ATOMIC CHARGES
----------------------
   0 C :    0.478753
   1 H :   -0.171630
   2 H :   -0.167437
   3 H :   -0.164494
   4 H :   -0.299643
   5 N :    0.533599
   6 C :   -0.829744
   7 H :   -0.330076
   8 H :   -0.305923
   9 N :    0.850662
  10 O :    0.405933

  Mayer bond orders larger than 0.100000
B(  0-C ,  1-H ) :   0.9153 B(  0-C ,  2-H ) :   0.8792 B(  0-C ,  3-H ) :   0.9111
B(  0-C ,  5-N ) :   0.8798 B(  4-H ,  5-N ) :   0.9981 B(  5-N ,  6-C ) :   1.0725
B(  6-C ,  9-N ) :   0.9939 B(  6-C , 10-O ) :   1.6333 B(  7-H ,  9-N ) :   0.9911
B(  8-H ,  9-N ) :   1.0196

MP2 TOTAL ENERGY:     -264.122888293 Eh
FINAL SINGLE POINT ENERGY      -264.122888293395

DIPOLE MOMENT
-------------
                                X             Y             Z
Electronic contribution:      4.28670      -1.60939      -0.05320
Nuclear contribution   :     -5.86816       2.51755      -0.18033
                        -----------------------------------------
Total Dipole Moment    :     -1.58147       0.90817      -0.23352
                        -----------------------------------------
Magnitude (a.u.)       :      1.83857
Magnitude (Debye)      :      4.67327

Rotational constants in cm-1:     0.330481     0.138424     0.099774
Rotational constants in MHz :  9907.559272  4149.861380  2991.157860

                             ****ORCA TERMINATED NORMALLY****
TOTAL RUN TIME: 0 days 0 hours 1 minutes 33 seconds 699 msec
