                         Program Version 5.0.3 -  RELEASE  -
|  1> !ri-mp2 aug-cc-pvtz aug-cc-pvtz/c tightscf
|  2> %pal nprocs 16 end
|  3>
|  4> * xyz 0 1
|  5> S     -1.379699   -0.462768        0.000000
|  6> S      1.542184    0.101951        0.000000
|  7> C      0.000000    0.604111        0.000000
|  8> H     -0.264368    1.658591        0.000000
|  9> H     -2.335387    0.489817        0.000000
| 10> *
| 11>
| 12>                          ****END OF INPUT****

CARTESIAN COORDINATES (ANGSTROEM)
---------------------------------
  S     -1.379699   -0.462768    0.000000
  S      1.542184    0.101951    0.000000
  C      0.000000    0.604111    0.000000
  H     -0.264368    1.658591    0.000000
  H     -2.335387    0.489817    0.000000

 Total Charge           Charge          ....    0
 Multiplicity           Mult            ....    1
 Number of Electrons    NEL             ....   40
 Basis Dimension        Dim             ....  192

ORBITAL ENERGIES
----------------

  NO   OCC          E(Eh)            E(eV)
   0   2.0000     -92.005651     -2503.6010
   1   2.0000     -91.948043     -2502.0334
   2   2.0000     -11.358019      -309.0674
   3   2.0000      -9.006764      -245.0865
   4   2.0000      -8.950546      -243.5567
   5   2.0000      -6.687770      -181.9835
   6   2.0000      -6.686767      -181.9562
   7   2.0000      -6.685936      -181.9336
   8   2.0000      -6.631439      -180.4506
   9   2.0000      -6.630585      -180.4274
  10   2.0000      -6.629056      -180.3858
  11   2.0000      -1.116542       -30.3826
  12   2.0000      -0.980503       -26.6808
  13   2.0000      -0.783916       -21.3314
  14   2.0000      -0.656779       -17.8719
  15   2.0000      -0.540728       -14.7139
  16   2.0000      -0.510510       -13.8917
  17   2.0000      -0.484725       -13.1900
  18   2.0000      -0.362000        -9.8505
  19   2.0000      -0.351741        -9.5714
  20   0.0000       0.023908         0.6506
  21   0.0000       0.038056         1.0356
  22   0.0000       0.042124         1.1462
  23   0.0000       0.062665         1.7052
  24   0.0000       0.079716         2.1692

MULLIKEN ATOMIC CHARGES
-----------------------
   0 S :   -0.004543
   1 S :   -0.197285
   2 C :   -0.389806
   3 H :    0.431368
   4 H :    0.160265
Sum of atomic charges:   -0.0000000

LOEWDIN ATOMIC CHARGES
----------------------
   0 S :    1.204074
   1 S :    0.792151
   2 C :   -1.050980
   3 H :   -0.374983
   4 H :   -0.570262

  Mayer bond orders larger than 0.100000
B(  0-S ,  2-C ) :   1.0909 B(  0-S ,  4-H ) :   1.0139 B(  1-S ,  2-C ) :   1.8431
B(  2-C ,  3-H ) :   0.7233

MP2 TOTAL ENERGY:     -834.634263638 Eh
FINAL SINGLE POINT ENERGY      -834.634263638153

DIPOLE MOMENT
-------------
                                X             Y             Z
Electronic contribution:      1.40889      -1.48645      -0.00000
Nuclear contribution   :     -2.50397       2.07597       0.00000
                        -----------------------------------------
Total Dipole Moment    :     -1.09508       0.58952      -0.00000
                        -----------------------------------------
Magnitude (a.u.)       :      1.24368
Magnitude (Debye)      :      3.16119

Rotational constants in cm-1:     1.653029     0.114600     0.107170
Rotational constants in MHz : 49556.554151  3435.610901  3212.871893

                             ****ORCA TERMINATED NORMALLY****
TOTAL RUN TIME: 0 days 0 hours 0 minutes 40 seconds 202 msec
