                         Program Version 5.0.3 -  RELEASE  -
|  1> !ri-mp2 aug-cc-pvtz aug-cc-pvtz/c tightscf
|  2> %pal nprocs 16 end
|  3>
|  4> * xyz 0 1
|  5> C      1.436557    1.185794    0.000000
|  6> C     -1.314175   -1.253686    0.000000
|  7> C      0.000000    0.706828    0.000000
|  8> O     -0.011621   -0.711204    0.000000
|  9> H      1.471309    2.276007    0.000000
| 10> H      1.962303    0.823929    0.883530
| 11> H      1.962303    0.823929   -0.883530
| 12> H     -1.877412   -0.946607    0.889974
| 13> H     -1.215654   -2.337382    0.000000
| 14> H     -1.877412   -0.946607   -0.889974
| 15> H     -0.533380    1.081375   -0.884588
| 16> H     -0.533380    1.081375    0.884588
| 17> *
| 18>
| 19>                          ****END OF INPUT****

CARTESIAN COORDINATES (ANGSTROEM)
---------------------------------
  C      1.436557    1.185794    0.000000
  C     -1.314175   -1.253686    0.000000
  C      0.000000    0.706828    0.000000
  O     -0.011621   -0.711204    0.000000
  H      1.471309    2.276007    0.000000
  H      1.962303    0.823929    0.883530
  H      1.962303    0.823929   -0.883530
  H     -1.877412   -0.946607    0.889974
  H     -1.215654   -2.337382    0.000000
  H     -1.877412   -0.946607   -0.889974
  H     -0.533380    1.081375   -0.884588
  H     -0.533380    1.081375    0.884588

 Total Charge           Charge          ....    0
 Multiplicity           Mult            ....    1
 Number of Electrons    NEL             ....   34
 Basis Dimension        Dim             ....  368

ORBITAL ENERGIES
----------------

  NO   OCC          E(Eh)            E(eV)
   0   2.0000     -20.552775      -559.2694
   1   2.0000     -11.272782      -306.7480
   2   2.0000     -11.267567      -306.6061
   3   2.0000     -11.212129      -305.0975
   4   2.0000      -1.369585       -37.2683
   5   2.0000      -1.023944       -27.8629
   6   2.0000      -0.913813       -24.8661
   7   2.0000      -0.829773       -22.5793
   8   2.0000      -0.667312       -18.1585
   9   2.0000      -0.651834       -17.7373
  10   2.0000      -0.624252       -16.9868
  11   2.0000      -0.581788       -15.8313
  12   2.0000      -0.535219       -14.5640
  13   2.0000      -0.507221       -13.8022
  14   2.0000      -0.502335       -13.6692
  15   2.0000      -0.473952       -12.8969
  16   2.0000      -0.420282       -11.4364
  17   0.0000       0.030870         0.8400
  18   0.0000       0.038169         1.0386
  19   0.0000       0.042185         1.1479
  20   0.0000       0.042833         1.1655
  21   0.0000       0.057239         1.5575

MULLIKEN ATOMIC CHARGES
-----------------------
   0 C :   -0.958613
   1 C :   -0.820554
   2 C :   -0.140162
   3 O :   -0.556461
   4 H :    0.310273
   5 H :    0.281707
   6 H :    0.281707
   7 H :    0.330360
   8 H :    0.346835
   9 H :    0.330360
  10 H :    0.297274
  11 H :    0.297274
Sum of atomic charges:    0.0000000

LOEWDIN ATOMIC CHARGES
----------------------
   0 C :    0.573847
   1 C :    0.306841
   2 C :   -0.023468
   3 O :    0.540728
   4 H :   -0.177812
   5 H :   -0.175248
   6 H :   -0.175248
   7 H :   -0.180886
   8 H :   -0.190140
   9 H :   -0.180886
  10 H :   -0.158864
  11 H :   -0.158864

  Mayer bond orders larger than 0.100000
B(  0-C ,  2-C ) :   0.8880 B(  0-C ,  4-H ) :   0.9348 B(  0-C ,  5-H ) :   0.9370
B(  0-C ,  6-H ) :   0.9370 B(  1-C ,  3-O ) :   0.9542 B(  1-C ,  7-H ) :   0.8794
B(  1-C ,  8-H ) :   0.9344 B(  1-C ,  9-H ) :   0.8794 B(  2-C ,  3-O ) :   0.8652
B(  2-C , 10-H ) :   0.8976 B(  2-C , 11-H ) :   0.8976

MP2 TOTAL ENERGY:     -193.967328361 Eh
FINAL SINGLE POINT ENERGY      -193.967328360618

DIPOLE MOMENT
-------------
                                X             Y             Z
Electronic contribution:      0.25583      -1.63592       0.00000
Nuclear contribution   :     -0.68163       1.96018       0.00000
                        -----------------------------------------
Total Dipole Moment    :     -0.42580       0.32426       0.00000
                        -----------------------------------------
Magnitude (a.u.)       :      0.53521
Magnitude (Debye)      :      1.36038

Rotational constants in cm-1:     0.948344     0.137697     0.128974
Rotational constants in MHz : 28430.638960  4128.057989  3866.557217

                             ****ORCA TERMINATED NORMALLY****
TOTAL RUN TIME: 0 days 0 hours 1 minutes 29 seconds 571 msec
