                         Program Version 5.0.3 -  RELEASE  -
|  1> !ri-mp2 aug-cc-pvtz aug-cc-pvtz/c tightscf
|  2> %pal nprocs 16 end
|  3>
|  4> * xyz 0 1
|  5> O     -0.918919    0.545512   -0.000017
|  6> O      2.432931    0.084775    0.000018
|  7> N      0.106029   -0.423845   -0.000029
|  8> C     -2.173941   -0.133816    0.000020
|  9> C      1.278201   -0.072865   -0.000002
| 10> H     -2.914348    0.662738    0.000020
| 11> H     -2.282738   -0.749000    0.894011
| 12> H     -2.282772   -0.749032   -0.893944
| 13> *
| 14>
| 15>                          ****END OF INPUT****

CARTESIAN COORDINATES (ANGSTROEM)
---------------------------------
  O     -0.918919    0.545512   -0.000017
  O      2.432931    0.084775    0.000018
  N      0.106029   -0.423845   -0.000029
  C     -2.173941   -0.133816    0.000020
  C      1.278201   -0.072865   -0.000002
  H     -2.914348    0.662738    0.000020
  H     -2.282738   -0.749000    0.894011
  H     -2.282772   -0.749032   -0.893944

 Total Charge           Charge          ....    0
 Multiplicity           Mult            ....    1
 Number of Electrons    NEL             ....   38
 Basis Dimension        Dim             ....  299

ORBITAL ENERGIES
----------------

  NO   OCC          E(Eh)            E(eV)
   0   2.0000     -20.639718      -561.6353
   1   2.0000     -20.636876      -561.5579
   2   2.0000     -15.637827      -425.5269
   3   2.0000     -11.415752      -310.6384
   4   2.0000     -11.294630      -307.3425
   5   2.0000      -1.487375       -40.4735
   6   2.0000      -1.449889       -39.4535
   7   2.0000      -1.212041       -32.9813
   8   2.0000      -0.945563       -25.7301
   9   2.0000      -0.775735       -21.1088
  10   2.0000      -0.733085       -19.9483
  11   2.0000      -0.696938       -18.9647
  12   2.0000      -0.683516       -18.5994
  13   2.0000      -0.646934       -17.6040
  14   2.0000      -0.612037       -16.6544
  15   2.0000      -0.569145       -15.4872
  16   2.0000      -0.531376       -14.4595
  17   2.0000      -0.473463       -12.8836
  18   2.0000      -0.406936       -11.0733
  19   0.0000       0.027769         0.7556
  20   0.0000       0.043701         1.1892
  21   0.0000       0.045051         1.2259
  22   0.0000       0.057120         1.5543
  23   0.0000       0.078548         2.1374

MULLIKEN ATOMIC CHARGES
-----------------------
   0 O :   -0.353423
   1 O :   -0.345021
   2 N :    0.084569
   3 C :   -0.632011
   4 C :    0.184033
   5 H :    0.386438
   6 H :    0.337705
   7 H :    0.337709
Sum of atomic charges:   -0.0000000

LOEWDIN ATOMIC CHARGES
----------------------
   0 O :    0.361310
   1 O :    0.384654
   2 N :    0.016284
   3 C :    0.309969
   4 C :   -0.501500
   5 H :   -0.194378
   6 H :   -0.188169
   7 H :   -0.188170

  Mayer bond orders larger than 0.100000
B(  0-O ,  2-N ) :   0.8709 B(  0-O ,  3-C ) :   0.8253 B(  1-O ,  4-C ) :   2.0631
B(  2-N ,  4-C ) :   1.6387 B(  3-C ,  5-H ) :   0.8708 B(  3-C ,  6-H ) :   0.8855
B(  3-C ,  7-H ) :   0.8855

MP2 TOTAL ENERGY:     -282.671908839 Eh
FINAL SINGLE POINT ENERGY      -282.671908838911

DIPOLE MOMENT
-------------
                                X             Y             Z
Electronic contribution:      6.30011       0.72874      -0.00006
Nuclear contribution   :     -7.28348      -0.80876       0.00008
                        -----------------------------------------
Total Dipole Moment    :     -0.98337      -0.08002       0.00002
                        -----------------------------------------
Magnitude (a.u.)       :      0.98662
Magnitude (Debye)      :      2.50779

Rotational constants in cm-1:     1.555951     0.082355     0.079402
Rotational constants in MHz : 46646.224679  2468.946532  2380.425881

                             ****ORCA TERMINATED NORMALLY****
TOTAL RUN TIME: 0 days 0 hours 0 minutes 51 seconds 638 msec
