                         Program Version 5.0.3 -  RELEASE  -
|  1> !ri-mp2 aug-cc-pvtz aug-cc-pvtz/c tightscf
|  2> %pal nprocs 16 end
|  3>
|  4> * xyz 0 1
|  5> C      0.048051    1.161675    0.000000
|  6> S      0.048051   -0.668872    0.000000
|  7> H     -0.431921    1.553804    0.892468
|  8> H     -0.431921    1.553804   -0.892468
|  9> H      1.092879    1.462961    0.000000
| 10> H     -1.286160   -0.838674    0.000000
| 11> *
| 12>
| 13>                          ****END OF INPUT****

CARTESIAN COORDINATES (ANGSTROEM)
---------------------------------
  C      0.048051    1.161675    0.000000
  S      0.048051   -0.668872    0.000000
  H     -0.431921    1.553804    0.892468
  H     -0.431921    1.553804   -0.892468
  H      1.092879    1.462961    0.000000
  H     -1.286160   -0.838674    0.000000

 Total Charge           Charge          ....    0
 Multiplicity           Mult            ....    1
 Number of Electrons    NEL             ....   26
 Basis Dimension        Dim             ....  188

ORBITAL ENERGIES
----------------

  NO   OCC          E(Eh)            E(eV)
   0   2.0000     -91.954426     -2502.2071
   1   2.0000     -11.259339      -306.3822
   2   2.0000      -8.955161      -243.6823
   3   2.0000      -6.636527      -180.5891
   4   2.0000      -6.635530      -180.5619
   5   2.0000      -6.634484      -180.5335
   6   2.0000      -1.034533       -28.1511
   7   2.0000      -0.867760       -23.6129
   8   2.0000      -0.607346       -16.5267
   9   2.0000      -0.592746       -16.1294
  10   2.0000      -0.527396       -14.3512
  11   2.0000      -0.458322       -12.4716
  12   2.0000      -0.357762        -9.7352
  13   0.0000       0.029342         0.7984
  14   0.0000       0.040804         1.1103
  15   0.0000       0.046928         1.2770
  16   0.0000       0.050990         1.3875
  17   0.0000       0.085055         2.3145

MULLIKEN ATOMIC CHARGES
-----------------------
   0 C :   -0.790891
   1 S :   -0.236757
   2 H :    0.287019
   3 H :    0.287019
   4 H :    0.310165
   5 H :    0.143444
Sum of atomic charges:    0.0000000

LOEWDIN ATOMIC CHARGES
----------------------
   0 C :    0.179137
   1 S :    1.203168
   2 H :   -0.256363
   3 H :   -0.256363
   4 H :   -0.268891
   5 H :   -0.600688

  Mayer bond orders larger than 0.100000
B(  0-C ,  1-S ) :   1.0235 B(  0-C ,  2-H ) :   0.9074 B(  0-C ,  3-H ) :   0.9074
B(  0-C ,  4-H ) :   0.9080 B(  1-S ,  5-H ) :   1.0127

MP2 TOTAL ENERGY:     -438.128063393 Eh
FINAL SINGLE POINT ENERGY      -438.128063393433

DIPOLE MOMENT
-------------
                                X             Y             Z
Electronic contribution:      0.77541      -3.21647       0.00000
Nuclear contribution   :     -1.07460       3.80924       0.00000
                        -----------------------------------------
Total Dipole Moment    :     -0.29919       0.59277       0.00000
                        -----------------------------------------
Magnitude (a.u.)       :      0.66399
Magnitude (Debye)      :      1.68774

Rotational constants in cm-1:     3.440951     0.425321     0.407951
Rotational constants in MHz : 103157.116820 12750.809537 12230.060615

                             ****ORCA TERMINATED NORMALLY****
TOTAL RUN TIME: 0 days 0 hours 0 minutes 39 seconds 858 msec
