                         Program Version 5.0.3 -  RELEASE  -
|  1> !ri-mp2 aug-cc-pvtz aug-cc-pvtz/c tightscf
|  2> %pal nprocs 16 end
|  3>
|  4> * xyz 0 1
|  5> C      1.130346   -0.225128    0.025065
|  6> O     -0.015267    0.606026   -0.027255
|  7> O     -1.167167   -0.278825   -0.095051
|  8> H      1.971335    0.468788    0.022108
|  9> H      1.147766   -0.826787    0.937012
| 10> H      1.184789   -0.873635   -0.851239
| 11> H     -1.626495   -0.035207    0.720173
| 12> *
| 13>
| 14>                          ****END OF INPUT****

CARTESIAN COORDINATES (ANGSTROEM)
---------------------------------
  C      1.130346   -0.225128    0.025065
  O     -0.015267    0.606026   -0.027255
  O     -1.167167   -0.278825   -0.095051
  H      1.971335    0.468788    0.022108
  H      1.147766   -0.826787    0.937012
  H      1.184789   -0.873635   -0.851239
  H     -1.626495   -0.035207    0.720173

 Total Charge           Charge          ....    0
 Multiplicity           Mult            ....    1
 Number of Electrons    NEL             ....   26
 Basis Dimension        Dim             ....  230

ORBITAL ENERGIES
----------------

  NO   OCC          E(Eh)            E(eV)
   0   2.0000     -20.626439      -561.2739
   1   2.0000     -20.623969      -561.2067
   2   2.0000     -11.280415      -306.9557
   3   2.0000      -1.471747       -40.0483
   4   2.0000      -1.228175       -33.4203
   5   2.0000      -0.919209       -25.0129
   6   2.0000      -0.722129       -19.6501
   7   2.0000      -0.662027       -18.0147
   8   2.0000      -0.647578       -17.6215
   9   2.0000      -0.594435       -16.1754
  10   2.0000      -0.529962       -14.4210
  11   2.0000      -0.497068       -13.5259
  12   2.0000      -0.452338       -12.3087
  13   0.0000       0.028998         0.7891
  14   0.0000       0.040928         1.1137
  15   0.0000       0.049705         1.3526
  16   0.0000       0.050018         1.3611
  17   0.0000       0.090752         2.4695

MULLIKEN ATOMIC CHARGES
-----------------------
   0 C :   -0.612949
   1 O :   -0.326121
   2 O :   -0.319513
   3 H :    0.358095
   4 H :    0.320227
   5 H :    0.329039
   6 H :    0.251222
Sum of atomic charges:   -0.0000000

LOEWDIN ATOMIC CHARGES
----------------------
   0 C :    0.272138
   1 O :    0.311031
   2 O :    0.567558
   3 H :   -0.202558
   4 H :   -0.195574
   5 H :   -0.195865
   6 H :   -0.556729

  Mayer bond orders larger than 0.100000
B(  0-C ,  1-O ) :   0.8120 B(  0-C ,  3-H ) :   0.8645 B(  0-C ,  4-H ) :   0.9002
B(  0-C ,  5-H ) :   0.8948 B(  1-O ,  2-O ) :   0.8252 B(  2-O ,  6-H ) :   0.9639

MP2 TOTAL ENERGY:     -190.560215384 Eh
FINAL SINGLE POINT ENERGY      -190.560215383600

DIPOLE MOMENT
-------------
                                X             Y             Z
Electronic contribution:     -2.39263       1.05612      -0.26341
Nuclear contribution   :      2.70242      -1.28240       0.83969
                        -----------------------------------------
Total Dipole Moment    :      0.30979      -0.22628       0.57628
                        -----------------------------------------
Magnitude (a.u.)       :      0.69230
Magnitude (Debye)      :      1.75968

Rotational constants in cm-1:     1.451735     0.346542     0.302506
Rotational constants in MHz : 43521.914826 10389.059525  9068.894070

                             ****ORCA TERMINATED NORMALLY****
TOTAL RUN TIME: 0 days 0 hours 0 minutes 42 seconds 750 msec
