                         Program Version 5.0.3 -  RELEASE  -
|  1> !ri-mp2 aug-cc-pvtz aug-cc-pvtz/c tightscf
|  2> %pal nprocs 16 end
|  3>
|  4> * xyz 0 1
|  5> C     -0.018703    0.623324    0.000000
|  6> C     -0.018703   -1.537398    1.260653
|  7> C     -2.067621   -0.796408    0.000000
|  8> C     -0.018703   -1.537398   -1.260653
|  9> C      1.913511    1.985730    0.000000
| 10> C     -0.535531   -0.817672    0.000000
| 11> O     -0.704653    1.615360    0.000000
| 12> O      1.331529    0.672656    0.000000
| 13> H     -0.353319   -1.032473    2.168179
| 14> H     -0.406978   -2.556799    1.283172
| 15> H      1.068644   -1.583922    1.275217
| 16> H     -2.456671   -0.283818    0.878679
| 17> H     -2.447056   -1.819081    0.000000
| 18> H     -2.456671   -0.283818   -0.878679
| 19> H      1.068644   -1.583922   -1.275217
| 20> H     -0.406978   -2.556799   -1.283172
| 21> H     -0.353319   -1.032473   -2.168179
| 22> H      1.607640    2.539254    0.885978
| 23> H      1.607640    2.539254   -0.885978
| 24> H      2.987917    1.829400    0.000000
| 25> *
| 26>
| 27>                          ****END OF INPUT****

CARTESIAN COORDINATES (ANGSTROEM)
---------------------------------
  C     -0.018703    0.623324    0.000000
  C     -0.018703   -1.537398    1.260653
  C     -2.067621   -0.796408    0.000000
  C     -0.018703   -1.537398   -1.260653
  C      1.913511    1.985730    0.000000
  C     -0.535531   -0.817672    0.000000
  O     -0.704653    1.615360    0.000000
  O      1.331529    0.672656    0.000000
  H     -0.353319   -1.032473    2.168179
  H     -0.406978   -2.556799    1.283172
  H      1.068644   -1.583922    1.275217
  H     -2.456671   -0.283818    0.878679
  H     -2.447056   -1.819081    0.000000
  H     -2.456671   -0.283818   -0.878679
  H      1.068644   -1.583922   -1.275217
  H     -0.406978   -2.556799   -1.283172
  H     -0.353319   -1.032473   -2.168179
  H      1.607640    2.539254    0.885978
  H      1.607640    2.539254   -0.885978
  H      2.987917    1.829400    0.000000

 Total Charge           Charge          ....    0
 Multiplicity           Mult            ....    1
 Number of Electrons    NEL             ....   64
 Basis Dimension        Dim             ....  644

ORBITAL ENERGIES
----------------

  NO   OCC          E(Eh)            E(eV)
   0   2.0000     -20.599525      -560.5416
   1   2.0000     -20.540836      -558.9446
   2   2.0000     -11.371093      -309.4232
   3   2.0000     -11.283674      -307.0444
   4   2.0000     -11.254624      -306.2539
   5   2.0000     -11.222220      -305.3721
   6   2.0000     -11.222206      -305.3717
   7   2.0000     -11.212352      -305.1036
   8   2.0000      -1.456306       -39.6281
   9   2.0000      -1.354969       -36.8706
  10   2.0000      -1.110810       -30.2267
  11   2.0000      -0.974808       -26.5259
  12   2.0000      -0.942403       -25.6441
  13   2.0000      -0.934900       -25.4399
  14   2.0000      -0.838026       -22.8038
  15   2.0000      -0.751776       -20.4569
  16   2.0000      -0.679677       -18.4950
  17   2.0000      -0.674599       -18.3568
  18   2.0000      -0.669709       -18.2237
  19   2.0000      -0.611190       -16.6313
  20   2.0000      -0.605900       -16.4874
  21   2.0000      -0.592808       -16.1311
  22   2.0000      -0.557980       -15.1834
  23   2.0000      -0.552287       -15.0285
  24   2.0000      -0.533727       -14.5234
  25   2.0000      -0.529694       -14.4137
  26   2.0000      -0.519190       -14.1279
  27   2.0000      -0.511315       -13.9136
  28   2.0000      -0.473830       -12.8936
  29   2.0000      -0.472230       -12.8500
  30   2.0000      -0.459780       -12.5113
  31   2.0000      -0.432585       -11.7712
  32   0.0000       0.028213         0.7677
  33   0.0000       0.033246         0.9047
  34   0.0000       0.037336         1.0160
  35   0.0000       0.039291         1.0692
  36   0.0000       0.051451         1.4001

MULLIKEN ATOMIC CHARGES
-----------------------
   0 C :    0.645110
   1 C :   -1.205101
   2 C :   -1.153184
   3 C :   -1.205101
   4 C :   -0.849405
   5 C :    1.518383
   6 O :   -1.001260
   7 O :   -0.387493
   8 H :    0.295890
   9 H :    0.256521
  10 H :    0.304453
  11 H :    0.279609
  12 H :    0.240407
  13 H :    0.279609
  14 H :    0.304453
  15 H :    0.256521
  16 H :    0.295890
  17 H :    0.386389
  18 H :    0.386389
  19 H :    0.351918
Sum of atomic charges:    0.0000000

LOEWDIN ATOMIC CHARGES
----------------------
   0 C :   -0.801887
   1 C :    0.586672
   2 C :    0.565635
   3 C :    0.586672
   4 C :    0.364041
   5 C :   -0.370254
   6 O :    0.484539
   7 O :    0.573747
   8 H :   -0.154340
   9 H :   -0.156921
  10 H :   -0.168436
  11 H :   -0.160968
  12 H :   -0.160410
  13 H :   -0.160968
  14 H :   -0.168436
  15 H :   -0.156921
  16 H :   -0.154340
  17 H :   -0.180455
  18 H :   -0.180455
  19 H :   -0.186516

  Mayer bond orders larger than 0.100000
B(  0-C ,  5-C ) :   0.7731 B(  0-C ,  6-O ) :   1.2054 B(  0-C ,  7-O ) :   1.1588
B(  1-C ,  3-C ) :   0.1577 B(  1-C ,  5-C ) :   0.6387 B(  1-C ,  8-H ) :   0.9878
B(  1-C ,  9-H ) :   1.0142 B(  1-C , 10-H ) :   0.9657 B(  2-C ,  5-C ) :   0.4077
B(  2-C ,  6-O ) :   0.1140 B(  2-C , 11-H ) :   1.0122 B(  2-C , 12-H ) :   1.0465
B(  2-C , 13-H ) :   1.0122 B(  3-C ,  5-C ) :   0.6387 B(  3-C , 14-H ) :   0.9657
B(  3-C , 15-H ) :   1.0142 B(  3-C , 16-H ) :   0.9878 B(  4-C ,  7-O ) :   0.9068
B(  4-C , 17-H ) :   0.8660 B(  4-C , 18-H ) :   0.8660 B(  4-C , 19-H ) :   0.9109
B(  5-C ,  6-O ) :  -0.1302 B(  5-C ,  7-O ) :  -0.2961

MP2 TOTAL ENERGY:     -385.610992729 Eh
FINAL SINGLE POINT ENERGY      -385.610992728961

DIPOLE MOMENT
-------------
                                X             Y             Z
Electronic contribution:      1.15475       5.46729       0.00000
Nuclear contribution   :     -0.54906      -5.99031       0.00000
                        -----------------------------------------
Total Dipole Moment    :      0.60568      -0.52302       0.00000
                        -----------------------------------------
Magnitude (a.u.)       :      0.80025
Magnitude (Debye)      :      2.03408

Rotational constants in cm-1:     0.105175     0.049830     0.043923
Rotational constants in MHz :  3153.062150  1493.867096  1316.767004

                             ****ORCA TERMINATED NORMALLY****
TOTAL RUN TIME: 0 days 0 hours 10 minutes 41 seconds 545 msec
