                         Program Version 5.0.3 -  RELEASE  -
|  1> !ri-mp2 aug-cc-pvtz aug-cc-pvtz/c tightscf
|  2> %pal nprocs 16 end
|  3>
|  4> * xyz 0 1
|  5> C      0.046493    0.666056    0.000000
|  6> O      0.046493   -0.757300    0.000000
|  7> H     -0.438632    1.076138    0.890767
|  8> H     -0.438632    1.076138   -0.890767
|  9> H      1.088355    0.979641    0.000000
| 10> H     -0.861989   -1.069858    0.000000
| 11> *
| 12>
| 13>                          ****END OF INPUT****

CARTESIAN COORDINATES (ANGSTROEM)
---------------------------------
  C      0.046493    0.666056    0.000000
  O      0.046493   -0.757300    0.000000
  H     -0.438632    1.076138    0.890767
  H     -0.438632    1.076138   -0.890767
  H      1.088355    0.979641    0.000000
  H     -0.861989   -1.069858    0.000000

 Total Charge           Charge          ....    0
 Multiplicity           Mult            ....    1
 Number of Electrons    NEL             ....   18
 Basis Dimension        Dim             ....  184

ORBITAL ENERGIES
----------------

  NO   OCC          E(Eh)            E(eV)
   0   2.0000     -20.558973      -559.4381
   1   2.0000     -11.272032      -306.7276
   2   2.0000      -1.356015       -36.8990
   3   2.0000      -0.925997       -25.1977
   4   2.0000      -0.690324       -18.7847
   5   2.0000      -0.619630       -16.8610
   6   2.0000      -0.593092       -16.1389
   7   2.0000      -0.503545       -13.7022
   8   2.0000      -0.451814       -12.2945
   9   0.0000       0.028534         0.7765
  10   0.0000       0.042941         1.1685
  11   0.0000       0.046651         1.2694
  12   0.0000       0.052970         1.4414
  13   0.0000       0.098949         2.6926

MULLIKEN ATOMIC CHARGES
-----------------------
   0 C :   -0.624670
   1 O :   -0.501419
   2 H :    0.305030
   3 H :    0.305030
   4 H :    0.323744
   5 H :    0.192283
Sum of atomic charges:    0.0000000

LOEWDIN ATOMIC CHARGES
----------------------
   0 C :    0.323939
   1 O :    0.770525
   2 H :   -0.190973
   3 H :   -0.190973
   4 H :   -0.199736
   5 H :   -0.512781

  Mayer bond orders larger than 0.100000
B(  0-C ,  1-O ) :   0.8215 B(  0-C ,  2-H ) :   0.9019 B(  0-C ,  3-H ) :   0.9019
B(  0-C ,  4-H ) :   0.9066 B(  1-O ,  5-H ) :   0.9858

MP2 TOTAL ENERGY:     -115.528927665 Eh
FINAL SINGLE POINT ENERGY      -115.528927665347

DIPOLE MOMENT
-------------
                                X             Y             Z
Electronic contribution:      0.11930      -1.74190       0.00000
Nuclear contribution   :     -0.68595       2.16294       0.00000
                        -----------------------------------------
Total Dipole Moment    :     -0.56665       0.42104       0.00000
                        -----------------------------------------
Magnitude (a.u.)       :      0.70595
Magnitude (Debye)      :      1.79439

Rotational constants in cm-1:     4.290976     0.823161     0.794852
Rotational constants in MHz : 128640.218084 24677.759640 23829.077485

                             ****ORCA TERMINATED NORMALLY****
TOTAL RUN TIME: 0 days 0 hours 0 minutes 38 seconds 911 msec
