                         Program Version 5.0.3 -  RELEASE  -
|  1> !ri-mp2 aug-cc-pvtz aug-cc-pvtz/c tightscf
|  2> %pal nprocs 16 end
|  3>
|  4> * xyz 0 1
|  5> C      0.000000    0.495796    0.000000
|  6> C     -1.126166    1.493825    0.000000
|  7> C      0.518397   -1.810474    0.000000
|  8> O      1.175144    0.763556    0.000000
|  9> O     -0.472599   -0.769316    0.000000
| 10> H     -1.754646    1.346302    0.878098
| 11> H     -1.754646    1.346302   -0.878098
| 12> H     -0.719073    2.499833    0.000000
| 13> H      1.146150   -1.739249   -0.886325
| 14> H     -0.037679   -2.742743    0.000000
| 15> H      1.146150   -1.739249    0.886325
| 16> *
| 17>
| 18>                          ****END OF INPUT****

CARTESIAN COORDINATES (ANGSTROEM)
---------------------------------
  C      0.000000    0.495796    0.000000
  C     -1.126166    1.493825    0.000000
  C      0.518397   -1.810474    0.000000
  O      1.175144    0.763556    0.000000
  O     -0.472599   -0.769316    0.000000
  H     -1.754646    1.346302    0.878098
  H     -1.754646    1.346302   -0.878098
  H     -0.719073    2.499833    0.000000
  H      1.146150   -1.739249   -0.886325
  H     -0.037679   -2.742743    0.000000
  H      1.146150   -1.739249    0.886325

 Total Charge           Charge          ....    0
 Multiplicity           Mult            ....    1
 Number of Electrons    NEL             ....   40
 Basis Dimension        Dim             ....  368

ORBITAL ENERGIES
----------------

  NO   OCC          E(Eh)            E(eV)
   0   2.0000     -20.603323      -560.6449
   1   2.0000     -20.544487      -559.0439
   2   2.0000     -11.380120      -309.6688
   3   2.0000     -11.285257      -307.0875
   4   2.0000     -11.240754      -305.8765
   5   2.0000      -1.458936       -39.6997
   6   2.0000      -1.358674       -36.9714
   7   2.0000      -1.034329       -28.1455
   8   2.0000      -0.948814       -25.8185
   9   2.0000      -0.777561       -21.1585
  10   2.0000      -0.694659       -18.9026
  11   2.0000      -0.676119       -18.3981
  12   2.0000      -0.675914       -18.3926
  13   2.0000      -0.594184       -16.1686
  14   2.0000      -0.592238       -16.1156
  15   2.0000      -0.560056       -15.2399
  16   2.0000      -0.528616       -14.3844
  17   2.0000      -0.523922       -14.2567
  18   2.0000      -0.463500       -12.6125
  19   2.0000      -0.449848       -12.2410
  20   0.0000       0.028299         0.7701
  21   0.0000       0.035966         0.9787
  22   0.0000       0.042956         1.1689
  23   0.0000       0.046348         1.2612
  24   0.0000       0.056588         1.5398

MULLIKEN ATOMIC CHARGES
-----------------------
   0 C :    0.363066
   1 C :   -0.618857
   2 C :   -0.720230
   3 O :   -0.665330
   4 O :   -0.330060
   5 H :    0.290587
   6 H :    0.290587
   7 H :    0.346251
   8 H :    0.345052
   9 H :    0.353881
  10 H :    0.345052
Sum of atomic charges:   -0.0000000

LOEWDIN ATOMIC CHARGES
----------------------
   0 C :   -0.839363
   1 C :    0.580782
   2 C :    0.355267
   3 O :    0.447334
   4 O :    0.551101
   5 H :   -0.176874
   6 H :   -0.176874
   7 H :   -0.186261
   8 H :   -0.182991
   9 H :   -0.189130
  10 H :   -0.182991

  Mayer bond orders larger than 0.100000
B(  0-C ,  1-C ) :   0.6875 B(  0-C ,  3-O ) :   1.5985 B(  0-C ,  4-O ) :   1.0495
B(  1-C ,  5-H ) :   0.9396 B(  1-C ,  6-H ) :   0.9396 B(  1-C ,  7-H ) :   0.9064
B(  2-C ,  4-O ) :   0.8184 B(  2-C ,  8-H ) :   0.8874 B(  2-C ,  9-H ) :   0.8977
B(  2-C , 10-H ) :   0.8874

MP2 TOTAL ENERGY:     -267.930028308 Eh
FINAL SINGLE POINT ENERGY      -267.930028307731

DIPOLE MOMENT
-------------
                                X             Y             Z
Electronic contribution:      1.26453       0.67110       0.00000
Nuclear contribution   :     -1.99033      -1.04339       0.00000
                        -----------------------------------------
Total Dipole Moment    :     -0.72580      -0.37229       0.00000
                        -----------------------------------------
Magnitude (a.u.)       :      0.81571
Magnitude (Debye)      :      2.07337

Rotational constants in cm-1:     0.341883     0.138217     0.102170
Rotational constants in MHz : 10249.404004  4143.653742  3062.969866

                             ****ORCA TERMINATED NORMALLY****
TOTAL RUN TIME: 0 days 0 hours 1 minutes 43 seconds 736 msec
