                         Program Version 5.0.3 -  RELEASE  -
|  1> !ri-mp2 aug-cc-pvtz aug-cc-pvtz/c tightscf
|  2> %pal nprocs 16 end
|  3>
|  4> * xyz 0 1
|  5> C     0.000000     0.000000    1.631581
|  6> C     0.000000     0.000000    0.315547
|  7> H     0.000000     0.924656    2.195166
|  8> H     0.000000    -0.924656    2.195166
|  9> C     0.000000     0.769087   -0.928764
| 10> C     0.000000    -0.769087   -0.928764
| 11> H     0.910119     1.272300   -1.231981
| 12> H    -0.910119     1.272300   -1.231981
| 13> H    -0.910119    -1.272300   -1.231981
| 14> H     0.910119    -1.272300   -1.231981
| 15> *
| 16>
| 17>                          ****END OF INPUT****

CARTESIAN COORDINATES (ANGSTROEM)
---------------------------------
  C      0.000000    0.000000    1.631581
  C      0.000000    0.000000    0.315547
  H      0.000000    0.924656    2.195166
  H      0.000000   -0.924656    2.195166
  C      0.000000    0.769087   -0.928764
  C      0.000000   -0.769087   -0.928764
  H      0.910119    1.272300   -1.231981
  H     -0.910119    1.272300   -1.231981
  H     -0.910119   -1.272300   -1.231981
  H      0.910119   -1.272300   -1.231981

 Total Charge           Charge          ....    0
 Multiplicity           Mult            ....    1
 Number of Electrons    NEL             ....   30
 Basis Dimension        Dim             ....  322

ORBITAL ENERGIES
----------------

  NO   OCC          E(Eh)            E(eV)
   0   2.0000     -11.244021      -305.9654
   1   2.0000     -11.234223      -305.6988
   2   2.0000     -11.233679      -305.6839
   3   2.0000     -11.222120      -305.3694
   4   2.0000      -1.151877       -31.3442
   5   2.0000      -0.976159       -26.5626
   6   2.0000      -0.835163       -22.7259
   7   2.0000      -0.729280       -19.8447
   8   2.0000      -0.647227       -17.6119
   9   2.0000      -0.639599       -17.4044
  10   2.0000      -0.596749       -16.2384
  11   2.0000      -0.522975       -14.2309
  12   2.0000      -0.437105       -11.8942
  13   2.0000      -0.423858       -11.5338
  14   2.0000      -0.362780        -9.8717
  15   0.0000       0.031579         0.8593
  16   0.0000       0.037441         1.0188
  17   0.0000       0.039014         1.0616
  18   0.0000       0.041771         1.1366
  19   0.0000       0.056969         1.5502

MULLIKEN ATOMIC CHARGES
-----------------------
   0 C :   -0.691387
   1 C :    0.729619
   2 H :    0.343342
   3 H :    0.343342
   4 C :   -1.018061
   5 C :   -1.018061
   6 H :    0.327802
   7 H :    0.327802
   8 H :    0.327802
   9 H :    0.327802
Sum of atomic charges:    0.0000000

LOEWDIN ATOMIC CHARGES
----------------------
   0 C :    0.536261
   1 C :   -0.116192
   2 H :   -0.235038
   3 H :   -0.235038
   4 C :    0.356994
   5 C :    0.356994
   6 H :   -0.165995
   7 H :   -0.165995
   8 H :   -0.165995
   9 H :   -0.165995

  Mayer bond orders larger than 0.100000
B(  0-C ,  1-C ) :   1.2767 B(  0-C ,  2-H ) :   0.9387 B(  0-C ,  3-H ) :   0.9387
B(  0-C ,  4-C ) :  -0.2734 B(  0-C ,  5-C ) :  -0.2734 B(  1-C ,  4-C ) :   0.7489
B(  1-C ,  5-C ) :   0.7489 B(  4-C ,  5-C ) :   1.3094 B(  4-C ,  6-H ) :   0.8808
B(  4-C ,  7-H ) :   0.8808 B(  5-C ,  8-H ) :   0.8808 B(  5-C ,  9-H ) :   0.8808

MP2 TOTAL ENERGY:     -155.610125267 Eh
FINAL SINGLE POINT ENERGY      -155.610125267456

DIPOLE MOMENT
-------------
                                X             Y             Z
Electronic contribution:     -0.00000       0.00000       0.37179
Nuclear contribution   :      0.00000       0.00000      -0.55996
                        -----------------------------------------
Total Dipole Moment    :     -0.00000       0.00000      -0.18816
                        -----------------------------------------
Magnitude (a.u.)       :      0.18816
Magnitude (Debye)      :      0.47828

Rotational constants in cm-1:     0.653420     0.230737     0.182878
Rotational constants in MHz : 19589.029761  6917.310248  5482.547746

                             ****ORCA TERMINATED NORMALLY****
TOTAL RUN TIME: 0 days 0 hours 1 minutes 22 seconds 58 msec
