                         Program Version 5.0.3 -  RELEASE  -
|  1> !ri-mp2 aug-cc-pvtz aug-cc-pvtz/c tightscf
|  2> %pal nprocs 16 end
|  3>
|  4> * xyz 0 1
|  5> O      0.168175    0.731979   -0.169936
|  6> O     -0.875385    0.011600    0.633516
|  7> N      2.292619   -0.465281   -0.025231
|  8> C      1.271007    0.074684   -0.071494
|  9> C     -1.910219   -0.317169   -0.281016
| 10> H     -2.328484    0.577593   -0.741855
| 11> H     -1.568489   -1.027299   -1.034576
| 12> H     -2.658412   -0.787050    0.359468
| 13> *
| 14>
| 15>                          ****END OF INPUT****

CARTESIAN COORDINATES (ANGSTROEM)
---------------------------------
  O      0.168175    0.731979   -0.169936
  O     -0.875385    0.011600    0.633516
  N      2.292619   -0.465281   -0.025231
  C      1.271007    0.074684   -0.071494
  C     -1.910219   -0.317169   -0.281016
  H     -2.328484    0.577593   -0.741855
  H     -1.568489   -1.027299   -1.034576
  H     -2.658412   -0.787050    0.359468

 Total Charge           Charge          ....    0
 Multiplicity           Mult            ....    1
 Number of Electrons    NEL             ....   38
 Basis Dimension        Dim             ....  299

ORBITAL ENERGIES
----------------

  NO   OCC          E(Eh)            E(eV)
   0   2.0000     -20.713717      -563.6489
   1   2.0000     -20.701289      -563.3107
   2   2.0000     -15.579676      -423.9445
   3   2.0000     -11.340746      -308.5974
   4   2.0000     -11.322337      -308.0965
   5   2.0000      -1.551728       -42.2247
   6   2.0000      -1.346706       -36.6457
   7   2.0000      -1.219163       -33.1751
   8   2.0000      -0.970189       -26.4002
   9   2.0000      -0.824674       -22.4405
  10   2.0000      -0.734161       -19.9775
  11   2.0000      -0.722164       -19.6511
  12   2.0000      -0.661618       -18.0035
  13   2.0000      -0.620451       -16.8833
  14   2.0000      -0.586874       -15.9697
  15   2.0000      -0.571351       -15.5473
  16   2.0000      -0.525705       -14.3052
  17   2.0000      -0.467050       -12.7091
  18   2.0000      -0.451602       -12.2887
  19   0.0000       0.021046         0.5727
  20   0.0000       0.038285         1.0418
  21   0.0000       0.042124         1.1462
  22   0.0000       0.060352         1.6423
  23   0.0000       0.078022         2.1231

MULLIKEN ATOMIC CHARGES
-----------------------
   0 O :   -0.094551
   1 O :   -0.276234
   2 N :   -0.415605
   3 C :    0.324946
   4 C :   -0.605904
   5 H :    0.344386
   6 H :    0.343780
   7 H :    0.379183
Sum of atomic charges:   -0.0000000

LOEWDIN ATOMIC CHARGES
----------------------
   0 O :    0.303110
   1 O :    0.380892
   2 N :    0.175804
   3 C :   -0.615329
   4 C :    0.310967
   5 H :   -0.184580
   6 H :   -0.182836
   7 H :   -0.188028

  Mayer bond orders larger than 0.100000
B(  0-O ,  1-O ) :   0.7816 B(  0-O ,  3-C ) :   1.1086 B(  1-O ,  4-C ) :   0.7911
B(  2-N ,  3-C ) :   2.5895 B(  4-C ,  5-H ) :   0.8825 B(  4-C ,  6-H ) :   0.8824
B(  4-C ,  7-H ) :   0.8513

MP2 TOTAL ENERGY:     -282.610616244 Eh
FINAL SINGLE POINT ENERGY      -282.610616244478

DIPOLE MOMENT
-------------
                                X             Y             Z
Electronic contribution:      4.44168       1.28601       1.01003
Nuclear contribution   :     -6.40199      -1.19946      -1.37730
                        -----------------------------------------
Total Dipole Moment    :     -1.96031       0.08655      -0.36727
                        -----------------------------------------
Magnitude (a.u.)       :      1.99629
Magnitude (Debye)      :      5.07418

Rotational constants in cm-1:     0.689625     0.097050     0.094171
Rotational constants in MHz : 20674.426213  2909.487087  2823.164641

                             ****ORCA TERMINATED NORMALLY****
TOTAL RUN TIME: 0 days 0 hours 1 minutes 19 seconds 764 msec
