                         Program Version 5.0.3 -  RELEASE  -
|  1> !ri-mp2 aug-cc-pvtz aug-cc-pvtz/c tightscf
|  2> %pal nprocs 16 end
|  3>
|  4> * xyz 0 1
|  5> C      0.932507   -0.092918    0.000000
|  6> C     -1.369372    0.416095    0.000000
|  7> O      0.725872   -1.275132    0.000000
|  8> O      0.000000    0.866990    0.000000
|  9> H      1.926421    0.370591    0.000000
| 10> H     -1.972732    1.317760    0.000000
| 11> H     -1.569738   -0.181136    0.887236
| 12> H     -1.569738   -0.181136   -0.887236
| 13> *
| 14>
| 15>                          ****END OF INPUT****

CARTESIAN COORDINATES (ANGSTROEM)
---------------------------------
  C      0.932507   -0.092918    0.000000
  C     -1.369372    0.416095    0.000000
  O      0.725872   -1.275132    0.000000
  O      0.000000    0.866990    0.000000
  H      1.926421    0.370591    0.000000
  H     -1.972732    1.317760    0.000000
  H     -1.569738   -0.181136    0.887236
  H     -1.569738   -0.181136   -0.887236

 Total Charge           Charge          ....    0
 Multiplicity           Mult            ....    1
 Number of Electrons    NEL             ....   32
 Basis Dimension        Dim             ....  276

ORBITAL ENERGIES
----------------

  NO   OCC          E(Eh)            E(eV)
   0   2.0000     -20.615711      -560.9820
   1   2.0000     -20.558273      -559.4190
   2   2.0000     -11.384879      -309.7983
   3   2.0000     -11.293247      -307.3049
   4   2.0000      -1.468597       -39.9625
   5   2.0000      -1.371685       -37.3255
   6   2.0000      -0.991597       -26.9827
   7   2.0000      -0.821488       -22.3538
   8   2.0000      -0.739333       -20.1183
   9   2.0000      -0.682104       -18.5610
  10   2.0000      -0.676455       -18.4073
  11   2.0000      -0.598287       -16.2802
  12   2.0000      -0.557235       -15.1631
  13   2.0000      -0.538809       -14.6617
  14   2.0000      -0.471521       -12.8307
  15   2.0000      -0.465883       -12.6773
  16   0.0000       0.028427         0.7735
  17   0.0000       0.038127         1.0375
  18   0.0000       0.047794         1.3005
  19   0.0000       0.048430         1.3179
  20   0.0000       0.085585         2.3289

MULLIKEN ATOMIC CHARGES
-----------------------
   0 C :   -0.087557
   1 C :   -0.659581
   2 O :   -0.582954
   3 O :   -0.327420
   4 H :    0.629606
   5 H :    0.370880
   6 H :    0.328513
   7 H :    0.328513
Sum of atomic charges:    0.0000000

LOEWDIN ATOMIC CHARGES
----------------------
   0 C :   -0.529356
   1 C :    0.354825
   2 O :    0.411325
   3 O :    0.524754
   4 H :   -0.204564
   5 H :   -0.189396
   6 H :   -0.183794
   7 H :   -0.183794

  Mayer bond orders larger than 0.100000
B(  0-C ,  2-O ) :   1.8403 B(  0-C ,  3-O ) :   1.2099 B(  0-C ,  4-H ) :   0.5313
B(  1-C ,  3-O ) :   0.7810 B(  1-C ,  5-H ) :   0.8699 B(  1-C ,  6-H ) :   0.8936
B(  1-C ,  7-H ) :   0.8936

MP2 TOTAL ENERGY:     -228.694707353 Eh
FINAL SINGLE POINT ENERGY      -228.694707352863

DIPOLE MOMENT
-------------
                                X             Y             Z
Electronic contribution:      2.84028      -0.58073       0.00000
Nuclear contribution   :     -3.17679       1.32066       0.00000
                        -----------------------------------------
Total Dipole Moment    :     -0.33651       0.73994       0.00000
                        -----------------------------------------
Magnitude (a.u.)       :      0.81286
Magnitude (Debye)      :      2.06613

Rotational constants in cm-1:     0.676045     0.227039     0.175579
Rotational constants in MHz : 20267.310411  6806.468342  5263.731474

                             ****ORCA TERMINATED NORMALLY****
TOTAL RUN TIME: 0 days 0 hours 0 minutes 52 seconds 436 msec
