                         Program Version 5.0.3 -  RELEASE  -
|  1> !ri-mp2 aug-cc-pvtz aug-cc-pvtz/c tightscf
|  2> %pal nprocs 16 end
|  3>
|  4> * xyz 0 1
|  5> C     -2.236697    0.080677   -0.129130
|  6> H     -2.322637   -0.067127   -1.206237
|  7> H     -3.133658   -0.332836    0.333139
|  8> H     -2.233285    1.152436    0.067774
|  9> C     -1.000479   -0.609481    0.429352
| 10> H     -1.046983   -1.689171    0.288441
| 11> H     -0.841528   -0.414738    1.490353
| 12> C      0.730937    1.540292    0.218013
| 13> H     -0.093206    2.158259   -0.133594
| 14> S      0.566260   -0.160011   -0.432652
| 15> O      1.651899   -0.967089    0.229435
| 16> H      1.671903    1.924648   -0.167830
| 17> H      0.761473    1.496490    1.305499
| 18> *
| 19>
| 20>                          ****END OF INPUT****

CARTESIAN COORDINATES (ANGSTROEM)
---------------------------------
  C     -2.236697    0.080677   -0.129130
  H     -2.322637   -0.067127   -1.206237
  H     -3.133658   -0.332836    0.333139
  H     -2.233285    1.152436    0.067774
  C     -1.000479   -0.609481    0.429352
  H     -1.046983   -1.689171    0.288441
  H     -0.841528   -0.414738    1.490353
  C      0.730937    1.540292    0.218013
  H     -0.093206    2.158259   -0.133594
  S      0.566260   -0.160011   -0.432652
  O      1.651899   -0.967089    0.229435
  H      1.671903    1.924648   -0.167830
  H      0.761473    1.496490    1.305499

 Total Charge           Charge          ....    0
 Multiplicity           Mult            ....    1
 Number of Electrons    NEL             ....   50
 Basis Dimension        Dim             ....  418

ORBITAL ENERGIES
----------------

  NO   OCC          E(Eh)            E(eV)
   0   2.0000     -92.066004     -2505.2433
   1   2.0000     -20.500568      -557.8488
   2   2.0000     -11.267860      -306.6141
   3   2.0000     -11.262206      -306.4602
   4   2.0000     -11.244711      -305.9841
   5   2.0000      -9.052436      -246.3293
   6   2.0000      -6.734047      -183.2427
   7   2.0000      -6.733844      -183.2372
   8   2.0000      -6.732537      -183.2016
   9   2.0000      -1.325339       -36.0643
  10   2.0000      -1.081748       -29.4359
  11   2.0000      -1.009746       -27.4766
  12   2.0000      -0.902965       -24.5709
  13   2.0000      -0.803091       -21.8532
  14   2.0000      -0.655505       -17.8372
  15   2.0000      -0.635687       -17.2979
  16   2.0000      -0.613940       -16.7061
  17   2.0000      -0.590330       -16.0637
  18   2.0000      -0.573617       -15.6089
  19   2.0000      -0.556909       -15.1543
  20   2.0000      -0.531144       -14.4532
  21   2.0000      -0.517075       -14.0703
  22   2.0000      -0.507700       -13.8152
  23   2.0000      -0.409673       -11.1478
  24   2.0000      -0.363030        -9.8785
  25   0.0000       0.024368         0.6631
  26   0.0000       0.033071         0.8999
  27   0.0000       0.037584         1.0227
  28   0.0000       0.042774         1.1639
  29   0.0000       0.054320         1.4781

MULLIKEN ATOMIC CHARGES
-----------------------
   0 C :   -0.902839
   1 H :    0.294829
   2 H :    0.285176
   3 H :    0.311094
   4 C :   -0.366040
   5 H :    0.299452
   6 H :    0.258870
   7 C :   -0.844658
   8 H :    0.342193
   9 S :    0.729811
  10 O :   -0.976939
  11 H :    0.305458
  12 H :    0.263594
Sum of atomic charges:   -0.0000000

LOEWDIN ATOMIC CHARGES
----------------------
   0 C :    0.524798
   1 H :   -0.179429
   2 H :   -0.172792
   3 H :   -0.192581
   4 C :    0.088494
   5 H :   -0.215520
   6 H :   -0.205269
   7 C :    0.403656
   8 H :   -0.238710
   9 S :    0.837988
  10 O :   -0.193317
  11 H :   -0.234798
  12 H :   -0.222522

  Mayer bond orders larger than 0.100000
B(  0-C ,  1-H ) :   0.9392 B(  0-C ,  2-H ) :   0.9656 B(  0-C ,  3-H ) :   0.9102
B(  0-C ,  4-C ) :   0.9045 B(  4-C ,  5-H ) :   0.9174 B(  4-C ,  6-H ) :   0.9145
B(  4-C ,  9-S ) :   0.8997 B(  7-C ,  8-H ) :   0.8674 B(  7-C ,  9-S ) :   0.9234
B(  7-C , 11-H ) :   0.9397 B(  7-C , 12-H ) :   0.9080 B(  9-S , 10-O ) :   1.2744

MP2 TOTAL ENERGY:     -591.677287448 Eh
FINAL SINGLE POINT ENERGY      -591.677287447988

DIPOLE MOMENT
-------------
                                X             Y             Z
Electronic contribution:      5.80941      -3.16969      -2.05510
Nuclear contribution   :     -7.36645       4.29764       2.03234
                        -----------------------------------------
Total Dipole Moment    :     -1.55704       1.12795      -0.02277
                        -----------------------------------------
Magnitude (a.u.)       :      1.92280
Magnitude (Debye)      :      4.88736

Rotational constants in cm-1:     0.213235     0.097347     0.076167
Rotational constants in MHz :  6392.621191  2918.403974  2283.420899

                             ****ORCA TERMINATED NORMALLY****
TOTAL RUN TIME: 0 days 0 hours 2 minutes 37 seconds 659 msec
