                         Program Version 5.0.3 -  RELEASE  -
|  1> !ri-mp2 aug-cc-pvtz aug-cc-pvtz/c tightscf
|  2> %pal nprocs 16 end
|  3>
|  4> * xyz 0 1
|  5> N     1.861945    0.000000   -0.456084
|  6> N    -1.883795   -2.246172    0.097385
|  7> N    -1.883789    2.246175    0.097385
|  8> C    -0.633316    0.000000   -0.061156
|  9> C     0.702935    0.000000   -0.213424
| 10> C    -1.327965   -1.238667    0.025608
| 11> C    -1.327962    1.238668    0.025608
| 12> C     3.099732   -0.000002    0.296584
| 13> H     3.669604    0.881017    0.009638
| 14> H     3.669563   -0.881067    0.009698
| 15> H     2.919761    0.000038    1.370540
| 16> *
| 17>
| 18>                          ****END OF INPUT****

CARTESIAN COORDINATES (ANGSTROEM)
---------------------------------
  N      1.861945    0.000000   -0.456084
  N     -1.883795   -2.246172    0.097385
  N     -1.883789    2.246175    0.097385
  C     -0.633316    0.000000   -0.061156
  C      0.702935    0.000000   -0.213424
  C     -1.327965   -1.238667    0.025608
  C     -1.327962    1.238668    0.025608
  C      3.099732   -0.000002    0.296584
  H      3.669604    0.881017    0.009638
  H      3.669563   -0.881067    0.009698
  H      2.919761    0.000038    1.370540

 Total Charge           Charge          ....    0
 Multiplicity           Mult            ....    1
 Number of Electrons    NEL             ....   54
 Basis Dimension        Dim             ....  437

ORBITAL ENERGIES
----------------

  NO   OCC          E(Eh)            E(eV)
   0   2.0000     -15.667859      -426.3441
   1   2.0000     -15.586881      -424.1406
   2   2.0000     -15.586881      -424.1406
   3   2.0000     -11.399603      -310.1990
   4   2.0000     -11.333805      -308.4085
   5   2.0000     -11.331181      -308.3371
   6   2.0000     -11.298680      -307.4527
   7   2.0000     -11.298662      -307.4522
   8   2.0000      -1.346076       -36.6286
   9   2.0000      -1.247683       -33.9512
  10   2.0000      -1.232293       -33.5324
  11   2.0000      -1.134485       -30.8709
  12   2.0000      -1.042878       -28.3782
  13   2.0000      -0.845531       -23.0081
  14   2.0000      -0.818112       -22.2620
  15   2.0000      -0.752241       -20.4695
  16   2.0000      -0.689758       -18.7693
  17   2.0000      -0.673268       -18.3205
  18   2.0000      -0.598123       -16.2757
  19   2.0000      -0.578018       -15.7287
  20   2.0000      -0.575856       -15.6698
  21   2.0000      -0.533407       -14.5147
  22   2.0000      -0.529513       -14.4088
  23   2.0000      -0.496782       -13.5181
  24   2.0000      -0.496510       -13.5107
  25   2.0000      -0.480013       -13.0618
  26   2.0000      -0.373873       -10.1736
  27   0.0000       0.010740         0.2922
  28   0.0000       0.032250         0.8776
  29   0.0000       0.032625         0.8878
  30   0.0000       0.047420         1.2904
  31   0.0000       0.068306         1.8587

MULLIKEN ATOMIC CHARGES
-----------------------
   0 N :   -0.108743
   1 N :   -0.617743
   2 N :   -0.617743
   3 C :    1.299144
   4 C :   -0.423628
   5 C :    0.051410
   6 C :    0.051412
   7 C :   -0.725618
   8 H :    0.360044
   9 H :    0.360045
  10 H :    0.371421
Sum of atomic charges:   -0.0000000

LOEWDIN ATOMIC CHARGES
----------------------
   0 N :    0.380059
   1 N :    0.264104
   2 N :    0.264104
   3 C :   -0.292641
   4 C :   -0.003018
   5 C :   -0.291723
   6 C :   -0.291723
   7 C :    0.478581
   8 H :   -0.170969
   9 H :   -0.170968
  10 H :   -0.165807

  Mayer bond orders larger than 0.100000
B(  0-N ,  3-C ) :  -0.1598 B(  0-N ,  4-C ) :   1.8573 B(  0-N ,  7-C ) :   0.6877
B(  1-N ,  3-C ) :  -0.1485 B(  1-N ,  4-C ) :   0.1008 B(  1-N ,  5-C ) :   2.2484
B(  2-N ,  3-C ) :  -0.1485 B(  2-N ,  4-C ) :   0.1008 B(  2-N ,  6-C ) :   2.2484
B(  3-C ,  4-C ) :   0.5097 B(  3-C ,  5-C ) :   0.3699 B(  3-C ,  6-C ) :   0.3699
B(  4-C ,  5-C ) :   0.3391 B(  4-C ,  6-C ) :   0.3391 B(  5-C ,  6-C ) :   0.3209
B(  7-C ,  8-H ) :   0.8743 B(  7-C ,  9-H ) :   0.8743 B(  7-C , 10-H ) :   0.8763

MP2 TOTAL ENERGY:     -355.833916709 Eh
FINAL SINGLE POINT ENERGY      -355.833916708681

DIPOLE MOMENT
-------------
                                X             Y             Z
Electronic contribution:     -6.87369       0.00001      -1.11528
Nuclear contribution   :      9.88853      -0.00001       1.33968
                        -----------------------------------------
Total Dipole Moment    :      3.01484      -0.00001       0.22439
                        -----------------------------------------
Magnitude (a.u.)       :      3.02318
Magnitude (Debye)      :      7.68432

Rotational constants in cm-1:     0.090424     0.047093     0.031744
Rotational constants in MHz :  2710.838680  1411.810199   951.646913

                             ****ORCA TERMINATED NORMALLY****
TOTAL RUN TIME: 0 days 0 hours 2 minutes 36 seconds 48 msec
