                         Program Version 5.0.3 -  RELEASE  -
|  1> !ri-mp2 aug-cc-pvtz aug-cc-pvtz/c tightscf
|  2> %pal nprocs 16 end
|  3>
|  4> * xyz 0 1
|  5> C      0.284009   -0.759507    0.000000
|  6> C     -0.302823    1.638533    0.742121
|  7> C     -0.302823    1.638533   -0.742121
|  8> C     -0.688018    0.369102    0.000000
|  9> C     -0.302823   -2.152697    0.000000
| 10> O      1.484030   -0.570889    0.000000
| 11> H      0.655236    1.614399    1.240617
| 12> H     -1.093428    2.156153    1.265732
| 13> H     -1.093428    2.156153   -1.265732
| 14> H      0.655236    1.614399   -1.240617
| 15> H     -1.734635    0.099083    0.000000
| 16> H     -0.938808   -2.291274    0.877339
| 17> H     -0.938808   -2.291274   -0.877339
| 18> H      0.491252   -2.894317    0.000000
| 19> *
| 20>
| 21>                          ****END OF INPUT****

CARTESIAN COORDINATES (ANGSTROEM)
---------------------------------
  C      0.284009   -0.759507    0.000000
  C     -0.302823    1.638533    0.742121
  C     -0.302823    1.638533   -0.742121
  C     -0.688018    0.369102    0.000000
  C     -0.302823   -2.152697    0.000000
  O      1.484030   -0.570889    0.000000
  H      0.655236    1.614399    1.240617
  H     -1.093428    2.156153    1.265732
  H     -1.093428    2.156153   -1.265732
  H      0.655236    1.614399   -1.240617
  H     -1.734635    0.099083    0.000000
  H     -0.938808   -2.291274    0.877339
  H     -0.938808   -2.291274   -0.877339
  H      0.491252   -2.894317    0.000000

 Total Charge           Charge          ....    0
 Multiplicity           Mult            ....    1
 Number of Electrons    NEL             ....   46
 Basis Dimension        Dim             ....  460

ORBITAL ENERGIES
----------------

  NO   OCC          E(Eh)            E(eV)
   0   2.0000     -20.536814      -558.8351
   1   2.0000     -11.329093      -308.2803
   2   2.0000     -11.242546      -305.9252
   3   2.0000     -11.239796      -305.8504
   4   2.0000     -11.239118      -305.8319
   5   2.0000     -11.232815      -305.6604
   6   2.0000      -1.380914       -37.5766
   7   2.0000      -1.154147       -31.4059
   8   2.0000      -1.017148       -27.6780
   9   2.0000      -0.878394       -23.9023
  10   2.0000      -0.832132       -22.6435
  11   2.0000      -0.733712       -19.9653
  12   2.0000      -0.688345       -18.7308
  13   2.0000      -0.655087       -17.8258
  14   2.0000      -0.606450       -16.5023
  15   2.0000      -0.600817       -16.3491
  16   2.0000      -0.576077       -15.6759
  17   2.0000      -0.544057       -14.8046
  18   2.0000      -0.531293       -14.4572
  19   2.0000      -0.500094       -13.6082
  20   2.0000      -0.449879       -12.2418
  21   2.0000      -0.417721       -11.3668
  22   2.0000      -0.407005       -11.0752
  23   0.0000       0.025938         0.7058
  24   0.0000       0.033551         0.9130
  25   0.0000       0.036726         0.9994
  26   0.0000       0.041976         1.1422
  27   0.0000       0.053759         1.4629

MULLIKEN ATOMIC CHARGES
-----------------------
   0 C :    0.647353
   1 C :   -0.974450
   2 C :   -0.974450
   3 C :    0.100257
   4 C :   -0.772525
   5 O :   -0.895802
   6 H :    0.375490
   7 H :    0.388076
   8 H :    0.388076
   9 H :    0.375490
  10 H :    0.431294
  11 H :    0.295542
  12 H :    0.295542
  13 H :    0.320109
Sum of atomic charges:   -0.0000000

LOEWDIN ATOMIC CHARGES
----------------------
   0 C :   -0.520364
   1 C :    0.367822
   2 C :    0.367822
   3 C :    0.029490
   4 C :    0.591370
   5 O :    0.473527
   6 H :   -0.161812
   7 H :   -0.154213
   8 H :   -0.154213
   9 H :   -0.161812
  10 H :   -0.154114
  11 H :   -0.170925
  12 H :   -0.170925
  13 H :   -0.181653

  Mayer bond orders larger than 0.100000
B(  0-C ,  3-C ) :   0.7318 B(  0-C ,  4-C ) :   0.8405 B(  0-C ,  5-O ) :   1.2433
B(  1-C ,  2-C ) :   1.3548 B(  1-C ,  3-C ) :   0.5847 B(  1-C ,  6-H ) :   0.8310
B(  1-C ,  7-H ) :   0.7979 B(  2-C ,  3-C ) :   0.5847 B(  2-C ,  8-H ) :   0.7979
B(  2-C ,  9-H ) :   0.8310 B(  3-C ,  5-O ) :  -0.1027 B(  3-C , 10-H ) :   0.7970
B(  4-C , 11-H ) :   0.9414 B(  4-C , 12-H ) :   0.9414 B(  4-C , 13-H ) :   0.9491

MP2 TOTAL ENERGY:     -270.013778364 Eh
FINAL SINGLE POINT ENERGY      -270.013778364101

DIPOLE MOMENT
-------------
                                X             Y             Z
Electronic contribution:      2.79627      -0.15959      -0.00000
Nuclear contribution   :     -4.08139       0.15849      -0.00000
                        -----------------------------------------
Total Dipole Moment    :     -1.28512      -0.00110      -0.00000
                        -----------------------------------------
Magnitude (a.u.)       :      1.28512
Magnitude (Debye)      :      3.26651

Rotational constants in cm-1:     0.241054     0.087241     0.076301
Rotational constants in MHz :  7226.631877  2615.414379  2287.455152

                             ****ORCA TERMINATED NORMALLY****
TOTAL RUN TIME: 0 days 0 hours 3 minutes 17 seconds 18 msec
