                         Program Version 5.0.3 -  RELEASE  -
|  1> !ri-mp2 aug-cc-pvtz aug-cc-pvtz/c tightscf
|  2> %pal nprocs 16 end
|  3>
|  4> * xyz 0 1
|  5> C      0.000000    0.000000    0.529544
|  6> O      0.000000    1.174198   -0.247524
|  7> O      0.000000   -1.174198   -0.247524
|  8> H     -0.891011   -0.071326    1.155757
|  9> H      0.891011    0.071326    1.155757
| 10> H     -0.812903    1.199741   -0.764202
| 11> H      0.812903   -1.199741   -0.764202
| 12> *
| 13>
| 14>                          ****END OF INPUT****

CARTESIAN COORDINATES (ANGSTROEM)
---------------------------------
  C      0.000000    0.000000    0.529544
  O      0.000000    1.174198   -0.247524
  O      0.000000   -1.174198   -0.247524
  H     -0.891011   -0.071326    1.155757
  H      0.891011    0.071326    1.155757
  H     -0.812903    1.199741   -0.764202
  H      0.812903   -1.199741   -0.764202

 Total Charge           Charge          ....    0
 Multiplicity           Mult            ....    1
 Number of Electrons    NEL             ....   26
 Basis Dimension        Dim             ....  230

ORBITAL ENERGIES
----------------

  NO   OCC          E(Eh)            E(eV)
   0   2.0000     -20.571412      -559.7766
   1   2.0000     -20.571391      -559.7760
   2   2.0000     -11.335232      -308.4474
   3   2.0000      -1.411252       -38.4021
   4   2.0000      -1.338119       -36.4121
   5   2.0000      -0.916429       -24.9373
   6   2.0000      -0.751721       -20.4554
   7   2.0000      -0.659669       -17.9505
   8   2.0000      -0.644407       -17.5352
   9   2.0000      -0.616333       -16.7713
  10   2.0000      -0.503076       -13.6894
  11   2.0000      -0.499197       -13.5839
  12   2.0000      -0.469902       -12.7867
  13   0.0000       0.029813         0.8112
  14   0.0000       0.040089         1.0909
  15   0.0000       0.043318         1.1787
  16   0.0000       0.055201         1.5021
  17   0.0000       0.095076         2.5872

MULLIKEN ATOMIC CHARGES
-----------------------
   0 C :   -0.060039
   1 O :   -0.524360
   2 O :   -0.524360
   3 H :    0.368044
   4 H :    0.368044
   5 H :    0.186335
   6 H :    0.186335
Sum of atomic charges:    0.0000000

LOEWDIN ATOMIC CHARGES
----------------------
   0 C :   -0.222881
   1 O :    0.789606
   2 O :    0.789606
   3 H :   -0.181069
   4 H :   -0.181069
   5 H :   -0.497096
   6 H :   -0.497096

  Mayer bond orders larger than 0.100000
B(  0-C ,  1-O ) :   0.8324 B(  0-C ,  2-O ) :   0.8324 B(  0-C ,  3-H ) :   0.8692
B(  0-C ,  4-H ) :   0.8692 B(  1-O ,  5-H ) :   0.9810 B(  2-O ,  6-H ) :   0.9810

MP2 TOTAL ENERGY:     -190.667914913 Eh
FINAL SINGLE POINT ENERGY      -190.667914913199

DIPOLE MOMENT
-------------
                                X             Y             Z
Electronic contribution:      0.00000       0.00000      -0.79379
Nuclear contribution   :      0.00000       0.00000       0.78804
                        -----------------------------------------
Total Dipole Moment    :      0.00000       0.00000      -0.00575
                        -----------------------------------------
Magnitude (a.u.)       :      0.00575
Magnitude (Debye)      :      0.01462

Rotational constants in cm-1:     1.399825     0.337411     0.299468
Rotational constants in MHz : 41965.703848 10115.338944  8977.830851

                             ****ORCA TERMINATED NORMALLY****
TOTAL RUN TIME: 0 days 0 hours 0 minutes 39 seconds 907 msec
