                         Program Version 5.0.3 -  RELEASE  -
|  1> !ri-mp2 aug-cc-pvtz aug-cc-pvtz/c tightscf
|  2> %pal nprocs 16 end
|  3>
|  4> * xyz 0 1
|  5> H      2.527150   -1.893203    0.000000
|  6> H      2.462309   -0.342027    0.886291
|  7> H      2.462309   -0.342027   -0.886291
|  8> C      2.133452   -0.881675    0.000000
|  9> O      0.704179   -1.022573    0.000000
| 10> O      0.512478    1.224123    0.000000
| 11> C      0.000000    0.130493    0.000000
| 12> H     -1.752520   -1.187537    0.000000
| 13> C     -1.456302   -0.147598    0.000000
| 14> H     -3.407145    0.640284    0.000000
| 15> H     -2.020476    1.871183    0.000000
| 16> C     -2.344631    0.838935    0.000000
| 17> *
| 18>
| 19>                          ****END OF INPUT****

CARTESIAN COORDINATES (ANGSTROEM)
---------------------------------
  H      2.527150   -1.893203    0.000000
  H      2.462309   -0.342027    0.886291
  H      2.462309   -0.342027   -0.886291
  C      2.133452   -0.881675    0.000000
  O      0.704179   -1.022573    0.000000
  O      0.512478    1.224123    0.000000
  C      0.000000    0.130493    0.000000
  H     -1.752520   -1.187537    0.000000
  C     -1.456302   -0.147598    0.000000
  H     -3.407145    0.640284    0.000000
  H     -2.020476    1.871183    0.000000
  C     -2.344631    0.838935    0.000000

 Total Charge           Charge          ....    0
 Multiplicity           Mult            ....    1
 Number of Electrons    NEL             ....   46
 Basis Dimension        Dim             ....  414

ORBITAL ENERGIES
----------------

  NO   OCC          E(Eh)            E(eV)
   0   2.0000     -20.605017      -560.6910
   1   2.0000     -20.542069      -558.9781
   2   2.0000     -11.381527      -309.7071
   3   2.0000     -11.285076      -307.0825
   4   2.0000     -11.258191      -306.3510
   5   2.0000     -11.249307      -306.1092
   6   2.0000      -1.458990       -39.7011
   7   2.0000      -1.357957       -36.9519
   8   2.0000      -1.081062       -29.4172
   9   2.0000      -0.979598       -26.6562
  10   2.0000      -0.855459       -23.2782
  11   2.0000      -0.760510       -20.6945
  12   2.0000      -0.713966       -19.4280
  13   2.0000      -0.676093       -18.3974
  14   2.0000      -0.670501       -18.2453
  15   2.0000      -0.633115       -17.2279
  16   2.0000      -0.585506       -15.9324
  17   2.0000      -0.555623       -15.1193
  18   2.0000      -0.549962       -14.9652
  19   2.0000      -0.528587       -14.3836
  20   2.0000      -0.464398       -12.6369
  21   2.0000      -0.452723       -12.3192
  22   2.0000      -0.396447       -10.7879
  23   0.0000       0.028082         0.7642
  24   0.0000       0.032687         0.8894
  25   0.0000       0.041505         1.1294
  26   0.0000       0.050967         1.3869
  27   0.0000       0.053245         1.4489

MULLIKEN ATOMIC CHARGES
-----------------------
   0 H :    0.361041
   1 H :    0.349200
   2 H :    0.349200
   3 C :   -0.729024
   4 O :   -0.329084
   5 O :   -0.805766
   6 C :    0.656836
   7 H :    0.364758
   8 C :   -0.087965
   9 H :    0.513536
  10 H :    0.344557
  11 C :   -0.987288
Sum of atomic charges:   -0.0000000

LOEWDIN ATOMIC CHARGES
----------------------
   0 H :   -0.188329
   1 H :   -0.182158
   2 H :   -0.182158
   3 C :    0.356869
   4 O :    0.548987
   5 O :    0.449816
   6 C :   -0.873949
   7 H :   -0.212287
   8 C :    0.166138
   9 H :   -0.209378
  10 H :   -0.211557
  11 C :    0.538006

  Mayer bond orders larger than 0.100000
B(  0-H ,  3-C ) :   0.8794 B(  1-H ,  3-C ) :   0.8880 B(  2-H ,  3-C ) :   0.8880
B(  3-C ,  4-O ) :   0.8224 B(  4-O ,  6-C ) :   1.0378 B(  5-O ,  6-C ) :   1.5666
B(  5-O ,  8-C ) :  -0.2113 B(  6-C ,  8-C ) :   0.7574 B(  7-H ,  8-C ) :   0.9095
B(  8-C , 11-C ) :   1.4687 B(  9-H , 11-C ) :   0.7155 B( 10-H , 11-C ) :   0.9112

MP2 TOTAL ENERGY:     -305.928200771 Eh
FINAL SINGLE POINT ENERGY      -305.928200771170

DIPOLE MOMENT
-------------
                                X             Y             Z
Electronic contribution:     -0.59609       0.64921       0.00000
Nuclear contribution   :      0.29182      -1.25453       0.00000
                        -----------------------------------------
Total Dipole Moment    :     -0.30427      -0.60532       0.00000
                        -----------------------------------------
Magnitude (a.u.)       :      0.67749
Magnitude (Debye)      :      1.72203

Rotational constants in cm-1:     0.344316     0.077244     0.063847
Rotational constants in MHz : 10322.332080  2315.704212  1914.079011

                             ****ORCA TERMINATED NORMALLY****
TOTAL RUN TIME: 0 days 0 hours 2 minutes 26 seconds 305 msec
