                         Program Version 5.0.3 -  RELEASE  -
|  1> !ri-mp2 aug-cc-pvtz aug-cc-pvtz/c tightscf
|  2> %pal nprocs 16 end
|  3>
|  4> * xyz 0 1
|  5> C     -1.374452    0.901229    0.000000
|  6> C     -1.354402    2.251618    0.000000
|  7> C      0.741286    1.626446    0.000000
|  8> C      0.000000    0.483904    0.000000
|  9> C      0.566044   -0.870351    0.000000
| 10> C      0.057679   -3.174642    0.000000
| 11> O      1.747782   -1.126769    0.000000
| 12> O     -0.063377    2.708616    0.000000
| 13> O     -0.400911   -1.813271    0.000000
| 14> H     -2.241521    0.265834    0.000000
| 15> H     -2.117954    3.007351    0.000000
| 16> H      1.801169    1.802830    0.000000
| 17> H      0.656818   -3.374632    0.886389
| 18> H      0.656818   -3.374632   -0.886389
| 19> H     -0.840215   -3.784584    0.000000
| 20> *
| 21>
| 22>                          ****END OF INPUT****

CARTESIAN COORDINATES (ANGSTROEM)
---------------------------------
  C     -1.374452    0.901229    0.000000
  C     -1.354402    2.251618    0.000000
  C      0.741286    1.626446    0.000000
  C      0.000000    0.483904    0.000000
  C      0.566044   -0.870351    0.000000
  C      0.057679   -3.174642    0.000000
  O      1.747782   -1.126769    0.000000
  O     -0.063377    2.708616    0.000000
  O     -0.400911   -1.813271    0.000000
  H     -2.241521    0.265834    0.000000
  H     -2.117954    3.007351    0.000000
  H      1.801169    1.802830    0.000000
  H      0.656818   -3.374632    0.886389
  H      0.656818   -3.374632   -0.886389
  H     -0.840215   -3.784584    0.000000

 Total Charge           Charge          ....    0
 Multiplicity           Mult            ....    1
 Number of Electrons    NEL             ....   66
 Basis Dimension        Dim             ....  552

ORBITAL ENERGIES
----------------

  NO   OCC          E(Eh)            E(eV)
   0   2.0000     -20.644089      -561.7542
   1   2.0000     -20.607306      -560.7533
   2   2.0000     -20.543059      -559.0050
   3   2.0000     -11.387803      -309.8779
   4   2.0000     -11.316613      -307.9407
   5   2.0000     -11.300113      -307.4917
   6   2.0000     -11.287221      -307.1409
   7   2.0000     -11.249250      -306.1077
   8   2.0000     -11.245928      -306.0173
   9   2.0000      -1.480055       -40.2743
  10   2.0000      -1.461314       -39.7644
  11   2.0000      -1.359727       -37.0001
  12   2.0000      -1.114776       -30.3346
  13   2.0000      -1.030921       -28.0528
  14   2.0000      -0.982780       -26.7428
  15   2.0000      -0.865617       -23.5546
  16   2.0000      -0.809506       -22.0278
  17   2.0000      -0.777767       -21.1641
  18   2.0000      -0.754338       -20.5266
  19   2.0000      -0.678357       -18.4590
  20   2.0000      -0.675658       -18.3856
  21   2.0000      -0.665059       -18.0972
  22   2.0000      -0.650905       -17.7120
  23   2.0000      -0.622213       -16.9313
  24   2.0000      -0.592018       -16.1096
  25   2.0000      -0.584494       -15.9049
  26   2.0000      -0.556860       -15.1529
  27   2.0000      -0.554564       -15.0905
  28   2.0000      -0.532402       -14.4874
  29   2.0000      -0.466855       -12.7038
  30   2.0000      -0.457279       -12.4432
  31   2.0000      -0.414001       -11.2655
  32   2.0000      -0.337187        -9.1753
  33   0.0000       0.026879         0.7314
  34   0.0000       0.031753         0.8640
  35   0.0000       0.038794         1.0556
  36   0.0000       0.046287         1.2595
  37   0.0000       0.050039         1.3616

MULLIKEN ATOMIC CHARGES
-----------------------
   0 C :   -0.481163
   1 C :   -0.600477
   2 C :   -0.915711
   3 C :    1.213761
   4 C :    0.433767
   5 C :   -0.792491
   6 O :   -0.923490
   7 O :   -0.392376
   8 O :   -0.392478
   9 H :    0.438597
  10 H :    0.711253
  11 H :    0.637309
  12 H :    0.363766
  13 H :    0.363766
  14 H :    0.335967
Sum of atomic charges:   -0.0000000

LOEWDIN ATOMIC CHARGES
----------------------
   0 C :    0.188747
   1 C :   -0.006434
   2 C :    0.002411
   3 C :   -0.183535
   4 C :   -0.850599
   5 C :    0.360991
   6 O :    0.452926
   7 O :    0.569351
   8 O :    0.556837
   9 H :   -0.184894
  10 H :   -0.191434
  11 H :   -0.165001
  12 H :   -0.181012
  13 H :   -0.181012
  14 H :   -0.187342

  Mayer bond orders larger than 0.100000
B(  0-C ,  1-C ) :   1.2833 B(  0-C ,  3-C ) :   0.8832 B(  0-C ,  9-H ) :   0.9509
B(  1-C ,  2-C ) :   0.1177 B(  1-C ,  3-C ) :  -0.1510 B(  1-C ,  7-O ) :   1.0200
B(  1-C , 10-H ) :   0.4281 B(  2-C ,  3-C ) :   0.6737 B(  2-C ,  4-C ) :   0.1334
B(  2-C ,  7-O ) :   0.9739 B(  2-C , 11-H ) :   0.5985 B(  3-C ,  4-C ) :   0.5018
B(  3-C ,  6-O ) :  -0.2076 B(  4-C ,  6-O ) :   1.4152 B(  4-C ,  8-O ) :   0.9938
B(  5-C ,  8-O ) :   0.8574 B(  5-C , 12-H ) :   0.8783 B(  5-C , 13-H ) :   0.8783
B(  5-C , 14-H ) :   0.9079

MP2 TOTAL ENERGY:     -457.117165124 Eh
FINAL SINGLE POINT ENERGY      -457.117165123767

DIPOLE MOMENT
-------------
                                X             Y             Z
Electronic contribution:      1.16324       5.26830       0.00000
Nuclear contribution   :     -2.02932      -5.36802       0.00000
                        -----------------------------------------
Total Dipole Moment    :     -0.86608      -0.09972       0.00000
                        -----------------------------------------
Magnitude (a.u.)       :      0.87180
Magnitude (Debye)      :      2.21595

Rotational constants in cm-1:     0.155651     0.034313     0.028264
Rotational constants in MHz :  4666.303108  1028.671435   847.341450

                             ****ORCA TERMINATED NORMALLY****
TOTAL RUN TIME: 0 days 0 hours 5 minutes 36 seconds 824 msec
