                         Program Version 5.0.3 -  RELEASE  -
|  1> !ri-mp2 aug-cc-pvtz aug-cc-pvtz/c tightscf
|  2> %pal nprocs 16 end
|  3>
|  4> * xyz 0 1
|  5> C     -1.162065   -0.316600    0.000000
|  6> C      3.891987    0.293233    0.000000
|  7> C     -3.521231   -0.471592    0.000000
|  8> C      0.000000    0.649193    0.000000
|  9> C      2.521478    0.967777    0.000000
| 10> C      1.364398   -0.031139    0.000000
| 11> O     -1.082593   -1.519471    0.000000
| 12> O     -2.339681    0.346164    0.000000
| 13> H      4.019803   -0.339306    0.880577
| 14> H      4.019803   -0.339306   -0.880577
| 15> H      4.697325    1.028826    0.000000
| 16> H     -3.548612   -1.103036    0.886262
| 17> H     -3.548612   -1.103036   -0.886262
| 18> H     -4.356547    0.221758    0.000000
| 19> H     -0.114752    1.302305   -0.869458
| 20> H     -0.114752    1.302305    0.869458
| 21> H      2.437814    1.621046    0.874090
| 22> H      2.437814    1.621046   -0.874090
| 23> H      1.440757   -0.685686    0.871083
| 24> H      1.440757   -0.685686   -0.871083
| 25> *
| 26>
| 27>                          ****END OF INPUT****

CARTESIAN COORDINATES (ANGSTROEM)
---------------------------------
  C     -1.162065   -0.316600    0.000000
  C      3.891987    0.293233    0.000000
  C     -3.521231   -0.471592    0.000000
  C      0.000000    0.649193    0.000000
  C      2.521478    0.967777    0.000000
  C      1.364398   -0.031139    0.000000
  O     -1.082593   -1.519471    0.000000
  O     -2.339681    0.346164    0.000000
  H      4.019803   -0.339306    0.880577
  H      4.019803   -0.339306   -0.880577
  H      4.697325    1.028826    0.000000
  H     -3.548612   -1.103036    0.886262
  H     -3.548612   -1.103036   -0.886262
  H     -4.356547    0.221758    0.000000
  H     -0.114752    1.302305   -0.869458
  H     -0.114752    1.302305    0.869458
  H      2.437814    1.621046    0.874090
  H      2.437814    1.621046   -0.874090
  H      1.440757   -0.685686    0.871083
  H      1.440757   -0.685686   -0.871083

 Total Charge           Charge          ....    0
 Multiplicity           Mult            ....    1
 Number of Electrons    NEL             ....   64
 Basis Dimension        Dim             ....  644

ORBITAL ENERGIES
----------------

  NO   OCC          E(Eh)            E(eV)
   0   2.0000     -20.600457      -560.5669
   1   2.0000     -20.542318      -558.9849
   2   2.0000     -11.375431      -309.5412
   3   2.0000     -11.283599      -307.0423
   4   2.0000     -11.240846      -305.8790
   5   2.0000     -11.222703      -305.3853
   6   2.0000     -11.221866      -305.3625
   7   2.0000     -11.212968      -305.1204
   8   2.0000      -1.456397       -39.6306
   9   2.0000      -1.356427       -36.9102
  10   2.0000      -1.089151       -29.6373
  11   2.0000      -1.022572       -27.8256
  12   2.0000      -0.964065       -26.2335
  13   2.0000      -0.885965       -24.1083
  14   2.0000      -0.803338       -21.8599
  15   2.0000      -0.765817       -20.8389
  16   2.0000      -0.695509       -18.9258
  17   2.0000      -0.678854       -18.4726
  18   2.0000      -0.670099       -18.2343
  19   2.0000      -0.644238       -17.5306
  20   2.0000      -0.596982       -16.2447
  21   2.0000      -0.590562       -16.0700
  22   2.0000      -0.578400       -15.7391
  23   2.0000      -0.538704       -14.6589
  24   2.0000      -0.537151       -14.6166
  25   2.0000      -0.525783       -14.3073
  26   2.0000      -0.499855       -13.6017
  27   2.0000      -0.480628       -13.0786
  28   2.0000      -0.475829       -12.9480
  29   2.0000      -0.470924       -12.8145
  30   2.0000      -0.459939       -12.5156
  31   2.0000      -0.443496       -12.0681
  32   0.0000       0.028621         0.7788
  33   0.0000       0.031493         0.8570
  34   0.0000       0.038740         1.0542
  35   0.0000       0.039286         1.0690
  36   0.0000       0.046747         1.2721

MULLIKEN ATOMIC CHARGES
-----------------------
   0 C :    0.365367
   1 C :   -0.976432
   2 C :   -0.756703
   3 C :   -0.111623
   4 C :   -0.458839
   5 C :   -0.167475
   6 O :   -0.798734
   7 O :   -0.395956
   8 H :    0.273270
   9 H :    0.273270
  10 H :    0.275980
  11 H :    0.363190
  12 H :    0.363190
  13 H :    0.356002
  14 H :    0.210898
  15 H :    0.210898
  16 H :    0.245150
  17 H :    0.245150
  18 H :    0.241699
  19 H :    0.241699
Sum of atomic charges:   -0.0000000

LOEWDIN ATOMIC CHARGES
----------------------
   0 C :   -0.807493
   1 C :    0.581034
   2 C :    0.357220
   3 C :    0.272139
   4 C :    0.256207
   5 C :    0.257294
   6 O :    0.469204
   7 O :    0.560563
   8 H :   -0.170157
   9 H :   -0.170157
  10 H :   -0.173440
  11 H :   -0.182461
  12 H :   -0.182461
  13 H :   -0.188894
  14 H :   -0.148066
  15 H :   -0.148066
  16 H :   -0.147828
  17 H :   -0.147828
  18 H :   -0.143405
  19 H :   -0.143405

  Mayer bond orders larger than 0.100000
B(  0-C ,  3-C ) :   0.6282 B(  0-C ,  6-O ) :   1.4578 B(  0-C ,  7-O ) :   1.0583
B(  1-C ,  4-C ) :   0.9249 B(  1-C ,  8-H ) :   0.9576 B(  1-C ,  9-H ) :   0.9576
B(  1-C , 10-H ) :   0.9841 B(  2-C ,  7-O ) :   0.8181 B(  2-C , 11-H ) :   0.8816
B(  2-C , 12-H ) :   0.8816 B(  2-C , 13-H ) :   0.9018 B(  3-C ,  5-C ) :   1.0061
B(  3-C , 14-H ) :   0.9465 B(  3-C , 15-H ) :   0.9465 B(  4-C ,  5-C ) :   0.8754
B(  4-C , 16-H ) :   0.9539 B(  4-C , 17-H ) :   0.9539 B(  5-C , 18-H ) :   0.9446
B(  5-C , 19-H ) :   0.9446

MP2 TOTAL ENERGY:     -385.604933570 Eh
FINAL SINGLE POINT ENERGY      -385.604933570176

DIPOLE MOMENT
-------------
                                X             Y             Z
Electronic contribution:     -9.22616      -2.20647       0.00000
Nuclear contribution   :      9.06116       2.92083       0.00000
                        -----------------------------------------
Total Dipole Moment    :     -0.16501       0.71436       0.00000
                        -----------------------------------------
Magnitude (a.u.)       :      0.73317
Magnitude (Debye)      :      1.86357

Rotational constants in cm-1:     0.253606     0.024449     0.022765
Rotational constants in MHz :  7602.923228   732.957149   682.486139

                             ****ORCA TERMINATED NORMALLY****
TOTAL RUN TIME: 0 days 0 hours 8 minutes 25 seconds 110 msec
