                         Program Version 5.0.3 -  RELEASE  -
|  1> !ri-mp2 aug-cc-pvtz aug-cc-pvtz/c tightscf
|  2> %pal nprocs 16 end
|  3> %maxcore 3800
|  4>
|  5> * xyz 0 1
|  6> C     -1.111854   -0.407602    0.125096
|  7> C      2.519955    0.359470   -0.688408
|  8> C      1.969676   -1.052974   -0.470654
|  9> C      1.411901    1.411583   -0.589259
| 10> C      1.194356   -1.168658    0.847170
| 11> C      0.666104    1.312877    0.744533
| 12> C      0.099900   -0.101797    0.994429
| 13> C     -3.281670    0.319162   -0.471198
| 14> O     -1.250170   -1.370670   -0.588255
| 15> O     -2.072170    0.532062    0.273850
| 16> H      3.284420    0.574297    0.066511
| 17> H      3.016327    0.424143   -1.659020
| 18> H      1.308119   -1.318004   -1.297782
| 19> H      2.784895   -1.779646   -0.477318
| 20> H      1.828011    2.414978   -0.702103
| 21> H      0.706946    1.275720   -1.416225
| 22> H      0.756983   -2.162764    0.937526
| 23> H      1.888488   -1.047022    1.684150
| 24> H      1.361886    1.538168    1.557947
| 25> H     -0.133635    2.050051    0.799485
| 26> H     -0.284837   -0.125874    2.018897
| 27> H     -3.073608    0.295602   -1.539403
| 28> H     -3.927090    1.157271   -0.226901
| 29> H     -3.748380   -0.620419   -0.180785
| 30> *
| 31>
| 32>                          ****END OF INPUT****

CARTESIAN COORDINATES (ANGSTROEM)
---------------------------------
  C     -1.111854   -0.407602    0.125096
  C      2.519955    0.359470   -0.688408
  C      1.969676   -1.052974   -0.470654
  C      1.411901    1.411583   -0.589259
  C      1.194356   -1.168658    0.847170
  C      0.666104    1.312877    0.744533
  C      0.099900   -0.101797    0.994429
  C     -3.281670    0.319162   -0.471198
  O     -1.250170   -1.370670   -0.588255
  O     -2.072170    0.532062    0.273850
  H      3.284420    0.574297    0.066511
  H      3.016327    0.424143   -1.659020
  H      1.308119   -1.318004   -1.297782
  H      2.784895   -1.779646   -0.477318
  H      1.828011    2.414978   -0.702103
  H      0.706946    1.275720   -1.416225
  H      0.756983   -2.162764    0.937526
  H      1.888488   -1.047022    1.684150
  H      1.361886    1.538168    1.557947
  H     -0.133635    2.050051    0.799485
  H     -0.284837   -0.125874    2.018897
  H     -3.073608    0.295602   -1.539403
  H     -3.927090    1.157271   -0.226901
  H     -3.748380   -0.620419   -0.180785

 Total Charge           Charge          ....    0
 Multiplicity           Mult            ....    1
 Number of Electrons    NEL             ....   78
 Basis Dimension        Dim             ....  782

ORBITAL ENERGIES
----------------

  NO   OCC          E(Eh)            E(eV)
   0   2.0000     -20.599277      -560.5348
   1   2.0000     -20.540648      -558.9394
   2   2.0000     -11.372507      -309.4616
   3   2.0000     -11.283295      -307.0341
   4   2.0000     -11.242752      -305.9308
   5   2.0000     -11.225193      -305.4530
   6   2.0000     -11.218484      -305.2705
   7   2.0000     -11.218135      -305.2610
   8   2.0000     -11.214552      -305.1635
   9   2.0000     -11.210185      -305.0447
  10   2.0000      -1.455729       -39.6124
  11   2.0000      -1.354837       -36.8670
  12   2.0000      -1.124286       -30.5934
  13   2.0000      -1.030659       -28.0457
  14   2.0000      -1.005833       -27.3701
  15   2.0000      -0.965909       -26.2837
  16   2.0000      -0.859647       -23.3922
  17   2.0000      -0.834698       -22.7133
  18   2.0000      -0.785959       -21.3870
  19   2.0000      -0.748547       -20.3690
  20   2.0000      -0.681855       -18.5542
  21   2.0000      -0.673150       -18.3174
  22   2.0000      -0.670644       -18.2491
  23   2.0000      -0.644191       -17.5293
  24   2.0000      -0.612522       -16.6676
  25   2.0000      -0.604191       -16.4409
  26   2.0000      -0.588359       -16.0101
  27   2.0000      -0.554878       -15.0990
  28   2.0000      -0.536183       -14.5903
  29   2.0000      -0.528876       -14.3914
  30   2.0000      -0.524286       -14.2665
  31   2.0000      -0.514820       -14.0090
  32   2.0000      -0.511597       -13.9213
  33   2.0000      -0.484570       -13.1858
  34   2.0000      -0.468115       -12.7381
  35   2.0000      -0.457697       -12.4546
  36   2.0000      -0.434020       -11.8103
  37   2.0000      -0.432251       -11.7621
  38   2.0000      -0.429389       -11.6843
  39   0.0000       0.027217         0.7406
  40   0.0000       0.032356         0.8805
  41   0.0000       0.033929         0.9233
  42   0.0000       0.036748         1.0000
  43   0.0000       0.047870         1.3026

MULLIKEN ATOMIC CHARGES
-----------------------
   0 C :    0.624703
   1 C :   -0.500642
   2 C :   -0.494064
   3 C :   -0.537011
   4 C :   -0.575522
   5 C :   -0.536601
   6 C :    0.413910
   7 C :   -0.903381
   8 O :   -0.949250
   9 O :   -0.462867
  10 H :    0.125067
  11 H :    0.306365
  12 H :    0.194148
  13 H :    0.355220
  14 H :    0.347293
  15 H :    0.125721
  16 H :    0.223131
  17 H :    0.251235
  18 H :    0.203175
  19 H :    0.294233
  20 H :    0.362788
  21 H :    0.383053
  22 H :    0.353172
  23 H :    0.396122
Sum of atomic charges:   -0.0000000

LOEWDIN ATOMIC CHARGES
----------------------
   0 C :   -0.790842
   1 C :    0.293851
   2 C :    0.297715
   3 C :    0.297140
   4 C :    0.294550
   5 C :    0.302850
   6 C :   -0.002884
   7 C :    0.362071
   8 O :    0.487371
   9 O :    0.573777
  10 H :   -0.141397
  11 H :   -0.142175
  12 H :   -0.155278
  13 H :   -0.139837
  14 H :   -0.139988
  15 H :   -0.139142
  16 H :   -0.146969
  17 H :   -0.137711
  18 H :   -0.135693
  19 H :   -0.154693
  20 H :   -0.133384
  21 H :   -0.180996
  22 H :   -0.187025
  23 H :   -0.181309

  Mayer bond orders larger than 0.100000
B(  0-C ,  6-C ) :   0.5866 B(  0-C ,  8-O ) :   1.2320 B(  0-C ,  9-O ) :   1.0405
B(  0-C , 20-H ) :  -0.1480 B(  1-C ,  2-C ) :   0.8817 B(  1-C ,  3-C ) :   0.8942
B(  1-C , 10-H ) :   1.0654 B(  1-C , 11-H ) :   0.9063 B(  2-C ,  4-C ) :   0.9177
B(  2-C , 12-H ) :   1.0519 B(  2-C , 13-H ) :   0.8675 B(  3-C ,  5-C ) :   0.8819
B(  3-C , 14-H ) :   0.8747 B(  3-C , 15-H ) :   1.0728 B(  4-C ,  5-C ) :   0.1200
B(  4-C ,  6-C ) :   0.9560 B(  4-C , 16-H ) :   0.9556 B(  4-C , 17-H ) :   0.9936
B(  5-C ,  6-C ) :   0.8974 B(  5-C , 18-H ) :   1.0172 B(  5-C , 19-H ) :   0.9406
B(  6-C ,  9-O ) :  -0.1347 B(  6-C , 20-H ) :   0.9313 B(  7-C ,  9-O ) :   0.9286
B(  7-C , 21-H ) :   0.8682 B(  7-C , 22-H ) :   0.9094 B(  7-C , 23-H ) :   0.8551

MP2 TOTAL ENERGY:     -462.868478858 Eh
FINAL SINGLE POINT ENERGY      -462.868478858126

DIPOLE MOMENT
-------------
                                X             Y             Z
Electronic contribution:     -5.93901      -2.09589       0.79522
Nuclear contribution   :      5.88867       2.74366      -0.45325
                        -----------------------------------------
Total Dipole Moment    :     -0.05034       0.64777       0.34197
                        -----------------------------------------
Magnitude (a.u.)       :      0.73422
Magnitude (Debye)      :      1.86624

Rotational constants in cm-1:     0.079920     0.030332     0.026885
Rotational constants in MHz :  2395.947742   909.329911   805.992257

                             ****ORCA TERMINATED NORMALLY****
TOTAL RUN TIME: 0 days 0 hours 18 minutes 29 seconds 127 msec
