                         Program Version 5.0.3 -  RELEASE  -
|  1> !ri-mp2 aug-cc-pvtz aug-cc-pvtz/c tightscf
|  2> %pal nprocs 16 end
|  3>
|  4> * xyz 0 1
|  5> C      0.000000    0.000000    1.764506
|  6> C      0.000000    1.210426    1.080320
|  7> C      0.000000   -1.210426    1.080320
|  8> C      0.000000    0.000000   -1.026563
|  9> C      0.000000    1.180185   -0.303243
| 10> C      0.000000   -1.180185   -0.303243
| 11> F      0.000000    2.345713   -0.982604
| 12> F      0.000000   -2.345713   -0.982604
| 13> H      0.000000    0.000000    2.845406
| 14> H      0.000000    2.158300    1.597384
| 15> H      0.000000   -2.158300    1.597384
| 16> H      0.000000    0.000000   -2.105879
| 17> *
| 18>
| 19>                          ****END OF INPUT****

CARTESIAN COORDINATES (ANGSTROEM)
---------------------------------
  C      0.000000    0.000000    1.764506
  C      0.000000    1.210426    1.080320
  C      0.000000   -1.210426    1.080320
  C      0.000000    0.000000   -1.026563
  C      0.000000    1.180185   -0.303243
  C      0.000000   -1.180185   -0.303243
  F      0.000000    2.345713   -0.982604
  F      0.000000   -2.345713   -0.982604
  H      0.000000    0.000000    2.845406
  H      0.000000    2.158300    1.597384
  H      0.000000   -2.158300    1.597384
  H      0.000000    0.000000   -2.105879

 Total Charge           Charge          ....    0
 Multiplicity           Mult            ....    1
 Number of Electrons    NEL             ....   58
 Basis Dimension        Dim             ....  460

ORBITAL ENERGIES
----------------

  NO   OCC          E(Eh)            E(eV)
   0   2.0000     -26.320423      -716.2151
   1   2.0000     -26.320423      -716.2151
   2   2.0000     -11.346542      -308.7551
   3   2.0000     -11.346537      -308.7550
   4   2.0000     -11.266971      -306.5899
   5   2.0000     -11.255307      -306.2725
   6   2.0000     -11.251024      -306.1559
   7   2.0000     -11.250962      -306.1542
   8   2.0000      -1.636883       -44.5419
   9   2.0000      -1.636315       -44.5264
  10   2.0000      -1.182658       -32.1818
  11   2.0000      -1.049027       -28.5455
  12   2.0000      -1.038859       -28.2688
  13   2.0000      -0.876879       -23.8611
  14   2.0000      -0.866871       -23.5887
  15   2.0000      -0.777031       -21.1441
  16   2.0000      -0.743732       -20.2380
  17   2.0000      -0.707485       -19.2516
  18   2.0000      -0.705480       -19.1971
  19   2.0000      -0.699431       -19.0325
  20   2.0000      -0.687718       -18.7137
  21   2.0000      -0.671875       -18.2827
  22   2.0000      -0.625909       -17.0318
  23   2.0000      -0.592363       -16.1190
  24   2.0000      -0.558570       -15.1995
  25   2.0000      -0.536562       -14.6006
  26   2.0000      -0.519772       -14.1437
  27   2.0000      -0.363761        -9.8984
  28   2.0000      -0.352694        -9.5973
  29   0.0000       0.026923         0.7326
  30   0.0000       0.035910         0.9772
  31   0.0000       0.036143         0.9835
  32   0.0000       0.048819         1.3284
  33   0.0000       0.073373         1.9966

MULLIKEN ATOMIC CHARGES
-----------------------
   0 C :   -0.263385
   1 C :   -0.654156
   2 C :   -0.654156
   3 C :   -1.017194
   4 C :    0.817206
   5 C :    0.817206
   6 F :   -0.485148
   7 F :   -0.485148
   8 H :    0.576707
   9 H :    0.439974
  10 H :    0.439974
  11 H :    0.468120
Sum of atomic charges:   -0.0000000

LOEWDIN ATOMIC CHARGES
----------------------
   0 C :    0.182466
   1 C :    0.195760
   2 C :    0.195760
   3 C :    0.199549
   4 C :   -0.520272
   5 C :   -0.520272
   6 F :    0.498935
   7 F :    0.498935
   8 H :   -0.177494
   9 H :   -0.186040
  10 H :   -0.186040
  11 H :   -0.181286

  Mayer bond orders larger than 0.100000
B(  0-C ,  1-C ) :   1.1771 B(  0-C ,  2-C ) :   1.1771 B(  0-C ,  4-C ) :  -0.2052
B(  0-C ,  5-C ) :  -0.2052 B(  0-C ,  8-H ) :   0.6139 B(  1-C ,  2-C ) :   0.1319
B(  1-C ,  3-C ) :   0.2724 B(  1-C ,  4-C ) :   1.0909 B(  1-C ,  9-H ) :   0.7302
B(  2-C ,  3-C ) :   0.2724 B(  2-C ,  5-C ) :   1.0909 B(  2-C , 10-H ) :   0.7302
B(  3-C ,  4-C ) :   1.2644 B(  3-C ,  5-C ) :   1.2644 B(  3-C ,  6-F ) :   0.1526
B(  3-C ,  7-F ) :   0.1526 B(  3-C , 11-H ) :   0.6406 B(  4-C ,  5-C ) :  -0.1172
B(  4-C ,  6-F ) :   0.4969 B(  5-C ,  7-F ) :   0.4969 B(  6-F ,  9-H ) :   0.1034
B(  7-F , 10-H ) :   0.1034

MP2 TOTAL ENERGY:     -430.019340242 Eh
FINAL SINGLE POINT ENERGY      -430.019340241534

DIPOLE MOMENT
-------------
                                X             Y             Z
Electronic contribution:     -0.00000       0.00000      -4.90459
Nuclear contribution   :      0.00000       0.00000       5.60911
                        -----------------------------------------
Total Dipole Moment    :     -0.00000       0.00000       0.70452
                        -----------------------------------------
Magnitude (a.u.)       :      0.70452
Magnitude (Debye)      :      1.79074

Rotational constants in cm-1:     0.125372     0.058714     0.039987
Rotational constants in MHz :  3758.569905  1760.209952  1198.792546

                             ****ORCA TERMINATED NORMALLY****
TOTAL RUN TIME: 0 days 0 hours 3 minutes 27 seconds 112 msec
