                         Program Version 5.0.3 -  RELEASE  -
|  1> !ri-mp2 aug-cc-pvtz aug-cc-pvtz/c tightscf
|  2> %pal nprocs 16 end
|  3>
|  4> * xyz 0 1
|  5> O      0.398686   -0.658181    0.432310
|  6> O      2.110858    0.540150   -0.435213
|  7> N     -0.324934    0.558558    0.529684
|  8> N     -2.184383   -0.564932   -0.359925
|  9> C      1.635791   -0.499882   -0.069258
| 10> C     -1.596806    0.501735   -0.024181
| 11> H      0.269573    1.312628    0.194878
| 12> H     -3.129950   -0.371180   -0.673543
| 13> H      2.131567   -1.475260   -0.070979
| 14> H     -2.016233    1.511565   -0.054807
| 15> *
| 16>
| 17>                          ****END OF INPUT****

CARTESIAN COORDINATES (ANGSTROEM)
---------------------------------
  O      0.398686   -0.658181    0.432310
  O      2.110858    0.540150   -0.435213
  N     -0.324934    0.558558    0.529684
  N     -2.184383   -0.564932   -0.359925
  C      1.635791   -0.499882   -0.069258
  C     -1.596806    0.501735   -0.024181
  H      0.269573    1.312628    0.194878
  H     -3.129950   -0.371180   -0.673543
  H      2.131567   -1.475260   -0.070979
  H     -2.016233    1.511565   -0.054807

 Total Charge           Charge          ....    0
 Multiplicity           Mult            ....    1
 Number of Electrons    NEL             ....   46
 Basis Dimension        Dim             ....  368

ORBITAL ENERGIES
----------------

  NO   OCC          E(Eh)            E(eV)
   0   2.0000     -20.660649      -562.2048
   1   2.0000     -20.579728      -560.0029
   2   2.0000     -15.654808      -425.9890
   3   2.0000     -15.551584      -423.1801
   4   2.0000     -11.406413      -310.3843
   5   2.0000     -11.332987      -308.3863
   6   2.0000      -1.514792       -41.2196
   7   2.0000      -1.406703       -38.2783
   8   2.0000      -1.252566       -34.0841
   9   2.0000      -1.152663       -31.3656
  10   2.0000      -0.898600       -24.4521
  11   2.0000      -0.835367       -22.7315
  12   2.0000      -0.768913       -20.9232
  13   2.0000      -0.720429       -19.6039
  14   2.0000      -0.698641       -19.0110
  15   2.0000      -0.672594       -18.3022
  16   2.0000      -0.643101       -17.4997
  17   2.0000      -0.589570       -16.0430
  18   2.0000      -0.557798       -15.1784
  19   2.0000      -0.493318       -13.4239
  20   2.0000      -0.487661       -13.2699
  21   2.0000      -0.443854       -12.0779
  22   2.0000      -0.396335       -10.7848
  23   0.0000       0.026199         0.7129
  24   0.0000       0.035073         0.9544
  25   0.0000       0.041611         1.1323
  26   0.0000       0.059185         1.6105
  27   0.0000       0.067510         1.8370

MULLIKEN ATOMIC CHARGES
-----------------------
   0 O :   -0.246136
   1 O :   -0.606185
   2 N :    0.022451
   3 N :   -0.564358
   4 C :   -0.025807
   5 C :   -0.137936
   6 H :    0.178601
   7 H :    0.156872
   8 H :    0.640107
   9 H :    0.582390
Sum of atomic charges:   -0.0000000

LOEWDIN ATOMIC CHARGES
----------------------
   0 O :    0.471005
   1 O :    0.433215
   2 N :    0.321955
   3 N :    0.623811
   4 C :   -0.486183
   5 C :   -0.145482
   6 H :   -0.401418
   7 H :   -0.452149
   8 H :   -0.196343
   9 H :   -0.168411

  Mayer bond orders larger than 0.100000
B(  0-O ,  2-N ) :   0.7020 B(  0-O ,  4-C ) :   1.2064 B(  1-O ,  4-C ) :   1.8418
B(  2-N ,  5-C ) :   0.9800 B(  2-N ,  6-H ) :   0.9937 B(  3-N ,  5-C ) :   1.6514
B(  3-N ,  7-H ) :   0.9360 B(  4-C ,  8-H ) :   0.5255 B(  5-C ,  9-H ) :   0.5742

MP2 TOTAL ENERGY:     -337.956349066 Eh
FINAL SINGLE POINT ENERGY      -337.956349066359

DIPOLE MOMENT
-------------
                                X             Y             Z
Electronic contribution:      2.39329      -0.49404       0.53001
Nuclear contribution   :     -2.66848       0.95730      -0.59202
                        -----------------------------------------
Total Dipole Moment    :     -0.27519       0.46326      -0.06202
                        -----------------------------------------
Magnitude (a.u.)       :      0.54239
Magnitude (Debye)      :      1.37865

Rotational constants in cm-1:     0.374450     0.071466     0.065771
Rotational constants in MHz : 11225.721442  2142.492886  1971.757787

                             ****ORCA TERMINATED NORMALLY****
TOTAL RUN TIME: 0 days 0 hours 1 minutes 45 seconds 935 msec
