                         Program Version 5.0.3 -  RELEASE  -
|  1> !ri-mp2 aug-cc-pvtz aug-cc-pvtz/c tightscf
|  2> %pal nprocs 16 end
|  3> %maxcore 3800
|  4>
|  5> * xyz 0 1
|  6> C    -3.674067   -0.853951   -0.083418
|  7> C    -2.544884   -1.650937    0.067775
|  8> C    -3.509148    0.522321   -0.154373
|  9> C    -1.279010   -1.090719    0.146626
| 10> C    -2.248330    1.098967   -0.065846
| 11> C    -1.102333    0.302544    0.091353
| 12> C     0.314133    2.318038    0.012392
| 13> C     1.235426    0.205711    0.866884
| 14> C     2.316851   -0.367967   -0.044102
| 15> N     0.170829    0.879498    0.166684
| 16> F     3.284492   -0.950410    0.698778
| 17> F     1.843375   -1.300588   -0.890331
| 18> F     2.908950    0.584737   -0.794752
| 19> H    -4.657463   -1.297035   -0.151204
| 20> H    -2.643137   -2.727701    0.109315
| 21> H    -4.370757    1.166188   -0.272823
| 22> H    -0.425739   -1.747886    0.213334
| 23> H    -2.166729    2.173555   -0.110469
| 24> H    -0.155118    2.650083   -0.912697
| 25> H     1.369780    2.566254   -0.050624
| 26> H    -0.127388    2.879150    0.846120
| 27> H     1.743693    0.891876    1.548447
| 28> H     0.853873   -0.618659    1.466816
| 29> *
| 30>
| 31>                          ****END OF INPUT****

CARTESIAN COORDINATES (ANGSTROEM)
---------------------------------
  C     -3.674067   -0.853951   -0.083418
  C     -2.544884   -1.650937    0.067775
  C     -3.509148    0.522321   -0.154373
  C     -1.279010   -1.090719    0.146626
  C     -2.248330    1.098967   -0.065846
  C     -1.102333    0.302544    0.091353
  C      0.314133    2.318038    0.012392
  C      1.235426    0.205711    0.866884
  C      2.316851   -0.367967   -0.044102
  N      0.170829    0.879498    0.166684
  F      3.284492   -0.950410    0.698778
  F      1.843375   -1.300588   -0.890331
  F      2.908950    0.584737   -0.794752
  H     -4.657463   -1.297035   -0.151204
  H     -2.643137   -2.727701    0.109315
  H     -4.370757    1.166188   -0.272823
  H     -0.425739   -1.747886    0.213334
  H     -2.166729    2.173555   -0.110469
  H     -0.155118    2.650083   -0.912697
  H      1.369780    2.566254   -0.050624
  H     -0.127388    2.879150    0.846120
  H      1.743693    0.891876    1.548447
  H      0.853873   -0.618659    1.466816

 Total Charge           Charge          ....    0
 Multiplicity           Mult            ....    1
 Number of Electrons    NEL             ....   98
 Basis Dimension        Dim             ....  828

ORBITAL ENERGIES
----------------

  NO   OCC          E(Eh)            E(eV)
   0   2.0000     -26.337949      -716.6920
   1   2.0000     -26.336839      -716.6618
   2   2.0000     -26.336722      -716.6587
   3   2.0000     -15.588536      -424.1856
   4   2.0000     -11.504012      -313.0401
   5   2.0000     -11.300163      -307.4931
   6   2.0000     -11.288317      -307.1707
   7   2.0000     -11.267240      -306.5972
   8   2.0000     -11.238440      -305.8135
   9   2.0000     -11.238326      -305.8104
  10   2.0000     -11.228983      -305.5562
  11   2.0000     -11.228791      -305.5509
  12   2.0000     -11.223481      -305.4064
  13   2.0000      -1.723798       -46.9069
  14   2.0000      -1.630913       -44.3794
  15   2.0000      -1.630358       -44.3643
  16   2.0000      -1.277925       -34.7741
  17   2.0000      -1.146658       -31.2022
  18   2.0000      -1.060442       -28.8561
  19   2.0000      -1.021577       -27.7985
  20   2.0000      -1.009126       -27.4597
  21   2.0000      -0.945003       -25.7148
  22   2.0000      -0.905161       -24.6307
  23   2.0000      -0.831780       -22.6339
  24   2.0000      -0.822754       -22.3883
  25   2.0000      -0.819523       -22.3004
  26   2.0000      -0.808993       -22.0138
  27   2.0000      -0.773225       -21.0405
  28   2.0000      -0.728289       -19.8177
  29   2.0000      -0.710038       -19.3211
  30   2.0000      -0.704000       -19.1568
  31   2.0000      -0.670763       -18.2524
  32   2.0000      -0.665179       -18.1005
  33   2.0000      -0.659819       -17.9546
  34   2.0000      -0.653070       -17.7710
  35   2.0000      -0.647277       -17.6133
  36   2.0000      -0.633925       -17.2500
  37   2.0000      -0.625659       -17.0250
  38   2.0000      -0.597305       -16.2535
  39   2.0000      -0.593047       -16.1376
  40   2.0000      -0.570222       -15.5165
  41   2.0000      -0.564234       -15.3536
  42   2.0000      -0.547100       -14.8873
  43   2.0000      -0.514122       -13.9900
  44   2.0000      -0.512615       -13.9490
  45   2.0000      -0.490825       -13.3560
  46   2.0000      -0.424886       -11.5617
  47   2.0000      -0.342082        -9.3085
  48   2.0000      -0.297596        -8.0980
  49   0.0000       0.025624         0.6973
  50   0.0000       0.031121         0.8468
  51   0.0000       0.032766         0.8916
  52   0.0000       0.040541         1.1032
  53   0.0000       0.044645         1.2149

MULLIKEN ATOMIC CHARGES
-----------------------
   0 C :   -0.506098
   1 C :   -0.829295
   2 C :   -0.661645
   3 C :   -0.560313
   4 C :   -0.486609
   5 C :    1.316178
   6 C :   -1.186503
   7 C :   -0.666158
   8 C :    1.335825
   9 N :   -0.114567
  10 F :   -0.431003
  11 F :   -0.437486
  12 F :   -0.434016
  13 H :    0.556675
  14 H :    0.327604
  15 H :    0.394079
  16 H :    0.501357
  17 H :    0.252924
  18 H :    0.332932
  19 H :    0.344065
  20 H :    0.340614
  21 H :    0.312832
  22 H :    0.298610
Sum of atomic charges:   -0.0000000

LOEWDIN ATOMIC CHARGES
----------------------
   0 C :    0.190389
   1 C :    0.195287
   2 C :    0.193016
   3 C :    0.221046
   4 C :    0.223276
   5 C :   -0.203489
   6 C :    0.475102
   7 C :    0.156080
   8 C :   -1.448919
   9 N :    0.259495
  10 F :    0.496709
  11 F :    0.512564
  12 F :    0.503451
  13 H :   -0.192896
  14 H :   -0.179989
  15 H :   -0.180840
  16 H :   -0.211808
  17 H :   -0.211036
  18 H :   -0.161942
  19 H :   -0.174855
  20 H :   -0.145112
  21 H :   -0.143729
  22 H :   -0.171798

  Mayer bond orders larger than 0.100000
B(  0-C ,  1-C ) :   1.1655 B(  0-C ,  2-C ) :   1.1136 B(  0-C ,  3-C ) :   0.1846
B(  0-C ,  4-C ) :   0.1679 B(  0-C ,  5-C ) :  -0.1236 B(  0-C , 13-H ) :   0.6346
B(  1-C ,  3-C ) :   1.0847 B(  1-C ,  5-C ) :  -0.3943 B(  1-C , 13-H ) :  -0.1040
B(  1-C , 14-H ) :   0.9764 B(  2-C ,  4-C ) :   1.0294 B(  2-C ,  5-C ) :  -0.1357
B(  2-C , 15-H ) :   0.8731 B(  3-C ,  4-C ) :   0.2084 B(  3-C ,  5-C ) :   0.6869
B(  3-C ,  9-N ) :  -0.3474 B(  3-C , 16-H ) :   0.7667 B(  4-C ,  5-C ) :   0.6088
B(  4-C ,  6-C ) :  -0.1389 B(  4-C ,  9-N ) :  -0.4672 B(  4-C , 17-H ) :   1.1247
B(  5-C ,  7-C ) :  -0.1535 B(  5-C ,  9-N ) :   0.7877 B(  5-C , 17-H ) :  -0.1420
B(  6-C ,  9-N ) :   1.0992 B(  6-C , 18-H ) :   0.9666 B(  6-C , 19-H ) :   0.9271
B(  6-C , 20-H ) :   0.9546 B(  7-C ,  8-C ) :   0.9674 B(  7-C ,  9-N ) :   0.8865
B(  7-C , 21-H ) :   0.9288 B(  7-C , 22-H ) :   0.9199 B(  8-C , 10-F ) :   0.6535
B(  8-C , 11-F ) :   0.7468 B(  8-C , 12-F ) :   0.7401

MP2 TOTAL ENERGY:     -702.114717433 Eh
FINAL SINGLE POINT ENERGY      -702.114717432500

DIPOLE MOMENT
-------------
                                X             Y             Z
Electronic contribution:     17.59679      -6.73663      -2.95536
Nuclear contribution   :    -18.01310       7.38089       3.56200
                        -----------------------------------------
Total Dipole Moment    :     -0.41631       0.64426       0.60663
                        -----------------------------------------
Magnitude (a.u.)       :      0.97795
Magnitude (Debye)      :      2.48576

Rotational constants in cm-1:     0.055820     0.015222     0.012929
Rotational constants in MHz :  1673.444677   456.334065   387.604077

                             ****ORCA TERMINATED NORMALLY****
TOTAL RUN TIME: 0 days 0 hours 21 minutes 45 seconds 388 msec
