                         Program Version 5.0.3 -  RELEASE  -
|  1> !ri-mp2 aug-cc-pvtz aug-cc-pvtz/c tightscf
|  2> %pal nprocs 16 end
|  3>
|  4> * xyz 0 1
|  5> C     -1.603643    0.174878   -0.000006
|  6> C     -2.767397   -0.780438    0.000006
|  7> C      3.283501    0.155432    0.000008
|  8> C      1.963727   -0.615105   -0.000005
|  9> C      0.769150    0.317432   -0.000001
| 10> O     -1.688090    1.377808   -0.000001
| 11> O     -0.429939   -0.489876   -0.000012
| 12> H     -2.721291   -1.424419    0.878141
| 13> H     -2.721158   -1.424638   -0.877958
| 14> H     -3.696732   -0.219858   -0.000125
| 15> H      3.372308    0.793346    0.881230
| 16> H      4.132141   -0.528255    0.000005
| 17> H      3.372315    0.793363   -0.881202
| 18> H      1.908444   -1.264592    0.876224
| 19> H      1.908451   -1.264576   -0.876246
| 20> H      0.758862    0.961481    0.880478
| 21> H      0.758869    0.961496   -0.880469
| 22> *
| 23>
| 24>                          ****END OF INPUT****

CARTESIAN COORDINATES (ANGSTROEM)
---------------------------------
  C     -1.603643    0.174878   -0.000006
  C     -2.767397   -0.780438    0.000006
  C      3.283501    0.155432    0.000008
  C      1.963727   -0.615105   -0.000005
  C      0.769150    0.317432   -0.000001
  O     -1.688090    1.377808   -0.000001
  O     -0.429939   -0.489876   -0.000012
  H     -2.721291   -1.424419    0.878141
  H     -2.721158   -1.424638   -0.877958
  H     -3.696732   -0.219858   -0.000125
  H      3.372308    0.793346    0.881230
  H      4.132141   -0.528255    0.000005
  H      3.372315    0.793363   -0.881202
  H      1.908444   -1.264592    0.876224
  H      1.908451   -1.264576   -0.876246
  H      0.758862    0.961481    0.880478
  H      0.758869    0.961496   -0.880469

 Total Charge           Charge          ....    0
 Multiplicity           Mult            ....    1
 Number of Electrons    NEL             ....   56
 Basis Dimension        Dim             ....  552

ORBITAL ENERGIES
----------------

  NO   OCC          E(Eh)            E(eV)
   0   2.0000     -20.598084      -560.5024
   1   2.0000     -20.541046      -558.9503
   2   2.0000     -11.377292      -309.5919
   3   2.0000     -11.284972      -307.0797
   4   2.0000     -11.238525      -305.8158
   5   2.0000     -11.229060      -305.5583
   6   2.0000     -11.222183      -305.3711
   7   2.0000      -1.454889       -39.5895
   8   2.0000      -1.355387       -36.8819
   9   2.0000      -1.074702       -29.2441
  10   2.0000      -1.017395       -27.6847
  11   2.0000      -0.934284       -25.4232
  12   2.0000      -0.822427       -22.3794
  13   2.0000      -0.778175       -21.1752
  14   2.0000      -0.686943       -18.6927
  15   2.0000      -0.686219       -18.6730
  16   2.0000      -0.667206       -18.1556
  17   2.0000      -0.623663       -16.9707
  18   2.0000      -0.592172       -16.1138
  19   2.0000      -0.575946       -15.6723
  20   2.0000      -0.572487       -15.5782
  21   2.0000      -0.535042       -14.5592
  22   2.0000      -0.522849       -14.2274
  23   2.0000      -0.516081       -14.0433
  24   2.0000      -0.489756       -13.3269
  25   2.0000      -0.486267       -13.2320
  26   2.0000      -0.457069       -12.4375
  27   2.0000      -0.444919       -12.1069
  28   0.0000       0.028094         0.7645
  29   0.0000       0.031601         0.8599
  30   0.0000       0.038634         1.0513
  31   0.0000       0.040663         1.1065
  32   0.0000       0.049793         1.3549

MULLIKEN ATOMIC CHARGES
-----------------------
   0 C :    0.290272
   1 C :   -0.642150
   2 C :   -0.910259
   3 C :   -0.500492
   4 C :   -0.137893
   5 O :   -0.710247
   6 O :   -0.271470
   7 H :    0.269434
   8 H :    0.269438
   9 H :    0.363636
  10 H :    0.280123
  11 H :    0.279808
  12 H :    0.280124
  13 H :    0.239577
  14 H :    0.239572
  15 H :    0.330265
  16 H :    0.330263
Sum of atomic charges:    0.0000000

LOEWDIN ATOMIC CHARGES
----------------------
   0 C :   -0.829958
   1 C :    0.582580
   2 C :    0.578908
   3 C :    0.255748
   4 C :    0.041805
   5 O :    0.450168
   6 O :    0.580258
   7 H :   -0.176622
   8 H :   -0.176628
   9 H :   -0.186490
  10 H :   -0.169806
  11 H :   -0.172196
  12 H :   -0.169806
  13 H :   -0.150691
  14 H :   -0.150692
  15 H :   -0.153288
  16 H :   -0.153288

  Mayer bond orders larger than 0.100000
B(  0-C ,  1-C ) :   0.7154 B(  0-C ,  5-O ) :   1.5876 B(  0-C ,  6-O ) :   1.0527
B(  1-C ,  7-H ) :   0.9663 B(  1-C ,  8-H ) :   0.9664 B(  1-C ,  9-H ) :   0.8889
B(  2-C ,  3-C ) :   0.9099 B(  2-C , 10-H ) :   0.9383 B(  2-C , 11-H ) :   0.9871
B(  2-C , 12-H ) :   0.9383 B(  3-C ,  4-C ) :   0.9082 B(  3-C , 13-H ) :   0.9687
B(  3-C , 14-H ) :   0.9687 B(  4-C ,  6-O ) :   0.7557 B(  4-C , 15-H ) :   0.9165
B(  4-C , 16-H ) :   0.9165

MP2 TOTAL ENERGY:     -346.383783003 Eh
FINAL SINGLE POINT ENERGY      -346.383783003072

DIPOLE MOMENT
-------------
                                X             Y             Z
Electronic contribution:     -6.87058       1.84968      -0.00007
Nuclear contribution   :      7.24827      -2.68010       0.00008
                        -----------------------------------------
Total Dipole Moment    :      0.37769      -0.83042       0.00001
                        -----------------------------------------
Magnitude (a.u.)       :      0.91227
Magnitude (Debye)      :      2.31881

Rotational constants in cm-1:     0.260529     0.038522     0.034413
Rotational constants in MHz :  7810.462712  1154.851605  1031.684345

                             ****ORCA TERMINATED NORMALLY****
TOTAL RUN TIME: 0 days 0 hours 5 minutes 4 seconds 532 msec
