                         Program Version 5.0.3 -  RELEASE  -
|  1> !ri-mp2 aug-cc-pvtz aug-cc-pvtz/c tightscf
|  2> %pal nprocs 16 end
|  3>
|  4> * xyz 0 1
|  5> C     -1.505345    0.854261    0.000000
|  6> C      2.618558   -2.127663    0.000000
|  7> C      0.000000    0.771586    0.000000
|  8> C      2.068350   -0.702640    0.000000
|  9> C      0.540531   -0.653982    0.000000
| 10> O     -2.272406   -0.073756    0.000000
| 11> O     -1.931154    2.143966    0.000000
| 12> H      3.709158   -2.132876    0.000000
| 13> H      2.283560   -2.679277    0.880542
| 14> H      2.283560   -2.679277   -0.880542
| 15> H      0.357515    1.331075   -0.869047
| 16> H      0.357515    1.331075    0.869047
| 17> H      2.448656   -0.165278   -0.874152
| 18> H      2.448656   -0.165278    0.874152
| 19> H      0.153343   -1.186524   -0.871351
| 20> H      0.153343   -1.186524    0.871351
| 21> H     -2.899395    2.121831    0.000000
| 22> *
| 23>
| 24>                          ****END OF INPUT****

CARTESIAN COORDINATES (ANGSTROEM)
---------------------------------
  C     -1.505345    0.854261    0.000000
  C      2.618558   -2.127663    0.000000
  C      0.000000    0.771586    0.000000
  C      2.068350   -0.702640    0.000000
  C      0.540531   -0.653982    0.000000
  O     -2.272406   -0.073756    0.000000
  O     -1.931154    2.143966    0.000000
  H      3.709158   -2.132876    0.000000
  H      2.283560   -2.679277    0.880542
  H      2.283560   -2.679277   -0.880542
  H      0.357515    1.331075   -0.869047
  H      0.357515    1.331075    0.869047
  H      2.448656   -0.165278   -0.874152
  H      2.448656   -0.165278    0.874152
  H      0.153343   -1.186524   -0.871351
  H      0.153343   -1.186524    0.871351
  H     -2.899395    2.121831    0.000000

 Total Charge           Charge          ....    0
 Multiplicity           Mult            ....    1
 Number of Electrons    NEL             ....   56
 Basis Dimension        Dim             ....  552

ORBITAL ENERGIES
----------------

  NO   OCC          E(Eh)            E(eV)
   0   2.0000     -20.610857      -560.8499
   1   2.0000     -20.549802      -559.1885
   2   2.0000     -11.385215      -309.8074
   3   2.0000     -11.246722      -306.0389
   4   2.0000     -11.226249      -305.4818
   5   2.0000     -11.225343      -305.4571
   6   2.0000     -11.215176      -305.1805
   7   2.0000      -1.463266       -39.8175
   8   2.0000      -1.361196       -37.0400
   9   2.0000      -1.092750       -29.7352
  10   2.0000      -1.019358       -27.7382
  11   2.0000      -0.912794       -24.8384
  12   2.0000      -0.819661       -22.3041
  13   2.0000      -0.786718       -21.4077
  14   2.0000      -0.703044       -19.1308
  15   2.0000      -0.683776       -18.6065
  16   2.0000      -0.668561       -18.1925
  17   2.0000      -0.627048       -17.0628
  18   2.0000      -0.593084       -16.1386
  19   2.0000      -0.587022       -15.9737
  20   2.0000      -0.572693       -15.5838
  21   2.0000      -0.539019       -14.6675
  22   2.0000      -0.508677       -13.8418
  23   2.0000      -0.485321       -13.2062
  24   2.0000      -0.484379       -13.1806
  25   2.0000      -0.479424       -13.0458
  26   2.0000      -0.472291       -12.8517
  27   2.0000      -0.450355       -12.2548
  28   0.0000       0.028201         0.7674
  29   0.0000       0.032435         0.8826
  30   0.0000       0.038983         1.0608
  31   0.0000       0.039519         1.0754
  32   0.0000       0.048130         1.3097

MULLIKEN ATOMIC CHARGES
-----------------------
   0 C :    0.445741
   1 C :   -0.972050
   2 C :   -0.169955
   3 C :   -0.461201
   4 C :   -0.171497
   5 O :   -0.770627
   6 O :   -0.461426
   7 H :    0.275219
   8 H :    0.274524
   9 H :    0.274524
  10 H :    0.240220
  11 H :    0.240220
  12 H :    0.249183
  13 H :    0.249183
  14 H :    0.252093
  15 H :    0.252093
  16 H :    0.253758
Sum of atomic charges:   -0.0000000

LOEWDIN ATOMIC CHARGES
----------------------
   0 C :   -0.781007
   1 C :    0.581861
   2 C :    0.268198
   3 C :    0.256546
   4 C :    0.257158
   5 O :    0.457816
   6 O :    0.827922
   7 H :   -0.173103
   8 H :   -0.169886
   9 H :   -0.169886
  10 H :   -0.148303
  11 H :   -0.148303
  12 H :   -0.147635
  13 H :   -0.147635
  14 H :   -0.143257
  15 H :   -0.143257
  16 H :   -0.477229

  Mayer bond orders larger than 0.100000
B(  0-C ,  2-C ) :   0.6291 B(  0-C ,  5-O ) :   1.4220 B(  0-C ,  6-O ) :   0.9638
B(  1-C ,  3-C ) :   0.9214 B(  1-C ,  7-H ) :   0.9842 B(  1-C ,  8-H ) :   0.9551
B(  1-C ,  9-H ) :   0.9551 B(  2-C ,  4-C ) :   0.9963 B(  2-C , 10-H ) :   0.9450
B(  2-C , 11-H ) :   0.9450 B(  3-C ,  4-C ) :   0.8718 B(  3-C , 12-H ) :   0.9514
B(  3-C , 13-H ) :   0.9514 B(  4-C , 14-H ) :   0.9428 B(  4-C , 15-H ) :   0.9428
B(  6-O , 16-H ) :   0.9611

MP2 TOTAL ENERGY:     -346.397316685 Eh
FINAL SINGLE POINT ENERGY      -346.397316685011

DIPOLE MOMENT
-------------
                                X             Y             Z
Electronic contribution:    -11.00371       6.00333       0.00000
Nuclear contribution   :     11.56380      -5.53846       0.00000
                        -----------------------------------------
Total Dipole Moment    :      0.56009       0.46487       0.00000
                        -----------------------------------------
Magnitude (a.u.)       :      0.72788
Magnitude (Debye)      :      1.85012

Rotational constants in cm-1:     0.267057     0.034777     0.031478
Rotational constants in MHz :  8006.176225  1042.593307   943.676572

                             ****ORCA TERMINATED NORMALLY****
TOTAL RUN TIME: 0 days 0 hours 4 minutes 56 seconds 316 msec
