                         Program Version 5.0.3 -  RELEASE  -
|  1> !ri-mp2 aug-cc-pvtz aug-cc-pvtz/c tightscf
|  2> %pal nprocs 16 end
|  3>
|  4> * xyz 0 1
|  5> C     -0.252099   -1.864578    0.000000
|  6> C      0.698505   -0.690619    0.000000
|  7> N      0.000000    0.657769    0.000000
|  8> O      0.728213    1.635752    0.000000
|  9> O     -1.217324    0.683616    0.000000
| 10> H     -0.889475   -1.861633    0.881474
| 11> H     -0.889475   -1.861633   -0.881474
| 12> H      0.333046   -2.784908    0.000000
| 13> H      1.340180   -0.659983   -0.878434
| 14> H      1.340180   -0.659983    0.878434
| 15> *
| 16>
| 17>                          ****END OF INPUT****

CARTESIAN COORDINATES (ANGSTROEM)
---------------------------------
  C     -0.252099   -1.864578    0.000000
  C      0.698505   -0.690619    0.000000
  N      0.000000    0.657769    0.000000
  O      0.728213    1.635752    0.000000
  O     -1.217324    0.683616    0.000000
  H     -0.889475   -1.861633    0.881474
  H     -0.889475   -1.861633   -0.881474
  H      0.333046   -2.784908    0.000000
  H      1.340180   -0.659983   -0.878434
  H      1.340180   -0.659983    0.878434

 Total Charge           Charge          ....    0
 Multiplicity           Mult            ....    1
 Number of Electrons    NEL             ....   40
 Basis Dimension        Dim             ....  345

ORBITAL ENERGIES
----------------

  NO   OCC          E(Eh)            E(eV)
   0   2.0000     -20.606830      -560.7404
   1   2.0000     -20.600874      -560.5783
   2   2.0000     -15.846562      -431.2069
   3   2.0000     -11.313476      -307.8553
   4   2.0000     -11.249181      -306.1058
   5   2.0000      -1.607236       -43.7351
   6   2.0000      -1.402509       -38.1642
   7   2.0000      -1.119802       -30.4714
   8   2.0000      -0.966917       -26.3111
   9   2.0000      -0.839416       -22.8417
  10   2.0000      -0.754016       -20.5178
  11   2.0000      -0.738108       -20.0849
  12   2.0000      -0.726478       -19.7685
  13   2.0000      -0.634328       -17.2610
  14   2.0000      -0.595817       -16.2130
  15   2.0000      -0.564948       -15.3730
  16   2.0000      -0.538232       -14.6460
  17   2.0000      -0.494914       -13.4673
  18   2.0000      -0.483633       -13.1603
  19   2.0000      -0.454161       -12.3583
  20   0.0000       0.022735         0.6187
  21   0.0000       0.035963         0.9786
  22   0.0000       0.038002         1.0341
  23   0.0000       0.046040         1.2528
  24   0.0000       0.061387         1.6704

MULLIKEN ATOMIC CHARGES
-----------------------
   0 C :   -0.791029
   1 C :   -0.434154
   2 N :    0.965385
   3 O :   -0.692685
   4 O :   -0.639981
   5 H :    0.320158
   6 H :    0.320158
   7 H :    0.285354
   8 H :    0.333397
   9 H :    0.333397
Sum of atomic charges:   -0.0000000

LOEWDIN ATOMIC CHARGES
----------------------
   0 C :    0.573458
   1 C :    0.202892
   2 N :   -0.710740
   3 O :    0.370053
   4 O :    0.384805
   5 H :   -0.173460
   6 H :   -0.173460
   7 H :   -0.168556
   8 H :   -0.152497
   9 H :   -0.152497

  Mayer bond orders larger than 0.100000
B(  0-C ,  1-C ) :   0.8856 B(  0-C ,  5-H ) :   0.9104 B(  0-C ,  6-H ) :   0.9104
B(  0-C ,  7-H ) :   0.9530 B(  1-C ,  2-N ) :   0.8201 B(  1-C ,  4-O ) :   0.1816
B(  1-C ,  8-H ) :   0.8997 B(  1-C ,  9-H ) :   0.8997 B(  2-N ,  3-O ) :   1.1198
B(  2-N ,  4-O ) :   1.1834 B(  3-O ,  4-O ) :   0.1353

MP2 TOTAL ENERGY:     -283.871224187 Eh
FINAL SINGLE POINT ENERGY      -283.871224186613

DIPOLE MOMENT
-------------
                                X             Y             Z
Electronic contribution:     -0.61375       6.21124       0.00000
Nuclear contribution   :      1.22766      -7.79352       0.00000
                        -----------------------------------------
Total Dipole Moment    :      0.61391      -1.58228       0.00000
                        -----------------------------------------
Magnitude (a.u.)       :      1.69720
Magnitude (Debye)      :      4.31395

Rotational constants in cm-1:     0.360892     0.137755     0.103522
Rotational constants in MHz : 10819.259661  4129.790579  3103.513304

                             ****ORCA TERMINATED NORMALLY****
TOTAL RUN TIME: 0 days 0 hours 1 minutes 24 seconds 936 msec
