                         Program Version 5.0.3 -  RELEASE  -
|  1> !ri-mp2 aug-cc-pvtz aug-cc-pvtz/c tightscf
|  2> %pal nprocs 16 end
|  3> %maxcore 3800
|  4>
|  5> * xyz 0 1
|  6> C    -1.066927    0.993447    0.503517
|  7> C    -1.369945   -1.059353   -0.651102
|  8> C    -3.086115   -0.027909    0.398756
|  9> C    -0.518719   -0.048949   -0.236276
| 10> C     3.264554   -0.589277    0.915395
| 11> N    -2.356726    1.004528    0.828796
| 12> N    -2.664799   -1.059267   -0.329369
| 13> N     1.810425   -0.382266    0.877742
| 14> O     1.609131    1.384777   -0.978583
| 15> S     1.227894   -0.030720   -0.731013
| 16> H    -0.454317    1.827531    0.822442
| 17> H    -1.012893   -1.886063   -1.256520
| 18> H    -4.135818   -0.021604    0.667155
| 19> H     3.754433    0.313715    0.557523
| 20> H     3.609015   -1.442093    0.321297
| 21> H     3.556910   -0.741479    1.953119
| 22> H     1.303932   -1.185425    1.237919
| 23> *
| 24>
| 25>                          ****END OF INPUT****

CARTESIAN COORDINATES (ANGSTROEM)
---------------------------------
  C     -1.066927    0.993447    0.503517
  C     -1.369945   -1.059353   -0.651102
  C     -3.086115   -0.027909    0.398756
  C     -0.518719   -0.048949   -0.236276
  C      3.264554   -0.589277    0.915395
  N     -2.356726    1.004528    0.828796
  N     -2.664799   -1.059267   -0.329369
  N      1.810425   -0.382266    0.877742
  O      1.609131    1.384777   -0.978583
  S      1.227894   -0.030720   -0.731013
  H     -0.454317    1.827531    0.822442
  H     -1.012893   -1.886063   -1.256520
  H     -4.135818   -0.021604    0.667155
  H      3.754433    0.313715    0.557523
  H      3.609015   -1.442093    0.321297
  H      3.556910   -0.741479    1.953119
  H      1.303932   -1.185425    1.237919

 Total Charge           Charge          ....    0
 Multiplicity           Mult            ....    1
 Number of Electrons    NEL             ....   82
 Basis Dimension        Dim             ....  625

ORBITAL ENERGIES
----------------

  NO   OCC          E(Eh)            E(eV)
   0   2.0000     -92.116497     -2506.6173
   1   2.0000     -20.529703      -558.6416
   2   2.0000     -15.600580      -424.5134
   3   2.0000     -15.591821      -424.2750
   4   2.0000     -15.590742      -424.2457
   5   2.0000     -11.334277      -308.4214
   6   2.0000     -11.324322      -308.1505
   7   2.0000     -11.319968      -308.0320
   8   2.0000     -11.282893      -307.0231
   9   2.0000     -11.270804      -306.6942
  10   2.0000      -9.098195      -247.5745
  11   2.0000      -6.779920      -184.4910
  12   2.0000      -6.779628      -184.4830
  13   2.0000      -6.778007      -184.4389
  14   2.0000      -1.371221       -37.3128
  15   2.0000      -1.333917       -36.2977
  16   2.0000      -1.222184       -33.2573
  17   2.0000      -1.216487       -33.1023
  18   2.0000      -1.107565       -30.1384
  19   2.0000      -0.973295       -26.4847
  20   2.0000      -0.920112       -25.0375
  21   2.0000      -0.911174       -24.7943
  22   2.0000      -0.851875       -23.1807
  23   2.0000      -0.756138       -20.5756
  24   2.0000      -0.731067       -19.8933
  25   2.0000      -0.706073       -19.2132
  26   2.0000      -0.642557       -17.4849
  27   2.0000      -0.638687       -17.3795
  28   2.0000      -0.618484       -16.8298
  29   2.0000      -0.609001       -16.5718
  30   2.0000      -0.601074       -16.3561
  31   2.0000      -0.588656       -16.0181
  32   2.0000      -0.567845       -15.4519
  33   2.0000      -0.554036       -15.0761
  34   2.0000      -0.509131       -13.8542
  35   2.0000      -0.455664       -12.3993
  36   2.0000      -0.445019       -12.1096
  37   2.0000      -0.438585       -11.9345
  38   2.0000      -0.432267       -11.7626
  39   2.0000      -0.404609       -11.0100
  40   2.0000      -0.376064       -10.2332
  41   0.0000       0.021626         0.5885
  42   0.0000       0.032294         0.8788
  43   0.0000       0.033739         0.9181
  44   0.0000       0.041880         1.1396
  45   0.0000       0.046380         1.2621

MULLIKEN ATOMIC CHARGES
-----------------------
   0 C :   -0.446652
   1 C :   -0.434050
   2 C :   -0.607720
   3 C :    1.121279
   4 C :   -0.902891
   5 N :   -0.536265
   6 N :   -0.525311
   7 N :   -0.325400
   8 O :   -0.975960
   9 S :    0.610123
  10 H :    0.680454
  11 H :    0.605797
  12 H :    0.586797
  13 H :    0.373929
  14 H :    0.331117
  15 H :    0.341400
  16 H :    0.103353
Sum of atomic charges:   -0.0000000

LOEWDIN ATOMIC CHARGES
----------------------
   0 C :   -0.022686
   1 C :   -0.047755
   2 C :   -0.161466
   3 C :   -0.329353
   4 C :    0.391822
   5 N :    0.381693
   6 N :    0.372313
   7 N :    0.313448
   8 O :   -0.143216
   9 S :    0.764986
  10 H :   -0.180085
  11 H :   -0.189358
  12 H :   -0.197942
  13 H :   -0.193497
  14 H :   -0.181686
  15 H :   -0.180149
  16 H :   -0.397069

  Mayer bond orders larger than 0.100000
B(  0-C ,  1-C ) :   0.4091 B(  0-C ,  2-C ) :  -0.1976 B(  0-C ,  3-C ) :   0.7693
B(  0-C ,  5-N ) :   0.6724 B(  0-C , 10-H ) :   0.5020 B(  1-C ,  2-C ) :  -0.1621
B(  1-C ,  3-C ) :   0.6971 B(  1-C ,  5-N ) :   0.1459 B(  1-C ,  6-N ) :   0.6603
B(  1-C ,  9-S ) :  -0.1151 B(  1-C , 11-H ) :   0.6013 B(  2-C ,  5-N ) :   1.3972
B(  2-C ,  6-N ) :   1.4050 B(  2-C , 12-H ) :   0.5954 B(  3-C ,  7-N ) :  -0.1380
B(  3-C ,  9-S ) :   0.8433 B(  4-C ,  7-N ) :   0.8947 B(  4-C , 13-H ) :   0.8704
B(  4-C , 14-H ) :   0.9049 B(  4-C , 15-H ) :   0.9082 B(  7-N ,  9-S ) :   1.0358
B(  7-N , 16-H ) :   1.0114 B(  8-O ,  9-S ) :   1.2589

MP2 TOTAL ENERGY:     -831.104952523 Eh
FINAL SINGLE POINT ENERGY      -831.104952523027

DIPOLE MOMENT
-------------
                                X             Y             Z
Electronic contribution:     -6.14844       1.56821      -3.67236
Nuclear contribution   :      6.45620      -3.05201       4.23055
                        -----------------------------------------
Total Dipole Moment    :      0.30776      -1.48379       0.55819
                        -----------------------------------------
Magnitude (a.u.)       :      1.61491
Magnitude (Debye)      :      4.10478

Rotational constants in cm-1:     0.090381     0.022828     0.022234
Rotational constants in MHz :  2709.545894   684.370255   666.559081

                             ****ORCA TERMINATED NORMALLY****
TOTAL RUN TIME: 0 days 0 hours 9 minutes 44 seconds 513 msec
