                         Program Version 5.0.3 -  RELEASE  -
|  1> !ri-mp2 aug-cc-pvtz aug-cc-pvtz/c tightscf
|  2> %pal nprocs 16 end
|  3>
|  4> * xyz 0 1
|  5> C      2.308280    0.333913    0.032715
|  6> C      1.874791   -0.990670    0.036977
|  7> C      1.359701    1.346306   -0.009499
|  8> C      0.525138   -1.293489   -0.004025
|  9> C     -0.000206    1.056554   -0.046565
| 10> C     -0.440752   -0.273922   -0.049701
| 11> C     -2.835641    0.363095    0.089889
| 12> N     -1.783597   -0.606016   -0.128315
| 13> H      3.363058    0.567419    0.063881
| 14> H      2.596525   -1.796291    0.072123
| 15> H      1.674892    2.381687   -0.010024
| 16> H      0.202937   -2.328068   -0.007472
| 17> H     -0.713687    1.866797   -0.075478
| 18> H     -2.839553    1.117185   -0.699380
| 19> H     -2.751251    0.880801    1.053410
| 20> H     -3.794605   -0.149894    0.057667
| 21> H     -2.001002   -1.548246    0.144734
| 22> *
| 23>
| 24>                          ****END OF INPUT****

CARTESIAN COORDINATES (ANGSTROEM)
---------------------------------
  C      2.308280    0.333913    0.032715
  C      1.874791   -0.990670    0.036977
  C      1.359701    1.346306   -0.009499
  C      0.525138   -1.293489   -0.004025
  C     -0.000206    1.056554   -0.046565
  C     -0.440752   -0.273922   -0.049701
  C     -2.835641    0.363095    0.089889
  N     -1.783597   -0.606016   -0.128315
  H      3.363058    0.567419    0.063881
  H      2.596525   -1.796291    0.072123
  H      1.674892    2.381687   -0.010024
  H      0.202937   -2.328068   -0.007472
  H     -0.713687    1.866797   -0.075478
  H     -2.839553    1.117185   -0.699380
  H     -2.751251    0.880801    1.053410
  H     -3.794605   -0.149894    0.057667
  H     -2.001002   -1.548246    0.144734

 Total Charge           Charge          ....    0
 Multiplicity           Mult            ....    1
 Number of Electrons    NEL             ....   58
 Basis Dimension        Dim             ....  575

ORBITAL ENERGIES
----------------

  NO   OCC          E(Eh)            E(eV)
   0   2.0000     -15.565042      -423.5463
   1   2.0000     -11.275817      -306.8306
   2   2.0000     -11.257973      -306.3450
   3   2.0000     -11.231171      -305.6157
   4   2.0000     -11.230699      -305.6028
   5   2.0000     -11.219712      -305.3039
   6   2.0000     -11.217919      -305.2551
   7   2.0000     -11.213647      -305.1388
   8   2.0000      -1.241675       -33.7877
   9   2.0000      -1.130533       -30.7634
  10   2.0000      -1.011153       -27.5149
  11   2.0000      -1.001776       -27.2597
  12   2.0000      -0.920156       -25.0387
  13   2.0000      -0.826919       -22.5016
  14   2.0000      -0.799979       -21.7685
  15   2.0000      -0.713589       -19.4178
  16   2.0000      -0.672184       -18.2911
  17   2.0000      -0.641011       -17.4428
  18   2.0000      -0.611966       -16.6525
  19   2.0000      -0.607101       -16.5201
  20   2.0000      -0.580621       -15.7995
  21   2.0000      -0.578020       -15.7287
  22   2.0000      -0.541098       -14.7240
  23   2.0000      -0.511048       -13.9063
  24   2.0000      -0.502829       -13.6827
  25   2.0000      -0.483051       -13.1445
  26   2.0000      -0.424761       -11.5583
  27   2.0000      -0.334456        -9.1010
  28   2.0000      -0.284663        -7.7461
  29   0.0000       0.026727         0.7273
  30   0.0000       0.033619         0.9148
  31   0.0000       0.034377         0.9354
  32   0.0000       0.045662         1.2425
  33   0.0000       0.047065         1.2807

MULLIKEN ATOMIC CHARGES
-----------------------
   0 C :   -0.522752
   1 C :   -0.332909
   2 C :   -0.629236
   3 C :   -0.913665
   4 C :   -0.657132
   5 C :    1.272359
   6 C :   -1.009530
   7 N :   -0.545733
   8 H :    0.518450
   9 H :    0.325236
  10 H :    0.321292
  11 H :    0.547247
  12 H :    0.549431
  13 H :    0.347102
  14 H :    0.306688
  15 H :    0.372030
  16 H :    0.051123
Sum of atomic charges:    0.0000000

LOEWDIN ATOMIC CHARGES
----------------------
   0 C :    0.182069
   1 C :    0.180071
   2 C :    0.182835
   3 C :    0.216107
   4 C :    0.215566
   5 C :   -0.233039
   6 C :    0.470891
   7 N :    0.542606
   8 H :   -0.197537
   9 H :   -0.183567
  10 H :   -0.183175
  11 H :   -0.185704
  12 H :   -0.204322
  13 H :   -0.171884
  14 H :   -0.159790
  15 H :   -0.168482
  16 H :   -0.302645

  Mayer bond orders larger than 0.100000
B(  0-C ,  1-C ) :   1.0467 B(  0-C ,  2-C ) :   1.1711 B(  0-C ,  3-C ) :   0.2929
B(  0-C ,  4-C ) :   0.2891 B(  0-C ,  5-C ) :  -0.1241 B(  0-C ,  8-H ) :   0.6838
B(  1-C ,  2-C ) :  -0.1086 B(  1-C ,  3-C ) :   1.1648 B(  1-C ,  5-C ) :  -0.1707
B(  1-C ,  9-H ) :   1.0325 B(  2-C ,  4-C ) :   1.1167 B(  2-C ,  5-C ) :  -0.2462
B(  2-C , 10-H ) :   1.0161 B(  3-C ,  4-C ) :   0.5161 B(  3-C ,  5-C ) :   0.4679
B(  3-C , 11-H ) :   0.5343 B(  3-C , 12-H ) :  -0.1082 B(  4-C ,  5-C ) :   0.6952
B(  4-C ,  7-N ) :  -0.3549 B(  4-C , 12-H ) :   0.5280 B(  5-C ,  7-N ) :   0.7869
B(  6-C ,  7-N ) :   1.0487 B(  6-C , 13-H ) :   0.9121 B(  6-C , 14-H ) :   0.9310
B(  6-C , 15-H ) :   0.8911 B(  7-N , 16-H ) :   1.1217

MP2 TOTAL ENERGY:     -326.229576280 Eh
FINAL SINGLE POINT ENERGY      -326.229576279758

DIPOLE MOMENT
-------------
                                X             Y             Z
Electronic contribution:      3.74239      -1.15764      -0.39559
Nuclear contribution   :     -4.34383       1.00417       0.60861
                        -----------------------------------------
Total Dipole Moment    :     -0.60144      -0.15346       0.21302
                        -----------------------------------------
Magnitude (a.u.)       :      0.65625
Magnitude (Debye)      :      1.66805

Rotational constants in cm-1:     0.167234     0.050622     0.039232
Rotational constants in MHz :  5013.554097  1517.612521  1176.131616

                             ****ORCA TERMINATED NORMALLY****
TOTAL RUN TIME: 0 days 0 hours 8 minutes 1 seconds 941 msec
