                         Program Version 5.0.3 -  RELEASE  -
|  1> !ri-mp2 aug-cc-pvtz aug-cc-pvtz/c tightscf
|  2> %pal nprocs 16 end
|  3> %maxcore 3800
|  4>
|  5> * xyz 0 1
|  6> C     -0.455055    0.007781    5.014090
|  7> C     -0.455055    0.007781   -5.014090
|  8> C      0.435676   -0.020717    3.773122
|  9> C      0.435676   -0.020717   -3.773122
| 10> C     -0.355461    0.027942    2.465843
| 11> C     -0.355461    0.027942   -2.465843
| 12> C      0.527885   -0.001819    1.223683
| 13> C      0.527885   -0.001819   -1.223683
| 14> N     -0.261779    0.067908    0.000000
| 15> H      0.135970   -0.027454    5.930256
| 16> H     -1.060071    0.916136    5.043881
| 17> H     -1.138956   -0.843381    5.027731
| 18> H      0.135970   -0.027454   -5.930256
| 19> H     -1.138956   -0.843381   -5.027731
| 20> H     -1.060071    0.916136   -5.043881
| 21> H      1.130138    0.824101    3.804951
| 22> H      1.054579   -0.922676    3.790225
| 23> H      1.054579   -0.922676   -3.790225
| 24> H      1.130138    0.824101   -3.804951
| 25> H     -1.049164   -0.820022    2.434262
| 26> H     -0.971786    0.930230    2.437138
| 27> H     -0.971786    0.930230   -2.437138
| 28> H     -1.049164   -0.820022   -2.434262
| 29> H      1.201869    0.860165    1.235204
| 30> H      1.172318   -0.897454    1.253831
| 31> H      1.172318   -0.897454   -1.253831
| 32> H      1.201869    0.860165   -1.235204
| 33> H     -0.953883   -0.672892    0.000000
| 34> *
| 35>
| 36>                          ****END OF INPUT****

CARTESIAN COORDINATES (ANGSTROEM)
---------------------------------
  C     -0.455055    0.007781    5.014090
  C     -0.455055    0.007781   -5.014090
  C      0.435676   -0.020717    3.773122
  C      0.435676   -0.020717   -3.773122
  C     -0.355461    0.027942    2.465843
  C     -0.355461    0.027942   -2.465843
  C      0.527885   -0.001819    1.223683
  C      0.527885   -0.001819   -1.223683
  N     -0.261779    0.067908    0.000000
  H      0.135970   -0.027454    5.930256
  H     -1.060071    0.916136    5.043881
  H     -1.138956   -0.843381    5.027731
  H      0.135970   -0.027454   -5.930256
  H     -1.138956   -0.843381   -5.027731
  H     -1.060071    0.916136   -5.043881
  H      1.130138    0.824101    3.804951
  H      1.054579   -0.922676    3.790225
  H      1.054579   -0.922676   -3.790225
  H      1.130138    0.824101   -3.804951
  H     -1.049164   -0.820022    2.434262
  H     -0.971786    0.930230    2.437138
  H     -0.971786    0.930230   -2.437138
  H     -1.049164   -0.820022   -2.434262
  H      1.201869    0.860165    1.235204
  H      1.172318   -0.897454    1.253831
  H      1.172318   -0.897454   -1.253831
  H      1.201869    0.860165   -1.235204
  H     -0.953883   -0.672892    0.000000

 Total Charge           Charge          ....    0
 Multiplicity           Mult            ....    1
 Number of Electrons    NEL             ....   74
 Basis Dimension        Dim             ....  851

ORBITAL ENERGIES
----------------

  NO   OCC          E(Eh)            E(eV)
   0   2.0000     -15.534486      -422.7148
   1   2.0000     -11.240560      -305.8712
   2   2.0000     -11.240543      -305.8707
   3   2.0000     -11.216752      -305.2233
   4   2.0000     -11.216752      -305.2233
   5   2.0000     -11.212911      -305.1188
   6   2.0000     -11.212911      -305.1188
   7   2.0000     -11.209823      -305.0348
   8   2.0000     -11.209822      -305.0348
   9   2.0000      -1.201574       -32.6965
  10   2.0000      -1.073217       -29.2037
  11   2.0000      -1.054936       -28.7063
  12   2.0000      -0.984133       -26.7796
  13   2.0000      -0.939370       -25.5616
  14   2.0000      -0.855841       -23.2886
  15   2.0000      -0.825959       -22.4755
  16   2.0000      -0.798141       -21.7185
  17   2.0000      -0.783963       -21.3327
  18   2.0000      -0.667347       -18.1594
  19   2.0000      -0.638652       -17.3786
  20   2.0000      -0.619965       -16.8701
  21   2.0000      -0.609468       -16.5845
  22   2.0000      -0.597119       -16.2484
  23   2.0000      -0.568137       -15.4598
  24   2.0000      -0.565316       -15.3830
  25   2.0000      -0.562214       -15.2986
  26   2.0000      -0.524344       -14.2681
  27   2.0000      -0.522193       -14.2096
  28   2.0000      -0.503695       -13.7062
  29   2.0000      -0.490451       -13.3458
  30   2.0000      -0.483078       -13.1452
  31   2.0000      -0.470566       -12.8047
  32   2.0000      -0.468527       -12.7493
  33   2.0000      -0.465315       -12.6619
  34   2.0000      -0.460237       -12.5237
  35   2.0000      -0.443024       -12.0553
  36   2.0000      -0.362720        -9.8701
  37   0.0000       0.030066         0.8182
  38   0.0000       0.030345         0.8257
  39   0.0000       0.034593         0.9413
  40   0.0000       0.037350         1.0163
  41   0.0000       0.042352         1.1524

MULLIKEN ATOMIC CHARGES
-----------------------
   0 C :   -0.989279
   1 C :   -0.989279
   2 C :   -0.436235
   3 C :   -0.436235
   4 C :   -0.286565
   5 C :   -0.286565
   6 C :   -0.344589
   7 C :   -0.344589
   8 N :   -0.436961
   9 H :    0.289655
  10 H :    0.256477
  11 H :    0.261249
  12 H :    0.289655
  13 H :    0.261249
  14 H :    0.256477
  15 H :    0.239946
  16 H :    0.236980
  17 H :    0.236980
  18 H :    0.239946
  19 H :    0.233955
  20 H :    0.254865
  21 H :    0.254865
  22 H :    0.233955
  23 H :    0.252921
  24 H :    0.267410
  25 H :    0.267410
  26 H :    0.252921
  27 H :   -0.036620
Sum of atomic charges:    0.0000000

LOEWDIN ATOMIC CHARGES
----------------------
   0 C :    0.577864
   1 C :    0.577864
   2 C :    0.253989
   3 C :    0.253989
   4 C :    0.271680
   5 C :    0.271680
   6 C :    0.147008
   7 C :    0.147008
   8 N :    0.567743
   9 H :   -0.174203
  10 H :   -0.171299
  11 H :   -0.171859
  12 H :   -0.174203
  13 H :   -0.171859
  14 H :   -0.171299
  15 H :   -0.147875
  16 H :   -0.149121
  17 H :   -0.149121
  18 H :   -0.147875
  19 H :   -0.143613
  20 H :   -0.141295
  21 H :   -0.141295
  22 H :   -0.143613
  23 H :   -0.144578
  24 H :   -0.135283
  25 H :   -0.135283
  26 H :   -0.144578
  27 H :   -0.310575

  Mayer bond orders larger than 0.100000
B(  0-C ,  2-C ) :   0.9014 B(  0-C ,  9-H ) :   0.9720 B(  0-C , 10-H ) :   0.9710
B(  0-C , 11-H ) :   0.9687 B(  1-C ,  3-C ) :   0.9014 B(  1-C , 12-H ) :   0.9720
B(  1-C , 13-H ) :   0.9687 B(  1-C , 14-H ) :   0.9710 B(  2-C ,  4-C ) :   0.8569
B(  2-C , 15-H ) :   0.9623 B(  2-C , 16-H ) :   0.9569 B(  3-C ,  5-C ) :   0.8569
B(  3-C , 17-H ) :   0.9569 B(  3-C , 18-H ) :   0.9623 B(  4-C ,  6-C ) :   0.9337
B(  4-C ,  8-N ) :  -0.1084 B(  4-C , 19-H ) :   0.9471 B(  4-C , 20-H ) :   0.9547
B(  5-C ,  7-C ) :   0.9337 B(  5-C ,  8-N ) :  -0.1084 B(  5-C , 21-H ) :   0.9547
B(  5-C , 22-H ) :   0.9471 B(  6-C ,  7-C ) :   0.1121 B(  6-C ,  8-N ) :   1.0528
B(  6-C , 23-H ) :   0.9391 B(  6-C , 24-H ) :   0.9006 B(  7-C ,  8-N ) :   1.0528
B(  7-C , 25-H ) :   0.9006 B(  7-C , 26-H ) :   0.9391 B(  8-N , 27-H ) :   1.0016

MP2 TOTAL ENERGY:     -370.235877831 Eh
FINAL SINGLE POINT ENERGY      -370.235877830949

DIPOLE MOMENT
-------------
                                X             Y             Z
Electronic contribution:      0.16656       0.35010      -0.00000
Nuclear contribution   :     -0.00605      -0.68087      -0.00000
                        -----------------------------------------
Total Dipole Moment    :      0.16051      -0.33077      -0.00000
                        -----------------------------------------
Magnitude (a.u.)       :      0.36766
Magnitude (Debye)      :      0.93452

Rotational constants in cm-1:     0.314169     0.012021     0.011788
Rotational constants in MHz :  9418.546700   360.369182   353.385177

                             ****ORCA TERMINATED NORMALLY****
TOTAL RUN TIME: 0 days 0 hours 15 minutes 55 seconds 383 msec
