                         Program Version 5.0.3 -  RELEASE  -
|  1> !ri-mp2 aug-cc-pvtz aug-cc-pvtz/c tightscf
|  2> %pal nprocs 16 end
|  3>
|  4> * xyz 0 1
|  5> C     -2.176225   -0.108634    0.025106
|  6> C      1.750470   -0.864926    0.195527
|  7> N     -0.860662   -0.714324    0.273353
|  8> O      0.496434    1.481896    0.368384
|  9> S      0.435590    0.228882   -0.434302
| 10> H     -2.186081    0.887800    0.460796
| 11> H     -2.927918   -0.708978    0.535442
| 12> H     -2.441606   -0.034928   -1.035315
| 13> H      1.646109   -0.917873    1.276493
| 14> H      2.694683   -0.403665   -0.084828
| 15> H      1.666868   -1.848965   -0.264591
| 16> H     -0.813806   -1.649042   -0.123504
| 17> *
| 18>
| 19>                          ****END OF INPUT****

CARTESIAN COORDINATES (ANGSTROEM)
---------------------------------
  C     -2.176225   -0.108634    0.025106
  C      1.750470   -0.864926    0.195527
  N     -0.860662   -0.714324    0.273353
  O      0.496434    1.481896    0.368384
  S      0.435590    0.228882   -0.434302
  H     -2.186081    0.887800    0.460796
  H     -2.927918   -0.708978    0.535442
  H     -2.441606   -0.034928   -1.035315
  H      1.646109   -0.917873    1.276493
  H      2.694683   -0.403665   -0.084828
  H      1.666868   -1.848965   -0.264591
  H     -0.813806   -1.649042   -0.123504

 Total Charge           Charge          ....    0
 Multiplicity           Mult            ....    1
 Number of Electrons    NEL             ....   50
 Basis Dimension        Dim             ....  395

ORBITAL ENERGIES
----------------

  NO   OCC          E(Eh)            E(eV)
   0   2.0000     -92.094169     -2506.0097
   1   2.0000     -20.513739      -558.2072
   2   2.0000     -15.588709      -424.1903
   3   2.0000     -11.263042      -306.4830
   4   2.0000     -11.260268      -306.4075
   5   2.0000      -9.076907      -246.9952
   6   2.0000      -6.758662      -183.9125
   7   2.0000      -6.758311      -183.9030
   8   2.0000      -6.756657      -183.8580
   9   2.0000      -1.352207       -36.7954
  10   2.0000      -1.209030       -32.8994
  11   2.0000      -1.028787       -27.9947
  12   2.0000      -0.922429       -25.1006
  13   2.0000      -0.828548       -22.5459
  14   2.0000      -0.684183       -18.6176
  15   2.0000      -0.638137       -17.3646
  16   2.0000      -0.633759       -17.2454
  17   2.0000      -0.603488       -16.4218
  18   2.0000      -0.584689       -15.9102
  19   2.0000      -0.557619       -15.1736
  20   2.0000      -0.539909       -14.6917
  21   2.0000      -0.531705       -14.4684
  22   2.0000      -0.444488       -12.0951
  23   2.0000      -0.429172       -11.6784
  24   2.0000      -0.361652        -9.8410
  25   0.0000       0.023267         0.6331
  26   0.0000       0.034079         0.9273
  27   0.0000       0.042075         1.1449
  28   0.0000       0.042824         1.1653
  29   0.0000       0.056591         1.5399

MULLIKEN ATOMIC CHARGES
-----------------------
   0 C :   -0.860173
   1 C :   -0.843763
   2 N :   -0.313871
   3 O :   -0.913174
   4 S :    0.858622
   5 H :    0.383531
   6 H :    0.339619
   7 H :    0.331986
   8 H :    0.282115
   9 H :    0.315212
  10 H :    0.331196
  11 H :    0.088698
Sum of atomic charges:    0.0000000

LOEWDIN ATOMIC CHARGES
----------------------
   0 C :    0.380891
   1 C :    0.406569
   2 N :    0.307635
   3 O :   -0.164768
   4 S :    0.737113
   5 H :   -0.199110
   6 H :   -0.182879
   7 H :   -0.182793
   8 H :   -0.226006
   9 H :   -0.238737
  10 H :   -0.233812
  11 H :   -0.404102

  Mayer bond orders larger than 0.100000
B(  0-C ,  2-N ) :   0.8814 B(  0-C ,  5-H ) :   0.8669 B(  0-C ,  6-H ) :   0.9037
B(  0-C ,  7-H ) :   0.9117 B(  1-C ,  4-S ) :   0.9162 B(  1-C ,  8-H ) :   0.8931
B(  1-C ,  9-H ) :   0.9278 B(  1-C , 10-H ) :   0.8748 B(  2-N ,  4-S ) :   0.9371
B(  2-N , 11-H ) :   0.9739 B(  3-O ,  4-S ) :   1.3298

MP2 TOTAL ENERGY:     -607.705541773 Eh
FINAL SINGLE POINT ENERGY      -607.705541772957

DIPOLE MOMENT
-------------
                                X             Y             Z
Electronic contribution:      2.25853       3.03024      -1.42166
Nuclear contribution   :     -2.39177      -4.70158       0.79171
                        -----------------------------------------
Total Dipole Moment    :     -0.13324      -1.67134      -0.62995
                        -----------------------------------------
Magnitude (a.u.)       :      1.79108
Magnitude (Debye)      :      4.55256

Rotational constants in cm-1:     0.227174     0.105204     0.080892
Rotational constants in MHz :  6810.492601  3153.929331  2425.094146

                             ****ORCA TERMINATED NORMALLY****
TOTAL RUN TIME: 0 days 0 hours 1 minutes 59 seconds 785 msec
