                         Program Version 5.0.3 -  RELEASE  -
|  1> !ri-mp2 aug-cc-pvtz aug-cc-pvtz/c tightscf
|  2> %pal nprocs 16 end
|  3>
|  4> * xyz 0 1
|  5> Cl    -1.403966    1.580358   -0.186597
|  6> Cl    -2.213265   -1.174993   -0.243708
|  7> O      2.873057    0.758059   -0.738556
|  8> O      2.277698   -1.354913   -0.264765
|  9> N     -0.804970   -0.095332   -0.210337
| 10> C     -0.056679   -0.361932    1.040612
| 11> C      1.277873    0.375527    1.029972
| 12> C      2.216236   -0.012637   -0.091722
| 13> H      2.900728   -1.522198   -0.987239
| 14> H      0.107577   -1.437333    1.044710
| 15> H     -0.639389   -0.090423    1.923058
| 16> H      1.143470    1.452829    0.989941
| 17> H      1.784708    0.142322    1.970482
| 18> *
| 19>
| 20>                          ****END OF INPUT****

CARTESIAN COORDINATES (ANGSTROEM)
---------------------------------
  Cl    -1.403966    1.580358   -0.186597
  Cl    -2.213265   -1.174993   -0.243708
  O      2.873057    0.758059   -0.738556
  O      2.277698   -1.354913   -0.264765
  N     -0.804970   -0.095332   -0.210337
  C     -0.056679   -0.361932    1.040612
  C      1.277873    0.375527    1.029972
  C      2.216236   -0.012637   -0.091722
  H      2.900728   -1.522198   -0.987239
  H      0.107577   -1.437333    1.044710
  H     -0.639389   -0.090423    1.923058
  H      1.143470    1.452829    0.989941
  H      1.784708    0.142322    1.970482

 Total Charge           Charge          ....    0
 Multiplicity           Mult            ....    1
 Number of Electrons    NEL             ....   80
 Basis Dimension        Dim             ....  491

ORBITAL ENERGIES
----------------

  NO   OCC          E(Eh)            E(eV)
   0   2.0000    -104.877877     -2853.8721
   1   2.0000    -104.876665     -2853.8392
   2   2.0000     -20.622588      -561.1691
   3   2.0000     -20.559678      -559.4573
   4   2.0000     -15.704928      -427.3528
   5   2.0000     -11.398077      -310.1574
   6   2.0000     -11.302622      -307.5600
   7   2.0000     -11.268715      -306.6373
   8   2.0000     -10.599160      -288.4178
   9   2.0000     -10.598065      -288.3880
  10   2.0000      -8.065978      -219.4864
  11   2.0000      -8.064873      -219.4564
  12   2.0000      -8.063557      -219.4205
  13   2.0000      -8.063391      -219.4160
  14   2.0000      -8.062478      -219.3912
  15   2.0000      -8.062309      -219.3866
  16   2.0000      -1.475378       -40.1471
  17   2.0000      -1.373125       -37.3646
  18   2.0000      -1.301194       -35.4073
  19   2.0000      -1.108131       -30.1538
  20   2.0000      -1.098768       -29.8990
  21   2.0000      -0.997701       -27.1488
  22   2.0000      -0.881370       -23.9833
  23   2.0000      -0.823566       -22.4104
  24   2.0000      -0.717754       -19.5311
  25   2.0000      -0.700004       -19.0481
  26   2.0000      -0.680778       -18.5249
  27   2.0000      -0.664236       -18.0748
  28   2.0000      -0.637272       -17.3411
  29   2.0000      -0.620083       -16.8733
  30   2.0000      -0.590684       -16.0733
  31   2.0000      -0.571055       -15.5392
  32   2.0000      -0.548006       -14.9120
  33   2.0000      -0.532679       -14.4949
  34   2.0000      -0.494906       -13.4671
  35   2.0000      -0.482002       -13.1159
  36   2.0000      -0.478895       -13.0314
  37   2.0000      -0.461252       -12.5513
  38   2.0000      -0.455488       -12.3944
  39   2.0000      -0.413780       -11.2595
  40   0.0000       0.025392         0.6909
  41   0.0000       0.034345         0.9346
  42   0.0000       0.042625         1.1599
  43   0.0000       0.045439         1.2364
  44   0.0000       0.054448         1.4816

MULLIKEN ATOMIC CHARGES
-----------------------
   0 Cl:   -0.132907
   1 Cl:   -0.136837
   2 O :   -0.812241
   3 O :   -0.420637
   4 N :   -0.326581
   5 C :   -0.002166
   6 C :   -0.272118
   7 C :    0.590434
   8 H :    0.228262
   9 H :    0.356645
  10 H :    0.361839
  11 H :    0.271601
  12 H :    0.294705
Sum of atomic charges:   -0.0000000

LOEWDIN ATOMIC CHARGES
----------------------
   0 Cl:    0.704523
   1 Cl:    0.688043
   2 O :    0.455591
   3 O :    0.835541
   4 N :   -0.784533
   5 C :   -0.122876
   6 C :    0.231351
   7 C :   -0.792851
   8 H :   -0.465614
   9 H :   -0.216090
  10 H :   -0.184254
  11 H :   -0.201795
  12 H :   -0.147036

  Mayer bond orders larger than 0.100000
B(  0-Cl,  4-N ) :   0.9206 B(  1-Cl,  4-N ) :   0.9898 B(  2-O ,  7-C ) :   1.3823
B(  3-O ,  7-C ) :   1.0143 B(  3-O ,  8-H ) :   0.9404 B(  4-N ,  5-C ) :   0.6012
B(  4-N ,  6-C ) :   0.1203 B(  5-C ,  6-C ) :   0.9179 B(  5-C ,  9-H ) :   0.8859
B(  5-C , 10-H ) :   0.9492 B(  6-C ,  7-C ) :   0.6164 B(  6-C , 11-H ) :   0.9510
B(  6-C , 12-H ) :   0.9460

MP2 TOTAL ENERGY:    -1241.366802725 Eh
FINAL SINGLE POINT ENERGY     -1241.366802724982

DIPOLE MOMENT
-------------
                                X             Y             Z
Electronic contribution:     -9.96217       1.29798      -4.28558
Nuclear contribution   :     10.03190      -1.94456       5.26819
                        -----------------------------------------
Total Dipole Moment    :      0.06973      -0.64658       0.98261
                        -----------------------------------------
Magnitude (a.u.)       :      1.17832
Magnitude (Debye)      :      2.99506

Rotational constants in cm-1:     0.071385     0.027669     0.022625
Rotational constants in MHz :  2140.079889   829.489333   678.277441

                             ****ORCA TERMINATED NORMALLY****
TOTAL RUN TIME: 0 days 0 hours 4 minutes 28 seconds 773 msec
