                         Program Version 5.0.3 -  RELEASE  -
|  1> !ri-mp2 aug-cc-pvtz aug-cc-pvtz/c tightscf
|  2> %pal nprocs 16 end
|  3>
|  4> * xyz 0 1
|  5> C     -0.691463   -0.825035    0.000000
|  6> C      1.451045    0.342396    0.000000
|  7> C     -0.673160    1.625303    0.000000
|  8> N      0.000000    0.344183    0.000000
|  9> O     -0.204681   -1.939050    0.000000
| 10> H     -1.782485   -0.660464    0.000000
| 11> H      1.835600    0.852868    0.886378
| 12> H      1.835600    0.852868   -0.886378
| 13> H      1.793661   -0.687964    0.000000
| 14> H     -0.406192    2.208353    0.885441
| 15> H     -1.751076    1.473118    0.000000
| 16> H     -0.406192    2.208353   -0.885441
| 17> *
| 18>
| 19>                          ****END OF INPUT****

CARTESIAN COORDINATES (ANGSTROEM)
---------------------------------
  C     -0.691463   -0.825035    0.000000
  C      1.451045    0.342396    0.000000
  C     -0.673160    1.625303    0.000000
  N      0.000000    0.344183    0.000000
  O     -0.204681   -1.939050    0.000000
  H     -1.782485   -0.660464    0.000000
  H      1.835600    0.852868    0.886378
  H      1.835600    0.852868   -0.886378
  H      1.793661   -0.687964    0.000000
  H     -0.406192    2.208353    0.885441
  H     -1.751076    1.473118    0.000000
  H     -0.406192    2.208353   -0.885441

 Total Charge           Charge          ....    0
 Multiplicity           Mult            ....    1
 Number of Electrons    NEL             ....   40
 Basis Dimension        Dim             ....  391

ORBITAL ENERGIES
----------------

  NO   OCC          E(Eh)            E(eV)
   0   2.0000     -20.519759      -558.3710
   1   2.0000     -15.595016      -424.3620
   2   2.0000     -11.345093      -308.7157
   3   2.0000     -11.276493      -306.8490
   4   2.0000     -11.260237      -306.4066
   5   2.0000      -1.379405       -37.5355
   6   2.0000      -1.255096       -34.1529
   7   2.0000      -0.987322       -26.8664
   8   2.0000      -0.950587       -25.8668
   9   2.0000      -0.782323       -21.2881
  10   2.0000      -0.704602       -19.1732
  11   2.0000      -0.659946       -17.9580
  12   2.0000      -0.655218       -17.8294
  13   2.0000      -0.584578       -15.9072
  14   2.0000      -0.569092       -15.4858
  15   2.0000      -0.568818       -15.4783
  16   2.0000      -0.541718       -14.7409
  17   2.0000      -0.531974       -14.4757
  18   2.0000      -0.428260       -11.6536
  19   2.0000      -0.377808       -10.2807
  20   0.0000       0.023391         0.6365
  21   0.0000       0.035740         0.9725
  22   0.0000       0.039285         1.0690
  23   0.0000       0.044598         1.2136
  24   0.0000       0.060032         1.6336

MULLIKEN ATOMIC CHARGES
-----------------------
   0 C :   -0.145715
   1 C :   -1.033816
   2 C :   -0.977789
   3 N :    0.171893
   4 O :   -0.744912
   5 H :    0.641394
   6 H :    0.319587
   7 H :    0.319587
   8 H :    0.426610
   9 H :    0.327643
  10 H :    0.367876
  11 H :    0.327643
Sum of atomic charges:    0.0000000

LOEWDIN ATOMIC CHARGES
----------------------
   0 C :   -0.371454
   1 C :    0.486112
   2 C :    0.476589
   3 N :    0.195117
   4 O :    0.407290
   5 H :   -0.185494
   6 H :   -0.158849
   7 H :   -0.158849
   8 H :   -0.195304
   9 H :   -0.156804
  10 H :   -0.181550
  11 H :   -0.156804

  Mayer bond orders larger than 0.100000
B(  0-C ,  3-N ) :   1.1825 B(  0-C ,  4-O ) :   1.6237 B(  0-C ,  5-H ) :   0.5194
B(  1-C ,  3-N ) :   0.9238 B(  1-C ,  6-H ) :   0.9274 B(  1-C ,  7-H ) :   0.9274
B(  1-C ,  8-H ) :   0.8246 B(  2-C ,  3-N ) :   0.9148 B(  2-C ,  9-H ) :   0.9194
B(  2-C , 10-H ) :   0.8720 B(  2-C , 11-H ) :   0.9194

MP2 TOTAL ENERGY:     -248.055098270 Eh
FINAL SINGLE POINT ENERGY      -248.055098270090

DIPOLE MOMENT
-------------
                                X             Y             Z
Electronic contribution:     -1.32675      -4.68840       0.00000
Nuclear contribution   :      1.14664       6.39111       0.00000
                        -----------------------------------------
Total Dipole Moment    :     -0.18011       1.70271       0.00000
                        -----------------------------------------
Magnitude (a.u.)       :      1.71221
Magnitude (Debye)      :      4.35208

Rotational constants in cm-1:     0.297743     0.139889     0.098700
Rotational constants in MHz :  8926.106128  4193.773100  2958.959845

                             ****ORCA TERMINATED NORMALLY****
TOTAL RUN TIME: 0 days 0 hours 2 minutes 16 seconds 921 msec
