                         Program Version 5.0.3 -  RELEASE  -
|  1> !ri-mp2 aug-cc-pvtz aug-cc-pvtz/c tightscf
|  2> %pal nprocs 16 end
|  3> %maxcore 3800
|  4>
|  5> * xyz 0 1
|  6> C     -0.824709    1.228044    0.516573
|  7> C     -0.551689   -0.837659   -0.670034
|  8> C     -2.192547    1.016290    0.567183
|  9> C     -1.928178   -1.033187   -0.636809
| 10> C      0.016971    0.292751   -0.088553
| 11> C     -2.771189   -0.118200   -0.009775
| 12> C      1.480040    0.615826   -0.196992
| 13> C     -4.260063   -0.333800    0.047428
| 14> C      3.800000   -0.087883   -0.163135
| 15> C      2.129735   -1.553398    0.876092
| 16> N      2.392421   -0.372582    0.069758
| 17> O      1.827343    1.734039   -0.557225
| 18> H     -0.393860    2.126909    0.935086
| 19> H      0.076121   -1.560776   -1.173451
| 20> H     -2.825569    1.749761    1.051454
| 21> H     -2.351256   -1.910030   -1.110565
| 22> H     -4.560652   -1.194770   -0.547754
| 23> H     -4.593447   -0.504188    1.073579
| 24> H     -4.800270    0.538795   -0.323928
| 25> H      4.294841   -0.991603   -0.522094
| 26> H      4.298732    0.238192    0.755175
| 27> H      3.890077    0.701076   -0.901854
| 28> H      2.743352   -1.528530    1.781764
| 29> H      2.377510   -2.465691    0.327084
| 30> H      1.088513   -1.596087    1.173131
| 31> *
| 32>
| 33>                          ****END OF INPUT****

CARTESIAN COORDINATES (ANGSTROEM)
---------------------------------
  C     -0.824709    1.228044    0.516573
  C     -0.551689   -0.837659   -0.670034
  C     -2.192547    1.016290    0.567183
  C     -1.928178   -1.033187   -0.636809
  C      0.016971    0.292751   -0.088553
  C     -2.771189   -0.118200   -0.009775
  C      1.480040    0.615826   -0.196992
  C     -4.260063   -0.333800    0.047428
  C      3.800000   -0.087883   -0.163135
  C      2.129735   -1.553398    0.876092
  N      2.392421   -0.372582    0.069758
  O      1.827343    1.734039   -0.557225
  H     -0.393860    2.126909    0.935086
  H      0.076121   -1.560776   -1.173451
  H     -2.825569    1.749761    1.051454
  H     -2.351256   -1.910030   -1.110565
  H     -4.560652   -1.194770   -0.547754
  H     -4.593447   -0.504188    1.073579
  H     -4.800270    0.538795   -0.323928
  H      4.294841   -0.991603   -0.522094
  H      4.298732    0.238192    0.755175
  H      3.890077    0.701076   -0.901854
  H      2.743352   -1.528530    1.781764
  H      2.377510   -2.465691    0.327084
  H      1.088513   -1.596087    1.173131

 Total Charge           Charge          ....    0
 Multiplicity           Mult            ....    1
 Number of Electrons    NEL             ....   88
 Basis Dimension        Dim             ....  851

ORBITAL ENERGIES
----------------

  NO   OCC          E(Eh)            E(eV)
   0   2.0000     -20.510526      -558.1198
   1   2.0000     -15.585366      -424.0994
   2   2.0000     -11.346839      -308.7632
   3   2.0000     -11.265016      -306.5367
   4   2.0000     -11.251501      -306.1689
   5   2.0000     -11.250960      -306.1542
   6   2.0000     -11.245999      -306.0192
   7   2.0000     -11.243765      -305.9584
   8   2.0000     -11.240875      -305.8798
   9   2.0000     -11.236306      -305.7554
  10   2.0000     -11.234076      -305.6948
  11   2.0000     -11.230067      -305.5857
  12   2.0000      -1.374978       -37.4151
  13   2.0000      -1.241220       -33.7753
  14   2.0000      -1.165466       -31.7139
  15   2.0000      -1.063653       -28.9435
  16   2.0000      -1.022348       -27.8195
  17   2.0000      -0.975343       -26.5404
  18   2.0000      -0.962398       -26.1882
  19   2.0000      -0.923281       -25.1238
  20   2.0000      -0.838241       -22.8097
  21   2.0000      -0.821528       -22.3549
  22   2.0000      -0.753013       -20.4905
  23   2.0000      -0.709180       -19.2978
  24   2.0000      -0.664426       -18.0800
  25   2.0000      -0.651925       -17.7398
  26   2.0000      -0.647909       -17.6305
  27   2.0000      -0.633875       -17.2486
  28   2.0000      -0.620125       -16.8745
  29   2.0000      -0.591641       -16.0994
  30   2.0000      -0.583379       -15.8745
  31   2.0000      -0.574064       -15.6211
  32   2.0000      -0.561784       -15.2869
  33   2.0000      -0.556931       -15.1549
  34   2.0000      -0.549253       -14.9459
  35   2.0000      -0.536035       -14.5862
  36   2.0000      -0.523529       -14.2459
  37   2.0000      -0.506317       -13.7776
  38   2.0000      -0.492831       -13.4106
  39   2.0000      -0.489412       -13.3176
  40   2.0000      -0.421979       -11.4826
  41   2.0000      -0.371341       -10.1047
  42   2.0000      -0.343618        -9.3503
  43   2.0000      -0.332157        -9.0384
  44   0.0000       0.024658         0.6710
  45   0.0000       0.028751         0.7824
  46   0.0000       0.033422         0.9095
  47   0.0000       0.038567         1.0495
  48   0.0000       0.041857         1.1390

MULLIKEN ATOMIC CHARGES
-----------------------
   0 C :   -1.548454
   1 C :   -0.563630
   2 C :   -0.820925
   3 C :   -0.890405
   4 C :    2.273148
   5 C :    1.668685
   6 C :    0.177216
   7 C :   -0.923527
   8 C :   -1.125513
   9 C :   -1.158298
  10 N :    0.281786
  11 O :   -0.917761
  12 H :    0.092888
  13 H :    0.207336
  14 H :    0.189877
  15 H :    0.036676
  16 H :    0.255190
  17 H :    0.302772
  18 H :    0.286929
  19 H :    0.300054
  20 H :    0.336915
  21 H :    0.407762
  22 H :    0.260408
  23 H :    0.375968
  24 H :    0.494903
Sum of atomic charges:   -0.0000000

LOEWDIN ATOMIC CHARGES
----------------------
   0 C :    0.222355
   1 C :    0.207297
   2 C :    0.229371
   3 C :    0.229819
   4 C :   -0.126872
   5 C :   -0.115771
   6 C :   -0.663911
   7 C :    0.583339
   8 C :    0.479932
   9 C :    0.483299
  10 N :    0.231143
  11 O :    0.460681
  12 H :   -0.173474
  13 H :   -0.170645
  14 H :   -0.173963
  15 H :   -0.180923
  16 H :   -0.179601
  17 H :   -0.164595
  18 H :   -0.167115
  19 H :   -0.162968
  20 H :   -0.151132
  21 H :   -0.196462
  22 H :   -0.152067
  23 H :   -0.151589
  24 H :   -0.196151

  Mayer bond orders larger than 0.100000
B(  0-C ,  1-C ) :  -0.1511 B(  0-C ,  2-C ) :   1.4024 B(  0-C ,  3-C ) :   0.3785
B(  0-C ,  5-C ) :  -0.1199 B(  0-C ,  6-C ) :   0.3696 B(  0-C , 12-H ) :   1.4190
B(  0-C , 13-H ) :   0.1490 B(  1-C ,  3-C ) :   1.4218 B(  1-C ,  4-C ) :   0.5968
B(  1-C ,  6-C ) :   0.2196 B(  1-C , 13-H ) :   1.2108 B(  2-C ,  3-C ) :  -0.1686
B(  2-C ,  5-C ) :   0.6246 B(  2-C ,  7-C ) :   0.1317 B(  2-C , 14-H ) :   1.3210
B(  3-C ,  4-C ) :  -0.2740 B(  3-C ,  5-C ) :   0.8121 B(  3-C , 13-H ) :  -0.1215
B(  3-C , 15-H ) :   1.4970 B(  4-C ,  6-C ) :  -0.2223 B(  4-C ,  7-C ) :   0.1305
B(  4-C , 10-N ) :  -0.1883 B(  4-C , 12-H ) :  -0.1721 B(  4-C , 13-H ) :  -0.1691
B(  4-C , 15-H ) :  -0.1406 B(  5-C ,  6-C ) :   0.2222 B(  5-C ,  7-C ) :   0.2667
B(  5-C , 14-H ) :  -0.1751 B(  5-C , 15-H ) :  -0.1836 B(  5-C , 17-H ) :  -0.1253
B(  5-C , 18-H ) :  -0.1178 B(  6-C ,  8-C ) :  -0.1046 B(  6-C , 10-N ) :   1.2066
B(  6-C , 11-O ) :   1.1506 B(  7-C , 16-H ) :   1.0186 B(  7-C , 17-H ) :   0.9982
B(  7-C , 18-H ) :   1.0297 B(  8-C , 10-N ) :   0.9149 B(  8-C , 19-H ) :   0.9531
B(  8-C , 20-H ) :   0.9304 B(  8-C , 21-H ) :   0.8590 B(  9-C , 10-N ) :   0.9433
B(  9-C , 22-H ) :   1.0163 B(  9-C , 23-H ) :   0.8745 B(  9-C , 24-H ) :   0.7762
B( 11-O , 12-H ) :   0.1075

MP2 TOTAL ENERGY:     -517.853471995 Eh
FINAL SINGLE POINT ENERGY      -517.853471995003

DIPOLE MOMENT
-------------
                                X             Y             Z
Electronic contribution:      0.24622       5.03620      -1.96144
Nuclear contribution   :     -0.72202      -6.45184       2.54077
                        -----------------------------------------
Total Dipole Moment    :     -0.47580      -1.41564       0.57933
                        -----------------------------------------
Magnitude (a.u.)       :      1.60189
Magnitude (Debye)      :      4.07167

Rotational constants in cm-1:     0.079885     0.016798     0.014990
Rotational constants in MHz :  2394.894384   503.605520   449.382949

                             ****ORCA TERMINATED NORMALLY****
TOTAL RUN TIME: 0 days 0 hours 26 minutes 16 seconds 11 msec
