                         Program Version 5.0.3 -  RELEASE  -
|  1> !ri-mp2 aug-cc-pvtz aug-cc-pvtz/c tightscf
|  2> %pal nprocs 16 end
|  3>
|  4> * xyz 0 1
|  5> C      0.000000    0.771893    0.000000
|  6> S      1.640420    0.979773    0.000000
|  7> N     -0.700922   -0.369480    0.000000
|  8> C     -0.070945   -1.678921    0.000000
|  9> C     -2.154440   -0.362728    0.000000
| 10> H     -0.648724    1.645722    0.000000
| 11> H     -0.374521   -2.239525    0.886803
| 12> H     -0.374521   -2.239525   -0.886803
| 13> H      1.006974   -1.550438    0.000000
| 14> H     -2.539090   -0.874548   -0.885289
| 15> H     -2.539090   -0.874548    0.885289
| 16> H     -2.518989    0.661390    0.000000
| 17> *
| 18>
| 19>                          ****END OF INPUT****

CARTESIAN COORDINATES (ANGSTROEM)
---------------------------------
  C      0.000000    0.771893    0.000000
  S      1.640420    0.979773    0.000000
  N     -0.700922   -0.369480    0.000000
  C     -0.070945   -1.678921    0.000000
  C     -2.154440   -0.362728    0.000000
  H     -0.648724    1.645722    0.000000
  H     -0.374521   -2.239525    0.886803
  H     -0.374521   -2.239525   -0.886803
  H      1.006974   -1.550438    0.000000
  H     -2.539090   -0.874548   -0.885289
  H     -2.539090   -0.874548    0.885289
  H     -2.518989    0.661390    0.000000

 Total Charge           Charge          ....    0
 Multiplicity           Mult            ....    1
 Number of Electrons    NEL             ....   48
 Basis Dimension        Dim             ....  395

ORBITAL ENERGIES
----------------

  NO   OCC          E(Eh)            E(eV)
   0   2.0000     -91.896648     -2500.6349
   1   2.0000     -15.624841      -425.1735
   2   2.0000     -11.339966      -308.5762
   3   2.0000     -11.287427      -307.1465
   4   2.0000     -11.269387      -306.6556
   5   2.0000      -8.899785      -242.1755
   6   2.0000      -6.581183      -179.0831
   7   2.0000      -6.579649      -179.0414
   8   2.0000      -6.578749      -179.0169
   9   2.0000      -1.301024       -35.4027
  10   2.0000      -1.036404       -28.2020
  11   2.0000      -0.998351       -27.1665
  12   2.0000      -0.912866       -24.8403
  13   2.0000      -0.772327       -21.0161
  14   2.0000      -0.699823       -19.0432
  15   2.0000      -0.669471       -18.2172
  16   2.0000      -0.634717       -17.2715
  17   2.0000      -0.579788       -15.7768
  18   2.0000      -0.578294       -15.7362
  19   2.0000      -0.555798       -15.1240
  20   2.0000      -0.499410       -13.5896
  21   2.0000      -0.476435       -12.9644
  22   2.0000      -0.324693        -8.8353
  23   2.0000      -0.321116        -8.7380
  24   0.0000       0.020652         0.5620
  25   0.0000       0.034066         0.9270
  26   0.0000       0.037243         1.0134
  27   0.0000       0.044250         1.2041
  28   0.0000       0.058339         1.5875

MULLIKEN ATOMIC CHARGES
-----------------------
   0 C :   -0.390745
   1 S :   -0.503632
   2 N :    0.261435
   3 C :   -1.041519
   4 C :   -0.979032
   5 H :    0.533535
   6 H :    0.330938
   7 H :    0.330938
   8 H :    0.426739
   9 H :    0.335713
  10 H :    0.335713
  11 H :    0.359916
Sum of atomic charges:    0.0000000

LOEWDIN ATOMIC CHARGES
----------------------
   0 C :   -0.613473
   1 S :    0.846950
   2 N :    0.130658
   3 C :    0.462317
   4 C :    0.492827
   5 H :   -0.276260
   6 H :   -0.155973
   7 H :   -0.155973
   8 H :   -0.247795
   9 H :   -0.152960
  10 H :   -0.152960
  11 H :   -0.177357

  Mayer bond orders larger than 0.100000
B(  0-C ,  1-S ) :   1.6772 B(  0-C ,  2-N ) :   1.2391 B(  0-C ,  5-H ) :   0.6187
B(  2-N ,  3-C ) :   0.8770 B(  2-N ,  4-C ) :   0.9197 B(  3-C ,  6-H ) :   0.9157
B(  3-C ,  7-H ) :   0.9157 B(  3-C ,  8-H ) :   0.8399 B(  4-C ,  9-H ) :   0.9096
B(  4-C , 10-H ) :   0.9096 B(  4-C , 11-H ) :   0.8908

MP2 TOTAL ENERGY:     -570.635113018 Eh
FINAL SINGLE POINT ENERGY      -570.635113017501

DIPOLE MOMENT
-------------
                                X             Y             Z
Electronic contribution:      6.18105       4.64419       0.00000
Nuclear contribution   :     -8.13213      -5.56508       0.00000
                        -----------------------------------------
Total Dipole Moment    :     -1.95108      -0.92089       0.00000
                        -----------------------------------------
Magnitude (a.u.)       :      2.15749
Magnitude (Debye)      :      5.48390

Rotational constants in cm-1:     0.299153     0.079689     0.064449
Rotational constants in MHz :  8968.379548  2389.011624  1932.146693

                             ****ORCA TERMINATED NORMALLY****
TOTAL RUN TIME: 0 days 0 hours 2 minutes 27 seconds 362 msec
