                         Program Version 5.0.3 -  RELEASE  -
|  1> !ri-mp2 aug-cc-pvtz aug-cc-pvtz/c tightscf
|  2> %pal nprocs 16 end
|  3>
|  4> * xyz 0 1
|  5> C    -2.911807   -0.353161    0.000000
|  6> C    -1.970075   -1.370420    0.000028
|  7> C    -2.420063    0.945020   -0.000029
|  8> C    -0.295388    0.168403   -0.000001
|  9> C     1.202333    0.467839    0.000009
| 10> C     3.415957   -0.609641   -0.000010
| 11> N    -0.663500   -1.117055    0.000026
| 12> N    -1.117120    1.213429   -0.000028
| 13> N     1.969122   -0.648818   -0.000052
| 14> O     1.629250    1.606620    0.000055
| 15> H    -3.971769   -0.560591    0.000002
| 16> H    -2.264814   -2.413448    0.000052
| 17> H    -3.089232    1.798175   -0.000054
| 18> H     3.820894   -1.101243   -0.886355
| 19> H     3.820882   -1.099999    0.887039
| 20> H     3.726013    0.431675   -0.000714
| 21> H     1.478770   -1.528660   -0.000016
| 22> *
| 23>
| 24>                          ****END OF INPUT****

CARTESIAN COORDINATES (ANGSTROEM)
---------------------------------
  C     -2.911807   -0.353161    0.000000
  C     -1.970075   -1.370420    0.000028
  C     -2.420063    0.945020   -0.000029
  C     -0.295388    0.168403   -0.000001
  C      1.202333    0.467839    0.000009
  C      3.415957   -0.609641   -0.000010
  N     -0.663500   -1.117055    0.000026
  N     -1.117120    1.213429   -0.000028
  N      1.969122   -0.648818   -0.000052
  O      1.629250    1.606620    0.000055
  H     -3.971769   -0.560591    0.000002
  H     -2.264814   -2.413448    0.000052
  H     -3.089232    1.798175   -0.000054
  H      3.820894   -1.101243   -0.886355
  H      3.820882   -1.099999    0.887039
  H      3.726013    0.431675   -0.000714
  H      1.478770   -1.528660   -0.000016

 Total Charge           Charge          ....    0
 Multiplicity           Mult            ....    1
 Number of Electrons    NEL             ....   72
 Basis Dimension        Dim             ....  621

ORBITAL ENERGIES
----------------

  NO   OCC          E(Eh)            E(eV)
   0   2.0000     -20.515960      -558.2676
   1   2.0000     -15.592690      -424.2987
   2   2.0000     -15.584648      -424.0798
   3   2.0000     -15.580264      -423.9605
   4   2.0000     -11.351210      -308.8821
   5   2.0000     -11.334020      -308.4144
   6   2.0000     -11.312937      -307.8407
   7   2.0000     -11.309293      -307.7415
   8   2.0000     -11.262733      -306.4746
   9   2.0000     -11.255688      -306.2828
  10   2.0000      -1.383184       -37.6383
  11   2.0000      -1.328851       -36.1599
  12   2.0000      -1.232863       -33.5479
  13   2.0000      -1.208286       -32.8791
  14   2.0000      -1.094350       -29.7788
  15   2.0000      -0.972940       -26.4750
  16   2.0000      -0.912579       -24.8325
  17   2.0000      -0.902021       -24.5452
  18   2.0000      -0.796867       -21.6839
  19   2.0000      -0.762589       -20.7511
  20   2.0000      -0.722559       -19.6618
  21   2.0000      -0.688854       -18.7447
  22   2.0000      -0.638855       -17.3841
  23   2.0000      -0.633834       -17.2475
  24   2.0000      -0.628046       -17.0900
  25   2.0000      -0.607952       -16.5432
  26   2.0000      -0.594243       -16.1702
  27   2.0000      -0.581701       -15.8289
  28   2.0000      -0.546034       -14.8583
  29   2.0000      -0.530304       -14.4303
  30   2.0000      -0.499894       -13.6028
  31   2.0000      -0.437443       -11.9034
  32   2.0000      -0.432731       -11.7752
  33   2.0000      -0.420188       -11.4339
  34   2.0000      -0.390681       -10.6310
  35   2.0000      -0.382449       -10.4070
  36   0.0000       0.020206         0.5498
  37   0.0000       0.028870         0.7856
  38   0.0000       0.034901         0.9497
  39   0.0000       0.044690         1.2161
  40   0.0000       0.046397         1.2625

MULLIKEN ATOMIC CHARGES
-----------------------
   0 C :   -0.206087
   1 C :   -0.761027
   2 C :   -0.447863
   3 C :    0.726478
   4 C :    0.443752
   5 C :   -0.937029
   6 N :   -0.357012
   7 N :   -0.364276
   8 N :   -0.085702
   9 O :   -0.900391
  10 H :    0.357757
  11 H :    0.637728
  12 H :    0.664546
  13 H :    0.318497
  14 H :    0.318452
  15 H :    0.437105
  16 H :    0.155072
Sum of atomic charges:   -0.0000000

LOEWDIN ATOMIC CHARGES
----------------------
   0 C :    0.219053
   1 C :    0.036221
   2 C :    0.033447
   3 C :   -0.457230
   4 C :   -0.677208
   5 C :    0.506199
   6 N :    0.397943
   7 N :    0.401892
   8 N :    0.523415
   9 O :    0.443190
  10 H :   -0.188719
  11 H :   -0.177688
  12 H :   -0.176661
  13 H :   -0.166512
  14 H :   -0.166498
  15 H :   -0.194538
  16 H :   -0.356307

  Mayer bond orders larger than 0.100000
B(  0-C ,  1-C ) :   0.9210 B(  0-C ,  2-C ) :   1.0271 B(  0-C ,  6-N ) :  -0.3364
B(  0-C ,  7-N ) :  -0.1890 B(  0-C , 10-H ) :   0.9022 B(  1-C ,  2-C ) :   0.3687
B(  1-C ,  3-C ) :  -0.3779 B(  1-C ,  6-N ) :   1.3150 B(  1-C ,  7-N ) :   0.1657
B(  1-C , 11-H ) :   0.4690 B(  2-C ,  3-C ) :  -0.2580 B(  2-C ,  6-N ) :   0.1010
B(  2-C ,  7-N ) :   1.2931 B(  2-C , 12-H ) :   0.4880 B(  3-C ,  4-C ) :   0.6775
B(  3-C ,  6-N ) :   0.8651 B(  3-C ,  7-N ) :   0.7563 B(  3-C ,  8-N ) :  -0.1067
B(  4-C ,  5-C ) :  -0.1117 B(  4-C ,  8-N ) :   1.0452 B(  4-C ,  9-O ) :   1.2080
B(  5-C ,  8-N ) :   0.9830 B(  5-C , 13-H ) :   0.9229 B(  5-C , 14-H ) :   0.9229
B(  5-C , 15-H ) :   0.8214 B(  6-N ,  8-N ) :  -0.1598 B(  8-N , 16-H ) :   1.0089

MP2 TOTAL ENERGY:     -471.477101965 Eh
FINAL SINGLE POINT ENERGY      -471.477101964674

DIPOLE MOMENT
-------------
                                X             Y             Z
Electronic contribution:     -4.74867       2.65775       0.00001
Nuclear contribution   :      3.49785      -4.38965      -0.00004
                        -----------------------------------------
Total Dipole Moment    :     -1.25082      -1.73191      -0.00004
                        -----------------------------------------
Magnitude (a.u.)       :      2.13636
Magnitude (Debye)      :      5.43020

Rotational constants in cm-1:     0.117660     0.029281     0.023550
Rotational constants in MHz :  3527.363457   877.824553   706.012769

                             ****ORCA TERMINATED NORMALLY****
TOTAL RUN TIME: 0 days 0 hours 9 minutes 6 seconds 674 msec
