                         Program Version 5.0.3 -  RELEASE  -
|  1> !ri-mp2 aug-cc-pvtz aug-cc-pvtz/c tightscf
|  2> %pal nprocs 16 end
|  3> %maxcore 3800
|  4>
|  5> * xyz 0 1
|  6> C     -2.810255    0.874015        0.000000
|  7> C     -2.014183    2.040128        0.000000
|  8> C     -2.216594   -0.361309        0.000000
|  9> C     -0.646606    1.950634        0.000000
| 10> C     -0.160779   -1.748178        0.000000
| 11> C      1.205234   -1.842363        0.000000
| 12> C      1.407649    0.566607        0.000000
| 13> C     -0.807166   -0.489734        0.000000
| 14> C      0.000000    0.689037        0.000000
| 15> C      1.997415   -0.671969        0.000000
| 16> O      3.364255   -0.741235        0.000000
| 17> H     -3.888286    0.960491        0.000000
| 18> H     -2.491116    3.011227        0.000000
| 19> H     -2.821658   -1.259354        0.000000
| 20> H     -0.040456    2.847562        0.000000
| 21> H     -0.762742   -2.647866        0.000000
| 22> H      1.687194   -2.813217        0.000000
| 23> H      2.030075    1.451183        0.000000
| 24> H      3.644668   -1.661357        0.000000
| 25> *
| 26>
| 27>                          ****END OF INPUT****

CARTESIAN COORDINATES (ANGSTROEM)
---------------------------------
  C     -2.810255    0.874015    0.000000
  C     -2.014183    2.040128    0.000000
  C     -2.216594   -0.361309    0.000000
  C     -0.646606    1.950634    0.000000
  C     -0.160779   -1.748178    0.000000
  C      1.205234   -1.842363    0.000000
  C      1.407649    0.566607    0.000000
  C     -0.807166   -0.489734    0.000000
  C      0.000000    0.689037    0.000000
  C      1.997415   -0.671969    0.000000
  O      3.364255   -0.741235    0.000000
  H     -3.888286    0.960491    0.000000
  H     -2.491116    3.011227    0.000000
  H     -2.821658   -1.259354    0.000000
  H     -0.040456    2.847562    0.000000
  H     -0.762742   -2.647866    0.000000
  H      1.687194   -2.813217    0.000000
  H      2.030075    1.451183    0.000000
  H      3.644668   -1.661357    0.000000

 Total Charge           Charge          ....    0
 Multiplicity           Mult            ....    1
 Number of Electrons    NEL             ....   76
 Basis Dimension        Dim             ....  690

ORBITAL ENERGIES
----------------

  NO   OCC          E(Eh)            E(eV)
   0   2.0000     -20.593032      -560.3649
   1   2.0000     -11.305085      -307.6270
   2   2.0000     -11.248407      -306.0847
   3   2.0000     -11.248201      -306.0791
   4   2.0000     -11.241299      -305.8913
   5   2.0000     -11.240259      -305.8630
   6   2.0000     -11.238039      -305.8026
   7   2.0000     -11.236713      -305.7665
   8   2.0000     -11.232496      -305.6517
   9   2.0000     -11.231248      -305.6178
  10   2.0000     -11.225389      -305.4584
  11   2.0000      -1.407362       -38.2963
  12   2.0000      -1.178016       -32.0555
  13   2.0000      -1.109625       -30.1944
  14   2.0000      -1.053439       -28.6655
  15   2.0000      -1.007443       -27.4139
  16   2.0000      -0.984648       -26.7936
  17   2.0000      -0.861809       -23.4510
  18   2.0000      -0.844510       -22.9803
  19   2.0000      -0.816750       -22.2249
  20   2.0000      -0.749753       -20.4018
  21   2.0000      -0.707145       -19.2424
  22   2.0000      -0.689383       -18.7591
  23   2.0000      -0.657835       -17.9006
  24   2.0000      -0.627487       -17.0748
  25   2.0000      -0.601626       -16.3711
  26   2.0000      -0.596756       -16.2386
  27   2.0000      -0.593938       -16.1619
  28   2.0000      -0.581631       -15.8270
  29   2.0000      -0.567613       -15.4455
  30   2.0000      -0.526499       -14.3268
  31   2.0000      -0.525414       -14.2972
  32   2.0000      -0.501001       -13.6329
  33   2.0000      -0.479460       -13.0468
  34   2.0000      -0.438350       -11.9281
  35   2.0000      -0.386472       -10.5164
  36   2.0000      -0.315818        -8.5939
  37   2.0000      -0.284727        -7.7478
  38   0.0000       0.024951         0.6790
  39   0.0000       0.030414         0.8276
  40   0.0000       0.032943         0.8964
  41   0.0000       0.042574         1.1585
  42   0.0000       0.045066         1.2263

MULLIKEN ATOMIC CHARGES
-----------------------
   0 C :   -0.289835
   1 C :   -0.393885
   2 C :   -1.488142
   3 C :   -1.405695
   4 C :   -1.160068
   5 C :   -0.729265
   6 C :   -0.893263
   7 C :    1.832724
   8 C :    1.947552
   9 C :    0.919104
  10 O :   -0.821866
  11 H :    0.599668
  12 H :    0.607109
  13 H :    0.086093
  14 H :   -0.055424
  15 H :    0.161304
  16 H :    0.489201
  17 H :    0.432525
  18 H :    0.162162
Sum of atomic charges:   -0.0000000

LOEWDIN ATOMIC CHARGES
----------------------
   0 C :    0.200740
   1 C :    0.201418
   2 C :    0.215871
   3 C :    0.223018
   4 C :    0.221225
   5 C :    0.224023
   6 C :    0.233648
   7 C :   -0.117260
   8 C :   -0.122396
   9 C :   -0.367146
  10 O :    0.838655
  11 H :   -0.189146
  12 H :   -0.184499
  13 H :   -0.177794
  14 H :   -0.179579
  15 H :   -0.173416
  16 H :   -0.184609
  17 H :   -0.177525
  18 H :   -0.485228

  Mayer bond orders larger than 0.100000
B(  0-C ,  1-C ) :   0.9877 B(  0-C ,  2-C ) :   1.2087 B(  0-C ,  3-C ) :  -0.1651
B(  0-C ,  8-C ) :  -0.1087 B(  0-C , 11-H ) :   0.5705 B(  1-C ,  3-C ) :   1.2409
B(  1-C ,  7-C ) :  -0.1056 B(  1-C ,  8-C ) :   0.1650 B(  1-C , 12-H ) :   0.4952
B(  1-C , 14-H ) :  -0.1156 B(  2-C ,  3-C ) :   0.1379 B(  2-C ,  4-C ) :   0.7139
B(  2-C ,  6-C ) :  -0.1218 B(  2-C ,  8-C ) :  -0.1641 B(  2-C , 11-H ) :  -0.2559
B(  2-C , 13-H ) :   1.5460 B(  3-C ,  6-C ) :   0.3629 B(  3-C ,  7-C ) :  -0.3591
B(  3-C ,  8-C ) :  -0.2276 B(  3-C , 12-H ) :  -0.2767 B(  3-C , 14-H ) :   1.9495
B(  4-C ,  5-C ) :   1.4074 B(  4-C ,  6-C ) :  -0.2925 B(  4-C ,  7-C ) :  -0.3213
B(  4-C , 15-H ) :   1.3476 B(  5-C ,  6-C ) :   0.2021 B(  5-C ,  7-C ) :   0.1110
B(  5-C ,  8-C ) :  -0.1444 B(  5-C ,  9-C ) :   1.0127 B(  5-C , 15-H ) :  -0.1253
B(  5-C , 16-H ) :   0.6292 B(  6-C ,  7-C ) :   0.5511 B(  6-C ,  9-C ) :   0.9891
B(  6-C , 17-H ) :   0.6787 B(  7-C ,  8-C ) :   0.6900 B(  7-C , 15-H ) :  -0.1984
B(  8-C ,  9-C ) :  -0.1536 B(  8-C , 14-H ) :  -0.1600 B(  8-C , 15-H ) :   0.1306
B(  9-C , 10-O ) :   0.3650 B( 10-O , 18-H ) :   1.0589

MP2 TOTAL ENERGY:     -460.201731335 Eh
FINAL SINGLE POINT ENERGY      -460.201731335380

DIPOLE MOMENT
-------------
                                X             Y             Z
Electronic contribution:      2.42517      -0.50189      -0.00000
Nuclear contribution   :     -2.56344      -0.12179       0.00000
                        -----------------------------------------
Total Dipole Moment    :     -0.13827      -0.62367      -0.00000
                        -----------------------------------------
Magnitude (a.u.)       :      0.63882
Magnitude (Debye)      :      1.62374

Rotational constants in cm-1:     0.095536     0.027618     0.021425
Rotational constants in MHz :  2864.089635   827.972612   642.293553

                             ****ORCA TERMINATED NORMALLY****
TOTAL RUN TIME: 0 days 0 hours 13 minutes 2 seconds 449 msec
