                         Program Version 5.0.3 -  RELEASE  -
|  1> !ri-mp2 aug-cc-pvtz aug-cc-pvtz/c tightscf
|  2> %pal nprocs 16 end
|  3>
|  4> * xyz 0 1
|  5> Cl   -3.060401   -0.655123   -0.000036
|  6> O    -1.695936    1.586291    0.000019
|  7> O     4.467584   -0.178785   -0.000057
|  8> N     2.105957   -0.328874    0.000063
|  9> C    -0.315239   -0.391161    0.000014
| 10> C     0.924008    0.501299    0.000045
| 11> C    -1.585387    0.409377    0.000004
| 12> C     3.297525   -0.188848   -0.000003
| 13> H    -0.325259   -1.048562    0.871003
| 14> H    -0.325232   -1.048540   -0.870992
| 15> H     0.918478    1.146124    0.879487
| 16> H     0.918511    1.146144   -0.879383
| 17> *
| 18>
| 19>                          ****END OF INPUT****

CARTESIAN COORDINATES (ANGSTROEM)
---------------------------------
  Cl    -3.060401   -0.655123   -0.000036
  O     -1.695936    1.586291    0.000019
  O      4.467584   -0.178785   -0.000057
  N      2.105957   -0.328874    0.000063
  C     -0.315239   -0.391161    0.000014
  C      0.924008    0.501299    0.000045
  C     -1.585387    0.409377    0.000004
  C      3.297525   -0.188848   -0.000003
  H     -0.325259   -1.048562    0.871003
  H     -0.325232   -1.048540   -0.870992
  H      0.918478    1.146124    0.879487
  H      0.918511    1.146144   -0.879383

 Total Charge           Charge          ....    0
 Multiplicity           Mult            ....    1
 Number of Electrons    NEL             ....   68
 Basis Dimension        Dim             ....  464

ORBITAL ENERGIES
----------------

  NO   OCC          E(Eh)            E(eV)
   0   2.0000    -104.857534     -2853.3186
   1   2.0000     -20.616923      -561.0150
   2   2.0000     -20.610677      -560.8450
   3   2.0000     -15.601667      -424.5429
   4   2.0000     -11.425467      -310.9028
   5   2.0000     -11.410588      -310.4979
   6   2.0000     -11.320313      -308.0414
   7   2.0000     -11.286844      -307.1306
   8   2.0000     -10.581788      -287.9451
   9   2.0000      -8.048386      -219.0077
  10   2.0000      -8.046723      -218.9625
  11   2.0000      -8.046588      -218.9588
  12   2.0000      -1.469250       -39.9803
  13   2.0000      -1.467349       -39.9286
  14   2.0000      -1.290215       -35.1085
  15   2.0000      -1.144965       -31.1561
  16   2.0000      -1.094397       -29.7801
  17   2.0000      -0.957403       -26.0523
  18   2.0000      -0.786732       -21.4081
  19   2.0000      -0.763488       -20.7756
  20   2.0000      -0.725797       -19.7499
  21   2.0000      -0.705702       -19.2031
  22   2.0000      -0.685798       -18.6615
  23   2.0000      -0.669723       -18.2241
  24   2.0000      -0.655973       -17.8499
  25   2.0000      -0.648484       -17.6461
  26   2.0000      -0.605704       -16.4821
  27   2.0000      -0.580754       -15.8031
  28   2.0000      -0.551064       -14.9952
  29   2.0000      -0.482886       -13.1400
  30   2.0000      -0.477138       -12.9836
  31   2.0000      -0.468977       -12.7615
  32   2.0000      -0.451191       -12.2775
  33   2.0000      -0.436494       -11.8776
  34   0.0000       0.024449         0.6653
  35   0.0000       0.035956         0.9784
  36   0.0000       0.036586         0.9955
  37   0.0000       0.053522         1.4564
  38   0.0000       0.056543         1.5386

MULLIKEN ATOMIC CHARGES
-----------------------
   0 Cl:   -0.270207
   1 O :   -0.619867
   2 O :   -0.513320
   3 N :    0.018709
   4 C :   -0.160380
   5 C :    0.087047
   6 C :    0.422874
   7 C :   -0.220499
   8 H :    0.329397
   9 H :    0.329395
  10 H :    0.298423
  11 H :    0.298429
Sum of atomic charges:   -0.0000000

LOEWDIN ATOMIC CHARGES
----------------------
   0 Cl:    0.837635
   1 O :    0.410612
   2 O :    0.372401
   3 N :    0.303891
   4 C :    0.165664
   5 C :    0.089599
   6 C :   -1.078687
   7 C :   -0.461957
   8 H :   -0.167968
   9 H :   -0.167968
  10 H :   -0.151612
  11 H :   -0.151611

  Mayer bond orders larger than 0.100000
B(  0-Cl,  6-C ) :   0.9145 B(  1-O ,  6-C ) :   1.5681 B(  2-O ,  3-N ) :  -0.2765
B(  2-O ,  7-C ) :   2.0815 B(  3-N ,  5-C ) :   0.5516 B(  3-N ,  7-C ) :   1.7625
B(  4-C ,  5-C ) :   0.9395 B(  4-C ,  6-C ) :   0.7216 B(  4-C ,  8-H ) :   0.9059
B(  4-C ,  9-H ) :   0.9059 B(  5-C ,  7-C ) :  -0.1822 B(  5-C , 10-H ) :   0.9154
B(  5-C , 11-H ) :   0.9154

MP2 TOTAL ENERGY:     -819.144081806 Eh
FINAL SINGLE POINT ENERGY      -819.144081805557

DIPOLE MOMENT
-------------
                                X             Y             Z
Electronic contribution:     -5.49601      -1.33263      -0.00015
Nuclear contribution   :      5.37573       1.10240       0.00016
                        -----------------------------------------
Total Dipole Moment    :     -0.12028      -0.23024       0.00001
                        -----------------------------------------
Magnitude (a.u.)       :      0.25976
Magnitude (Debye)      :      0.66027

Rotational constants in cm-1:     0.231746     0.018000     0.016806
Rotational constants in MHz :  6947.576555   539.628661   503.819360

                             ****ORCA TERMINATED NORMALLY****
TOTAL RUN TIME: 0 days 0 hours 3 minutes 32 seconds 542 msec
