                         Program Version 5.0.3 -  RELEASE  -
|  1> !ri-mp2 aug-cc-pvtz aug-cc-pvtz/c tightscf
|  2> %pal nprocs 16 end
|  3>
|  4> * xyz 0 1
|  5> F      2.523812   -0.000530    0.037332
|  6> O     -1.881341   -1.007854   -0.239265
|  7> O     -1.539739    1.170779    0.004238
|  8> N      1.215026   -0.004014   -0.555021
|  9> C     -1.136839   -0.128298    0.067470
| 10> C      0.302592   -0.347682    0.537573
| 11> H     -0.888066    1.766285    0.392635
| 12> H      1.117050    0.980700   -0.797020
| 13> H      0.422906   -1.402721    0.762868
| 14> H      0.502739    0.241088    1.440632
| 15> *
| 16>
| 17>                          ****END OF INPUT****

CARTESIAN COORDINATES (ANGSTROEM)
---------------------------------
  F      2.523812   -0.000530    0.037332
  O     -1.881341   -1.007854   -0.239265
  O     -1.539739    1.170779    0.004238
  N      1.215026   -0.004014   -0.555021
  C     -1.136839   -0.128298    0.067470
  C      0.302592   -0.347682    0.537573
  H     -0.888066    1.766285    0.392635
  H      1.117050    0.980700   -0.797020
  H      0.422906   -1.402721    0.762868
  H      0.502739    0.241088    1.440632

 Total Charge           Charge          ....    0
 Multiplicity           Mult            ....    1
 Number of Electrons    NEL             ....   48
 Basis Dimension        Dim             ....  368

ORBITAL ENERGIES
----------------

  NO   OCC          E(Eh)            E(eV)
   0   2.0000     -26.322552      -716.2731
   1   2.0000     -20.638525      -561.6028
   2   2.0000     -20.572928      -559.8178
   3   2.0000     -15.688067      -426.8940
   4   2.0000     -11.412620      -310.5532
   5   2.0000     -11.313443      -307.8544
   6   2.0000      -1.617832       -44.0234
   7   2.0000      -1.485336       -40.4180
   8   2.0000      -1.392311       -37.8867
   9   2.0000      -1.210319       -32.9345
  10   2.0000      -0.989859       -26.9354
  11   2.0000      -0.858172       -23.3521
  12   2.0000      -0.783644       -21.3240
  13   2.0000      -0.735780       -20.0216
  14   2.0000      -0.710250       -19.3269
  15   2.0000      -0.688704       -18.7406
  16   2.0000      -0.683999       -18.6126
  17   2.0000      -0.646363       -17.5884
  18   2.0000      -0.625720       -17.0267
  19   2.0000      -0.601833       -16.3767
  20   2.0000      -0.580114       -15.7857
  21   2.0000      -0.505035       -13.7427
  22   2.0000      -0.477290       -12.9877
  23   2.0000      -0.467519       -12.7218
  24   0.0000       0.015277         0.4157
  25   0.0000       0.034404         0.9362
  26   0.0000       0.042600         1.1592
  27   0.0000       0.051839         1.4106
  28   0.0000       0.075307         2.0492

MULLIKEN ATOMIC CHARGES
-----------------------
   0 F :   -0.390963
   1 O :   -0.650375
   2 O :   -0.411228
   3 N :   -0.170437
   4 C :    0.528330
   5 C :    0.077559
   6 H :    0.226712
   7 H :    0.156191
   8 H :    0.342363
   9 H :    0.291849
Sum of atomic charges:   -0.0000000

LOEWDIN ATOMIC CHARGES
----------------------
   0 F :    0.309194
   1 O :    0.452144
   2 O :    0.830331
   3 N :    0.254181
   4 C :   -0.781654
   5 C :    0.125706
   6 H :   -0.487951
   7 H :   -0.369102
   8 H :   -0.171786
   9 H :   -0.161063

  Mayer bond orders larger than 0.100000
B(  0-F ,  3-N ) :   0.7295 B(  1-O ,  4-C ) :   1.5875 B(  2-O ,  4-C ) :   0.9365
B(  2-O ,  6-H ) :   0.9535 B(  3-N ,  5-C ) :   0.7067 B(  3-N ,  7-H ) :   0.8952
B(  4-C ,  5-C ) :   0.6182 B(  5-C ,  8-H ) :   0.9119 B(  5-C ,  9-H ) :   0.9312

MP2 TOTAL ENERGY:     -383.026299413 Eh
FINAL SINGLE POINT ENERGY      -383.026299412761

DIPOLE MOMENT
-------------
                                X             Y             Z
Electronic contribution:      1.89271      -0.32323      -0.89219
Nuclear contribution   :     -1.34137       1.53876       1.70040
                        -----------------------------------------
Total Dipole Moment    :      0.55134       1.21552       0.80821
                        -----------------------------------------
Magnitude (a.u.)       :      1.56035
Magnitude (Debye)      :      3.96608

Rotational constants in cm-1:     0.289746     0.063008     0.055947
Rotational constants in MHz :  8686.366056  1888.927629  1677.243755

                             ****ORCA TERMINATED NORMALLY****
TOTAL RUN TIME: 0 days 0 hours 1 minutes 43 seconds 909 msec
