                         Program Version 5.0.3 -  RELEASE  -
|  1> !ri-mp2 aug-cc-pvtz aug-cc-pvtz/c tightscf
|  2> %pal nprocs 16 end
|  3>
|  4> * xyz 0 1
|  5> C      1.276347   -0.143704    0.000000
|  6> C     -0.094534    1.815947    0.000000
|  7> C      2.368941    0.714696    0.000000
|  8> C      1.065879    2.570549    0.000000
|  9> C      0.000000    0.420948    0.000000
| 10> C     -1.364098   -1.686589    0.000000
| 11> C     -2.811083   -2.138228    0.000000
| 12> N      2.292696    2.045547    0.000000
| 13> N     -1.189731   -0.317431    0.000000
| 14> O     -0.446472   -2.481401    0.000000
| 15> H      1.408310   -1.211468    0.000000
| 16> H     -1.059712    2.307235    0.000000
| 17> H      3.368384    0.294912    0.000000
| 18> H      1.004291    3.652813    0.000000
| 19> H     -2.977485   -2.760972    0.878119
| 20> H     -2.977485   -2.760972   -0.878119
| 21> H     -3.532976   -1.322843    0.000000
| 22> H     -2.031016    0.233980    0.000000
| 23> *
| 24>
| 25>                          ****END OF INPUT****

CARTESIAN COORDINATES (ANGSTROEM)
---------------------------------
  C      1.276347   -0.143704    0.000000
  C     -0.094534    1.815947    0.000000
  C      2.368941    0.714696    0.000000
  C      1.065879    2.570549    0.000000
  C      0.000000    0.420948    0.000000
  C     -1.364098   -1.686589    0.000000
  C     -2.811083   -2.138228    0.000000
  N      2.292696    2.045547    0.000000
  N     -1.189731   -0.317431    0.000000
  O     -0.446472   -2.481401    0.000000
  H      1.408310   -1.211468    0.000000
  H     -1.059712    2.307235    0.000000
  H      3.368384    0.294912    0.000000
  H      1.004291    3.652813    0.000000
  H     -2.977485   -2.760972    0.878119
  H     -2.977485   -2.760972   -0.878119
  H     -3.532976   -1.322843    0.000000
  H     -2.031016    0.233980    0.000000

 Total Charge           Charge          ....    0
 Multiplicity           Mult            ....    1
 Number of Electrons    NEL             ....   72
 Basis Dimension        Dim             ....  644

ORBITAL ENERGIES
----------------

  NO   OCC          E(Eh)            E(eV)
   0   2.0000     -20.539673      -558.9129
   1   2.0000     -15.621880      -425.0930
   2   2.0000     -15.556881      -423.3243
   3   2.0000     -11.375633      -309.5467
   4   2.0000     -11.312326      -307.8240
   5   2.0000     -11.276770      -306.8565
   6   2.0000     -11.273445      -306.7660
   7   2.0000     -11.253844      -306.2327
   8   2.0000     -11.241866      -305.9067
   9   2.0000     -11.230765      -305.6046
  10   2.0000      -1.405790       -38.2535
  11   2.0000      -1.280121       -34.8339
  12   2.0000      -1.250539       -34.0289
  13   2.0000      -1.088097       -29.6086
  14   2.0000      -1.036191       -28.1962
  15   2.0000      -1.015961       -27.6457
  16   2.0000      -0.884794       -24.0765
  17   2.0000      -0.866200       -23.5705
  18   2.0000      -0.799532       -21.7564
  19   2.0000      -0.747417       -20.3382
  20   2.0000      -0.698981       -19.0202
  21   2.0000      -0.667331       -18.1590
  22   2.0000      -0.650376       -17.6976
  23   2.0000      -0.639964       -17.4143
  24   2.0000      -0.633549       -17.2398
  25   2.0000      -0.605179       -16.4678
  26   2.0000      -0.595230       -16.1970
  27   2.0000      -0.575588       -15.6625
  28   2.0000      -0.573461       -15.6047
  29   2.0000      -0.530636       -14.4393
  30   2.0000      -0.522765       -14.2252
  31   2.0000      -0.470325       -12.7982
  32   2.0000      -0.446995       -12.1633
  33   2.0000      -0.414828       -11.2881
  34   2.0000      -0.351361        -9.5610
  35   2.0000      -0.347545        -9.4572
  36   0.0000       0.016001         0.4354
  37   0.0000       0.029554         0.8042
  38   0.0000       0.038030         1.0349
  39   0.0000       0.044028         1.1981
  40   0.0000       0.044174         1.2020

MULLIKEN ATOMIC CHARGES
-----------------------
   0 C :   -0.414775
   1 C :   -0.461964
   2 C :   -0.588478
   3 C :   -0.589741
   4 C :    0.909897
   5 C :    0.522392
   6 C :   -0.701624
   7 N :   -0.591474
   8 N :   -0.326722
   9 O :   -0.932436
  10 H :    0.557936
  11 H :    0.298556
  12 H :    0.667933
  13 H :    0.644624
  14 H :    0.309103
  15 H :    0.309103
  16 H :    0.307935
  17 H :    0.079734
Sum of atomic charges:   -0.0000000

LOEWDIN ATOMIC CHARGES
----------------------
   0 C :    0.236996
   1 C :    0.218516
   2 C :    0.012071
   3 C :    0.002708
   4 C :   -0.206262
   5 C :   -0.629301
   6 C :    0.607085
   7 N :    0.363518
   8 N :    0.566205
   9 O :    0.473868
  10 H :   -0.246138
  11 H :   -0.186228
  12 H :   -0.189061
  13 H :   -0.190704
  14 H :   -0.169013
  15 H :   -0.169013
  16 H :   -0.183595
  17 H :   -0.311652

  Mayer bond orders larger than 0.100000
B(  0-C ,  2-C ) :   0.9324 B(  0-C ,  4-C ) :   0.9955 B(  0-C ,  7-N ) :   0.1533
B(  0-C ,  8-N ) :  -0.3701 B(  0-C , 10-H ) :   0.8735 B(  1-C ,  3-C ) :   1.0573
B(  1-C ,  4-C ) :   0.8640 B(  1-C , 11-H ) :   0.9769 B(  2-C ,  3-C ) :   0.2250
B(  2-C ,  4-C ) :  -0.1321 B(  2-C ,  7-N ) :   0.8597 B(  2-C , 12-H ) :   0.4334
B(  3-C ,  7-N ) :   1.0860 B(  3-C , 13-H ) :   0.4481 B(  4-C ,  5-C ) :  -0.2627
B(  4-C ,  8-N ) :   0.6889 B(  4-C ,  9-O ) :   0.2100 B(  5-C ,  6-C ) :   0.4505
B(  5-C ,  8-N ) :   1.0394 B(  5-C ,  9-O ) :   1.4581 B(  6-C ,  9-O ) :  -0.1710
B(  6-C , 14-H ) :   0.9851 B(  6-C , 15-H ) :   0.9851 B(  6-C , 16-H ) :   0.9513
B(  7-N , 12-H ) :  -0.1373 B(  7-N , 13-H ) :  -0.1367 B(  8-N , 17-H ) :   1.1525
B(  9-O , 10-H ) :  -0.1948

MP2 TOTAL ENERGY:     -455.447635615 Eh
FINAL SINGLE POINT ENERGY      -455.447635614820

DIPOLE MOMENT
-------------
                                X             Y             Z
Electronic contribution:      4.75307       1.84912       0.00000
Nuclear contribution   :     -6.75168      -1.58535       0.00000
                        -----------------------------------------
Total Dipole Moment    :     -1.99861       0.26377       0.00000
                        -----------------------------------------
Magnitude (a.u.)       :      2.01594
Magnitude (Debye)      :      5.12411

Rotational constants in cm-1:     0.129422     0.025935     0.021692
Rotational constants in MHz :  3879.988254   777.511115   650.306650

                             ****ORCA TERMINATED NORMALLY****
TOTAL RUN TIME: 0 days 0 hours 10 minutes 24 seconds 774 msec
