                         Program Version 5.0.3 -  RELEASE  -
|  1> !ri-mp2 aug-cc-pvtz aug-cc-pvtz/c tightscf
|  2> %pal nprocs 16 end
|  3> %maxcore 3800
|  4>
|  5> * xyz 0 1
|  6> C      5.737654    0.300711    0.011156
|  7> C      4.448192   -0.518362   -0.011562
|  8> C      3.184431    0.342309    0.009963
|  9> C      1.888085   -0.468013   -0.011393
| 10> C      0.625303    0.394075    0.008474
| 11> C     -0.671025   -0.416506   -0.012685
| 12> C     -1.932920    0.447391    0.006322
| 13> C     -3.228540   -0.365266   -0.019608
| 14> C     -4.476648    0.508022    0.005687
| 15> O     -5.690067   -0.238804   -0.075332
| 16> H      6.619389   -0.341382   -0.006380
| 17> H      5.796144    0.967682   -0.851502
| 18> H      5.795907    0.919276    0.909188
| 19> H      4.433983   -1.199317    0.844790
| 20> H      4.435354   -1.153265   -0.902627
| 21> H      3.198187    0.979052    0.901047
| 22> H      3.198984    1.023585   -0.847491
| 23> H      1.874006   -1.148349    0.846661
| 24> H      1.875740   -1.105201   -0.901950
| 25> H      0.637718    1.031678    0.898752
| 26> H      0.639314    1.073915   -0.849865
| 27> H     -0.686189   -1.095875    0.845940
| 28> H     -0.684331   -1.053895   -0.902720
| 29> H     -1.919452    1.084161    0.897002
| 30> H     -1.916317    1.126849   -0.852022
| 31> H     -3.259860   -0.993407   -0.913658
| 32> H     -3.249682   -1.044442    0.840338
| 33> H     -4.476569    1.142168    0.900551
| 34> H     -4.490512    1.170814   -0.860513
| 35> H     -5.748466   -0.819778    0.688990
| 36> *
| 37>
| 38>                          ****END OF INPUT****

CARTESIAN COORDINATES (ANGSTROEM)
---------------------------------
  C      5.737654    0.300711    0.011156
  C      4.448192   -0.518362   -0.011562
  C      3.184431    0.342309    0.009963
  C      1.888085   -0.468013   -0.011393
  C      0.625303    0.394075    0.008474
  C     -0.671025   -0.416506   -0.012685
  C     -1.932920    0.447391    0.006322
  C     -3.228540   -0.365266   -0.019608
  C     -4.476648    0.508022    0.005687
  O     -5.690067   -0.238804   -0.075332
  H      6.619389   -0.341382   -0.006380
  H      5.796144    0.967682   -0.851502
  H      5.795907    0.919276    0.909188
  H      4.433983   -1.199317    0.844790
  H      4.435354   -1.153265   -0.902627
  H      3.198187    0.979052    0.901047
  H      3.198984    1.023585   -0.847491
  H      1.874006   -1.148349    0.846661
  H      1.875740   -1.105201   -0.901950
  H      0.637718    1.031678    0.898752
  H      0.639314    1.073915   -0.849865
  H     -0.686189   -1.095875    0.845940
  H     -0.684331   -1.053895   -0.902720
  H     -1.919452    1.084161    0.897002
  H     -1.916317    1.126849   -0.852022
  H     -3.259860   -0.993407   -0.913658
  H     -3.249682   -1.044442    0.840338
  H     -4.476569    1.142168    0.900551
  H     -4.490512    1.170814   -0.860513
  H     -5.748466   -0.819778    0.688990

 Total Charge           Charge          ....    0
 Multiplicity           Mult            ....    1
 Number of Electrons    NEL             ....   82
 Basis Dimension        Dim             ....  920

ORBITAL ENERGIES
----------------

  NO   OCC          E(Eh)            E(eV)
   0   2.0000     -20.553443      -559.2876
   1   2.0000     -11.271181      -306.7044
   2   2.0000     -11.221344      -305.3483
   3   2.0000     -11.219774      -305.3056
   4   2.0000     -11.218011      -305.2576
   5   2.0000     -11.216130      -305.2064
   6   2.0000     -11.216083      -305.2051
   7   2.0000     -11.215013      -305.1760
   8   2.0000     -11.214120      -305.1517
   9   2.0000     -11.209972      -305.0388
  10   2.0000      -1.352881       -36.8138
  11   2.0000      -1.096153       -29.8278
  12   2.0000      -1.070769       -29.1371
  13   2.0000      -1.028907       -27.9980
  14   2.0000      -0.973818       -26.4989
  15   2.0000      -0.910745       -24.7826
  16   2.0000      -0.850532       -23.1442
  17   2.0000      -0.808369       -21.9968
  18   2.0000      -0.790490       -21.5103
  19   2.0000      -0.786075       -21.3902
  20   2.0000      -0.688417       -18.7328
  21   2.0000      -0.659023       -17.9329
  22   2.0000      -0.637822       -17.3560
  23   2.0000      -0.612958       -16.6794
  24   2.0000      -0.604127       -16.4391
  25   2.0000      -0.589656       -16.0454
  26   2.0000      -0.580712       -15.8020
  27   2.0000      -0.567325       -15.4377
  28   2.0000      -0.547340       -14.8939
  29   2.0000      -0.534574       -14.5465
  30   2.0000      -0.522017       -14.2048
  31   2.0000      -0.506565       -13.7843
  32   2.0000      -0.493570       -13.4307
  33   2.0000      -0.483250       -13.1499
  34   2.0000      -0.473498       -12.8845
  35   2.0000      -0.469719       -12.7817
  36   2.0000      -0.463791       -12.6204
  37   2.0000      -0.459826       -12.5125
  38   2.0000      -0.458890       -12.4870
  39   2.0000      -0.449662       -12.2359
  40   2.0000      -0.422743       -11.5034
  41   0.0000       0.029399         0.8000
  42   0.0000       0.029722         0.8088
  43   0.0000       0.032915         0.8957
  44   0.0000       0.035829         0.9750
  45   0.0000       0.040789         1.1099

MULLIKEN ATOMIC CHARGES
-----------------------
   0 C :   -1.009801
   1 C :   -0.524243
   2 C :   -0.319633
   3 C :   -0.353898
   4 C :   -0.282270
   5 C :   -0.371581
   6 C :   -0.341562
   7 C :   -0.495456
   8 C :   -0.243310
   9 O :   -0.662284
  10 H :    0.273656
  11 H :    0.260431
  12 H :    0.260009
  13 H :    0.220983
  14 H :    0.220757
  15 H :    0.224911
  16 H :    0.227906
  17 H :    0.220326
  18 H :    0.221860
  19 H :    0.217660
  20 H :    0.215263
  21 H :    0.217619
  22 H :    0.217225
  23 H :    0.231308
  24 H :    0.224322
  25 H :    0.210518
  26 H :    0.221450
  27 H :    0.238801
  28 H :    0.309278
  29 H :    0.169756
Sum of atomic charges:   -0.0000000

LOEWDIN ATOMIC CHARGES
----------------------
   0 C :    0.577737
   1 C :    0.256467
   2 C :    0.269376
   3 C :    0.277902
   4 C :    0.279960
   5 C :    0.279560
   6 C :    0.272166
   7 C :    0.271981
   8 C :    0.036619
   9 O :    0.804905
  10 H :   -0.174355
  11 H :   -0.171807
  12 H :   -0.171848
  13 H :   -0.148265
  14 H :   -0.148176
  15 H :   -0.141592
  16 H :   -0.141572
  17 H :   -0.140091
  18 H :   -0.139937
  19 H :   -0.139646
  20 H :   -0.139544
  21 H :   -0.139875
  22 H :   -0.139269
  23 H :   -0.141006
  24 H :   -0.140243
  25 H :   -0.144283
  26 H :   -0.147401
  27 H :   -0.153915
  28 H :   -0.162925
  29 H :   -0.500921

  Mayer bond orders larger than 0.100000
B(  0-C ,  1-C ) :   0.9355 B(  0-C , 10-H ) :   0.9935 B(  0-C , 11-H ) :   0.9737
B(  0-C , 12-H ) :   0.9742 B(  1-C ,  2-C ) :   0.9212 B(  1-C , 13-H ) :   0.9803
B(  1-C , 14-H ) :   0.9809 B(  2-C ,  3-C ) :   0.9771 B(  2-C , 15-H ) :   0.9678
B(  2-C , 16-H ) :   0.9644 B(  3-C ,  4-C ) :   0.9543 B(  3-C , 17-H ) :   0.9609
B(  3-C , 18-H ) :   0.9585 B(  4-C ,  5-C ) :   0.9702 B(  4-C , 19-H ) :   0.9549
B(  4-C , 20-H ) :   0.9569 B(  5-C ,  6-C ) :   0.9637 B(  5-C , 21-H ) :   0.9682
B(  5-C , 22-H ) :   0.9637 B(  6-C ,  7-C ) :   0.9181 B(  6-C ,  8-C ) :  -0.1045
B(  6-C , 23-H ) :   0.9488 B(  6-C , 24-H ) :   0.9614 B(  7-C ,  8-C ) :   0.9997
B(  7-C , 25-H ) :   0.9671 B(  7-C , 26-H ) :   0.9702 B(  8-C ,  9-O ) :   0.7311
B(  8-C , 27-H ) :   1.0190 B(  8-C , 28-H ) :   0.9385 B(  9-O , 29-H ) :   0.9975

MP2 TOTAL ENERGY:     -429.332438731 Eh
FINAL SINGLE POINT ENERGY      -429.332438731289

DIPOLE MOMENT
-------------
                                X             Y             Z
Electronic contribution:    -12.19088      -0.66629      -0.26218
Nuclear contribution   :     12.79309       0.59836       0.72950
                        -----------------------------------------
Total Dipole Moment    :      0.60221      -0.06793       0.46732
                        -----------------------------------------
Magnitude (a.u.)       :      0.76528
Magnitude (Debye)      :      1.94519

Rotational constants in cm-1:     0.297782     0.008289     0.008178
Rotational constants in MHz :  8927.281889   248.500804   245.172922

                             ****ORCA TERMINATED NORMALLY****
TOTAL RUN TIME: 0 days 0 hours 20 minutes 7 seconds 949 msec
