                         Program Version 5.0.3 -  RELEASE  -
|  1> !ri-mp2 aug-cc-pvtz aug-cc-pvtz/c tightscf
|  2> %pal nprocs 16 end
|  3>
|  4> * xyz 0 1
|  5> C     -1.389634    0.299814   -0.198766
|  6> C      1.952053   -0.334792   -0.368307
|  7> N     -0.126016    0.752446    0.062428
|  8> N      0.873407   -0.070871    0.575294
|  9> O     -1.831251   -0.798313    0.032910
| 10> H     -1.989676    1.107143   -0.659469
| 11> H      2.420897    0.574948   -0.769208
| 12> H      1.565322   -0.922739   -1.199271
| 13> H      2.715072   -0.922090    0.141351
| 14> H      0.119098    1.672856   -0.284035
| 15> H      1.213038    0.315233    1.445736
| 16> *
| 17>
| 18>                          ****END OF INPUT****

CARTESIAN COORDINATES (ANGSTROEM)
---------------------------------
  C     -1.389634    0.299814   -0.198766
  C      1.952053   -0.334792   -0.368307
  N     -0.126016    0.752446    0.062428
  N      0.873407   -0.070871    0.575294
  O     -1.831251   -0.798313    0.032910
  H     -1.989676    1.107143   -0.659469
  H      2.420897    0.574948   -0.769208
  H      1.565322   -0.922739   -1.199271
  H      2.715072   -0.922090    0.141351
  H      0.119098    1.672856   -0.284035
  H      1.213038    0.315233    1.445736

 Total Charge           Charge          ....    0
 Multiplicity           Mult            ....    1
 Number of Electrons    NEL             ....   40
 Basis Dimension        Dim             ....  368

ORBITAL ENERGIES
----------------

  NO   OCC          E(Eh)            E(eV)
   0   2.0000     -20.524980      -558.5131
   1   2.0000     -15.619142      -425.0185
   2   2.0000     -15.597951      -424.4418
   3   2.0000     -11.349148      -308.8260
   4   2.0000     -11.260852      -306.4234
   5   2.0000      -1.388662       -37.7874
   6   2.0000      -1.310126       -35.6503
   7   2.0000      -1.116162       -30.3723
   8   2.0000      -0.927267       -25.2322
   9   2.0000      -0.816772       -22.2255
  10   2.0000      -0.758893       -20.6505
  11   2.0000      -0.688860       -18.7448
  12   2.0000      -0.651567       -17.7300
  13   2.0000      -0.612464       -16.6660
  14   2.0000      -0.592801       -16.1309
  15   2.0000      -0.553465       -15.0605
  16   2.0000      -0.548104       -14.9147
  17   2.0000      -0.430216       -11.7068
  18   2.0000      -0.413125       -11.2417
  19   2.0000      -0.405747       -11.0409
  20   0.0000       0.020198         0.5496
  21   0.0000       0.033958         0.9240
  22   0.0000       0.039760         1.0819
  23   0.0000       0.043937         1.1956
  24   0.0000       0.058170         1.5829

MULLIKEN ATOMIC CHARGES
-----------------------
   0 C :   -0.105152
   1 C :   -0.809467
   2 N :    0.080282
   3 N :   -0.241975
   4 O :   -0.636554
   5 H :    0.557026
   6 H :    0.321856
   7 H :    0.343065
   8 H :    0.359762
   9 H :    0.064522
  10 H :    0.066635
Sum of atomic charges:    0.0000000

LOEWDIN ATOMIC CHARGES
----------------------
   0 C :   -0.383246
   1 C :    0.468104
   2 N :    0.391975
   3 N :    0.438451
   4 O :    0.395360
   5 H :   -0.188447
   6 H :   -0.171525
   7 H :   -0.173761
   8 H :   -0.174693
   9 H :   -0.293380
  10 H :   -0.308838

  Mayer bond orders larger than 0.100000
B(  0-C ,  2-N ) :   1.1601 B(  0-C ,  4-O ) :   1.7124 B(  0-C ,  5-H ) :   0.5971
B(  1-C ,  3-N ) :   0.8688 B(  1-C ,  6-H ) :   0.8934 B(  1-C ,  7-H ) :   0.8863
B(  1-C ,  8-H ) :   0.8843 B(  2-N ,  3-N ) :   0.7751 B(  2-N ,  9-H ) :   1.0827
B(  3-N , 10-H ) :   1.0263

MP2 TOTAL ENERGY:     -264.055228414 Eh
FINAL SINGLE POINT ENERGY      -264.055228413970

DIPOLE MOMENT
-------------
                                X             Y             Z
Electronic contribution:     -4.79291      -0.28852       1.06973
Nuclear contribution   :      6.10376       1.84227      -1.33917
                        -----------------------------------------
Total Dipole Moment    :      1.31085       1.55375      -0.26944
                        -----------------------------------------
Magnitude (a.u.)       :      2.05062
Magnitude (Debye)      :      5.21227

Rotational constants in cm-1:     0.441999     0.101591     0.093072
Rotational constants in MHz : 13250.799287  3045.609840  2790.239884

                             ****ORCA TERMINATED NORMALLY****
TOTAL RUN TIME: 0 days 0 hours 1 minutes 42 seconds 167 msec
