                         Program Version 5.0.3 -  RELEASE  -
|  1> !ri-mp2 aug-cc-pvtz aug-cc-pvtz/c tightscf
|  2> %pal nprocs 16 end
|  3>
|  4> * xyz 0 1
|  5> C     0.000000     0.000000    1.353978
|  6> C     0.000000     1.120429    0.272438
|  7> C     0.000000    -1.120429    0.272438
|  8> C     1.240122     0.664758   -0.520057
|  9> C     1.240122    -0.664758   -0.520057
| 10> C    -1.240122     0.664758   -0.520057
| 11> C    -1.240122    -0.664758   -0.520057
| 12> H    -0.896605     0.000000    1.972745
| 13> H     0.896605     0.000000    1.972745
| 14> H     0.000000     2.152954    0.608976
| 15> H     0.000000    -2.152954    0.608976
| 16> H     1.927551     1.330663   -1.018798
| 17> H     1.927551    -1.330663   -1.018798
| 18> H    -1.927551     1.330663   -1.018798
| 19> H    -1.927551    -1.330663   -1.018798
| 20> *
| 21>
| 22>                          ****END OF INPUT****

CARTESIAN COORDINATES (ANGSTROEM)
---------------------------------
  C      0.000000    0.000000    1.353978
  C      0.000000    1.120429    0.272438
  C      0.000000   -1.120429    0.272438
  C      1.240122    0.664758   -0.520057
  C      1.240122   -0.664758   -0.520057
  C     -1.240122    0.664758   -0.520057
  C     -1.240122   -0.664758   -0.520057
  H     -0.896605    0.000000    1.972745
  H      0.896605    0.000000    1.972745
  H      0.000000    2.152954    0.608976
  H      0.000000   -2.152954    0.608976
  H      1.927551    1.330663   -1.018798
  H      1.927551   -1.330663   -1.018798
  H     -1.927551    1.330663   -1.018798
  H     -1.927551   -1.330663   -1.018798

 Total Charge           Charge          ....    0
 Multiplicity           Mult            ....    1
 Number of Electrons    NEL             ....   50
 Basis Dimension        Dim             ....  506

ORBITAL ENERGIES
----------------

  NO   OCC          E(Eh)            E(eV)
   0   2.0000     -11.236473      -305.7600
   1   2.0000     -11.236468      -305.7599
   2   2.0000     -11.224038      -305.4216
   3   2.0000     -11.221010      -305.3392
   4   2.0000     -11.220984      -305.3385
   5   2.0000     -11.219226      -305.2907
   6   2.0000     -11.219210      -305.2902
   7   2.0000      -1.184742       -32.2385
   8   2.0000      -1.016786       -27.6682
   9   2.0000      -0.957722       -26.0609
  10   2.0000      -0.943911       -25.6851
  11   2.0000      -0.773655       -21.0522
  12   2.0000      -0.760291       -20.6886
  13   2.0000      -0.703249       -19.1364
  14   2.0000      -0.687942       -18.7199
  15   2.0000      -0.649882       -17.6842
  16   2.0000      -0.579744       -15.7756
  17   2.0000      -0.529251       -14.4016
  18   2.0000      -0.521767       -14.1980
  19   2.0000      -0.513640       -13.9768
  20   2.0000      -0.490551       -13.3486
  21   2.0000      -0.460338       -12.5264
  22   2.0000      -0.459625       -12.5070
  23   2.0000      -0.361197        -9.8287
  24   2.0000      -0.320037        -8.7086
  25   0.0000       0.029256         0.7961
  26   0.0000       0.032936         0.8962
  27   0.0000       0.036711         0.9990
  28   0.0000       0.038398         1.0449
  29   0.0000       0.049648         1.3510

MULLIKEN ATOMIC CHARGES
-----------------------
   0 C :   -0.734117
   1 C :   -0.173559
   2 C :   -0.173559
   3 C :   -0.671891
   4 C :   -0.671891
   5 C :   -0.671891
   6 C :   -0.671891
   7 H :    0.350997
   8 H :    0.350997
   9 H :    0.529470
  10 H :    0.529470
  11 H :    0.501966
  12 H :    0.501966
  13 H :    0.501966
  14 H :    0.501966
Sum of atomic charges:   -0.0000000

LOEWDIN ATOMIC CHARGES
----------------------
   0 C :    0.303861
   1 C :   -0.001505
   2 C :   -0.001505
   3 C :    0.244632
   4 C :    0.244632
   5 C :    0.244632
   6 C :    0.244632
   7 H :   -0.143855
   8 H :   -0.143855
   9 H :   -0.143110
  10 H :   -0.143110
  11 H :   -0.176362
  12 H :   -0.176362
  13 H :   -0.176362
  14 H :   -0.176362

  Mayer bond orders larger than 0.100000
B(  0-C ,  1-C ) :   1.1100 B(  0-C ,  2-C ) :   1.1100 B(  0-C ,  7-H ) :   0.8677
B(  0-C ,  8-H ) :   0.8677 B(  1-C ,  3-C ) :   0.8951 B(  1-C ,  5-C ) :   0.8951
B(  1-C ,  9-H ) :   0.7419 B(  2-C ,  4-C ) :   0.8951 B(  2-C ,  6-C ) :   0.8951
B(  2-C , 10-H ) :   0.7419 B(  3-C ,  4-C ) :   1.5053 B(  3-C ,  5-C ) :   0.2031
B(  3-C , 11-H ) :   0.7612 B(  4-C ,  6-C ) :   0.2031 B(  4-C , 12-H ) :   0.7612
B(  5-C ,  6-C ) :   1.5053 B(  5-C , 13-H ) :   0.7612 B(  6-C , 14-H ) :   0.7612

MP2 TOTAL ENERGY:     -270.899094755 Eh
FINAL SINGLE POINT ENERGY      -270.899094754703

DIPOLE MOMENT
-------------
                                X             Y             Z
Electronic contribution:      0.00000       0.00000      -1.08885
Nuclear contribution   :      0.00000       0.00000       1.10907
                        -----------------------------------------
Total Dipole Moment    :      0.00000       0.00000       0.02022
                        -----------------------------------------
Magnitude (a.u.)       :      0.02022
Magnitude (Debye)      :      0.05140

Rotational constants in cm-1:     0.143551     0.120369     0.106452
Rotational constants in MHz :  4303.562731  3608.559784  3191.346092

                             ****ORCA TERMINATED NORMALLY****
TOTAL RUN TIME: 0 days 0 hours 4 minutes 38 seconds 95 msec
