                         Program Version 5.0.3 -  RELEASE  -
|  1> !ri-mp2 aug-cc-pvtz aug-cc-pvtz/c tightscf
|  2> %pal nprocs 16 end
|  3>
|  4> * xyz 0 1
|  5> C     -0.187905    0.651224    0.062869
|  6> C      0.516351    1.963676    0.319752
|  7> C     -2.243533   -0.480238   -0.361032
|  8> C      0.408532   -1.679218    0.623345
|  9> C      2.013376   -0.300958   -0.547808
| 10> N     -1.463119    0.665717    0.054242
| 11> N      0.620090   -0.477546   -0.174016
| 12> H     -0.225648    2.696922    0.619317
| 13> H      1.012868    2.331307   -0.580297
| 14> H      1.278208    1.872960    1.096432
| 15> H     -3.133483   -0.114305   -0.874912
| 16> H     -2.599264   -1.057251    0.498552
| 17> H     -1.707657   -1.161888   -1.031043
| 18> H      1.084452   -1.699902    1.489156
| 19> H      0.600243   -2.572869    0.025300
| 20> H     -0.607803   -1.727617    0.994091
| 21> H      2.367240   -1.220180   -1.017111
| 22> H      2.668083   -0.091653    0.309584
| 23> H      2.123038    0.500365   -1.273403
| 24> *
| 25>
| 26>                          ****END OF INPUT****

CARTESIAN COORDINATES (ANGSTROEM)
---------------------------------
  C     -0.187905    0.651224    0.062869
  C      0.516351    1.963676    0.319752
  C     -2.243533   -0.480238   -0.361032
  C      0.408532   -1.679218    0.623345
  C      2.013376   -0.300958   -0.547808
  N     -1.463119    0.665717    0.054242
  N      0.620090   -0.477546   -0.174016
  H     -0.225648    2.696922    0.619317
  H      1.012868    2.331307   -0.580297
  H      1.278208    1.872960    1.096432
  H     -3.133483   -0.114305   -0.874912
  H     -2.599264   -1.057251    0.498552
  H     -1.707657   -1.161888   -1.031043
  H      1.084452   -1.699902    1.489156
  H      0.600243   -2.572869    0.025300
  H     -0.607803   -1.727617    0.994091
  H      2.367240   -1.220180   -1.017111
  H      2.668083   -0.091653    0.309584
  H      2.123038    0.500365   -1.273403

 Total Charge           Charge          ....    0
 Multiplicity           Mult            ....    1
 Number of Electrons    NEL             ....   56
 Basis Dimension        Dim             ....  598

ORBITAL ENERGIES
----------------

  NO   OCC          E(Eh)            E(eV)
   0   2.0000     -15.566859      -423.5958
   1   2.0000     -15.522316      -422.3837
   2   2.0000     -11.302312      -307.5515
   3   2.0000     -11.257508      -306.3324
   4   2.0000     -11.255714      -306.2836
   5   2.0000     -11.230175      -305.5886
   6   2.0000     -11.219399      -305.2954
   7   2.0000      -1.270296       -34.5665
   8   2.0000      -1.175151       -31.9775
   9   2.0000      -1.009365       -27.4662
  10   2.0000      -0.962580       -26.1931
  11   2.0000      -0.913466       -24.8567
  12   2.0000      -0.885627       -24.0991
  13   2.0000      -0.724397       -19.7119
  14   2.0000      -0.658657       -17.9230
  15   2.0000      -0.653396       -17.7798
  16   2.0000      -0.639608       -17.4046
  17   2.0000      -0.586606       -15.9624
  18   2.0000      -0.573390       -15.6027
  19   2.0000      -0.570316       -15.5191
  20   2.0000      -0.553971       -15.0743
  21   2.0000      -0.550758       -14.9869
  22   2.0000      -0.538252       -14.6466
  23   2.0000      -0.530049       -14.4234
  24   2.0000      -0.509267       -13.8579
  25   2.0000      -0.423813       -11.5325
  26   2.0000      -0.385001       -10.4764
  27   2.0000      -0.334773        -9.1096
  28   0.0000       0.026902         0.7320
  29   0.0000       0.034665         0.9433
  30   0.0000       0.037019         1.0073
  31   0.0000       0.039772         1.0823
  32   0.0000       0.052721         1.4346

MULLIKEN ATOMIC CHARGES
-----------------------
   0 C :    0.202428
   1 C :   -0.826074
   2 C :   -0.921848
   3 C :   -1.088521
   4 C :   -1.037416
   5 N :   -0.529315
   6 N :    0.353532
   7 H :    0.289543
   8 H :    0.293749
   9 H :    0.257236
  10 H :    0.310038
  11 H :    0.309310
  12 H :    0.354963
  13 H :    0.233057
  14 H :    0.349837
  15 H :    0.453530
  16 H :    0.294790
  17 H :    0.348549
  18 H :    0.352611
Sum of atomic charges:    0.0000000

LOEWDIN ATOMIC CHARGES
----------------------
   0 C :   -0.411185
   1 C :    0.574429
   2 C :    0.370551
   3 C :    0.472569
   4 C :    0.456869
   5 N :    0.392740
   6 N :    0.247489
   7 H :   -0.185850
   8 H :   -0.176020
   9 H :   -0.169568
  10 H :   -0.189586
  11 H :   -0.188167
  12 H :   -0.188686
  13 H :   -0.148077
  14 H :   -0.153795
  15 H :   -0.212392
  16 H :   -0.161924
  17 H :   -0.152819
  18 H :   -0.176577

  Mayer bond orders larger than 0.100000
B(  0-C ,  1-C ) :   0.6792 B(  0-C ,  5-N ) :   1.1678 B(  0-C ,  6-N ) :   0.8015
B(  1-C ,  6-N ) :  -0.1279 B(  1-C ,  7-H ) :   0.9373 B(  1-C ,  8-H ) :   0.9954
B(  1-C ,  9-H ) :   1.0255 B(  2-C ,  5-N ) :   0.8753 B(  2-C , 10-H ) :   0.9654
B(  2-C , 11-H ) :   0.9056 B(  2-C , 12-H ) :   0.8845 B(  3-C ,  6-N ) :   0.9192
B(  3-C , 13-H ) :   1.0350 B(  3-C , 14-H ) :   0.9030 B(  3-C , 15-H ) :   0.7711
B(  4-C ,  6-N ) :   0.8821 B(  4-C , 16-H ) :   0.9750 B(  4-C , 17-H ) :   0.9056
B(  4-C , 18-H ) :   0.9243 B(  5-N ,  6-N ) :  -0.1800

MP2 TOTAL ENERGY:     -306.601607992 Eh
FINAL SINGLE POINT ENERGY      -306.601607991766

DIPOLE MOMENT
-------------
                                X             Y             Z
Electronic contribution:     -2.03091       1.83179      -0.25388
Nuclear contribution   :      2.99806      -2.35513       0.26771
                        -----------------------------------------
Total Dipole Moment    :      0.96715      -0.52334       0.01383
                        -----------------------------------------
Magnitude (a.u.)       :      1.09976
Magnitude (Debye)      :      2.79536

Rotational constants in cm-1:     0.110230     0.078878     0.052122
Rotational constants in MHz :  3304.615563  2364.714579  1562.564508

                             ****ORCA TERMINATED NORMALLY****
TOTAL RUN TIME: 0 days 0 hours 7 minutes 55 seconds 259 msec
