                         Program Version 5.0.3 -  RELEASE  -
|  1> !ri-mp2 aug-cc-pvtz aug-cc-pvtz/c tightscf
|  2> %pal nprocs 16 end
|  3>
|  4> * xyz 0 1
|  5> C      0.000000    0.400135    0.000000
|  6> C     -0.559646    1.800763    0.000000
|  7> C      1.512118    0.333612    0.000000
|  8> C     -0.421806   -1.955288    0.000000
|  9> N     -0.823365   -0.565462    0.000000
| 10> H     -0.214550    2.354611    0.877083
| 11> H     -0.214550    2.354611   -0.877083
| 12> H     -1.645869    1.770131    0.000000
| 13> H      1.903128    0.856799    0.875493
| 14> H      1.903128    0.856799   -0.875493
| 15> H      1.909280   -0.676287    0.000000
| 16> H     -0.857799   -2.442000   -0.874888
| 17> H     -0.857799   -2.442000    0.874888
| 18> H      0.654591   -2.149764    0.000000
| 19> *
| 20>
| 21>                          ****END OF INPUT****

CARTESIAN COORDINATES (ANGSTROEM)
---------------------------------
  C      0.000000    0.400135    0.000000
  C     -0.559646    1.800763    0.000000
  C      1.512118    0.333612    0.000000
  C     -0.421806   -1.955288    0.000000
  N     -0.823365   -0.565462    0.000000
  H     -0.214550    2.354611    0.877083
  H     -0.214550    2.354611   -0.877083
  H     -1.645869    1.770131    0.000000
  H      1.903128    0.856799    0.875493
  H      1.903128    0.856799   -0.875493
  H      1.909280   -0.676287    0.000000
  H     -0.857799   -2.442000   -0.874888
  H     -0.857799   -2.442000    0.874888
  H      0.654591   -2.149764    0.000000

 Total Charge           Charge          ....    0
 Multiplicity           Mult            ....    1
 Number of Electrons    NEL             ....   40
 Basis Dimension        Dim             ....  437

ORBITAL ENERGIES
----------------

  NO   OCC          E(Eh)            E(eV)
   0   2.0000     -15.540505      -422.8786
   1   2.0000     -11.277037      -306.8638
   2   2.0000     -11.237675      -305.7927
   3   2.0000     -11.228522      -305.5436
   4   2.0000     -11.216468      -305.2156
   5   2.0000      -1.220741       -33.2181
   6   2.0000      -1.029336       -28.0096
   7   2.0000      -0.954913       -25.9845
   8   2.0000      -0.910923       -24.7875
   9   2.0000      -0.708121       -19.2689
  10   2.0000      -0.643915       -17.5218
  11   2.0000      -0.620812       -16.8931
  12   2.0000      -0.610002       -16.5990
  13   2.0000      -0.567209       -15.4346
  14   2.0000      -0.544749       -14.8234
  15   2.0000      -0.543201       -14.7813
  16   2.0000      -0.524820       -14.2811
  17   2.0000      -0.511347       -13.9144
  18   2.0000      -0.388286       -10.5658
  19   2.0000      -0.382173       -10.3995
  20   0.0000       0.028659         0.7799
  21   0.0000       0.037102         1.0096
  22   0.0000       0.040977         1.1150
  23   0.0000       0.041964         1.1419
  24   0.0000       0.056882         1.5478

MULLIKEN ATOMIC CHARGES
-----------------------
   0 C :    0.462049
   1 C :   -0.919756
   2 C :   -0.923585
   3 C :   -0.839130
   4 N :   -0.556538
   5 H :    0.281200
   6 H :    0.281200
   7 H :    0.300798
   8 H :    0.274628
   9 H :    0.274628
  10 H :    0.351960
  11 H :    0.315962
  12 H :    0.315962
  13 H :    0.380623
Sum of atomic charges:   -0.0000000

LOEWDIN ATOMIC CHARGES
----------------------
   0 C :   -0.292930
   1 C :    0.561804
   2 C :    0.594731
   3 C :    0.399426
   4 N :    0.389401
   5 H :   -0.172318
   6 H :   -0.172318
   7 H :   -0.186309
   8 H :   -0.164986
   9 H :   -0.164986
  10 H :   -0.208917
  11 H :   -0.184627
  12 H :   -0.184627
  13 H :   -0.213344

  Mayer bond orders larger than 0.100000
B(  0-C ,  1-C ) :   0.7048 B(  0-C ,  2-C ) :   0.9345 B(  0-C ,  4-N ) :   1.2120
B(  1-C ,  2-C ) :   0.1122 B(  1-C ,  5-H ) :   0.9905 B(  1-C ,  6-H ) :   0.9905
B(  1-C ,  7-H ) :   0.9157 B(  2-C ,  8-H ) :   0.9780 B(  2-C ,  9-H ) :   0.9780
B(  2-C , 10-H ) :   0.8733 B(  3-C ,  4-N ) :   0.8186 B(  3-C , 11-H ) :   0.9244
B(  3-C , 12-H ) :   0.9244 B(  3-C , 13-H ) :   0.8627

MP2 TOTAL ENERGY:     -212.127548534 Eh
FINAL SINGLE POINT ENERGY      -212.127548534381

DIPOLE MOMENT
-------------
                                X             Y             Z
Electronic contribution:     -1.92501      -0.33934       0.00000
Nuclear contribution   :      2.71953       0.50655       0.00000
                        -----------------------------------------
Total Dipole Moment    :      0.79452       0.16721       0.00000
                        -----------------------------------------
Magnitude (a.u.)       :      0.81192
Magnitude (Debye)      :      2.06374

Rotational constants in cm-1:     0.275005     0.127689     0.091597
Rotational constants in MHz :  8244.455337  3828.030930  2746.005976

                             ****ORCA TERMINATED NORMALLY****
TOTAL RUN TIME: 0 days 0 hours 2 minutes 47 seconds 869 msec
