                         Program Version 5.0.3 -  RELEASE  -
|  1> !ri-mp2 aug-cc-pvtz aug-cc-pvtz/c tightscf
|  2> %pal nprocs 16 end
|  3>
|  4> * xyz 0 1
|  5> C      0.691531   -0.351810   -0.035843
|  6> C      1.785942    0.685648    0.044153
|  7> C     -1.753536   -0.709923    0.070079
|  8> N     -0.596467    0.122694   -0.200791
|  9> O      0.907289   -1.549850   -0.004258
| 10> O     -0.805591    1.479569    0.133264
| 11> H      2.738393    0.164728    0.040895
| 12> H      1.688929    1.273709    0.956539
| 13> H      1.741301    1.381719   -0.792856
| 14> H     -2.070590   -0.610444    1.110769
| 15> H     -1.471281   -1.739112   -0.127674
| 16> H     -2.574605   -0.421529   -0.584996
| 17> H     -1.034080    1.910829   -0.699522
| 18> *
| 19>
| 20>                          ****END OF INPUT****

CARTESIAN COORDINATES (ANGSTROEM)
---------------------------------
  C      0.691531   -0.351810   -0.035843
  C      1.785942    0.685648    0.044153
  C     -1.753536   -0.709923    0.070079
  N     -0.596467    0.122694   -0.200791
  O      0.907289   -1.549850   -0.004258
  O     -0.805591    1.479569    0.133264
  H      2.738393    0.164728    0.040895
  H      1.688929    1.273709    0.956539
  H      1.741301    1.381719   -0.792856
  H     -2.070590   -0.610444    1.110769
  H     -1.471281   -1.739112   -0.127674
  H     -2.574605   -0.421529   -0.584996
  H     -1.034080    1.910829   -0.699522

 Total Charge           Charge          ....    0
 Multiplicity           Mult            ....    1
 Number of Electrons    NEL             ....   48
 Basis Dimension        Dim             ....  437

ORBITAL ENERGIES
----------------

  NO   OCC          E(Eh)            E(eV)
   0   2.0000     -20.622681      -561.1717
   1   2.0000     -20.526669      -558.5591
   2   2.0000     -15.639883      -425.5829
   3   2.0000     -11.356502      -309.0261
   4   2.0000     -11.261792      -306.4489
   5   2.0000     -11.234924      -305.7178
   6   2.0000      -1.448772       -39.4231
   7   2.0000      -1.378603       -37.5137
   8   2.0000      -1.165311       -31.7097
   9   2.0000      -1.022935       -27.8355
  10   2.0000      -0.934810       -25.4375
  11   2.0000      -0.776552       -21.1311
  12   2.0000      -0.724036       -19.7020
  13   2.0000      -0.687077       -18.6963
  14   2.0000      -0.668087       -18.1796
  15   2.0000      -0.605199       -16.4683
  16   2.0000      -0.588260       -16.0074
  17   2.0000      -0.586272       -15.9533
  18   2.0000      -0.571859       -15.5611
  19   2.0000      -0.550781       -14.9875
  20   2.0000      -0.525916       -14.3109
  21   2.0000      -0.511967       -13.9313
  22   2.0000      -0.429133       -11.6773
  23   2.0000      -0.392941       -10.6925
  24   0.0000       0.023011         0.6262
  25   0.0000       0.036083         0.9819
  26   0.0000       0.040741         1.1086
  27   0.0000       0.044800         1.2191
  28   0.0000       0.056158         1.5281

MULLIKEN ATOMIC CHARGES
-----------------------
   0 C :    0.213308
   1 C :   -0.597324
   2 C :   -0.882358
   3 N :    0.337591
   4 O :   -0.740892
   5 O :   -0.510181
   6 H :    0.287234
   7 H :    0.308752
   8 H :    0.305170
   9 H :    0.340478
  10 H :    0.417337
  11 H :    0.327523
  12 H :    0.193363
Sum of atomic charges:   -0.0000000

LOEWDIN ATOMIC CHARGES
----------------------
   0 C :   -0.689260
   1 C :    0.578669
   2 C :    0.473378
   3 N :    0.004906
   4 O :    0.443969
   5 O :    0.744263
   6 H :   -0.186877
   7 H :   -0.178155
   8 H :   -0.178749
   9 H :   -0.161121
  10 H :   -0.198580
  11 H :   -0.172802
  12 H :   -0.479641

  Mayer bond orders larger than 0.100000
B(  0-C ,  1-C ) :   0.6325 B(  0-C ,  3-N ) :   1.0675 B(  0-C ,  4-O ) :   1.4256
B(  1-C ,  6-H ) :   0.9761 B(  1-C ,  7-H ) :   0.9279 B(  1-C ,  8-H ) :   0.9339
B(  2-C ,  3-N ) :   0.8566 B(  2-C ,  9-H ) :   0.9019 B(  2-C , 10-H ) :   0.8270
B(  2-C , 11-H ) :   0.9157 B(  3-N ,  5-O ) :   0.7185 B(  5-O , 12-H ) :   1.0234

MP2 TOTAL ENERGY:     -323.136291082 Eh
FINAL SINGLE POINT ENERGY      -323.136291082283

DIPOLE MOMENT
-------------
                                X             Y             Z
Electronic contribution:      0.42666      -0.80414      -0.30348
Nuclear contribution   :     -0.99546       1.98268      -0.09712
                        -----------------------------------------
Total Dipole Moment    :     -0.56880       1.17854      -0.40061
                        -----------------------------------------
Magnitude (a.u.)       :      1.36857
Magnitude (Debye)      :      3.47863

Rotational constants in cm-1:     0.167261     0.117604     0.071745
Rotational constants in MHz :  5014.345080  3525.686908  2150.847916

                             ****ORCA TERMINATED NORMALLY****
TOTAL RUN TIME: 0 days 0 hours 3 minutes 0 seconds 130 msec
