                         Program Version 5.0.3 -  RELEASE  -
|  1> !ri-mp2 aug-cc-pvtz aug-cc-pvtz/c tightscf
|  2> %pal nprocs 16 end
|  3> %maxcore 3800
|  4>
|  5> * xyz 0 1
|  6> O      3.657272   -0.908486    0.267264
|  7> N      2.280419   -1.049466   -0.034086
|  8> C      1.723395    0.078313   -0.240657
|  9> C      0.252045    0.045182   -0.552072
| 10> C     -0.612702    0.655783    0.563633
| 11> C      2.452308    1.390511   -0.181512
| 12> C     -2.104484    0.739914    0.222819
| 13> C     -2.812872   -0.610021    0.085967
| 14> C     -4.311099   -0.469861   -0.179030
| 15> H      3.935602   -1.821933    0.382506
| 16> H      0.079088    0.601638   -1.480057
| 17> H     -0.033680   -0.989673   -0.733020
| 18> H     -0.477778    0.065952    1.474702
| 19> H     -0.249404    1.660864    0.792252
| 20> H      1.801297    2.215730   -0.461660
| 21> H      3.314651    1.372956   -0.848863
| 22> H      2.840303    1.572750    0.821967
| 23> H     -2.605873    1.318775    1.004289
| 24> H     -2.232338    1.310663   -0.703449
| 25> H     -2.358845   -1.189949   -0.720907
| 26> H     -2.656457   -1.188678    1.001435
| 27> H     -4.805958    0.071843    0.629774
| 28> H     -4.498308    0.078583   -1.104556
| 29> H     -4.792947   -1.444298   -0.268812
| 30> *
| 31>
| 32>                          ****END OF INPUT****

CARTESIAN COORDINATES (ANGSTROEM)
---------------------------------
  O      3.657272   -0.908486    0.267264
  N      2.280419   -1.049466   -0.034086
  C      1.723395    0.078313   -0.240657
  C      0.252045    0.045182   -0.552072
  C     -0.612702    0.655783    0.563633
  C      2.452308    1.390511   -0.181512
  C     -2.104484    0.739914    0.222819
  C     -2.812872   -0.610021    0.085967
  C     -4.311099   -0.469861   -0.179030
  H      3.935602   -1.821933    0.382506
  H      0.079088    0.601638   -1.480057
  H     -0.033680   -0.989673   -0.733020
  H     -0.477778    0.065952    1.474702
  H     -0.249404    1.660864    0.792252
  H      1.801297    2.215730   -0.461660
  H      3.314651    1.372956   -0.848863
  H      2.840303    1.572750    0.821967
  H     -2.605873    1.318775    1.004289
  H     -2.232338    1.310663   -0.703449
  H     -2.358845   -1.189949   -0.720907
  H     -2.656457   -1.188678    1.001435
  H     -4.805958    0.071843    0.629774
  H     -4.498308    0.078583   -1.104556
  H     -4.792947   -1.444298   -0.268812

 Total Charge           Charge          ....    0
 Multiplicity           Mult            ....    1
 Number of Electrons    NEL             ....   72
 Basis Dimension        Dim             ....  759

ORBITAL ENERGIES
----------------

  NO   OCC          E(Eh)            E(eV)
   0   2.0000     -20.585574      -560.1619
   1   2.0000     -15.605387      -424.6442
   2   2.0000     -11.274585      -306.7970
   3   2.0000     -11.229582      -305.5724
   4   2.0000     -11.226757      -305.4956
   5   2.0000     -11.225601      -305.4641
   6   2.0000     -11.220656      -305.3296
   7   2.0000     -11.218565      -305.2727
   8   2.0000     -11.212092      -305.0965
   9   2.0000      -1.406493       -38.2726
  10   2.0000      -1.168821       -31.8052
  11   2.0000      -1.084272       -29.5045
  12   2.0000      -1.022347       -27.8195
  13   2.0000      -0.979592       -26.6561
  14   2.0000      -0.932866       -25.3846
  15   2.0000      -0.846731       -23.0407
  16   2.0000      -0.785900       -21.3854
  17   2.0000      -0.728762       -19.8306
  18   2.0000      -0.688174       -18.7262
  19   2.0000      -0.657256       -17.8848
  20   2.0000      -0.636531       -17.3209
  21   2.0000      -0.614476       -16.7207
  22   2.0000      -0.597099       -16.2479
  23   2.0000      -0.586974       -15.9724
  24   2.0000      -0.572310       -15.5733
  25   2.0000      -0.555456       -15.1147
  26   2.0000      -0.546513       -14.8714
  27   2.0000      -0.543198       -14.7812
  28   2.0000      -0.512583       -13.9481
  29   2.0000      -0.507307       -13.8045
  30   2.0000      -0.492084       -13.3903
  31   2.0000      -0.468319       -12.7436
  32   2.0000      -0.465501       -12.6669
  33   2.0000      -0.454756       -12.3745
  34   2.0000      -0.424734       -11.5576
  35   2.0000      -0.375131       -10.2078
  36   0.0000       0.029127         0.7926
  37   0.0000       0.032468         0.8835
  38   0.0000       0.035753         0.9729
  39   0.0000       0.036341         0.9889
  40   0.0000       0.046344         1.2611

MULLIKEN ATOMIC CHARGES
-----------------------
   0 O :   -0.404560
   1 N :   -0.591120
   2 C :    0.288675
   3 C :    0.049725
   4 C :   -0.487165
   5 C :   -0.725414
   6 C :   -0.419559
   7 C :   -0.419918
   8 C :   -0.986210
   9 H :    0.163616
  10 H :    0.245321
  11 H :    0.265288
  12 H :    0.174453
  13 H :    0.207540
  14 H :    0.275618
  15 H :    0.303905
  16 H :    0.273516
  17 H :    0.305490
  18 H :    0.198893
  19 H :    0.278323
  20 H :    0.213193
  21 H :    0.253889
  22 H :    0.262446
  23 H :    0.274055
Sum of atomic charges:    0.0000000

LOEWDIN ATOMIC CHARGES
----------------------
   0 O :    0.648368
   1 N :    0.191613
   2 C :   -0.323997
   3 C :    0.256471
   4 C :    0.290807
   5 C :    0.577491
   6 C :    0.281572
   7 C :    0.258917
   8 C :    0.580708
   9 H :   -0.541096
  10 H :   -0.139715
  11 H :   -0.172157
  12 H :   -0.137636
  13 H :   -0.151019
  14 H :   -0.180842
  15 H :   -0.173258
  16 H :   -0.164540
  17 H :   -0.144426
  18 H :   -0.142076
  19 H :   -0.156960
  20 H :   -0.143637
  21 H :   -0.171491
  22 H :   -0.170210
  23 H :   -0.172886

  Mayer bond orders larger than 0.100000
B(  0-O ,  1-N ) :   0.7831 B(  0-O ,  9-H ) :   1.0129 B(  1-N ,  2-C ) :   1.3521
B(  1-N ,  3-C ) :  -0.2765 B(  1-N ,  4-C ) :   0.1142 B(  1-N ,  5-C ) :  -0.1484
B(  2-C ,  3-C ) :   0.7366 B(  2-C ,  5-C ) :   0.7039 B(  3-C ,  4-C ) :   0.8470
B(  3-C , 10-H ) :   0.9693 B(  3-C , 11-H ) :   0.9474 B(  4-C ,  6-C ) :   0.9650
B(  4-C , 12-H ) :   1.0037 B(  4-C , 13-H ) :   0.9992 B(  5-C , 14-H ) :   0.9882
B(  5-C , 15-H ) :   0.9615 B(  5-C , 16-H ) :   0.9887 B(  6-C ,  7-C ) :   0.8465
B(  6-C , 17-H ) :   0.9191 B(  6-C , 18-H ) :   0.9824 B(  7-C ,  8-C ) :   0.8655
B(  7-C , 19-H ) :   0.9327 B(  7-C , 20-H ) :   1.0031 B(  8-C , 21-H ) :   0.9828
B(  8-C , 22-H ) :   0.9692 B(  8-C , 23-H ) :   0.9875

MP2 TOTAL ENERGY:     -404.900535433 Eh
FINAL SINGLE POINT ENERGY      -404.900535433359

DIPOLE MOMENT
-------------
                                X             Y             Z
Electronic contribution:     12.89930      -3.40226       0.16762
Nuclear contribution   :    -13.25976       3.78312      -0.22019
                        -----------------------------------------
Total Dipole Moment    :     -0.36045       0.38086      -0.05256
                        -----------------------------------------
Magnitude (a.u.)       :      0.52701
Magnitude (Debye)      :      1.33956

Rotational constants in cm-1:     0.141972     0.018262     0.016924
Rotational constants in MHz :  4256.212896   547.479287   507.380911

                             ****ORCA TERMINATED NORMALLY****
TOTAL RUN TIME: 0 days 0 hours 14 minutes 18 seconds 932 msec
