                         Program Version 5.0.3 -  RELEASE  -
|  1> !ri-mp2 aug-cc-pvtz aug-cc-pvtz/c tightscf
|  2> %pal nprocs 16 end
|  3>
|  4> * xyz 0 1
|  5> S     -0.977841    0.897750    0.426091
|  6> S     -2.081995   -0.635586   -0.451951
|  7> O      1.307860   -0.949315    1.030107
|  8> N      0.582338    0.797816   -0.241341
|  9> C      1.521372   -0.149599    0.148699
| 10> C      2.812887   -0.107552   -0.640961
| 11> H     -1.741791   -1.618901    0.408674
| 12> H      0.761070    1.334091   -1.076406
| 13> H      2.715102   -0.758963   -1.511499
| 14> H      3.614677   -0.492310   -0.016893
| 15> H      3.063516    0.894181   -0.987999
| 16> *
| 17>
| 18>                          ****END OF INPUT****

CARTESIAN COORDINATES (ANGSTROEM)
---------------------------------
  S     -0.977841    0.897750    0.426091
  S     -2.081995   -0.635586   -0.451951
  O      1.307860   -0.949315    1.030107
  N      0.582338    0.797816   -0.241341
  C      1.521372   -0.149599    0.148699
  C      2.812887   -0.107552   -0.640961
  H     -1.741791   -1.618901    0.408674
  H      0.761070    1.334091   -1.076406
  H      2.715102   -0.758963   -1.511499
  H      3.614677   -0.492310   -0.016893
  H      3.063516    0.894181   -0.987999

 Total Charge           Charge          ....    0
 Multiplicity           Mult            ....    1
 Number of Electrons    NEL             ....   64
 Basis Dimension        Dim             ....  399

ORBITAL ENERGIES
----------------

  NO   OCC          E(Eh)            E(eV)
   0   2.0000     -92.023184     -2504.0782
   1   2.0000     -91.988021     -2503.1213
   2   2.0000     -20.539695      -558.9135
   3   2.0000     -15.619524      -425.0289
   4   2.0000     -11.369900      -309.3907
   5   2.0000     -11.250648      -306.1457
   6   2.0000      -9.017101      -245.3678
   7   2.0000      -8.987378      -244.5590
   8   2.0000      -6.698013      -182.2622
   9   2.0000      -6.696607      -182.2239
  10   2.0000      -6.695472      -182.1931
  11   2.0000      -6.668308      -181.4539
  12   2.0000      -6.667351      -181.4279
  13   2.0000      -6.666362      -181.4009
  14   2.0000      -1.403367       -38.1876
  15   2.0000      -1.246174       -33.9101
  16   2.0000      -1.052002       -28.6264
  17   2.0000      -1.005234       -27.3538
  18   2.0000      -0.886021       -24.1099
  19   2.0000      -0.796176       -21.6651
  20   2.0000      -0.699096       -19.0234
  21   2.0000      -0.657212       -17.8836
  22   2.0000      -0.635162       -17.2836
  23   2.0000      -0.603503       -16.4222
  24   2.0000      -0.577553       -15.7160
  25   2.0000      -0.556497       -15.1431
  26   2.0000      -0.543101       -14.7785
  27   2.0000      -0.487915       -13.2768
  28   2.0000      -0.446367       -12.1463
  29   2.0000      -0.415959       -11.3188
  30   2.0000      -0.390774       -10.6335
  31   2.0000      -0.378213       -10.2917
  32   0.0000       0.023291         0.6338
  33   0.0000       0.038558         1.0492
  34   0.0000       0.039488         1.0745
  35   0.0000       0.047768         1.2998
  36   0.0000       0.055749         1.5170

MULLIKEN ATOMIC CHARGES
-----------------------
   0 S :    0.046543
   1 S :   -0.217696
   2 O :   -0.694425
   3 N :   -0.105408
   4 C :    0.394342
   5 C :   -0.643638
   6 H :    0.181913
   7 H :    0.112107
   8 H :    0.303863
   9 H :    0.312858
  10 H :    0.309540
Sum of atomic charges:   -0.0000000

LOEWDIN ATOMIC CHARGES
----------------------
   0 S :    0.594560
   1 S :    0.763809
   2 O :    0.416169
   3 N :    0.048564
   4 C :   -0.797829
   5 C :    0.583333
   6 H :   -0.672103
   7 H :   -0.402725
   8 H :   -0.169607
   9 H :   -0.180425
  10 H :   -0.183746

  Mayer bond orders larger than 0.100000
B(  0-S ,  1-S ) :   1.0315 B(  0-S ,  3-N ) :   1.0174 B(  1-S ,  6-H ) :   0.9912
B(  2-O ,  4-C ) :   1.5378 B(  3-N ,  4-C ) :   0.9693 B(  3-N ,  7-H ) :   1.0428
B(  4-C ,  5-C ) :   0.6705 B(  5-C ,  8-H ) :   0.9100 B(  5-C ,  9-H ) :   0.9583
B(  5-C , 10-H ) :   0.9121

MP2 TOTAL ENERGY:    -1004.283932056 Eh
FINAL SINGLE POINT ENERGY     -1004.283932055975

DIPOLE MOMENT
-------------
                                X             Y             Z
Electronic contribution:     -7.64430       1.18921       2.00859
Nuclear contribution   :      8.32387      -0.64424      -3.09156
                        -----------------------------------------
Total Dipole Moment    :      0.67957       0.54497      -1.08297
                        -----------------------------------------
Magnitude (a.u.)       :      1.38983
Magnitude (Debye)      :      3.53267

Rotational constants in cm-1:     0.155759     0.042409     0.039510
Rotational constants in MHz :  4669.550005  1271.395852  1184.486894

                             ****ORCA TERMINATED NORMALLY****
TOTAL RUN TIME: 0 days 0 hours 2 minutes 26 seconds 102 msec
