                         Program Version 5.0.3 -  RELEASE  -
|  1> !ri-mp2 aug-cc-pvtz aug-cc-pvtz/c tightscf
|  2> %pal nprocs 16 end
|  3>
|  4> * xyz 0 1
|  5> H      2.546292    0.664510    0.165310
|  6> O      1.231997   -1.340449   -0.051260
|  7> C      0.759803   -0.212659   -0.016985
|  8> N     -0.589131    0.040718   -0.042504
|  9> H      1.276432    1.747193    0.451488
| 10> N      1.584512    0.906330   -0.005452
| 11> H     -2.218134   -1.068197   -0.768577
| 12> H     -2.090342   -1.011668    0.999406
| 13> H     -0.951852   -1.996650    0.058184
| 14> C     -1.517068   -1.071094    0.069328
| 15> H     -1.231220    1.809057    0.957610
| 16> H     -2.152797    1.337971   -0.470531
| 17> H     -0.559592    2.045476   -0.673917
| 18> C     -1.149808    1.378179   -0.047877
| 19> *
| 20>
| 21>                          ****END OF INPUT****

CARTESIAN COORDINATES (ANGSTROEM)
---------------------------------
  H      2.546292    0.664510    0.165310
  O      1.231997   -1.340449   -0.051260
  C      0.759803   -0.212659   -0.016985
  N     -0.589131    0.040718   -0.042504
  H      1.276432    1.747193    0.451488
  N      1.584512    0.906330   -0.005452
  H     -2.218134   -1.068197   -0.768577
  H     -2.090342   -1.011668    0.999406
  H     -0.951852   -1.996650    0.058184
  C     -1.517068   -1.071094    0.069328
  H     -1.231220    1.809057    0.957610
  H     -2.152797    1.337971   -0.470531
  H     -0.559592    2.045476   -0.673917
  C     -1.149808    1.378179   -0.047877

 Total Charge           Charge          ....    0
 Multiplicity           Mult            ....    1
 Number of Electrons    NEL             ....   48
 Basis Dimension        Dim             ....  460

ORBITAL ENERGIES
----------------

  NO   OCC          E(Eh)            E(eV)
   0   2.0000     -20.501240      -557.8671
   1   2.0000     -15.583777      -424.0561
   2   2.0000     -15.576268      -423.8518
   3   2.0000     -11.370340      -309.4027
   4   2.0000     -11.272137      -306.7304
   5   2.0000     -11.252608      -306.1990
   6   2.0000      -1.384011       -37.6609
   7   2.0000      -1.249048       -33.9883
   8   2.0000      -1.191729       -32.4286
   9   2.0000      -0.977502       -26.5992
  10   2.0000      -0.935423       -25.4541
  11   2.0000      -0.769510       -20.9394
  12   2.0000      -0.734670       -19.9914
  13   2.0000      -0.682750       -18.5786
  14   2.0000      -0.659176       -17.9371
  15   2.0000      -0.624061       -16.9816
  16   2.0000      -0.591451       -16.0942
  17   2.0000      -0.567101       -15.4316
  18   2.0000      -0.562904       -15.3174
  19   2.0000      -0.556818       -15.1518
  20   2.0000      -0.531853       -14.4725
  21   2.0000      -0.438265       -11.9258
  22   2.0000      -0.416359       -11.3297
  23   2.0000      -0.373765       -10.1707
  24   0.0000       0.022318         0.6073
  25   0.0000       0.032837         0.8935
  26   0.0000       0.038671         1.0523
  27   0.0000       0.042832         1.1655
  28   0.0000       0.054930         1.4947

MULLIKEN ATOMIC CHARGES
-----------------------
   0 H :    0.129166
   1 O :   -0.746528
   2 C :    0.302567
   3 N :    0.305976
   4 H :    0.146155
   5 N :   -0.260975
   6 H :    0.354556
   7 H :    0.312629
   8 H :    0.407084
   9 C :   -0.992511
  10 H :    0.316439
  11 H :    0.335154
  12 H :    0.374925
  13 C :   -0.984637
Sum of atomic charges:   -0.0000000

LOEWDIN ATOMIC CHARGES
----------------------
   0 H :   -0.310115
   1 O :    0.432007
   2 C :   -0.809968
   3 N :    0.227214
   4 H :   -0.330974
   5 N :    0.854457
   6 H :   -0.161762
   7 H :   -0.155693
   8 H :   -0.206564
   9 C :    0.480461
  10 H :   -0.150059
  11 H :   -0.165052
  12 H :   -0.178918
  13 C :    0.474966

  Mayer bond orders larger than 0.100000
B(  0-H ,  5-N ) :   1.0172 B(  1-O ,  2-C ) :   1.5478 B(  2-C ,  3-N ) :   1.0174
B(  2-C ,  5-N ) :   0.9672 B(  2-C ,  9-C ) :  -0.1010 B(  3-N ,  9-C ) :   0.8800
B(  3-N , 13-C ) :   0.8945 B(  4-H ,  5-N ) :   1.0115 B(  6-H ,  9-C ) :   0.8998
B(  7-H ,  9-C ) :   0.9401 B(  8-H ,  9-C ) :   0.8452 B( 10-H , 13-C ) :   0.9321
B( 11-H , 13-C ) :   0.9374 B( 12-H , 13-C ) :   0.8771

MP2 TOTAL ENERGY:     -303.339459828 Eh
FINAL SINGLE POINT ENERGY      -303.339459828465

DIPOLE MOMENT
-------------
                                X             Y             Z
Electronic contribution:      4.67363      -2.11799      -0.32994
Nuclear contribution   :     -5.47980       3.59334       0.73448
                        -----------------------------------------
Total Dipole Moment    :     -0.80617       1.47535       0.40454
                        -----------------------------------------
Magnitude (a.u.)       :      1.72923
Magnitude (Debye)      :      4.39535

Rotational constants in cm-1:     0.169294     0.117604     0.071510
Rotational constants in MHz :  5075.318994  3525.668776  2143.801467

                             ****ORCA TERMINATED NORMALLY****
TOTAL RUN TIME: 0 days 0 hours 3 minutes 8 seconds 960 msec
