                         Program Version 5.0.3 -  RELEASE  -
|  1> !ri-mp2 aug-cc-pvtz aug-cc-pvtz/c tightscf
|  2> %pal nprocs 16 end
|  3>
|  4> * xyz 0 1
|  5> F      1.116105    1.093260    0.040175
|  6> F      1.116118   -1.093252    0.040168
|  7> N      0.345864    0.000000   -0.426963
|  8> C     -0.813920   -0.000009    0.420336
|  9> C     -2.001377    0.000000   -0.157052
| 10> H     -0.622645   -0.000022    1.485320
| 11> H     -2.091523    0.000012   -1.234028
| 12> H     -2.905105   -0.000005    0.434659
| 13> *
| 14>
| 15>                          ****END OF INPUT****

CARTESIAN COORDINATES (ANGSTROEM)
---------------------------------
  F      1.116105    1.093260    0.040175
  F      1.116118   -1.093252    0.040168
  N      0.345864    0.000000   -0.426963
  C     -0.813920   -0.000009    0.420336
  C     -2.001377    0.000000   -0.157052
  H     -0.622645   -0.000022    1.485320
  H     -2.091523    0.000012   -1.234028
  H     -2.905105   -0.000005    0.434659

 Total Charge           Charge          ....    0
 Multiplicity           Mult            ....    1
 Number of Electrons    NEL             ....   40
 Basis Dimension        Dim             ....  299

ORBITAL ENERGIES
----------------

  NO   OCC          E(Eh)            E(eV)
   0   2.0000     -26.334881      -716.6085
   1   2.0000     -26.334861      -716.6080
   2   2.0000     -15.778656      -429.3590
   3   2.0000     -11.298582      -307.4501
   4   2.0000     -11.274019      -306.7816
   5   2.0000      -1.676443       -45.6183
   6   2.0000      -1.592161       -43.3249
   7   2.0000      -1.192862       -32.4594
   8   2.0000      -1.027441       -27.9581
   9   2.0000      -0.845063       -22.9953
  10   2.0000      -0.765178       -20.8216
  11   2.0000      -0.753687       -20.5089
  12   2.0000      -0.731177       -19.8963
  13   2.0000      -0.680807       -18.5257
  14   2.0000      -0.675260       -18.3748
  15   2.0000      -0.630091       -17.1457
  16   2.0000      -0.612134       -16.6570
  17   2.0000      -0.582731       -15.8569
  18   2.0000      -0.493165       -13.4197
  19   2.0000      -0.426203       -11.5976
  20   0.0000       0.026192         0.7127
  21   0.0000       0.037188         1.0119
  22   0.0000       0.046308         1.2601
  23   0.0000       0.073267         1.9937
  24   0.0000       0.091372         2.4864

MULLIKEN ATOMIC CHARGES
-----------------------
   0 F :   -0.335702
   1 F :   -0.335703
   2 N :    0.152520
   3 C :   -0.134133
   4 C :   -0.935587
   5 H :    0.641235
   6 H :    0.491341
   7 H :    0.456030
Sum of atomic charges:   -0.0000000

LOEWDIN ATOMIC CHARGES
----------------------
   0 F :    0.287916
   1 F :    0.287918
   2 N :   -0.421698
   3 C :   -0.038006
   4 C :    0.522057
   5 H :   -0.205451
   6 H :   -0.216470
   7 H :   -0.216266

  Mayer bond orders larger than 0.100000
B(  0-F ,  2-N ) :   0.7447 B(  1-F ,  2-N ) :   0.7447 B(  2-N ,  3-C ) :   0.7628
B(  3-C ,  4-C ) :   1.6874 B(  3-C ,  5-H ) :   0.5237 B(  4-C ,  6-H ) :   0.7616
B(  4-C ,  7-H ) :   0.7700

MP2 TOTAL ENERGY:     -331.809664115 Eh
FINAL SINGLE POINT ENERGY      -331.809664115333

DIPOLE MOMENT
-------------
                                X             Y             Z
Electronic contribution:      6.17781       0.00001      -0.34258
Nuclear contribution   :     -7.43328      -0.00002       0.57410
                        -----------------------------------------
Total Dipole Moment    :     -1.25547      -0.00001       0.23151
                        -----------------------------------------
Magnitude (a.u.)       :      1.27664
Magnitude (Debye)      :      3.24496

Rotational constants in cm-1:     0.309938     0.133162     0.103401
Rotational constants in MHz :  9291.693344  3992.089490  3099.896804

                             ****ORCA TERMINATED NORMALLY****
TOTAL RUN TIME: 0 days 0 hours 1 minutes 22 seconds 48 msec
