                         Program Version 5.0.3 -  RELEASE  -
|  1> !ri-mp2 aug-cc-pvtz aug-cc-pvtz/c tightscf
|  2> %pal nprocs 16 end
|  3>
|  4> * xyz 0 1
|  5> C     -1.074952   -0.423350    0.000000
|  6> N      0.000000    0.548631    0.000000
|  7> C      1.187443    0.128587    0.000000
|  8> H     -0.726044   -1.464229    0.000000
|  9> H     -1.702940   -0.256326    0.876539
| 10> H     -1.702940   -0.256326   -0.876539
| 11> H      1.449451   -0.937256    0.000000
| 12> H      2.007530    0.842294    0.000000
| 13> *
| 14>
| 15>                          ****END OF INPUT****

CARTESIAN COORDINATES (ANGSTROEM)
---------------------------------
  C     -1.074952   -0.423350    0.000000
  N      0.000000    0.548631    0.000000
  C      1.187443    0.128587    0.000000
  H     -0.726044   -1.464229    0.000000
  H     -1.702940   -0.256326    0.876539
  H     -1.702940   -0.256326   -0.876539
  H      1.449451   -0.937256    0.000000
  H      2.007530    0.842294    0.000000

 Total Charge           Charge          ....    0
 Multiplicity           Mult            ....    1
 Number of Electrons    NEL             ....   24
 Basis Dimension        Dim             ....  253

ORBITAL ENERGIES
----------------

  NO   OCC          E(Eh)            E(eV)
   0   2.0000     -15.565577      -423.5609
   1   2.0000     -11.271661      -306.7175
   2   2.0000     -11.248538      -306.0883
   3   2.0000      -1.230238       -33.4765
   4   2.0000      -0.960588       -26.1389
   5   2.0000      -0.795103       -21.6359
   6   2.0000      -0.657075       -17.8799
   7   2.0000      -0.631282       -17.1781
   8   2.0000      -0.590746       -16.0750
   9   2.0000      -0.532811       -14.4985
  10   2.0000      -0.420995       -11.4559
  11   2.0000      -0.408035       -11.1032
  12   0.0000       0.029598         0.8054
  13   0.0000       0.040594         1.1046
  14   0.0000       0.044566         1.2127
  15   0.0000       0.048088         1.3085
  16   0.0000       0.062856         1.7104

MULLIKEN ATOMIC CHARGES
-----------------------
   0 C :   -0.724209
   1 N :   -0.375913
   2 C :   -0.874796
   3 H :    0.326665
   4 H :    0.319481
   5 H :    0.319481
   6 H :    0.498435
   7 H :    0.510855
Sum of atomic charges:   -0.0000000

LOEWDIN ATOMIC CHARGES
----------------------
   0 C :    0.374806
   1 N :    0.320978
   2 C :    0.314791
   3 H :   -0.195248
   4 H :   -0.189724
   5 H :   -0.189724
   6 H :   -0.206840
   7 H :   -0.229038

  Mayer bond orders larger than 0.100000
B(  0-C ,  1-N ) :   0.7764 B(  0-C ,  3-H ) :   0.8956 B(  0-C ,  4-H ) :   0.8994
B(  0-C ,  5-H ) :   0.8994 B(  1-N ,  2-C ) :   1.8252 B(  2-C ,  6-H ) :   0.7144
B(  2-C ,  7-H ) :   0.6896

MP2 TOTAL ENERGY:     -133.665621839 Eh
FINAL SINGLE POINT ENERGY      -133.665621839211

DIPOLE MOMENT
-------------
                                X             Y             Z
Electronic contribution:      0.94134       1.52123      -0.00000
Nuclear contribution   :     -0.70636      -2.16491       0.00000
                        -----------------------------------------
Total Dipole Moment    :      0.23498      -0.64368      -0.00000
                        -----------------------------------------
Magnitude (a.u.)       :      0.68523
Magnitude (Debye)      :      1.74171

Rotational constants in cm-1:     1.803826     0.355063     0.313773
Rotational constants in MHz : 54077.333074 10644.513031  9406.686089

                             ****ORCA TERMINATED NORMALLY****
TOTAL RUN TIME: 0 days 0 hours 0 minutes 46 seconds 185 msec
