                         Program Version 5.0.3 -  RELEASE  -
|  1> !ri-mp2 aug-cc-pvtz aug-cc-pvtz/c tightscf
|  2> %pal nprocs 16 end
|  3>
|  4> * xyz 0 1
|  5> N     -0.047335    0.494707    0.000095
|  6> N     -2.426020   -0.243839   -0.000088
|  7> N      2.256899   -0.124368    0.000008
|  8> C     -1.325935    0.106762   -0.000003
|  9> C      1.029441   -0.407626   -0.000048
| 10> H      0.145193    1.485628    0.000247
| 11> H      2.449675    0.876936    0.000174
| 12> H      0.699288   -1.442885   -0.000220
| 13> *
| 14>
| 15>                          ****END OF INPUT****

CARTESIAN COORDINATES (ANGSTROEM)
---------------------------------
  N     -0.047335    0.494707    0.000095
  N     -2.426020   -0.243839   -0.000088
  N      2.256899   -0.124368    0.000008
  C     -1.325935    0.106762   -0.000003
  C      1.029441   -0.407626   -0.000048
  H      0.145193    1.485628    0.000247
  H      2.449675    0.876936    0.000174
  H      0.699288   -1.442885   -0.000220

 Total Charge           Charge          ....    0
 Multiplicity           Mult            ....    1
 Number of Electrons    NEL             ....   36
 Basis Dimension        Dim             ....  299

ORBITAL ENERGIES
----------------

  NO   OCC          E(Eh)            E(eV)
   0   2.0000     -15.664582      -426.2549
   1   2.0000     -15.584796      -424.0838
   2   2.0000     -15.575117      -423.8205
   3   2.0000     -11.360256      -309.1283
   4   2.0000     -11.326652      -308.2139
   5   2.0000      -1.344300       -36.5803
   6   2.0000      -1.242313       -33.8050
   7   2.0000      -1.199367       -32.6364
   8   2.0000      -0.905790       -24.6478
   9   2.0000      -0.845527       -23.0080
  10   2.0000      -0.751815       -20.4579
  11   2.0000      -0.639493       -17.4015
  12   2.0000      -0.630181       -17.1481
  13   2.0000      -0.577378       -15.7113
  14   2.0000      -0.498104       -13.5541
  15   2.0000      -0.495803       -13.4915
  16   2.0000      -0.465369       -12.6633
  17   2.0000      -0.404646       -11.0110
  18   0.0000       0.016585         0.4513
  19   0.0000       0.037831         1.0294
  20   0.0000       0.042139         1.1467
  21   0.0000       0.066555         1.8110
  22   0.0000       0.079078         2.1518

MULLIKEN ATOMIC CHARGES
-----------------------
   0 N :    0.302721
   1 N :   -0.546765
   2 N :   -0.655415
   3 C :    0.003698
   4 C :   -0.126892
   5 H :    0.234028
   6 H :    0.166995
   7 H :    0.621630
Sum of atomic charges:    0.0000000

LOEWDIN ATOMIC CHARGES
----------------------
   0 N :    0.470355
   1 N :    0.237777
   2 N :    0.637149
   3 C :   -0.352230
   4 C :   -0.098588
   5 H :   -0.281912
   6 H :   -0.429753
   7 H :   -0.182798

  Mayer bond orders larger than 0.100000
B(  0-N ,  1-N ) :  -0.2204 B(  0-N ,  3-C ) :   0.9155 B(  0-N ,  4-C ) :   0.9147
B(  0-N ,  5-H ) :   1.0028 B(  1-N ,  3-C ) :   2.6917 B(  2-N ,  4-C ) :   1.5636
B(  2-N ,  6-H ) :   0.9519 B(  3-C ,  4-C ) :  -0.1783 B(  4-C ,  7-H ) :   0.5547

MP2 TOTAL ENERGY:     -241.798775851 Eh
FINAL SINGLE POINT ENERGY      -241.798775851140

DIPOLE MOMENT
-------------
                                X             Y             Z
Electronic contribution:     -2.49233       0.09836      -0.00002
Nuclear contribution   :      3.22345       0.90101       0.00020
                        -----------------------------------------
Total Dipole Moment    :      0.73112       0.99937       0.00018
                        -----------------------------------------
Magnitude (a.u.)       :      1.23825
Magnitude (Debye)      :      3.14739

Rotational constants in cm-1:     1.442567     0.086859     0.081926
Rotational constants in MHz : 43247.058861  2603.969369  2456.084867

                             ****ORCA TERMINATED NORMALLY****
TOTAL RUN TIME: 0 days 0 hours 1 minutes 21 seconds 672 msec
