                         Program Version 5.0.3 -  RELEASE  -
|  1> !ri-mp2 aug-cc-pvtz aug-cc-pvtz/c tightscf
|  2> %pal nprocs 16 end
|  3>
|  4> * xyz 0 1
|  5> S     -1.804112   -0.039089   -0.085409
|  6> N     -0.228364   -0.684420    0.016954
|  7> N      0.819790    1.392841   -0.011749
|  8> N      2.070170   -0.650194    0.057789
|  9> C      0.910802    0.124627   -0.000028
| 10> H     -1.789467    0.778881    0.993822
| 11> H     -0.146667   -1.513718    0.584188
| 12> H      1.724397    1.840201   -0.118314
| 13> H      2.927975   -0.134408   -0.049798
| 14> H      2.053559   -1.500893   -0.484146
| 15> *
| 16>
| 17>                          ****END OF INPUT****

CARTESIAN COORDINATES (ANGSTROEM)
---------------------------------
  S     -1.804112   -0.039089   -0.085409
  N     -0.228364   -0.684420    0.016954
  N      0.819790    1.392841   -0.011749
  N      2.070170   -0.650194    0.057789
  C      0.910802    0.124627   -0.000028
  H     -1.789467    0.778881    0.993822
  H     -0.146667   -1.513718    0.584188
  H      1.724397    1.840201   -0.118314
  H      2.927975   -0.134408   -0.049798
  H      2.053559   -1.500893   -0.484146

 Total Charge           Charge          ....    0
 Multiplicity           Mult            ....    1
 Number of Electrons    NEL             ....   48
 Basis Dimension        Dim             ....  349

ORBITAL ENERGIES
----------------

  NO   OCC          E(Eh)            E(eV)
   0   2.0000     -91.984303     -2503.0201
   1   2.0000     -15.600603      -424.5140
   2   2.0000     -15.587678      -424.1623
   3   2.0000     -15.522295      -422.3831
   4   2.0000     -11.354416      -308.9694
   5   2.0000      -8.981475      -244.3984
   6   2.0000      -6.662872      -181.3060
   7   2.0000      -6.661497      -181.2685
   8   2.0000      -6.660439      -181.2398
   9   2.0000      -1.309069       -35.6216
  10   2.0000      -1.191294       -32.4168
  11   2.0000      -1.148820       -31.2610
  12   2.0000      -0.947957       -25.7952
  13   2.0000      -0.803618       -21.8675
  14   2.0000      -0.730495       -19.8778
  15   2.0000      -0.709391       -19.3035
  16   2.0000      -0.643076       -17.4990
  17   2.0000      -0.624677       -16.9983
  18   2.0000      -0.558655       -15.2018
  19   2.0000      -0.507196       -13.8015
  20   2.0000      -0.439958       -11.9719
  21   2.0000      -0.422572       -11.4988
  22   2.0000      -0.379246       -10.3198
  23   2.0000      -0.363440        -9.8897
  24   0.0000       0.021024         0.5721
  25   0.0000       0.036392         0.9903
  26   0.0000       0.041573         1.1313
  27   0.0000       0.054141         1.4733
  28   0.0000       0.058311         1.5867

MULLIKEN ATOMIC CHARGES
-----------------------
   0 S :   -0.118895
   1 N :   -0.034238
   2 N :   -0.564206
   3 N :   -0.311316
   4 C :    0.368406
   5 H :    0.157919
   6 H :    0.072452
   7 H :    0.148318
   8 H :    0.137663
   9 H :    0.143898
Sum of atomic charges:   -0.0000000

LOEWDIN ATOMIC CHARGES
----------------------
   0 S :    1.175025
   1 N :    0.091875
   2 N :    0.603195
   3 N :    0.850571
   4 C :   -0.690004
   5 H :   -0.554434
   6 H :   -0.402623
   7 H :   -0.452486
   8 H :   -0.311786
   9 H :   -0.309332

  Mayer bond orders larger than 0.100000
B(  0-S ,  1-N ) :   0.9576 B(  0-S ,  5-H ) :   1.0000 B(  1-N ,  4-C ) :   0.9071
B(  1-N ,  6-H ) :   1.0665 B(  2-N ,  4-C ) :   1.5580 B(  2-N ,  7-H ) :   0.9382
B(  3-N ,  4-C ) :   0.8740 B(  3-N ,  8-H ) :   1.0236 B(  3-N ,  9-H ) :   1.0093

MP2 TOTAL ENERGY:     -602.713948040 Eh
FINAL SINGLE POINT ENERGY      -602.713948039657

DIPOLE MOMENT
-------------
                                X             Y             Z
Electronic contribution:     -3.71980      -0.31360      -0.79595
Nuclear contribution   :      4.78879      -0.52268       0.91872
                        -----------------------------------------
Total Dipole Moment    :      1.06899      -0.83628       0.12277
                        -----------------------------------------
Magnitude (a.u.)       :      1.36278
Magnitude (Debye)      :      3.46392

Rotational constants in cm-1:     0.335016     0.082132     0.066912
Rotational constants in MHz : 10043.535216  2462.247166  2005.980480

                             ****ORCA TERMINATED NORMALLY****
TOTAL RUN TIME: 0 days 0 hours 1 minutes 48 seconds 225 msec
