                         Program Version 5.0.3 -  RELEASE  -
|  1> !ri-mp2 aug-cc-pvtz aug-cc-pvtz/c tightscf
|  2> %pal nprocs 16 end
|  3> %maxcore 3800
|  4>
|  5> * xyz 0 1
|  6> C      0.000000    0.000000    0.713923
|  7> C      0.000000    1.240542    1.396864
|  8> C      0.000000   -1.240542    1.396864
|  9> C      0.000000    2.423616    0.705779
| 10> C      0.000000    2.423616   -0.705779
| 11> C      0.000000    1.240542   -1.396864
| 12> C      0.000000   -2.423616    0.705779
| 13> C      0.000000   -2.423616   -0.705779
| 14> C      0.000000   -1.240542   -1.396864
| 15> C      0.000000    0.000000   -0.713923
| 16> H      0.000000   -3.364265    1.240162
| 17> H      0.000000   -3.364265   -1.240162
| 18> H      0.000000    3.364265   -1.240162
| 19> H      0.000000    3.364265    1.240162
| 20> H      0.000000    1.239118   -2.479712
| 21> H      0.000000   -1.239118    2.479712
| 22> H      0.000000   -1.239118   -2.479712
| 23> H      0.000000    1.239118    2.479712
| 24> *
| 25>
| 26>                          ****END OF INPUT****

CARTESIAN COORDINATES (ANGSTROEM)
---------------------------------
  C      0.000000    0.000000    0.713923
  C      0.000000    1.240542    1.396864
  C      0.000000   -1.240542    1.396864
  C      0.000000    2.423616    0.705779
  C      0.000000    2.423616   -0.705779
  C      0.000000    1.240542   -1.396864
  C      0.000000   -2.423616    0.705779
  C      0.000000   -2.423616   -0.705779
  C      0.000000   -1.240542   -1.396864
  C      0.000000    0.000000   -0.713923
  H      0.000000   -3.364265    1.240162
  H      0.000000   -3.364265   -1.240162
  H      0.000000    3.364265   -1.240162
  H      0.000000    3.364265    1.240162
  H      0.000000    1.239118   -2.479712
  H      0.000000   -1.239118    2.479712
  H      0.000000   -1.239118   -2.479712
  H      0.000000    1.239118    2.479712

 Total Charge           Charge          ....    0
 Multiplicity           Mult            ....    1
 Number of Electrons    NEL             ....   68
 Basis Dimension        Dim             ....  644

ORBITAL ENERGIES
----------------

  NO   OCC          E(Eh)            E(eV)
   0   2.0000     -11.244366      -305.9748
   1   2.0000     -11.243335      -305.9467
   2   2.0000     -11.236963      -305.7733
   3   2.0000     -11.236918      -305.7721
   4   2.0000     -11.236678      -305.7655
   5   2.0000     -11.236589      -305.7631
   6   2.0000     -11.235566      -305.7353
   7   2.0000     -11.235530      -305.7343
   8   2.0000     -11.234778      -305.7138
   9   2.0000     -11.234762      -305.7134
  10   2.0000      -1.178644       -32.0725
  11   2.0000      -1.111972       -30.2583
  12   2.0000      -1.052223       -28.6324
  13   2.0000      -1.010085       -27.4858
  14   2.0000      -0.983114       -26.7519
  15   2.0000      -0.855684       -23.2843
  16   2.0000      -0.837933       -22.8013
  17   2.0000      -0.812872       -22.1194
  18   2.0000      -0.707762       -19.2592
  19   2.0000      -0.701323       -19.0840
  20   2.0000      -0.679669       -18.4947
  21   2.0000      -0.624305       -16.9882
  22   2.0000      -0.612712       -16.6727
  23   2.0000      -0.586205       -15.9515
  24   2.0000      -0.584487       -15.9047
  25   2.0000      -0.565649       -15.3921
  26   2.0000      -0.535505       -14.5718
  27   2.0000      -0.525274       -14.2934
  28   2.0000      -0.490125       -13.3370
  29   2.0000      -0.477389       -12.9904
  30   2.0000      -0.450474       -12.2580
  31   2.0000      -0.387277       -10.5383
  32   2.0000      -0.320519        -8.7218
  33   2.0000      -0.290429        -7.9030
  34   0.0000       0.029514         0.8031
  35   0.0000       0.030902         0.8409
  36   0.0000       0.031650         0.8612
  37   0.0000       0.042332         1.1519
  38   0.0000       0.044643         1.2148

MULLIKEN ATOMIC CHARGES
-----------------------
   0 C :    1.902383
   1 C :   -1.270130
   2 C :   -1.270111
   3 C :   -0.362377
   4 C :   -0.362373
   5 C :   -1.270124
   6 C :   -0.362387
   7 C :   -0.362392
   8 C :   -1.270068
   9 C :    1.902360
  10 H :    0.615727
  11 H :    0.615668
  12 H :    0.615725
  13 H :    0.615716
  14 H :    0.065594
  15 H :    0.065590
  16 H :    0.065607
  17 H :    0.065592
Sum of atomic charges:   -0.0000000

LOEWDIN ATOMIC CHARGES
----------------------
   0 C :   -0.115834
   1 C :    0.219930
   2 C :    0.219930
   3 C :    0.202378
   4 C :    0.202378
   5 C :    0.219930
   6 C :    0.202378
   7 C :    0.202378
   8 C :    0.219930
   9 C :   -0.115834
  10 H :   -0.185956
  11 H :   -0.185956
  12 H :   -0.185956
  13 H :   -0.185956
  14 H :   -0.178436
  15 H :   -0.178436
  16 H :   -0.178436
  17 H :   -0.178436

  Mayer bond orders larger than 0.100000
B(  0-C ,  1-C ) :  -0.1609 B(  0-C ,  2-C ) :  -0.1608 B(  0-C ,  9-C ) :   0.7902
B(  1-C ,  2-C ) :   0.7055 B(  1-C ,  3-C ) :   1.1905 B(  1-C ,  8-C ) :  -0.1105
B(  1-C , 13-H ) :  -0.2509 B(  1-C , 17-H ) :   1.5782 B(  2-C ,  5-C ) :  -0.1105
B(  2-C ,  6-C ) :   1.1904 B(  2-C , 10-H ) :  -0.2509 B(  2-C , 15-H ) :   1.5782
B(  3-C ,  4-C ) :   1.0323 B(  3-C , 13-H ) :   0.5235 B(  4-C ,  5-C ) :   1.1905
B(  4-C , 12-H ) :   0.5235 B(  5-C ,  8-C ) :   0.7055 B(  5-C ,  9-C ) :  -0.1609
B(  5-C , 12-H ) :  -0.2509 B(  5-C , 14-H ) :   1.5782 B(  6-C ,  7-C ) :   1.0323
B(  6-C , 10-H ) :   0.5235 B(  7-C ,  8-C ) :   1.1904 B(  7-C , 11-H ) :   0.5235
B(  8-C ,  9-C ) :  -0.1608 B(  8-C , 11-H ) :  -0.2509 B(  8-C , 16-H ) :   1.5781

MP2 TOTAL ENERGY:     -385.070229723 Eh
FINAL SINGLE POINT ENERGY      -385.070229722871

DIPOLE MOMENT
-------------
                                X             Y             Z
Electronic contribution:     -0.00000      -0.00000       0.00000
Nuclear contribution   :      0.00000      -0.00000       0.00000
                        -----------------------------------------
Total Dipole Moment    :     -0.00000      -0.00000       0.00000
                        -----------------------------------------
Magnitude (a.u.)       :      0.00000
Magnitude (Debye)      :      0.00000

Rotational constants in cm-1:     0.104762     0.041321     0.029633
Rotational constants in MHz :  3140.675301  1238.767848   888.370382

                             ****ORCA TERMINATED NORMALLY****
TOTAL RUN TIME: 0 days 0 hours 10 minutes 21 seconds 987 msec
