                         Program Version 5.0.3 -  RELEASE  -
|  1> !ri-mp2 aug-cc-pvtz aug-cc-pvtz/c tightscf
|  2> %pal nprocs 16 end
|  3>
|  4> * xyz 0 1
|  5> F      2.662788   -0.389952   -0.184145
|  6> F      1.350478    1.307291    0.242723
|  7> N      1.365233    0.093381   -0.468109
|  8> C      0.486442   -0.814523    0.318269
|  9> C     -0.906899   -0.447656    0.149345
| 10> C     -3.460800    0.209456   -0.144708
| 11> C     -2.062686   -0.155069    0.017364
| 12> H      0.689215   -1.805176   -0.090461
| 13> H      0.800414   -0.789621    1.363966
| 14> H     -3.548554    1.185872   -0.623577
| 15> H     -3.988577   -0.517719   -0.763260
| 16> H     -3.964868    0.263674    0.821272
| 17> *
| 18>
| 19>                          ****END OF INPUT****

CARTESIAN COORDINATES (ANGSTROEM)
---------------------------------
  F      2.662788   -0.389952   -0.184145
  F      1.350478    1.307291    0.242723
  N      1.365233    0.093381   -0.468109
  C      0.486442   -0.814523    0.318269
  C     -0.906899   -0.447656    0.149345
  C     -3.460800    0.209456   -0.144708
  C     -2.062686   -0.155069    0.017364
  H      0.689215   -1.805176   -0.090461
  H      0.800414   -0.789621    1.363966
  H     -3.548554    1.185872   -0.623577
  H     -3.988577   -0.517719   -0.763260
  H     -3.964868    0.263674    0.821272

 Total Charge           Charge          ....    0
 Multiplicity           Mult            ....    1
 Number of Electrons    NEL             ....   54
 Basis Dimension        Dim             ....  437

ORBITAL ENERGIES
----------------

  NO   OCC          E(Eh)            E(eV)
   0   2.0000     -26.335161      -716.6162
   1   2.0000     -26.334235      -716.5910
   2   2.0000     -15.776078      -429.2889
   3   2.0000     -11.317257      -307.9582
   4   2.0000     -11.259211      -306.3787
   5   2.0000     -11.250003      -306.1281
   6   2.0000     -11.238131      -305.8051
   7   2.0000      -1.677949       -45.6593
   8   2.0000      -1.593882       -43.3717
   9   2.0000      -1.181079       -32.1388
  10   2.0000      -1.074601       -29.2414
  11   2.0000      -0.996392       -27.1132
  12   2.0000      -0.928457       -25.2646
  13   2.0000      -0.769499       -20.9391
  14   2.0000      -0.763023       -20.7629
  15   2.0000      -0.755660       -20.5626
  16   2.0000      -0.685519       -18.6539
  17   2.0000      -0.665193       -18.1008
  18   2.0000      -0.649862       -17.6836
  19   2.0000      -0.632315       -17.2062
  20   2.0000      -0.622553       -16.9405
  21   2.0000      -0.606738       -16.5102
  22   2.0000      -0.601007       -16.3542
  23   2.0000      -0.594341       -16.1728
  24   2.0000      -0.488443       -13.2912
  25   2.0000      -0.398633       -10.8474
  26   2.0000      -0.391639       -10.6570
  27   0.0000       0.024850         0.6762
  28   0.0000       0.033354         0.9076
  29   0.0000       0.039795         1.0829
  30   0.0000       0.047537         1.2936
  31   0.0000       0.054129         1.4729

MULLIKEN ATOMIC CHARGES
-----------------------
   0 F :   -0.357263
   1 F :   -0.335283
   2 N :    0.119227
   3 C :   -0.044566
   4 C :    0.402047
   5 C :   -0.967126
   6 C :   -0.303545
   7 H :    0.326965
   8 H :    0.294182
   9 H :    0.280899
  10 H :    0.289701
  11 H :    0.294762
Sum of atomic charges:   -0.0000000

LOEWDIN ATOMIC CHARGES
----------------------
   0 F :    0.298459
   1 F :    0.305837
   2 N :   -0.388777
   3 C :    0.016691
   4 C :    0.066819
   5 C :    0.522722
   6 C :    0.087837
   7 H :   -0.182554
   8 H :   -0.178211
   9 H :   -0.181868
  10 H :   -0.183613
  11 H :   -0.183341

  Mayer bond orders larger than 0.100000
B(  0-F ,  2-N ) :   0.8003 B(  1-F ,  2-N ) :   0.7633 B(  2-N ,  3-C ) :   0.7801
B(  3-C ,  4-C ) :   0.7820 B(  3-C ,  5-C ) :   0.1766 B(  3-C ,  7-H ) :   0.9048
B(  3-C ,  8-H ) :   0.9529 B(  4-C ,  5-C ) :  -0.1082 B(  4-C ,  6-C ) :   2.2030
B(  5-C ,  6-C ) :   1.1440 B(  5-C ,  9-H ) :   0.9446 B(  5-C , 10-H ) :   0.9513
B(  5-C , 11-H ) :   0.9450

MP2 TOTAL ENERGY:     -409.030582016 Eh
FINAL SINGLE POINT ENERGY      -409.030582015675

DIPOLE MOMENT
-------------
                                X             Y             Z
Electronic contribution:     12.29546       1.89215      -0.39128
Nuclear contribution   :    -13.47987      -2.47865       0.62473
                        -----------------------------------------
Total Dipole Moment    :     -1.18441      -0.58651       0.23345
                        -----------------------------------------
Magnitude (a.u.)       :      1.34213
Magnitude (Debye)      :      3.41143

Rotational constants in cm-1:     0.270611     0.036876     0.033759
Rotational constants in MHz :  8112.714727  1105.524213  1012.056936

                             ****ORCA TERMINATED NORMALLY****
TOTAL RUN TIME: 0 days 0 hours 2 minutes 37 seconds 186 msec
