                         Program Version 5.0.3 -  RELEASE  -
|  1> !ri-mp2 aug-cc-pvtz aug-cc-pvtz/c tightscf
|  2> %pal nprocs 16 end
|  3> %maxcore 3800
|  4>
|  5> * xyz 0 1
|  6> C     0.000000     5.113451    0.369764
|  7> C     0.000000    -5.113451    0.369764
|  8> C     0.000000     3.841175   -0.476207
|  9> C     0.000000    -3.841175   -0.476207
| 10> C     0.000000     2.559853    0.358568
| 11> C     0.000000    -2.559853    0.358568
| 12> C     0.000000     1.280240   -0.478345
| 13> C     0.000000    -1.280240   -0.478345
| 14> C     0.000000     0.000000    0.358018
| 15> H     0.880614     5.158370    1.014023
| 16> H     0.000000     6.008632   -0.253795
| 17> H    -0.880614     5.158370    1.014023
| 18> H     0.000000    -6.008632   -0.253795
| 19> H    -0.880614    -5.158370    1.014023
| 20> H     0.880614    -5.158370    1.014023
| 21> H    -0.873886     3.841226   -1.134700
| 22> H     0.873886     3.841226   -1.134700
| 23> H    -0.873886    -3.841226   -1.134700
| 24> H     0.873886    -3.841226   -1.134700
| 25> H     0.874404     2.560551    1.018190
| 26> H    -0.874404     2.560551    1.018190
| 27> H    -0.874404    -2.560551    1.018190
| 28> H     0.874404    -2.560551    1.018190
| 29> H     0.874440     1.280475   -1.137677
| 30> H    -0.874440     1.280475   -1.137677
| 31> H    -0.874440    -1.280475   -1.137677
| 32> H     0.874440    -1.280475   -1.137677
| 33> H     0.874372     0.000000    1.017387
| 34> H    -0.874372     0.000000    1.017387
| 35> *
| 36>
| 37>                          ****END OF INPUT****

CARTESIAN COORDINATES (ANGSTROEM)
---------------------------------
  C      0.000000    5.113451    0.369764
  C      0.000000   -5.113451    0.369764
  C      0.000000    3.841175   -0.476207
  C      0.000000   -3.841175   -0.476207
  C      0.000000    2.559853    0.358568
  C      0.000000   -2.559853    0.358568
  C      0.000000    1.280240   -0.478345
  C      0.000000   -1.280240   -0.478345
  C      0.000000    0.000000    0.358018
  H      0.880614    5.158370    1.014023
  H      0.000000    6.008632   -0.253795
  H     -0.880614    5.158370    1.014023
  H      0.000000   -6.008632   -0.253795
  H     -0.880614   -5.158370    1.014023
  H      0.880614   -5.158370    1.014023
  H     -0.873886    3.841226   -1.134700
  H      0.873886    3.841226   -1.134700
  H     -0.873886   -3.841226   -1.134700
  H      0.873886   -3.841226   -1.134700
  H      0.874404    2.560551    1.018190
  H     -0.874404    2.560551    1.018190
  H     -0.874404   -2.560551    1.018190
  H      0.874404   -2.560551    1.018190
  H      0.874440    1.280475   -1.137677
  H     -0.874440    1.280475   -1.137677
  H     -0.874440   -1.280475   -1.137677
  H      0.874440   -1.280475   -1.137677
  H      0.874372    0.000000    1.017387
  H     -0.874372    0.000000    1.017387

 Total Charge           Charge          ....    0
 Multiplicity           Mult            ....    1
 Number of Electrons    NEL             ....   74
 Basis Dimension        Dim             ....  874

ORBITAL ENERGIES
----------------

  NO   OCC          E(Eh)            E(eV)
   0   2.0000     -11.214041      -305.1496
   1   2.0000     -11.214041      -305.1496
   2   2.0000     -11.212177      -305.0989
   3   2.0000     -11.211951      -305.0927
   4   2.0000     -11.211658      -305.0847
   5   2.0000     -11.211346      -305.0762
   6   2.0000     -11.211118      -305.0700
   7   2.0000     -11.208263      -304.9923
   8   2.0000     -11.208263      -304.9923
   9   2.0000      -1.091472       -29.7005
  10   2.0000      -1.067359       -29.0443
  11   2.0000      -1.027877       -27.9700
  12   2.0000      -0.975184       -26.5361
  13   2.0000      -0.912890       -24.8410
  14   2.0000      -0.848078       -23.0774
  15   2.0000      -0.797652       -21.7052
  16   2.0000      -0.784763       -21.3545
  17   2.0000      -0.780826       -21.2473
  18   2.0000      -0.656577       -17.8664
  19   2.0000      -0.635260       -17.2863
  20   2.0000      -0.602253       -16.3881
  21   2.0000      -0.591988       -16.1088
  22   2.0000      -0.585681       -15.9372
  23   2.0000      -0.562093       -15.2953
  24   2.0000      -0.552747       -15.0410
  25   2.0000      -0.550893       -14.9906
  26   2.0000      -0.521309       -14.1855
  27   2.0000      -0.514432       -13.9984
  28   2.0000      -0.487435       -13.2638
  29   2.0000      -0.487056       -13.2535
  30   2.0000      -0.478876       -13.0309
  31   2.0000      -0.465947       -12.6791
  32   2.0000      -0.463239       -12.6054
  33   2.0000      -0.457189       -12.4407
  34   2.0000      -0.456391       -12.4190
  35   2.0000      -0.454124       -12.3573
  36   2.0000      -0.425362       -11.5747
  37   0.0000       0.030295         0.8244
  38   0.0000       0.031414         0.8548
  39   0.0000       0.034843         0.9481
  40   0.0000       0.036894         1.0039
  41   0.0000       0.041158         1.1200

MULLIKEN ATOMIC CHARGES
-----------------------
   0 C :   -1.009998
   1 C :   -1.009998
   2 C :   -0.523753
   3 C :   -0.523753
   4 C :   -0.317234
   5 C :   -0.317234
   6 C :   -0.362697
   7 C :   -0.362697
   8 C :   -0.276036
   9 H :    0.260139
  10 H :    0.273290
  11 H :    0.260139
  12 H :    0.273290
  13 H :    0.260139
  14 H :    0.260139
  15 H :    0.221365
  16 H :    0.221365
  17 H :    0.221365
  18 H :    0.221365
  19 H :    0.227730
  20 H :    0.227730
  21 H :    0.227730
  22 H :    0.227730
  23 H :    0.221397
  24 H :    0.221397
  25 H :    0.221397
  26 H :    0.221397
  27 H :    0.217149
  28 H :    0.217149
Sum of atomic charges:   -0.0000000

LOEWDIN ATOMIC CHARGES
----------------------
   0 C :    0.577302
   1 C :    0.577302
   2 C :    0.256230
   3 C :    0.256230
   4 C :    0.269025
   5 C :    0.269025
   6 C :    0.277313
   7 C :    0.277313
   8 C :    0.278907
   9 H :   -0.171971
  10 H :   -0.174574
  11 H :   -0.171971
  12 H :   -0.174574
  13 H :   -0.171971
  14 H :   -0.171971
  15 H :   -0.148372
  16 H :   -0.148372
  17 H :   -0.148372
  18 H :   -0.148372
  19 H :   -0.141750
  20 H :   -0.141750
  21 H :   -0.141750
  22 H :   -0.141750
  23 H :   -0.140284
  24 H :   -0.140284
  25 H :   -0.140284
  26 H :   -0.140284
  27 H :   -0.139996
  28 H :   -0.139996

  Mayer bond orders larger than 0.100000
B(  0-C ,  2-C ) :   0.9355 B(  0-C ,  9-H ) :   0.9739 B(  0-C , 10-H ) :   0.9935
B(  0-C , 11-H ) :   0.9739 B(  1-C ,  3-C ) :   0.9355 B(  1-C , 12-H ) :   0.9935
B(  1-C , 13-H ) :   0.9739 B(  1-C , 14-H ) :   0.9739 B(  2-C ,  4-C ) :   0.9187
B(  2-C , 15-H ) :   0.9802 B(  2-C , 16-H ) :   0.9802 B(  3-C ,  5-C ) :   0.9187
B(  3-C , 17-H ) :   0.9802 B(  3-C , 18-H ) :   0.9802 B(  4-C ,  6-C ) :   0.9805
B(  4-C , 19-H ) :   0.9648 B(  4-C , 20-H ) :   0.9648 B(  5-C ,  7-C ) :   0.9805
B(  5-C , 21-H ) :   0.9648 B(  5-C , 22-H ) :   0.9648 B(  6-C ,  8-C ) :   0.9551
B(  6-C , 23-H ) :   0.9606 B(  6-C , 24-H ) :   0.9606 B(  7-C ,  8-C ) :   0.9551
B(  7-C , 25-H ) :   0.9606 B(  7-C , 26-H ) :   0.9606 B(  8-C , 27-H ) :   0.9579
B(  8-C , 28-H ) :   0.9579

MP2 TOTAL ENERGY:     -354.209988153 Eh
FINAL SINGLE POINT ENERGY      -354.209988153233

DIPOLE MOMENT
-------------
                                X             Y             Z
Electronic contribution:      0.00000      -0.00000      -0.64704
Nuclear contribution   :      0.00000       0.00000       0.61387
                        -----------------------------------------
Total Dipole Moment    :      0.00000      -0.00000      -0.03317
                        -----------------------------------------
Magnitude (a.u.)       :      0.03317
Magnitude (Debye)      :      0.08430

Rotational constants in cm-1:     0.313808     0.011500     0.011301
Rotational constants in MHz :  9407.724290   344.767444   338.783015

                             ****ORCA TERMINATED NORMALLY****
TOTAL RUN TIME: 0 days 0 hours 16 minutes 45 seconds 235 msec
