                         Program Version 5.0.3 -  RELEASE  -
|  1> !ri-mp2 aug-cc-pvtz aug-cc-pvtz/c tightscf
|  2> %pal nprocs 16 end
|  3>
|  4> * xyz 0 1
|  5> C      2.232485    0.157278   -0.013976
|  6> C     -0.853827    1.545278   -0.325744
|  7> N      1.037219   -0.489380   -0.546136
|  8> O     -0.349336   -0.241094    1.524633
|  9> O     -1.388574   -1.007152   -0.660628
| 10> S     -0.465777   -0.166383    0.079766
| 11> H      3.102438   -0.419525   -0.323302
| 12> H      2.182272    0.139563    1.071682
| 13> H      2.358894    1.190382   -0.351993
| 14> H     -0.896516    1.650085   -1.406514
| 15> H     -1.825831    1.753159    0.115159
| 16> H     -0.099484    2.195057    0.110415
| 17> H      1.001456   -0.650307   -1.542474
| 18> *
| 19>
| 20>                          ****END OF INPUT****

CARTESIAN COORDINATES (ANGSTROEM)
---------------------------------
  C      2.232485    0.157278   -0.013976
  C     -0.853827    1.545278   -0.325744
  N      1.037219   -0.489380   -0.546136
  O     -0.349336   -0.241094    1.524633
  O     -1.388574   -1.007152   -0.660628
  S     -0.465777   -0.166383    0.079766
  H      3.102438   -0.419525   -0.323302
  H      2.182272    0.139563    1.071682
  H      2.358894    1.190382   -0.351993
  H     -0.896516    1.650085   -1.406514
  H     -1.825831    1.753159    0.115159
  H     -0.099484    2.195057    0.110415
  H      1.001456   -0.650307   -1.542474

 Total Charge           Charge          ....    0
 Multiplicity           Mult            ....    1
 Number of Electrons    NEL             ....   58
 Basis Dimension        Dim             ....  441

ORBITAL ENERGIES
----------------

  NO   OCC          E(Eh)            E(eV)
   0   2.0000     -92.200834     -2508.9122
   1   2.0000     -20.545488      -559.0712
   2   2.0000     -20.545253      -559.0648
   3   2.0000     -15.604678      -424.6249
   4   2.0000     -11.281596      -306.9878
   5   2.0000     -11.277824      -306.8852
   6   2.0000      -9.166058      -249.4211
   7   2.0000      -6.851356      -186.4349
   8   2.0000      -6.850558      -186.4132
   9   2.0000      -6.850463      -186.4106
  10   2.0000      -1.457590       -39.6630
  11   2.0000      -1.339552       -36.4511
  12   2.0000      -1.237790       -33.6820
  13   2.0000      -1.038704       -28.2646
  14   2.0000      -0.961974       -26.1766
  15   2.0000      -0.831127       -22.6161
  16   2.0000      -0.727945       -19.8084
  17   2.0000      -0.680054       -18.5052
  18   2.0000      -0.677962       -18.4483
  19   2.0000      -0.643109       -17.4999
  20   2.0000      -0.619235       -16.8502
  21   2.0000      -0.606350       -16.4996
  22   2.0000      -0.599965       -16.3259
  23   2.0000      -0.568790       -15.4776
  24   2.0000      -0.507394       -13.8069
  25   2.0000      -0.496719       -13.5164
  26   2.0000      -0.472556       -12.8589
  27   2.0000      -0.462605       -12.5881
  28   2.0000      -0.432280       -11.7629
  29   0.0000       0.019459         0.5295
  30   0.0000       0.032390         0.8814
  31   0.0000       0.036912         1.0044
  32   0.0000       0.043210         1.1758
  33   0.0000       0.054894         1.4937

MULLIKEN ATOMIC CHARGES
-----------------------
   0 C :   -0.876647
   1 C :   -1.013126
   2 N :   -0.386430
   3 O :   -0.971770
   4 O :   -0.998972
   5 S :    2.165587
   6 H :    0.360371
   7 H :    0.403591
   8 H :    0.313653
   9 H :    0.296827
  10 H :    0.312312
  11 H :    0.305936
  12 H :    0.088668
Sum of atomic charges:   -0.0000000

LOEWDIN ATOMIC CHARGES
----------------------
   0 C :    0.433354
   1 C :    0.505182
   2 N :    0.376559
   3 O :    0.043802
   4 O :    0.037258
   5 S :    0.132061
   6 H :   -0.173361
   7 H :   -0.194047
   8 H :   -0.175830
   9 H :   -0.209494
  10 H :   -0.208301
  11 H :   -0.213304
  12 H :   -0.353879

  Mayer bond orders larger than 0.100000
B(  0-C ,  2-N ) :   0.8583 B(  0-C ,  6-H ) :   0.8960 B(  0-C ,  7-H ) :   0.8538
B(  0-C ,  8-H ) :   0.9079 B(  1-C ,  5-S ) :   0.8170 B(  1-C ,  9-H ) :   0.8952
B(  1-C , 10-H ) :   0.9142 B(  1-C , 11-H ) :   0.8855 B(  2-N ,  5-S ) :   1.0097
B(  2-N , 12-H ) :   0.9814 B(  3-O ,  5-S ) :   1.3225 B(  4-O ,  5-S ) :   1.2403

MP2 TOTAL ENERGY:     -682.853248848 Eh
FINAL SINGLE POINT ENERGY      -682.853248848423

DIPOLE MOMENT
-------------
                                X             Y             Z
Electronic contribution:     -4.55553      -4.25832       1.25948
Nuclear contribution   :      5.80485       5.82951      -2.31451
                        -----------------------------------------
Total Dipole Moment    :      1.24932       1.57119      -1.05503
                        -----------------------------------------
Magnitude (a.u.)       :      2.26771
Magnitude (Debye)      :      5.76406

Rotational constants in cm-1:     0.142529     0.082638     0.079731
Rotational constants in MHz :  4272.921255  2477.435554  2390.267053

                             ****ORCA TERMINATED NORMALLY****
TOTAL RUN TIME: 0 days 0 hours 2 minutes 52 seconds 616 msec
