                         Program Version 5.0.3 -  RELEASE  -
|  1> !ri-mp2 aug-cc-pvtz aug-cc-pvtz/c tightscf
|  2> %pal nprocs 16 end
|  3> %maxcore 3800
|  4>
|  5> * xyz 0 1
|  6> C      2.998166   -0.117026    0.186742
|  7> C      2.250260   -1.206555   -0.245165
|  8> C      2.377431    1.120060    0.328290
|  9> C      0.896545   -1.067455   -0.525584
| 10> C      1.027004    1.269555    0.042344
| 11> C      0.267676    0.172124   -0.374549
| 12> C     -2.052493    0.014676    0.007335
| 13> C     -3.450793    0.232807   -0.503277
| 14> C     -1.944865   -0.582860    1.389174
| 15> N     -1.078820    0.350050   -0.736188
| 16> H      4.051545   -0.228318    0.403476
| 17> H      2.721570   -2.173091   -0.366506
| 18> H      2.949124    1.977574    0.658099
| 19> H      0.319634   -1.913528   -0.874264
| 20> H      0.548756    2.235247    0.134308
| 21> H     -4.006387    0.889434    0.170715
| 22> H     -3.995891   -0.713622   -0.539447
| 23> H     -3.427654    0.672409   -1.496672
| 24> H     -2.429938   -1.561221    1.412890
| 25> H     -2.478210    0.046473    2.105055
| 26> H     -0.914394   -0.693657    1.713800
| 27> *
| 28>
| 29>                          ****END OF INPUT****

CARTESIAN COORDINATES (ANGSTROEM)
---------------------------------
  C      2.998166   -0.117026    0.186742
  C      2.250260   -1.206555   -0.245165
  C      2.377431    1.120060    0.328290
  C      0.896545   -1.067455   -0.525584
  C      1.027004    1.269555    0.042344
  C      0.267676    0.172124   -0.374549
  C     -2.052493    0.014676    0.007335
  C     -3.450793    0.232807   -0.503277
  C     -1.944865   -0.582860    1.389174
  N     -1.078820    0.350050   -0.736188
  H      4.051545   -0.228318    0.403476
  H      2.721570   -2.173091   -0.366506
  H      2.949124    1.977574    0.658099
  H      0.319634   -1.913528   -0.874264
  H      0.548756    2.235247    0.134308
  H     -4.006387    0.889434    0.170715
  H     -3.995891   -0.713622   -0.539447
  H     -3.427654    0.672409   -1.496672
  H     -2.429938   -1.561221    1.412890
  H     -2.478210    0.046473    2.105055
  H     -0.914394   -0.693657    1.713800

 Total Charge           Charge          ....    0
 Multiplicity           Mult            ....    1
 Number of Electrons    NEL             ....   72
 Basis Dimension        Dim             ....  713

ORBITAL ENERGIES
----------------

  NO   OCC          E(Eh)            E(eV)
   0   2.0000     -15.552344      -423.2008
   1   2.0000     -11.295306      -307.3609
   2   2.0000     -11.265837      -306.5590
   3   2.0000     -11.232115      -305.6414
   4   2.0000     -11.231883      -305.6351
   5   2.0000     -11.231519      -305.6252
   6   2.0000     -11.226681      -305.4935
   7   2.0000     -11.223735      -305.4134
   8   2.0000     -11.222765      -305.3870
   9   2.0000     -11.222202      -305.3716
  10   2.0000      -1.249963       -34.0132
  11   2.0000      -1.140514       -31.0350
  12   2.0000      -1.045730       -28.4557
  13   2.0000      -1.011041       -27.5118
  14   2.0000      -0.981567       -26.7098
  15   2.0000      -0.956938       -26.0396
  16   2.0000      -0.832843       -22.6628
  17   2.0000      -0.824383       -22.4326
  18   2.0000      -0.742379       -20.2012
  19   2.0000      -0.682641       -18.5756
  20   2.0000      -0.654845       -17.8192
  21   2.0000      -0.633770       -17.2458
  22   2.0000      -0.621315       -16.9068
  23   2.0000      -0.606723       -16.5098
  24   2.0000      -0.603579       -16.4242
  25   2.0000      -0.581397       -15.8206
  26   2.0000      -0.554938       -15.1006
  27   2.0000      -0.551255       -15.0004
  28   2.0000      -0.525243       -14.2926
  29   2.0000      -0.514251       -13.9935
  30   2.0000      -0.498081       -13.5535
  31   2.0000      -0.493989       -13.4421
  32   2.0000      -0.422750       -11.5036
  33   2.0000      -0.411487       -11.1971
  34   2.0000      -0.334681        -9.1071
  35   2.0000      -0.305644        -8.3170
  36   0.0000       0.026722         0.7271
  37   0.0000       0.032161         0.8752
  38   0.0000       0.034101         0.9279
  39   0.0000       0.038157         1.0383
  40   0.0000       0.044492         1.2107

MULLIKEN ATOMIC CHARGES
-----------------------
   0 C :   -0.374982
   1 C :   -0.505878
   2 C :   -0.431547
   3 C :   -0.761698
   4 C :   -1.070908
   5 C :    1.828172
   6 C :    0.274380
   7 C :   -0.965390
   8 C :   -1.062986
   9 N :   -1.092513
  10 H :    0.538494
  11 H :    0.317291
  12 H :    0.328326
  13 H :    0.561837
  14 H :    0.565807
  15 H :    0.296181
  16 H :    0.290047
  17 H :    0.300605
  18 H :    0.283070
  19 H :    0.280558
  20 H :    0.401134
Sum of atomic charges:    0.0000000

LOEWDIN ATOMIC CHARGES
----------------------
   0 C :    0.186069
   1 C :    0.186708
   2 C :    0.186388
   3 C :    0.203149
   4 C :    0.208649
   5 C :   -0.332815
   6 C :   -0.277787
   7 C :    0.580530
   8 C :    0.603184
   9 N :    0.405932
  10 H :   -0.192699
  11 H :   -0.184855
  12 H :   -0.184846
  13 H :   -0.179282
  14 H :   -0.181687
  15 H :   -0.168996
  16 H :   -0.168336
  17 H :   -0.180823
  18 H :   -0.161161
  19 H :   -0.162422
  20 H :   -0.184903

  Mayer bond orders larger than 0.100000
B(  0-C ,  1-C ) :   1.2490 B(  0-C ,  2-C ) :   1.2286 B(  0-C ,  4-C ) :   0.1653
B(  0-C , 10-H ) :   0.7012 B(  0-C , 11-H ) :  -0.1072 B(  0-C , 12-H ) :  -0.1248
B(  1-C ,  2-C ) :  -0.1130 B(  1-C ,  3-C ) :   1.1943 B(  1-C , 11-H ) :   1.0385
B(  2-C ,  4-C ) :   1.1951 B(  2-C , 12-H ) :   1.0102 B(  3-C ,  4-C ) :   0.4683
B(  3-C ,  5-C ) :   0.6944 B(  3-C , 13-H ) :   0.5884 B(  4-C ,  5-C ) :   0.4920
B(  4-C , 14-H ) :   0.5100 B(  5-C ,  6-C ) :  -0.2837 B(  5-C ,  9-N ) :  -0.5312
B(  5-C , 14-H ) :   0.1105 B(  6-C ,  7-C ) :   0.6153 B(  6-C ,  8-C ) :   0.8640
B(  6-C ,  9-N ) :   1.7994 B(  7-C , 15-H ) :   1.0107 B(  7-C , 16-H ) :   1.0025
B(  7-C , 17-H ) :   0.9243 B(  8-C ,  9-N ) :   0.1528 B(  8-C , 18-H ) :   0.9785
B(  8-C , 19-H ) :   0.9804 B(  8-C , 20-H ) :   0.8604 B(  9-N , 13-H ) :  -0.1583
B(  9-N , 14-H ) :  -0.1290

MP2 TOTAL ENERGY:     -403.476932203 Eh
FINAL SINGLE POINT ENERGY      -403.476932203483

DIPOLE MOMENT
-------------
                                X             Y             Z
Electronic contribution:      6.18217       1.17117      -2.66024
Nuclear contribution   :     -6.76967      -1.48247       3.36762
                        -----------------------------------------
Total Dipole Moment    :     -0.58749      -0.31130       0.70738
                        -----------------------------------------
Magnitude (a.u.)       :      0.97079
Magnitude (Debye)      :      2.46756

Rotational constants in cm-1:     0.112778     0.025545     0.024085
Rotational constants in MHz :  3380.990729   765.826538   722.046256

                             ****ORCA TERMINATED NORMALLY****
TOTAL RUN TIME: 0 days 0 hours 13 minutes 54 seconds 510 msec
