                         Program Version 5.0.3 -  RELEASE  -
|  1> !ri-mp2 aug-cc-pvtz aug-cc-pvtz/c tightscf
|  2> %pal nprocs 16 end
|  3>
|  4> * xyz 0 1
|  5> C     -0.000029   -1.883915    0.767287
|  6> N      0.000023    0.323654    0.000000
|  7> C      0.000000   -0.423893   -1.187980
|  8> C     -0.000029   -1.883915   -0.767287
|  9> C      0.000000   -0.423893    1.187980
| 10> Cl     0.000020    2.020882    0.000000
| 11> H      0.876572   -2.363854   -1.200021
| 12> H     -0.876661   -2.363803   -1.200016
| 13> H      0.876572   -2.363854    1.200021
| 14> H     -0.876661   -2.363803    1.200016
| 15> O      0.000000    0.033027   -2.295994
| 16> O      0.000000    0.033027    2.295994
| 17> *
| 18>
| 19>                          ****END OF INPUT****

CARTESIAN COORDINATES (ANGSTROEM)
---------------------------------
  C     -0.000029   -1.883915    0.767287
  N      0.000023    0.323654    0.000000
  C      0.000000   -0.423893   -1.187980
  C     -0.000029   -1.883915   -0.767287
  C      0.000000   -0.423893    1.187980
  Cl     0.000020    2.020882    0.000000
  H      0.876572   -2.363854   -1.200021
  H     -0.876661   -2.363803   -1.200016
  H      0.876572   -2.363854    1.200021
  H     -0.876661   -2.363803    1.200016
  O      0.000000    0.033027   -2.295994
  O      0.000000    0.033027    2.295994

 Total Charge           Charge          ....    0
 Multiplicity           Mult            ....    1
 Number of Electrons    NEL             ....   68
 Basis Dimension        Dim             ....  464

ORBITAL ENERGIES
----------------

  NO   OCC          E(Eh)            E(eV)
   0   2.0000    -104.896348     -2854.3748
   1   2.0000     -20.568758      -559.7044
   2   2.0000     -20.568758      -559.7044
   3   2.0000     -15.678754      -426.6406
   4   2.0000     -11.395679      -310.0922
   5   2.0000     -11.395662      -310.0917
   6   2.0000     -11.281352      -306.9812
   7   2.0000     -11.280755      -306.9650
   8   2.0000     -10.616444      -288.8881
   9   2.0000      -8.083603      -219.9660
  10   2.0000      -8.080634      -219.8852
  11   2.0000      -8.080534      -219.8825
  12   2.0000      -1.445651       -39.3382
  13   2.0000      -1.423671       -38.7400
  14   2.0000      -1.314804       -35.7776
  15   2.0000      -1.153703       -31.3938
  16   2.0000      -1.051522       -28.6134
  17   2.0000      -0.975874       -26.5549
  18   2.0000      -0.865573       -23.5534
  19   2.0000      -0.774580       -21.0774
  20   2.0000      -0.710186       -19.3252
  21   2.0000      -0.703902       -19.1541
  22   2.0000      -0.681425       -18.5425
  23   2.0000      -0.634297       -17.2601
  24   2.0000      -0.623732       -16.9726
  25   2.0000      -0.622145       -16.9294
  26   2.0000      -0.602175       -16.3860
  27   2.0000      -0.585263       -15.9258
  28   2.0000      -0.518019       -14.0960
  29   2.0000      -0.517138       -14.0720
  30   2.0000      -0.491335       -13.3699
  31   2.0000      -0.480002       -13.0615
  32   2.0000      -0.445427       -12.1207
  33   2.0000      -0.419667       -11.4197
  34   0.0000       0.020363         0.5541
  35   0.0000       0.033827         0.9205
  36   0.0000       0.038797         1.0557
  37   0.0000       0.052882         1.4390
  38   0.0000       0.056996         1.5509

MULLIKEN ATOMIC CHARGES
-----------------------
   0 C :   -0.286511
   1 N :    0.487843
   2 C :    0.246768
   3 C :   -0.286511
   4 C :    0.246768
   5 Cl:   -0.089512
   6 H :    0.281292
   7 H :    0.281286
   8 H :    0.281292
   9 H :    0.281286
  10 O :   -0.722001
  11 O :   -0.722001
Sum of atomic charges:    0.0000000

LOEWDIN ATOMIC CHARGES
----------------------
   0 C :    0.309936
   1 N :   -0.350216
   2 C :   -0.744181
   3 C :    0.309936
   4 C :   -0.744181
   5 Cl:    0.917460
   6 H :   -0.145153
   7 H :   -0.145153
   8 H :   -0.145153
   9 H :   -0.145153
  10 O :    0.440930
  11 O :    0.440930

  Mayer bond orders larger than 0.100000
B(  0-C ,  2-C ) :   0.1635 B(  0-C ,  3-C ) :   0.9733 B(  0-C ,  4-C ) :   0.5458
B(  0-C ,  8-H ) :   0.9472 B(  0-C ,  9-H ) :   0.9472 B(  1-N ,  2-C ) :   0.8932
B(  1-N ,  4-C ) :   0.8932 B(  1-N ,  5-Cl) :   0.9559 B(  1-N , 10-O ) :  -0.1306
B(  1-N , 11-O ) :  -0.1306 B(  2-C ,  3-C ) :   0.5458 B(  2-C , 10-O ) :   1.5563
B(  3-C ,  4-C ) :   0.1635 B(  3-C ,  6-H ) :   0.9472 B(  3-C ,  7-H ) :   0.9472
B(  4-C , 11-O ) :   1.5563

MP2 TOTAL ENERGY:     -819.126813352 Eh
FINAL SINGLE POINT ENERGY      -819.126813352088

DIPOLE MOMENT
-------------
                                X             Y             Z
Electronic contribution:      0.00017      10.31150      -0.00000
Nuclear contribution   :     -0.00020     -11.80511       0.00000
                        -----------------------------------------
Total Dipole Moment    :     -0.00002      -1.49360      -0.00000
                        -----------------------------------------
Magnitude (a.u.)       :      1.49360
Magnitude (Debye)      :      3.79643

Rotational constants in cm-1:     0.074714     0.064746     0.035135
Rotational constants in MHz :  2239.863554  1941.037351  1053.316277

                             ****ORCA TERMINATED NORMALLY****
TOTAL RUN TIME: 0 days 0 hours 4 minutes 7 seconds 22 msec
