                         Program Version 5.0.3 -  RELEASE  -
|  1> !ri-mp2 aug-cc-pvtz aug-cc-pvtz/c tightscf
|  2> %pal nprocs 16 end
|  3>
|  4> * xyz 0 1
|  5> Cl     0.728531    1.497292    0.772640
|  6> Cl     2.223389   -0.562465   -0.591632
|  7> O     -2.668641   -0.240390    0.519523
|  8> O     -1.881708    0.532517   -1.435981
|  9> N      0.638389    0.232441   -0.474123
| 10> C     -0.389595   -0.778712   -0.100354
| 11> C     -1.770143   -0.126666   -0.269201
| 12> C     -0.253722   -1.474534    1.243293
| 13> H     -2.779254    0.895548   -1.477125
| 14> H     -0.305243   -1.508256   -0.910817
| 15> H      0.726260   -1.938756    1.327217
| 16> H     -0.395120   -0.777206    2.064971
| 17> H     -1.014466   -2.248024    1.326727
| 18> *
| 19>
| 20>                          ****END OF INPUT****

CARTESIAN COORDINATES (ANGSTROEM)
---------------------------------
  Cl     0.728531    1.497292    0.772640
  Cl     2.223389   -0.562465   -0.591632
  O     -2.668641   -0.240390    0.519523
  O     -1.881708    0.532517   -1.435981
  N      0.638389    0.232441   -0.474123
  C     -0.389595   -0.778712   -0.100354
  C     -1.770143   -0.126666   -0.269201
  C     -0.253722   -1.474534    1.243293
  H     -2.779254    0.895548   -1.477125
  H     -0.305243   -1.508256   -0.910817
  H      0.726260   -1.938756    1.327217
  H     -0.395120   -0.777206    2.064971
  H     -1.014466   -2.248024    1.326727

 Total Charge           Charge          ....    0
 Multiplicity           Mult            ....    1
 Number of Electrons    NEL             ....   80
 Basis Dimension        Dim             ....  491

ORBITAL ENERGIES
----------------

  NO   OCC          E(Eh)            E(eV)
   0   2.0000    -104.881420     -2853.9685
   1   2.0000    -104.878750     -2853.8959
   2   2.0000     -20.627597      -561.3054
   3   2.0000     -20.569797      -559.7326
   4   2.0000     -15.707294      -427.4172
   5   2.0000     -11.406383      -310.3835
   6   2.0000     -11.319602      -308.0220
   7   2.0000     -11.236859      -305.7705
   8   2.0000     -10.602591      -288.5112
   9   2.0000     -10.600047      -288.4419
  10   2.0000      -8.069414      -219.5799
  11   2.0000      -8.066995      -219.5141
  12   2.0000      -8.066866      -219.5106
  13   2.0000      -8.066809      -219.5090
  14   2.0000      -8.064465      -219.4453
  15   2.0000      -8.064268      -219.4399
  16   2.0000      -1.484750       -40.4021
  17   2.0000      -1.382695       -37.6250
  18   2.0000      -1.303194       -35.4617
  19   2.0000      -1.109887       -30.2016
  20   2.0000      -1.095344       -29.8058
  21   2.0000      -0.978224       -26.6188
  22   2.0000      -0.910912       -24.7872
  23   2.0000      -0.803834       -21.8734
  24   2.0000      -0.726074       -19.7575
  25   2.0000      -0.720157       -19.5965
  26   2.0000      -0.689683       -18.7672
  27   2.0000      -0.634292       -17.2600
  28   2.0000      -0.625191       -17.0123
  29   2.0000      -0.616100       -16.7649
  30   2.0000      -0.596642       -16.2354
  31   2.0000      -0.552754       -15.0412
  32   2.0000      -0.548788       -14.9333
  33   2.0000      -0.530669       -14.4403
  34   2.0000      -0.501081       -13.6351
  35   2.0000      -0.494242       -13.4490
  36   2.0000      -0.482806       -13.1378
  37   2.0000      -0.465362       -12.6631
  38   2.0000      -0.458579       -12.4786
  39   2.0000      -0.411283       -11.1916
  40   0.0000       0.028041         0.7630
  41   0.0000       0.034177         0.9300
  42   0.0000       0.041463         1.1283
  43   0.0000       0.048267         1.3134
  44   0.0000       0.056010         1.5241

MULLIKEN ATOMIC CHARGES
-----------------------
   0 Cl:   -0.142892
   1 Cl:   -0.128807
   2 O :   -0.803245
   3 O :   -0.434027
   4 N :   -0.344048
   5 C :    0.666911
   6 C :    0.452133
   7 C :   -0.890924
   8 H :    0.239725
   9 H :    0.470444
  10 H :    0.276252
  11 H :    0.332070
  12 H :    0.306408
Sum of atomic charges:   -0.0000000

LOEWDIN ATOMIC CHARGES
----------------------
   0 Cl:    0.726173
   1 Cl:    0.715862
   2 O :    0.469624
   3 O :    0.834847
   4 N :   -0.773556
   5 C :   -0.424215
   6 C :   -0.831216
   7 C :    0.510312
   8 H :   -0.461691
   9 H :   -0.189497
  10 H :   -0.207001
  11 H :   -0.200244
  12 H :   -0.169398

  Mayer bond orders larger than 0.100000
B(  0-Cl,  4-N ) :   0.9123 B(  0-Cl,  5-C ) :  -0.1286 B(  1-Cl,  4-N ) :   0.9434
B(  2-O ,  6-C ) :   1.3890 B(  3-O ,  6-C ) :   1.0194 B(  3-O ,  8-H ) :   0.9634
B(  4-N ,  5-C ) :   0.6003 B(  5-C ,  6-C ) :   0.5790 B(  5-C ,  7-C ) :   0.8753
B(  5-C ,  9-H ) :   0.8589 B(  7-C , 10-H ) :   0.9759 B(  7-C , 11-H ) :   0.9225
B(  7-C , 12-H ) :   0.9402

MP2 TOTAL ENERGY:    -1241.363200843 Eh
FINAL SINGLE POINT ENERGY     -1241.363200843105

DIPOLE MOMENT
-------------
                                X             Y             Z
Electronic contribution:      7.59649       6.14027      -2.20012
Nuclear contribution   :     -7.66425      -6.56977       1.95414
                        -----------------------------------------
Total Dipole Moment    :     -0.06776      -0.42950      -0.24598
                        -----------------------------------------
Magnitude (a.u.)       :      0.49957
Magnitude (Debye)      :      1.26981

Rotational constants in cm-1:     0.068196     0.032287     0.029848
Rotational constants in MHz :  2044.468826   967.929450   894.806501

                             ****ORCA TERMINATED NORMALLY****
TOTAL RUN TIME: 0 days 0 hours 4 minutes 47 seconds 192 msec
