                         Program Version 5.0.3 -  RELEASE  -
|  1> !ri-mp2 aug-cc-pvtz aug-cc-pvtz/c tightscf
|  2> %pal nprocs 16 end
|  3>
|  4> * xyz 0 1
|  5> C      0.484528    0.165592    0.000016
|  6> C      1.812482   -0.565934   -0.000009
|  7> C     -1.975116   -0.101915   -0.000016
|  8> N     -0.623641   -0.629072    0.000038
|  9> O      0.425955    1.384169    0.000000
| 10> H      2.378559   -0.258444   -0.878404
| 11> H      2.378838   -0.257978    0.878038
| 12> H      1.716856   -1.651294    0.000288
| 13> H     -2.523186   -0.423664   -0.887098
| 14> H     -1.906742    0.982265   -0.000850
| 15> H     -2.522801   -0.422285    0.887811
| 16> H     -0.495040   -1.624899    0.000005
| 17> *
| 18>
| 19>                          ****END OF INPUT****

CARTESIAN COORDINATES (ANGSTROEM)
---------------------------------
  C      0.484528    0.165592    0.000016
  C      1.812482   -0.565934   -0.000009
  C     -1.975116   -0.101915   -0.000016
  N     -0.623641   -0.629072    0.000038
  O      0.425955    1.384169    0.000000
  H      2.378559   -0.258444   -0.878404
  H      2.378838   -0.257978    0.878038
  H      1.716856   -1.651294    0.000288
  H     -2.523186   -0.423664   -0.887098
  H     -1.906742    0.982265   -0.000850
  H     -2.522801   -0.422285    0.887811
  H     -0.495040   -1.624899    0.000005

 Total Charge           Charge          ....    0
 Multiplicity           Mult            ....    1
 Number of Electrons    NEL             ....   40
 Basis Dimension        Dim             ....  391

ORBITAL ENERGIES
----------------

  NO   OCC          E(Eh)            E(eV)
   0   2.0000     -20.510555      -558.1206
   1   2.0000     -15.586556      -424.1317
   2   2.0000     -11.347696      -308.7865
   3   2.0000     -11.257824      -306.3410
   4   2.0000     -11.235931      -305.7452
   5   2.0000      -1.375538       -37.4303
   6   2.0000      -1.228361       -33.4254
   7   2.0000      -1.016195       -27.6521
   8   2.0000      -0.932128       -25.3645
   9   2.0000      -0.787951       -21.4412
  10   2.0000      -0.690121       -18.7792
  11   2.0000      -0.651304       -17.7229
  12   2.0000      -0.631736       -17.1904
  13   2.0000      -0.586459       -15.9584
  14   2.0000      -0.581028       -15.8106
  15   2.0000      -0.554136       -15.0788
  16   2.0000      -0.544785       -14.8244
  17   2.0000      -0.505125       -13.7452
  18   2.0000      -0.420167       -11.4333
  19   2.0000      -0.391293       -10.6476
  20   0.0000       0.022941         0.6243
  21   0.0000       0.035132         0.9560
  22   0.0000       0.041481         1.1288
  23   0.0000       0.043921         1.1952
  24   0.0000       0.056294         1.5318

MULLIKEN ATOMIC CHARGES
-----------------------
   0 C :    0.425537
   1 C :   -0.666480
   2 C :   -0.901418
   3 N :   -0.127879
   4 O :   -0.798527
   5 H :    0.288907
   6 H :    0.288935
   7 H :    0.308447
   8 H :    0.325302
   9 H :    0.436996
  10 H :    0.325242
  11 H :    0.094938
Sum of atomic charges:    0.0000000

LOEWDIN ATOMIC CHARGES
----------------------
   0 C :   -0.684050
   1 C :    0.592840
   2 C :    0.499937
   3 N :    0.533503
   4 O :    0.431287
   5 H :   -0.173796
   6 H :   -0.173806
   7 H :   -0.188012
   8 H :   -0.167908
   9 H :   -0.199721
  10 H :   -0.167893
  11 H :   -0.302381

  Mayer bond orders larger than 0.100000
B(  0-C ,  1-C ) :   0.5852 B(  0-C ,  3-N ) :   1.0614 B(  0-C ,  4-O ) :   1.4130
B(  1-C ,  5-H ) :   0.9759 B(  1-C ,  6-H ) :   0.9759 B(  1-C ,  7-H ) :   0.9060
B(  2-C ,  3-N ) :   0.8874 B(  2-C ,  8-H ) :   0.9022 B(  2-C ,  9-H ) :   0.8375
B(  2-C , 10-H ) :   0.9022 B(  3-N , 11-H ) :   1.0806

MP2 TOTAL ENERGY:     -248.070300226 Eh
FINAL SINGLE POINT ENERGY      -248.070300225664

DIPOLE MOMENT
-------------
                                X             Y             Z
Electronic contribution:      0.76197       2.14190       0.00014
Nuclear contribution   :     -0.99739      -3.73911      -0.00022
                        -----------------------------------------
Total Dipole Moment    :     -0.23542      -1.59721      -0.00008
                        -----------------------------------------
Magnitude (a.u.)       :      1.61446
Magnitude (Debye)      :      4.10364

Rotational constants in cm-1:     0.335584     0.127864     0.095897
Rotational constants in MHz : 10060.564563  3833.257774  2874.918376

                             ****ORCA TERMINATED NORMALLY****
TOTAL RUN TIME: 0 days 0 hours 2 minutes 6 seconds 978 msec
