                         Program Version 5.0.3 -  RELEASE  -
|  1> !ri-mp2 aug-cc-pvtz aug-cc-pvtz/c tightscf
|  2> %pal nprocs 16 end
|  3>
|  4> * xyz 0 1
|  5> C      0.504007    0.162021   -0.000522
|  6> C      1.815083   -0.581550    0.000816
|  7> C     -1.959986   -0.145515    0.001321
|  8> N      0.504425    1.442302    0.000085
|  9> N     -0.605061   -0.647080   -0.003604
| 10> H      1.900600   -1.219398    0.883090
| 11> H      1.902657   -1.218859   -0.881594
| 12> H      2.630056    0.134963    0.002108
| 13> H     -2.164863    0.459162    0.889530
| 14> H     -2.648126   -0.987714   -0.000986
| 15> H     -2.167537    0.465376   -0.881811
| 16> H     -0.436074    1.830537   -0.000616
| 17> H     -0.466885   -1.640362    0.005221
| 18> *
| 19>
| 20>                          ****END OF INPUT****

CARTESIAN COORDINATES (ANGSTROEM)
---------------------------------
  C      0.504007    0.162021   -0.000522
  C      1.815083   -0.581550    0.000816
  C     -1.959986   -0.145515    0.001321
  N      0.504425    1.442302    0.000085
  N     -0.605061   -0.647080   -0.003604
  H      1.900600   -1.219398    0.883090
  H      1.902657   -1.218859   -0.881594
  H      2.630056    0.134963    0.002108
  H     -2.164863    0.459162    0.889530
  H     -2.648126   -0.987714   -0.000986
  H     -2.167537    0.465376   -0.881811
  H     -0.436074    1.830537   -0.000616
  H     -0.466885   -1.640362    0.005221

 Total Charge           Charge          ....    0
 Multiplicity           Mult            ....    1
 Number of Electrons    NEL             ....   40
 Basis Dimension        Dim             ....  414

ORBITAL ENERGIES
----------------

  NO   OCC          E(Eh)            E(eV)
   0   2.0000     -15.576821      -423.8669
   1   2.0000     -15.510598      -422.0648
   2   2.0000     -11.308490      -307.7197
   3   2.0000     -11.266564      -306.5788
   4   2.0000     -11.224534      -305.4351
   5   2.0000      -1.270024       -34.5591
   6   2.0000      -1.145808       -31.1790
   7   2.0000      -1.001139       -27.2424
   8   2.0000      -0.928726       -25.2719
   9   2.0000      -0.770416       -20.9641
  10   2.0000      -0.703258       -19.1366
  11   2.0000      -0.661226       -17.9929
  12   2.0000      -0.625972       -17.0336
  13   2.0000      -0.577181       -15.7059
  14   2.0000      -0.561971       -15.2920
  15   2.0000      -0.543904       -14.8004
  16   2.0000      -0.535989       -14.5850
  17   2.0000      -0.464301       -12.6343
  18   2.0000      -0.413361       -11.2481
  19   2.0000      -0.351463        -9.5638
  20   0.0000       0.023325         0.6347
  21   0.0000       0.035356         0.9621
  22   0.0000       0.041233         1.1220
  23   0.0000       0.042661         1.1609
  24   0.0000       0.054606         1.4859

MULLIKEN ATOMIC CHARGES
-----------------------
   0 C :    0.181197
   1 C :   -0.666345
   2 C :   -0.886785
   3 N :   -0.704734
   4 N :   -0.096972
   5 H :    0.290256
   6 H :    0.291184
   7 H :    0.326705
   8 H :    0.321561
   9 H :    0.385037
  10 H :    0.322876
  11 H :    0.113095
  12 H :    0.122924
Sum of atomic charges:    0.0000000

LOEWDIN ATOMIC CHARGES
----------------------
   0 C :   -0.460216
   1 C :    0.576001
   2 C :    0.480333
   3 N :    0.649992
   4 N :    0.542710
   5 H :   -0.170733
   6 H :   -0.170686
   7 H :   -0.185937
   8 H :   -0.164325
   9 H :   -0.168549
  10 H :   -0.164640
  11 H :   -0.467330
  12 H :   -0.296619

  Mayer bond orders larger than 0.100000
B(  0-C ,  1-C ) :   0.5841 B(  0-C ,  2-C ) :  -0.1403 B(  0-C ,  3-N ) :   1.2402
B(  0-C ,  4-N ) :   0.8875 B(  1-C ,  5-H ) :   0.9401 B(  1-C ,  6-H ) :   0.9399
B(  1-C ,  7-H ) :   0.9390 B(  2-C ,  4-N ) :   0.8883 B(  2-C ,  8-H ) :   0.9140
B(  2-C ,  9-H ) :   0.8878 B(  2-C , 10-H ) :   0.9117 B(  3-N , 11-H ) :   1.0224
B(  4-N , 12-H ) :   1.0245

MP2 TOTAL ENERGY:     -228.182645404 Eh
FINAL SINGLE POINT ENERGY      -228.182645404457

DIPOLE MOMENT
-------------
                                X             Y             Z
Electronic contribution:      0.73252       0.97331      -0.00955
Nuclear contribution   :     -1.51136      -2.26233       0.01554
                        -----------------------------------------
Total Dipole Moment    :     -0.77883      -1.28902       0.00599
                        -----------------------------------------
Magnitude (a.u.)       :      1.50605
Magnitude (Debye)      :      3.82809

Rotational constants in cm-1:     0.317633     0.127761     0.094326
Rotational constants in MHz :  9522.406597  3830.176496  2827.817733

                             ****ORCA TERMINATED NORMALLY****
TOTAL RUN TIME: 0 days 0 hours 2 minutes 27 seconds 898 msec
