                         Program Version 5.0.3 -  RELEASE  -
|  1> !ri-mp2 aug-cc-pvtz aug-cc-pvtz/c tightscf
|  2> %pal nprocs 16 end
|  3>
|  4> * xyz 0 1
|  5> N      0.000000    0.712570   -0.000004
|  6> C      1.187127    0.077814   -0.000007
|  7> C     -1.187127    0.077815   -0.000007
|  8> C      2.251031   -0.475403    0.000008
|  9> C     -2.251031   -0.475403    0.000009
| 10> H      0.000000    1.720650    0.000024
| 11> H      3.189310   -0.968793   -0.000008
| 12> H     -3.189310   -0.968793   -0.000007
| 13> *
| 14>
| 15>                          ****END OF INPUT****

CARTESIAN COORDINATES (ANGSTROEM)
---------------------------------
  N      0.000000    0.712570   -0.000004
  C      1.187127    0.077814   -0.000007
  C     -1.187127    0.077815   -0.000007
  C      2.251031   -0.475403    0.000008
  C     -2.251031   -0.475403    0.000009
  H      0.000000    1.720650    0.000024
  H      3.189310   -0.968793   -0.000008
  H     -3.189310   -0.968793   -0.000007

 Total Charge           Charge          ....    0
 Multiplicity           Mult            ....    1
 Number of Electrons    NEL             ....   34
 Basis Dimension        Dim             ....  299

ORBITAL ENERGIES
----------------

  NO   OCC          E(Eh)            E(eV)
   0   2.0000     -15.642073      -425.6424
   1   2.0000     -11.280668      -306.9626
   2   2.0000     -11.280654      -306.9622
   3   2.0000     -11.230448      -305.5960
   4   2.0000     -11.230448      -305.5960
   5   2.0000      -1.297292       -35.3011
   6   2.0000      -1.045122       -28.4392
   7   2.0000      -1.006729       -27.3945
   8   2.0000      -0.829329       -22.5672
   9   2.0000      -0.783925       -21.3317
  10   2.0000      -0.707354       -19.2481
  11   2.0000      -0.700093       -19.0505
  12   2.0000      -0.593382       -16.1467
  13   2.0000      -0.421143       -11.4599
  14   2.0000      -0.418764       -11.3951
  15   2.0000      -0.406767       -11.0687
  16   2.0000      -0.334553        -9.1037
  17   0.0000       0.025766         0.7011
  18   0.0000       0.031992         0.8705
  19   0.0000       0.037761         1.0275
  20   0.0000       0.080395         2.1877
  21   0.0000       0.084705         2.3049

MULLIKEN ATOMIC CHARGES
-----------------------
   0 N :    0.029949
   1 C :    0.886948
   2 C :    0.886945
   3 C :   -1.574826
   4 C :   -1.574824
   5 H :    0.274157
   6 H :    0.535825
   7 H :    0.535826
Sum of atomic charges:    0.0000000

LOEWDIN ATOMIC CHARGES
----------------------
   0 N :    0.377586
   1 C :   -0.108523
   2 C :   -0.108523
   3 C :    0.374693
   4 C :    0.374693
   5 H :   -0.287222
   6 H :   -0.311352
   7 H :   -0.311352

  Mayer bond orders larger than 0.100000
B(  0-N ,  1-C ) :   0.8694 B(  0-N ,  2-C ) :   0.8694 B(  0-N ,  3-C ) :  -0.1735
B(  0-N ,  4-C ) :  -0.1735 B(  0-N ,  5-H ) :   0.9791 B(  1-C ,  3-C ) :   1.3063
B(  2-C ,  4-C ) :   1.3063 B(  3-C ,  6-H ) :   0.7478 B(  4-C ,  7-H ) :   0.7477

MP2 TOTAL ENERGY:     -208.394598257 Eh
FINAL SINGLE POINT ENERGY      -208.394598257276

DIPOLE MOMENT
-------------
                                X             Y             Z
Electronic contribution:      0.00000       0.61556      -0.00001
Nuclear contribution   :      0.00000      -0.20876       0.00001
                        -----------------------------------------
Total Dipole Moment    :      0.00000       0.40680      -0.00000
                        -----------------------------------------
Magnitude (a.u.)       :      0.40680
Magnitude (Debye)      :      1.03400

Rotational constants in cm-1:     0.959864     0.095737     0.087054
Rotational constants in MHz : 28776.007155  2870.129096  2609.824301

                             ****ORCA TERMINATED NORMALLY****
TOTAL RUN TIME: 0 days 0 hours 1 minutes 28 seconds 155 msec
