                         Program Version 5.0.3 -  RELEASE  -
|  1> !ri-mp2 aug-cc-pvtz aug-cc-pvtz/c tightscf
|  2> %pal nprocs 16 end
|  3>
|  4> * xyz 0 1
|  5> C     -2.061141    1.167898    0.047427
|  6> C      2.042644    1.195619   -0.057100
|  7> N     -0.984023    0.568342   -0.743304
|  8> N      1.205917    0.297792    0.735190
|  9> O     -0.706460   -1.214268    1.093487
| 10> O      0.585495   -1.313495   -1.089732
| 11> S      0.003297   -0.568296    0.006116
| 12> H     -2.593209    1.870367   -0.591540
| 13> H     -1.635479    1.730384    0.877392
| 14> H     -2.760962    0.433271    0.448081
| 15> H      1.506342    2.078498   -0.412353
| 16> H      2.430424    0.647758   -0.912276
| 17> H      2.883696    1.505789    0.560159
| 18> H     -1.279673    0.182618   -1.630608
| 19> H      0.921539    0.622114    1.648067
| 20> *
| 21>
| 22>                          ****END OF INPUT****

CARTESIAN COORDINATES (ANGSTROEM)
---------------------------------
  C     -2.061141    1.167898    0.047427
  C      2.042644    1.195619   -0.057100
  N     -0.984023    0.568342   -0.743304
  N      1.205917    0.297792    0.735190
  O     -0.706460   -1.214268    1.093487
  O      0.585495   -1.313495   -1.089732
  S      0.003297   -0.568296    0.006116
  H     -2.593209    1.870367   -0.591540
  H     -1.635479    1.730384    0.877392
  H     -2.760962    0.433271    0.448081
  H      1.506342    2.078498   -0.412353
  H      2.430424    0.647758   -0.912276
  H      2.883696    1.505789    0.560159
  H     -1.279673    0.182618   -1.630608
  H      0.921539    0.622114    1.648067

 Total Charge           Charge          ....    0
 Multiplicity           Mult            ....    1
 Number of Electrons    NEL             ....   66
 Basis Dimension        Dim             ....  510

ORBITAL ENERGIES
----------------

  NO   OCC          E(Eh)            E(eV)
   0   2.0000     -92.217878     -2509.3760
   1   2.0000     -20.549648      -559.1843
   2   2.0000     -20.548678      -559.1580
   3   2.0000     -15.603216      -424.5851
   4   2.0000     -15.602740      -424.5721
   5   2.0000     -11.278043      -306.8911
   6   2.0000     -11.274839      -306.8040
   7   2.0000      -9.180022      -249.8011
   8   2.0000      -6.865318      -186.8148
   9   2.0000      -6.865239      -186.8126
  10   2.0000      -6.864780      -186.8002
  11   2.0000      -1.470537       -40.0153
  12   2.0000      -1.345953       -36.6252
  13   2.0000      -1.245025       -33.8789
  14   2.0000      -1.224299       -33.3149
  15   2.0000      -0.974001       -26.5039
  16   2.0000      -0.948470       -25.8092
  17   2.0000      -0.838864       -22.8267
  18   2.0000      -0.743607       -20.2346
  19   2.0000      -0.708385       -19.2761
  20   2.0000      -0.683834       -18.6081
  21   2.0000      -0.654424       -17.8078
  22   2.0000      -0.638276       -17.3684
  23   2.0000      -0.615883       -16.7590
  24   2.0000      -0.604002       -16.4357
  25   2.0000      -0.573646       -15.6097
  26   2.0000      -0.567139       -15.4326
  27   2.0000      -0.517213       -14.0741
  28   2.0000      -0.499917       -13.6034
  29   2.0000      -0.495593       -13.4858
  30   2.0000      -0.476730       -12.9725
  31   2.0000      -0.445611       -12.1257
  32   2.0000      -0.423027       -11.5112
  33   0.0000       0.021480         0.5845
  34   0.0000       0.030708         0.8356
  35   0.0000       0.037357         1.0165
  36   0.0000       0.043200         1.1755
  37   0.0000       0.053441         1.4542

MULLIKEN ATOMIC CHARGES
-----------------------
   0 C :   -0.887387
   1 C :   -0.893970
   2 N :   -0.369421
   3 N :   -0.359042
   4 O :   -0.980340
   5 O :   -0.952052
   6 S :    2.130556
   7 H :    0.353360
   8 H :    0.350868
   9 H :    0.354665
  10 H :    0.334933
  11 H :    0.392984
  12 H :    0.357001
  13 H :    0.076765
  14 H :    0.091082
Sum of atomic charges:   -0.0000000

LOEWDIN ATOMIC CHARGES
----------------------
   0 C :    0.424050
   1 C :    0.438510
   2 N :    0.390227
   3 N :    0.376715
   4 O :    0.058198
   5 O :    0.062879
   6 S :    0.054238
   7 H :   -0.175923
   8 H :   -0.181706
   9 H :   -0.181392
  10 H :   -0.176549
  11 H :   -0.187224
  12 H :   -0.174607
  13 H :   -0.369842
  14 H :   -0.357573

  Mayer bond orders larger than 0.100000
B(  0-C ,  2-N ) :   0.9347 B(  0-C ,  7-H ) :   0.9005 B(  0-C ,  8-H ) :   0.8785
B(  0-C ,  9-H ) :   0.8827 B(  1-C ,  3-N ) :   0.8753 B(  1-C , 10-H ) :   0.8960
B(  1-C , 11-H ) :   0.8642 B(  1-C , 12-H ) :   0.8975 B(  2-N ,  6-S ) :   0.8922
B(  2-N , 13-H ) :   0.9650 B(  3-N ,  6-S ) :   0.9927 B(  3-N , 14-H ) :   0.9641
B(  4-O ,  6-S ) :   1.2257 B(  5-O ,  6-S ) :   1.2370

MP2 TOTAL ENERGY:     -738.114772325 Eh
FINAL SINGLE POINT ENERGY      -738.114772324683

DIPOLE MOMENT
-------------
                                X             Y             Z
Electronic contribution:      0.26698      -7.02063       0.03436
Nuclear contribution   :     -0.52715       9.03861      -0.01323
                        -----------------------------------------
Total Dipole Moment    :     -0.26018       2.01797       0.02112
                        -----------------------------------------
Magnitude (a.u.)       :      2.03479
Magnitude (Debye)      :      5.17202

Rotational constants in cm-1:     0.095782     0.068414     0.056326
Rotational constants in MHz :  2871.458515  2051.011251  1688.615707

                             ****ORCA TERMINATED NORMALLY****
TOTAL RUN TIME: 0 days 0 hours 4 minutes 34 seconds 687 msec
