                         Program Version 5.0.3 -  RELEASE  -
|  1> !ri-mp2 aug-cc-pvtz aug-cc-pvtz/c tightscf
|  2> %pal nprocs 16 end
|  3>
|  4> * xyz 0 1
|  5> C     -2.139834   -0.710922    0.596826
|  6> C      1.068695   -0.883406   -0.030439
|  7> N     -1.459776   -0.309985   -0.644054
|  8> O      0.011483    1.442982    0.707174
|  9> S      0.021665    0.552366   -0.498920
| 10> H     -1.644773   -1.577025    1.031747
| 11> H     -3.157132   -1.003061    0.342196
| 12> H     -2.170598    0.089547    1.338748
| 13> C      2.503165   -0.427132    0.192491
| 14> H      0.977363   -1.601303   -0.844626
| 15> H      0.639979   -1.306459    0.877147
| 16> H     -2.062842    0.266509   -1.218062
| 17> H      2.551572    0.320870    0.982347
| 18> H      2.931112    0.002810   -0.714236
| 19> H      3.123098   -1.274945    0.485174
| 20> *
| 21>
| 22>                          ****END OF INPUT****

CARTESIAN COORDINATES (ANGSTROEM)
---------------------------------
  C     -2.139834   -0.710922    0.596826
  C      1.068695   -0.883406   -0.030439
  N     -1.459776   -0.309985   -0.644054
  O      0.011483    1.442982    0.707174
  S      0.021665    0.552366   -0.498920
  H     -1.644773   -1.577025    1.031747
  H     -3.157132   -1.003061    0.342196
  H     -2.170598    0.089547    1.338748
  C      2.503165   -0.427132    0.192491
  H      0.977363   -1.601303   -0.844626
  H      0.639979   -1.306459    0.877147
  H     -2.062842    0.266509   -1.218062
  H      2.551572    0.320870    0.982347
  H      2.931112    0.002810   -0.714236
  H      3.123098   -1.274945    0.485174

 Total Charge           Charge          ....    0
 Multiplicity           Mult            ....    1
 Number of Electrons    NEL             ....   58
 Basis Dimension        Dim             ....  487

ORBITAL ENERGIES
----------------

  NO   OCC          E(Eh)            E(eV)
   0   2.0000     -92.086005     -2505.7876
   1   2.0000     -20.507616      -558.0406
   2   2.0000     -15.588804      -424.1929
   3   2.0000     -11.263030      -306.4826
   4   2.0000     -11.261464      -306.4400
   5   2.0000     -11.230177      -305.5887
   6   2.0000      -9.069091      -246.7825
   7   2.0000      -6.750911      -183.7016
   8   2.0000      -6.750231      -183.6831
   9   2.0000      -6.749101      -183.6524
  10   2.0000      -1.344096       -36.5747
  11   2.0000      -1.210663       -32.9438
  12   2.0000      -1.063115       -28.9288
  13   2.0000      -0.956117       -26.0173
  14   2.0000      -0.892832       -24.2952
  15   2.0000      -0.799653       -21.7597
  16   2.0000      -0.682716       -18.5777
  17   2.0000      -0.648195       -17.6383
  18   2.0000      -0.640058       -17.4169
  19   2.0000      -0.605711       -16.4822
  20   2.0000      -0.598921       -16.2975
  21   2.0000      -0.556954       -15.1555
  22   2.0000      -0.540414       -14.7054
  23   2.0000      -0.530246       -14.4287
  24   2.0000      -0.527233       -14.3467
  25   2.0000      -0.503118       -13.6905
  26   2.0000      -0.443581       -12.0705
  27   2.0000      -0.412007       -11.2113
  28   2.0000      -0.368198       -10.0192
  29   0.0000       0.026637         0.7248
  30   0.0000       0.032376         0.8810
  31   0.0000       0.037727         1.0266
  32   0.0000       0.043691         1.1889
  33   0.0000       0.051146         1.3918

MULLIKEN ATOMIC CHARGES
-----------------------
   0 C :   -0.874478
   1 C :   -0.362105
   2 N :   -0.344252
   3 O :   -0.958336
   4 S :    0.802789
   5 H :    0.347243
   6 H :    0.341114
   7 H :    0.367989
   8 C :   -0.927008
   9 H :    0.335041
  10 H :    0.285079
  11 H :    0.072085
  12 H :    0.333466
  13 H :    0.297535
  14 H :    0.283837
Sum of atomic charges:    0.0000000

LOEWDIN ATOMIC CHARGES
----------------------
   0 C :    0.402338
   1 C :    0.089773
   2 N :    0.296192
   3 O :   -0.160496
   4 S :    0.788696
   5 H :   -0.194185
   6 H :   -0.178739
   7 H :   -0.188230
   8 C :    0.521023
   9 H :   -0.206786
  10 H :   -0.214962
  11 H :   -0.410476
  12 H :   -0.187066
  13 H :   -0.181478
  14 H :   -0.175605

  Mayer bond orders larger than 0.100000
B(  0-C ,  2-N ) :   0.8695 B(  0-C ,  5-H ) :   0.8800 B(  0-C ,  6-H ) :   0.9053
B(  0-C ,  7-H ) :   0.8850 B(  1-C ,  4-S ) :   0.8771 B(  1-C ,  8-C ) :   0.9020
B(  1-C ,  9-H ) :   0.8827 B(  1-C , 10-H ) :   0.8895 B(  2-N ,  4-S ) :   1.0193
B(  2-N , 11-H ) :   0.9812 B(  3-O ,  4-S ) :   1.3094 B(  8-C , 12-H ) :   0.9106
B(  8-C , 13-H ) :   0.9388 B(  8-C , 14-H ) :   0.9672

MP2 TOTAL ENERGY:     -646.939071448 Eh
FINAL SINGLE POINT ENERGY      -646.939071447547

DIPOLE MOMENT
-------------
                                X             Y             Z
Electronic contribution:     -1.42729       4.98913      -2.83875
Nuclear contribution   :      1.19805      -6.17885       2.34096
                        -----------------------------------------
Total Dipole Moment    :     -0.22924      -1.18972      -0.49779
                        -----------------------------------------
Magnitude (a.u.)       :      1.30988
Magnitude (Debye)      :      3.32945

Rotational constants in cm-1:     0.159699     0.065821     0.057414
Rotational constants in MHz :  4787.652070  1973.273807  1721.241594

                             ****ORCA TERMINATED NORMALLY****
TOTAL RUN TIME: 0 days 0 hours 3 minutes 51 seconds 21 msec
