                         Program Version 5.0.3 -  RELEASE  -
|  1> !ri-mp2 aug-cc-pvtz aug-cc-pvtz/c tightscf
|  2> %pal nprocs 16 end
|  3> %maxcore 3800
|  4>
|  5> * xyz 0 1
|  6> C    -1.325488   -1.023014   -0.620671
|  7> C    -1.153772    0.908207    0.754322
|  8> C    -3.123935    0.272789   -0.162363
|  9> C    -0.530909   -0.169977    0.137241
| 10> C     1.986994    1.737827   -1.056432
| 11> N    -2.628272   -0.802402   -0.775809
| 12> N    -2.457181    1.136617    0.601107
| 13> N     1.994174    0.281587   -0.935689
| 14> O     1.635439    0.218540    1.535945
| 15> O     1.440056   -1.889346    0.122330
| 16> S     1.229691   -0.470095    0.327322
| 17> H    -0.905378   -1.902771   -1.092500
| 18> H    -0.596738    1.583105    1.391696
| 19> H    -4.183013    0.459324   -0.293879
| 20> H     1.020179    2.141933   -1.369626
| 21> H     2.740545    2.019831   -1.789059
| 22> H     2.264660    2.168978   -0.098408
| 23> H     1.902340   -0.248049   -1.791428
| 24> *
| 25>
| 26>                          ****END OF INPUT****

CARTESIAN COORDINATES (ANGSTROEM)
---------------------------------
  C     -1.325488   -1.023014   -0.620671
  C     -1.153772    0.908207    0.754322
  C     -3.123935    0.272789   -0.162363
  C     -0.530909   -0.169977    0.137241
  C      1.986994    1.737827   -1.056432
  N     -2.628272   -0.802402   -0.775809
  N     -2.457181    1.136617    0.601107
  N      1.994174    0.281587   -0.935689
  O      1.635439    0.218540    1.535945
  O      1.440056   -1.889346    0.122330
  S      1.229691   -0.470095    0.327322
  H     -0.905378   -1.902771   -1.092500
  H     -0.596738    1.583105    1.391696
  H     -4.183013    0.459324   -0.293879
  H      1.020179    2.141933   -1.369626
  H      2.740545    2.019831   -1.789059
  H      2.264660    2.168978   -0.098408
  H      1.902340   -0.248049   -1.791428

 Total Charge           Charge          ....    0
 Multiplicity           Mult            ....    1
 Number of Electrons    NEL             ....   90
 Basis Dimension        Dim             ....  671

ORBITAL ENERGIES
----------------

  NO   OCC          E(Eh)            E(eV)
   0   2.0000     -92.220580     -2509.4496
   1   2.0000     -20.562326      -559.5293
   2   2.0000     -20.562258      -559.5275
   3   2.0000     -15.616085      -424.9353
   4   2.0000     -15.598651      -424.4609
   5   2.0000     -15.598433      -424.4549
   6   2.0000     -11.342758      -308.6521
   7   2.0000     -11.331291      -308.3401
   8   2.0000     -11.330913      -308.3298
   9   2.0000     -11.293521      -307.3123
  10   2.0000     -11.288552      -307.1771
  11   2.0000      -9.184848      -249.9324
  12   2.0000      -6.870107      -186.9451
  13   2.0000      -6.869628      -186.9321
  14   2.0000      -6.869508      -186.9288
  15   2.0000      -1.475872       -40.1605
  16   2.0000      -1.358605       -36.9695
  17   2.0000      -1.342722       -36.5373
  18   2.0000      -1.249342       -33.9963
  19   2.0000      -1.224637       -33.3241
  20   2.0000      -1.116824       -30.3903
  21   2.0000      -0.983315       -26.7574
  22   2.0000      -0.936623       -25.4868
  23   2.0000      -0.927284       -25.2327
  24   2.0000      -0.852435       -23.1959
  25   2.0000      -0.772909       -21.0319
  26   2.0000      -0.747739       -20.3470
  27   2.0000      -0.738726       -20.1018
  28   2.0000      -0.702215       -19.1082
  29   2.0000      -0.686176       -18.6718
  30   2.0000      -0.641298       -17.4506
  31   2.0000      -0.628344       -17.0981
  32   2.0000      -0.622679       -16.9440
  33   2.0000      -0.614164       -16.7123
  34   2.0000      -0.604981       -16.4624
  35   2.0000      -0.580438       -15.7945
  36   2.0000      -0.539315       -14.6755
  37   2.0000      -0.518216       -14.1014
  38   2.0000      -0.515601       -14.0302
  39   2.0000      -0.491945       -13.3865
  40   2.0000      -0.477816       -13.0020
  41   2.0000      -0.450292       -12.2531
  42   2.0000      -0.446798       -12.1580
  43   2.0000      -0.439159       -11.9501
  44   2.0000      -0.404789       -11.0149
  45   0.0000       0.020214         0.5501
  46   0.0000       0.030998         0.8435
  47   0.0000       0.033666         0.9161
  48   0.0000       0.042874         1.1667
  49   0.0000       0.045433         1.2363

MULLIKEN ATOMIC CHARGES
-----------------------
   0 C :   -0.653102
   1 C :   -0.289061
   2 C :   -0.735512
   3 C :    0.939358
   4 C :   -0.909909
   5 N :   -0.513406
   6 N :   -0.555435
   7 N :   -0.420710
   8 O :   -1.016091
   9 O :   -1.039897
  10 S :    2.124012
  11 H :    0.652049
  12 H :    0.604569
  13 H :    0.596739
  14 H :    0.376601
  15 H :    0.363863
  16 H :    0.396662
  17 H :    0.079270
Sum of atomic charges:    0.0000000

LOEWDIN ATOMIC CHARGES
----------------------
   0 C :   -0.015852
   1 C :   -0.018495
   2 C :   -0.154732
   3 C :   -0.226901
   4 C :    0.442023
   5 N :    0.382737
   6 N :    0.383234
   7 N :    0.379798
   8 O :    0.068675
   9 O :    0.062481
  10 S :    0.153402
  11 H :   -0.188235
  12 H :   -0.188508
  13 H :   -0.194874
  14 H :   -0.172781
  15 H :   -0.171098
  16 H :   -0.190278
  17 H :   -0.350596

  Mayer bond orders larger than 0.100000
B(  0-C ,  1-C ) :   0.4618 B(  0-C ,  2-C ) :  -0.1125 B(  0-C ,  3-C ) :   0.5540
B(  0-C ,  5-N ) :   0.7111 B(  0-C ,  6-N ) :   0.1488 B(  0-C , 10-S ) :  -0.1526
B(  0-C , 11-H ) :   0.4262 B(  1-C ,  2-C ) :  -0.1855 B(  1-C ,  3-C ) :   0.6977
B(  1-C ,  6-N ) :   0.6949 B(  1-C , 10-S ) :  -0.1558 B(  1-C , 12-H ) :   0.5811
B(  2-C ,  3-C ) :  -0.1147 B(  2-C ,  5-N ) :   1.4349 B(  2-C ,  6-N ) :   1.4654
B(  2-C , 13-H ) :   0.5703 B(  3-C ,  5-N ) :  -0.1061 B(  3-C ,  6-N ) :  -0.1536
B(  3-C ,  7-N ) :   0.1273 B(  3-C , 10-S ) :   1.0740 B(  4-C ,  7-N ) :   0.8407
B(  4-C , 14-H ) :   0.8761 B(  4-C , 15-H ) :   0.9087 B(  4-C , 16-H ) :   0.8555
B(  7-N , 10-S ) :   1.0981 B(  7-N , 17-H ) :   0.9727 B(  8-O , 10-S ) :   1.2316
B(  9-O , 10-S ) :   1.0407

MP2 TOTAL ENERGY:     -906.252202561 Eh
FINAL SINGLE POINT ENERGY      -906.252202561169

DIPOLE MOMENT
-------------
                                X             Y             Z
Electronic contribution:     -2.49074      -4.97160       3.46887
Nuclear contribution   :      2.18126       6.06475      -4.91267
                        -----------------------------------------
Total Dipole Moment    :     -0.30948       1.09315      -1.44380
                        -----------------------------------------
Magnitude (a.u.)       :      1.83720
Magnitude (Debye)      :      4.66980

Rotational constants in cm-1:     0.060968     0.023842     0.021725
Rotational constants in MHz :  1827.762266   714.767878   651.306795

                             ****ORCA TERMINATED NORMALLY****
TOTAL RUN TIME: 0 days 0 hours 11 minutes 28 seconds 477 msec
