                         Program Version 5.0.3 -  RELEASE  -
|  1> !ri-mp2 aug-cc-pvtz aug-cc-pvtz/c tightscf
|  2> %pal nprocs 16 end
|  3>
|  4> * xyz 0 1
|  5> S      2.138126   -0.471424   -0.497762
|  6> O     -1.262728    1.239322   -1.123753
|  7> O     -0.184106    2.173393    0.574489
|  8> O     -2.195916   -1.611940    0.020091
|  9> N     -1.071021   -1.335428   -0.264211
| 10> C     -0.489680   -0.243773    0.615987
| 11> C     -0.694454    1.099412   -0.085165
| 12> C      0.973673   -0.594469    0.910781
| 13> H      2.200865    0.872262   -0.543734
| 14> H      0.192088    1.925376    1.427496
| 15> H     -1.071763   -0.233746    1.544268
| 16> H      1.349553   -0.008418    1.748575
| 17> H      1.021152   -1.637918    1.220832
| 18> *
| 19>
| 20>                          ****END OF INPUT****

CARTESIAN COORDINATES (ANGSTROEM)
---------------------------------
  S      2.138126   -0.471424   -0.497762
  O     -1.262728    1.239322   -1.123753
  O     -0.184106    2.173393    0.574489
  O     -2.195916   -1.611940    0.020091
  N     -1.071021   -1.335428   -0.264211
  C     -0.489680   -0.243773    0.615987
  C     -0.694454    1.099412   -0.085165
  C      0.973673   -0.594469    0.910781
  H      2.200865    0.872262   -0.543734
  H      0.192088    1.925376    1.427496
  H     -1.071763   -0.233746    1.544268
  H      1.349553   -0.008418    1.748575
  H      1.021152   -1.637918    1.220832

 Total Charge           Charge          ....    0
 Multiplicity           Mult            ....    1
 Number of Electrons    NEL             ....   70
 Basis Dimension        Dim             ....  487

ORBITAL ENERGIES
----------------

  NO   OCC          E(Eh)            E(eV)
   0   2.0000     -91.981449     -2502.9425
   1   2.0000     -20.654708      -562.0432
   2   2.0000     -20.640226      -561.6491
   3   2.0000     -20.572749      -559.8130
   4   2.0000     -15.723395      -427.8553
   5   2.0000     -11.415216      -310.6238
   6   2.0000     -11.323379      -308.1248
   7   2.0000     -11.312738      -307.8352
   8   2.0000      -8.982123      -244.4160
   9   2.0000      -6.663329      -181.3184
  10   2.0000      -6.662374      -181.2924
  11   2.0000      -6.661266      -181.2623
  12   2.0000      -1.549275       -42.1579
  13   2.0000      -1.487133       -40.4669
  14   2.0000      -1.394187       -37.9377
  15   2.0000      -1.154476       -31.4149
  16   2.0000      -1.036903       -28.2156
  17   2.0000      -0.934027       -25.4162
  18   2.0000      -0.897297       -24.4167
  19   2.0000      -0.841844       -22.9077
  20   2.0000      -0.765923       -20.8418
  21   2.0000      -0.725594       -19.7444
  22   2.0000      -0.701032       -19.0760
  23   2.0000      -0.667419       -18.1614
  24   2.0000      -0.664210       -18.0741
  25   2.0000      -0.635842       -17.3021
  26   2.0000      -0.624467       -16.9926
  27   2.0000      -0.597985       -16.2720
  28   2.0000      -0.578078       -15.7303
  29   2.0000      -0.552958       -15.0467
  30   2.0000      -0.507722       -13.8158
  31   2.0000      -0.486555       -13.2398
  32   2.0000      -0.472885       -12.8679
  33   2.0000      -0.420008       -11.4290
  34   2.0000      -0.384137       -10.4529
  35   0.0000       0.013046         0.3550
  36   0.0000       0.032139         0.8746
  37   0.0000       0.035561         0.9677
  38   0.0000       0.043758         1.1907
  39   0.0000       0.054160         1.4738

MULLIKEN ATOMIC CHARGES
-----------------------
   0 S :   -0.343967
   1 O :   -0.749753
   2 O :   -0.457889
   3 O :   -0.417723
   4 N :   -0.158085
   5 C :    0.655259
   6 C :    0.617650
   7 C :   -0.403571
   8 H :    0.158714
   9 H :    0.219942
  10 H :    0.333265
  11 H :    0.237433
  12 H :    0.308723
Sum of atomic charges:    0.0000000

LOEWDIN ATOMIC CHARGES
----------------------
   0 S :    1.314712
   1 O :    0.456508
   2 O :    0.840818
   3 O :    0.308322
   4 N :   -0.012897
   5 C :   -0.258746
   6 C :   -0.831224
   7 C :   -0.118627
   8 H :   -0.566811
   9 H :   -0.494627
  10 H :   -0.177169
  11 H :   -0.227002
  12 H :   -0.233257

  Mayer bond orders larger than 0.100000
B(  0-S ,  7-C ) :   1.0424 B(  0-S ,  8-H ) :   1.0131 B(  1-O ,  6-C ) :   1.4514
B(  2-O ,  6-C ) :   0.8334 B(  2-O ,  9-H ) :   0.9498 B(  3-O ,  4-N ) :   1.4890
B(  4-N ,  5-C ) :   0.4730 B(  4-N ,  6-C ) :   0.1302 B(  5-C ,  6-C ) :   0.7388
B(  5-C ,  7-C ) :   0.9404 B(  5-C , 10-H ) :   0.9016 B(  7-C , 11-H ) :   0.9253
B(  7-C , 12-H ) :   0.9256

MP2 TOTAL ENERGY:     -794.752552706 Eh
FINAL SINGLE POINT ENERGY      -794.752552706117

DIPOLE MOMENT
-------------
                                X             Y             Z
Electronic contribution:     -2.44931      -0.86327      -3.18860
Nuclear contribution   :      3.46542       0.92677       5.25610
                        -----------------------------------------
Total Dipole Moment    :      1.01611       0.06349       2.06750
                        -----------------------------------------
Magnitude (a.u.)       :      2.30457
Magnitude (Debye)      :      5.85776

Rotational constants in cm-1:     0.065166     0.047766     0.034034
Rotational constants in MHz :  1953.641677  1431.995274  1020.298805

                             ****ORCA TERMINATED NORMALLY****
TOTAL RUN TIME: 0 days 0 hours 4 minutes 55 seconds 338 msec
