                         Program Version 5.0.3 -  RELEASE  -
|  1> !ri-mp2 aug-cc-pvtz aug-cc-pvtz/c tightscf
|  2> %pal nprocs 16 end
|  3>
|  4> * xyz 0 1
|  5> C      0.000229   -1.324841    0.000000
|  6> N     -0.009436    0.173920    0.000000
|  7> O      0.000229    0.730465    1.084390
|  8> O      0.000229    0.730465   -1.084390
|  9> H     -0.491970   -1.664331   -0.903741
| 10> H     -0.491970   -1.664331    0.903741
| 11> H      1.044943   -1.627166    0.000000
| 12> *
| 13>
| 14>                          ****END OF INPUT****

CARTESIAN COORDINATES (ANGSTROEM)
---------------------------------
  C      0.000229   -1.324841    0.000000
  N     -0.009436    0.173920    0.000000
  O      0.000229    0.730465    1.084390
  O      0.000229    0.730465   -1.084390
  H     -0.491970   -1.664331   -0.903741
  H     -0.491970   -1.664331    0.903741
  H      1.044943   -1.627166    0.000000

 Total Charge           Charge          ....    0
 Multiplicity           Mult            ....    1
 Number of Electrons    NEL             ....   32
 Basis Dimension        Dim             ....  253

ORBITAL ENERGIES
----------------

  NO   OCC          E(Eh)            E(eV)
   0   2.0000     -20.609269      -560.8067
   1   2.0000     -20.609217      -560.8053
   2   2.0000     -15.854479      -431.4223
   3   2.0000     -11.313008      -307.8426
   4   2.0000      -1.612796       -43.8864
   5   2.0000      -1.407695       -38.3053
   6   2.0000      -1.101232       -29.9660
   7   2.0000      -0.871877       -23.7250
   8   2.0000      -0.758101       -20.6290
   9   2.0000      -0.739054       -20.1107
  10   2.0000      -0.738293       -20.0900
  11   2.0000      -0.629683       -17.1345
  12   2.0000      -0.604042       -16.4368
  13   2.0000      -0.498823       -13.5737
  14   2.0000      -0.495760       -13.4903
  15   2.0000      -0.459233       -12.4964
  16   0.0000       0.022022         0.5992
  17   0.0000       0.038802         1.0558
  18   0.0000       0.043322         1.1788
  19   0.0000       0.070999         1.9320
  20   0.0000       0.085988         2.3398

MULLIKEN ATOMIC CHARGES
-----------------------
   0 C :   -0.812596
   1 N :    0.884169
   2 O :   -0.612533
   3 O :   -0.612533
   4 H :    0.406638
   5 H :    0.406638
   6 H :    0.340217
Sum of atomic charges:    0.0000000

LOEWDIN ATOMIC CHARGES
----------------------
   0 C :    0.529489
   1 N :   -0.742312
   2 O :    0.366889
   3 O :    0.366889
   4 H :   -0.179301
   5 H :   -0.179301
   6 H :   -0.162353

  Mayer bond orders larger than 0.100000
B(  0-C ,  1-N ) :   0.8294 B(  0-C ,  4-H ) :   0.8369 B(  0-C ,  5-H ) :   0.8369
B(  0-C ,  6-H ) :   0.8950 B(  1-N ,  2-O ) :   1.2412 B(  1-N ,  3-O ) :   1.2412
B(  2-O ,  3-O ) :   0.1436

MP2 TOTAL ENERGY:     -244.642933209 Eh
FINAL SINGLE POINT ENERGY      -244.642933209349

DIPOLE MOMENT
-------------
                                X             Y             Z
Electronic contribution:     -0.05566       3.23985       0.00000
Nuclear contribution   :      0.06002      -4.85569       0.00000
                        -----------------------------------------
Total Dipole Moment    :      0.00435      -1.61584       0.00000
                        -----------------------------------------
Magnitude (a.u.)       :      1.61585
Magnitude (Debye)      :      4.10716

Rotational constants in cm-1:     0.412544     0.350994     0.196678
Rotational constants in MHz : 12367.746883 10522.541801  5896.271476

                             ****ORCA TERMINATED NORMALLY****
TOTAL RUN TIME: 0 days 0 hours 0 minutes 44 seconds 205 msec
