                         Program Version 5.0.3 -  RELEASE  -
|  1> !ri-mp2 aug-cc-pvtz aug-cc-pvtz/c tightscf
|  2> %pal nprocs 16 end
|  3>
|  4> * xyz 0 1
|  5> C      0.000000    0.000000   -2.509568
|  6> C      0.000000    1.206952   -1.817042
|  7> C      0.000000   -1.206952   -1.817042
|  8> C      0.000000    1.215022   -0.429244
|  9> C      0.000000   -1.215022   -0.429244
| 10> C      0.000000    0.000000    0.241376
| 11> N      0.000000    0.000000    1.718131
| 12> O      0.000000    1.082390    2.285939
| 13> O      0.000000   -1.082390    2.285939
| 14> H      0.000000    0.000000   -3.590995
| 15> H      0.000000    2.143267   -2.357131
| 16> H      0.000000   -2.143267   -2.357131
| 17> H      0.000000    2.134833    0.133951
| 18> H      0.000000   -2.134833    0.133951
| 19> *
| 20>
| 21>                          ****END OF INPUT****

CARTESIAN COORDINATES (ANGSTROEM)
---------------------------------
  C      0.000000    0.000000   -2.509568
  C      0.000000    1.206952   -1.817042
  C      0.000000   -1.206952   -1.817042
  C      0.000000    1.215022   -0.429244
  C      0.000000   -1.215022   -0.429244
  C      0.000000    0.000000    0.241376
  N      0.000000    0.000000    1.718131
  O      0.000000    1.082390    2.285939
  O      0.000000   -1.082390    2.285939
  H      0.000000    0.000000   -3.590995
  H      0.000000    2.143267   -2.357131
  H      0.000000   -2.143267   -2.357131
  H      0.000000    2.134833    0.133951
  H      0.000000   -2.134833    0.133951

 Total Charge           Charge          ....    0
 Multiplicity           Mult            ....    1
 Number of Electrons    NEL             ....   64
 Basis Dimension        Dim             ....  529

ORBITAL ENERGIES
----------------

  NO   OCC          E(Eh)            E(eV)
   0   2.0000     -20.603122      -560.6395
   1   2.0000     -20.603070      -560.6380
   2   2.0000     -15.854941      -431.4349
   3   2.0000     -11.311786      -307.8094
   4   2.0000     -11.275162      -306.8128
   5   2.0000     -11.275125      -306.8117
   6   2.0000     -11.272605      -306.7432
   7   2.0000     -11.265147      -306.5402
   8   2.0000     -11.265036      -306.5372
   9   2.0000      -1.608031       -43.7567
  10   2.0000      -1.401102       -38.1259
  11   2.0000      -1.201821       -32.7032
  12   2.0000      -1.093890       -29.7663
  13   2.0000      -1.054569       -28.6963
  14   2.0000      -0.961650       -26.1678
  15   2.0000      -0.866998       -23.5922
  16   2.0000      -0.831185       -22.6177
  17   2.0000      -0.783041       -21.3076
  18   2.0000      -0.729185       -19.8421
  19   2.0000      -0.720837       -19.6150
  20   2.0000      -0.710076       -19.3221
  21   2.0000      -0.658375       -17.9153
  22   2.0000      -0.651979       -17.7413
  23   2.0000      -0.626318       -17.0430
  24   2.0000      -0.556667       -15.1477
  25   2.0000      -0.539461       -14.6795
  26   2.0000      -0.532322       -14.4852
  27   2.0000      -0.495745       -13.4899
  28   2.0000      -0.495403       -13.4806
  29   2.0000      -0.456094       -12.4109
  30   2.0000      -0.379129       -10.3166
  31   2.0000      -0.370544       -10.0830
  32   0.0000       0.021408         0.5825
  33   0.0000       0.029484         0.8023
  34   0.0000       0.035458         0.9649
  35   0.0000       0.036823         1.0020
  36   0.0000       0.050092         1.3631

MULLIKEN ATOMIC CHARGES
-----------------------
   0 C :   -0.431188
   1 C :   -0.447950
   2 C :   -0.447950
   3 C :   -0.578844
   4 C :   -0.578845
   5 C :    0.562262
   6 N :    0.796851
   7 O :   -0.689447
   8 O :   -0.689447
   9 H :    0.543946
  10 H :    0.346988
  11 H :    0.346988
  12 H :    0.633319
  13 H :    0.633319
Sum of atomic charges:    0.0000000

LOEWDIN ATOMIC CHARGES
----------------------
   0 C :    0.214246
   1 C :    0.215265
   2 C :    0.215265
   3 C :    0.211808
   4 C :    0.211808
   5 C :   -0.216295
   6 N :   -0.708827
   7 O :    0.391288
   8 O :    0.391288
   9 H :   -0.175291
  10 H :   -0.180324
  11 H :   -0.180324
  12 H :   -0.194954
  13 H :   -0.194954

  Mayer bond orders larger than 0.100000
B(  0-C ,  1-C ) :   1.1350 B(  0-C ,  2-C ) :   1.1350 B(  0-C ,  3-C ) :   0.2406
B(  0-C ,  4-C ) :   0.2406 B(  0-C ,  9-H ) :   0.6882 B(  1-C ,  2-C ) :  -0.1380
B(  1-C ,  3-C ) :   1.2745 B(  1-C ,  5-C ) :  -0.2682 B(  1-C , 10-H ) :   1.0075
B(  2-C ,  4-C ) :   1.2745 B(  2-C ,  5-C ) :  -0.2682 B(  2-C , 11-H ) :   1.0075
B(  3-C ,  4-C ) :   0.2470 B(  3-C ,  5-C ) :   0.8779 B(  3-C ,  6-N ) :  -0.2014
B(  3-C ,  7-O ) :  -0.1155 B(  3-C , 12-H ) :   0.4203 B(  4-C ,  5-C ) :   0.8779
B(  4-C ,  6-N ) :  -0.2014 B(  4-C ,  8-O ) :  -0.1155 B(  4-C , 13-H ) :   0.4203
B(  5-C ,  6-N ) :   1.2044 B(  5-C ,  7-O ) :   0.3300 B(  5-C ,  8-O ) :   0.3300
B(  6-N ,  7-O ) :   1.0311 B(  6-N ,  8-O ) :   1.0311 B(  7-O ,  8-O ) :   0.1118

MP2 TOTAL ENERGY:     -435.981859749 Eh
FINAL SINGLE POINT ENERGY      -435.981859749423

DIPOLE MOMENT
-------------
                                X             Y             Z
Electronic contribution:     -0.00000      -0.00000       5.73944
Nuclear contribution   :      0.00000       0.00000      -7.76688
                        -----------------------------------------
Total Dipole Moment    :     -0.00000      -0.00000      -2.02744
                        -----------------------------------------
Magnitude (a.u.)       :      2.02744
Magnitude (Debye)      :      5.15335

Rotational constants in cm-1:     0.133375     0.042964     0.032496
Rotational constants in MHz :  3998.468292  1288.035290   974.210683

                             ****ORCA TERMINATED NORMALLY****
TOTAL RUN TIME: 0 days 0 hours 5 minutes 16 seconds 598 msec
