                         Program Version 5.0.3 -  RELEASE  -
|  1> !ri-mp2 aug-cc-pvtz aug-cc-pvtz/c tightscf
|  2> %pal nprocs 16 end
|  3>
|  4> * xyz 0 1
|  5> Cl     1.560711    1.893407   -0.220108
|  6> S     -2.790812    0.329751   -0.047708
|  7> O      1.341983   -2.035398   -1.015709
|  8> O      1.598920   -1.268082    1.083308
|  9> N      0.161310    1.041443    0.439465
| 10> C     -0.069935   -0.213443   -0.269978
| 11> C      1.035385   -1.265596   -0.146657
| 12> C     -1.382089   -0.820778    0.246351
| 13> H     -3.701568   -0.633058   -0.277035
| 14> H      2.276249   -1.960533    1.095104
| 15> H      0.436799    0.846291    1.397865
| 16> H     -0.173273    0.009303   -1.329322
| 17> H     -1.303752   -1.040723    1.310335
| 18> H     -1.570111   -1.748572   -0.287123
| 19> *
| 20>
| 21>                          ****END OF INPUT****

CARTESIAN COORDINATES (ANGSTROEM)
---------------------------------
  Cl     1.560711    1.893407   -0.220108
  S     -2.790812    0.329751   -0.047708
  O      1.341983   -2.035398   -1.015709
  O      1.598920   -1.268082    1.083308
  N      0.161310    1.041443    0.439465
  C     -0.069935   -0.213443   -0.269978
  C      1.035385   -1.265596   -0.146657
  C     -1.382089   -0.820778    0.246351
  H     -3.701568   -0.633058   -0.277035
  H      2.276249   -1.960533    1.095104
  H      0.436799    0.846291    1.397865
  H     -0.173273    0.009303   -1.329322
  H     -1.303752   -1.040723    1.310335
  H     -1.570111   -1.748572   -0.287123

 Total Charge           Charge          ....    0
 Multiplicity           Mult            ....    1
 Number of Electrons    NEL             ....   80
 Basis Dimension        Dim             ....  514

ORBITAL ENERGIES
----------------

  NO   OCC          E(Eh)            E(eV)
   0   2.0000    -104.864180     -2853.4994
   1   2.0000     -91.967987     -2502.5762
   2   2.0000     -20.635512      -561.5208
   3   2.0000     -20.572189      -559.7977
   4   2.0000     -15.640802      -425.6079
   5   2.0000     -11.406530      -310.3875
   6   2.0000     -11.312462      -307.8277
   7   2.0000     -11.292050      -307.2723
   8   2.0000     -10.585512      -288.0464
   9   2.0000      -8.968392      -244.0423
  10   2.0000      -8.052426      -219.1176
  11   2.0000      -8.050130      -219.0552
  12   2.0000      -8.049956      -219.0504
  13   2.0000      -6.649554      -180.9436
  14   2.0000      -6.648648      -180.9189
  15   2.0000      -6.647539      -180.8887
  16   2.0000      -1.487978       -40.4899
  17   2.0000      -1.386199       -37.7204
  18   2.0000      -1.274614       -34.6840
  19   2.0000      -1.110341       -30.2139
  20   2.0000      -1.026225       -27.9250
  21   2.0000      -0.968097       -26.3433
  22   2.0000      -0.878388       -23.9021
  23   2.0000      -0.836994       -22.7758
  24   2.0000      -0.733323       -19.9547
  25   2.0000      -0.723664       -19.6919
  26   2.0000      -0.666467       -18.1355
  27   2.0000      -0.658584       -17.9210
  28   2.0000      -0.640966       -17.4416
  29   2.0000      -0.626608       -17.0509
  30   2.0000      -0.589616       -16.0443
  31   2.0000      -0.554933       -15.1005
  32   2.0000      -0.546058       -14.8590
  33   2.0000      -0.529245       -14.4015
  34   2.0000      -0.503314       -13.6959
  35   2.0000      -0.478667       -13.0252
  36   2.0000      -0.466994       -12.7075
  37   2.0000      -0.461559       -12.5597
  38   2.0000      -0.409564       -11.1448
  39   2.0000      -0.371393       -10.1061
  40   0.0000       0.023283         0.6336
  41   0.0000       0.032163         0.8752
  42   0.0000       0.041024         1.1163
  43   0.0000       0.045864         1.2480
  44   0.0000       0.053233         1.4485

MULLIKEN ATOMIC CHARGES
-----------------------
   0 Cl:   -0.194790
   1 S :   -0.259697
   2 O :   -0.852947
   3 O :   -0.464746
   4 N :   -0.401355
   5 C :    0.751644
   6 C :    0.705508
   7 C :   -0.531536
   8 H :    0.047878
   9 H :    0.222651
  10 H :    0.071008
  11 H :    0.403590
  12 H :    0.241511
  13 H :    0.261281
Sum of atomic charges:    0.0000000

LOEWDIN ATOMIC CHARGES
----------------------
   0 Cl:    0.784726
   1 S :    1.300042
   2 O :    0.462135
   3 O :    0.831863
   4 N :    0.034915
   5 C :   -0.372488
   6 C :   -0.814616
   7 C :   -0.093534
   8 H :   -0.583204
   9 H :   -0.458807
  10 H :   -0.459429
  11 H :   -0.196601
  12 H :   -0.218275
  13 H :   -0.216726

  Mayer bond orders larger than 0.100000
B(  0-Cl,  4-N ) :   0.9423 B(  1-S ,  7-C ) :   0.9409 B(  1-S ,  8-H ) :   1.0979
B(  2-O ,  6-C ) :   1.2690 B(  3-O ,  5-C ) :  -0.1811 B(  3-O ,  6-C ) :   0.9996
B(  3-O ,  9-H ) :   0.9398 B(  4-N ,  5-C ) :   0.5252 B(  4-N ,  7-C ) :   0.1339
B(  4-N , 10-H ) :   0.9826 B(  5-C ,  6-C ) :   0.6695 B(  5-C ,  7-C ) :   0.8402
B(  5-C , 11-H ) :   0.8263 B(  6-C ,  7-C ) :   0.1133 B(  7-C , 12-H ) :   0.9582
B(  7-C , 13-H ) :   0.9465

MP2 TOTAL ENERGY:    -1180.003935940 Eh
FINAL SINGLE POINT ENERGY     -1180.003935940178

DIPOLE MOMENT
-------------
                                X             Y             Z
Electronic contribution:      5.84278       6.21873      -1.27754
Nuclear contribution   :     -5.92400      -7.04136       2.15313
                        -----------------------------------------
Total Dipole Moment    :     -0.08122      -0.82264       0.87558
                        -----------------------------------------
Magnitude (a.u.)       :      1.20415
Magnitude (Debye)      :      3.06070

Rotational constants in cm-1:     0.052205     0.032816     0.022788
Rotational constants in MHz :  1565.053755   983.801118   683.159502

                             ****ORCA TERMINATED NORMALLY****
TOTAL RUN TIME: 0 days 0 hours 4 minutes 55 seconds 855 msec
