                         Program Version 5.0.3 -  RELEASE  -
|  1> !ri-mp2 aug-cc-pvtz aug-cc-pvtz/c tightscf
|  2> %pal nprocs 16 end
|  3>
|  4> * xyz 0 1
|  5> C      2.348792   -0.536780    0.248659
|  6> C     -2.054949   -0.747002    0.633612
|  7> N      0.953152   -0.827439   -0.095931
|  8> N     -1.433378   -0.277244   -0.614256
|  9> O      0.101328    1.411281    0.730744
| 10> S      0.030842    0.587441   -0.500901
| 11> H      2.820782   -1.466819    0.562554
| 12> H      2.364292    0.153252    1.088342
| 13> H      2.932278   -0.107281   -0.573544
| 14> H     -2.298120    0.067754    1.317861
| 15> H     -1.373670   -1.430882    1.131354
| 16> H     -2.964289   -1.286453    0.373636
| 17> H      0.877511   -1.467415   -0.879936
| 18> H     -2.064357    0.284026   -1.174130
| 19> *
| 20>
| 21>                          ****END OF INPUT****

CARTESIAN COORDINATES (ANGSTROEM)
---------------------------------
  C      2.348792   -0.536780    0.248659
  C     -2.054949   -0.747002    0.633612
  N      0.953152   -0.827439   -0.095931
  N     -1.433378   -0.277244   -0.614256
  O      0.101328    1.411281    0.730744
  S      0.030842    0.587441   -0.500901
  H      2.820782   -1.466819    0.562554
  H      2.364292    0.153252    1.088342
  H      2.932278   -0.107281   -0.573544
  H     -2.298120    0.067754    1.317861
  H     -1.373670   -1.430882    1.131354
  H     -2.964289   -1.286453    0.373636
  H      0.877511   -1.467415   -0.879936
  H     -2.064357    0.284026   -1.174130

 Total Charge           Charge          ....    0
 Multiplicity           Mult            ....    1
 Number of Electrons    NEL             ....   58
 Basis Dimension        Dim             ....  464

ORBITAL ENERGIES
----------------

  NO   OCC          E(Eh)            E(eV)
   0   2.0000     -92.113833     -2506.5448
   1   2.0000     -20.517886      -558.3201
   2   2.0000     -15.589821      -424.2206
   3   2.0000     -15.582897      -424.0322
   4   2.0000     -11.257531      -306.3330
   5   2.0000     -11.257075      -306.3206
   6   2.0000      -9.092774      -247.4270
   7   2.0000      -6.774585      -184.3458
   8   2.0000      -6.774219      -184.3359
   9   2.0000      -6.772528      -184.2899
  10   2.0000      -1.368826       -37.2476
  11   2.0000      -1.226830       -33.3837
  12   2.0000      -1.191347       -32.4182
  13   2.0000      -0.965875       -26.2828
  14   2.0000      -0.916153       -24.9298
  15   2.0000      -0.825497       -22.4629
  16   2.0000      -0.694146       -18.8887
  17   2.0000      -0.682110       -18.5611
  18   2.0000      -0.639594       -17.4042
  19   2.0000      -0.614465       -16.7204
  20   2.0000      -0.601683       -16.3726
  21   2.0000      -0.578769       -15.7491
  22   2.0000      -0.546513       -14.8714
  23   2.0000      -0.545047       -14.8315
  24   2.0000      -0.534820       -14.5532
  25   2.0000      -0.460672       -12.5355
  26   2.0000      -0.441910       -12.0250
  27   2.0000      -0.415915       -11.3176
  28   2.0000      -0.366744        -9.9796
  29   0.0000       0.026041         0.7086
  30   0.0000       0.033138         0.9017
  31   0.0000       0.039154         1.0654
  32   0.0000       0.045353         1.2341
  33   0.0000       0.051747         1.4081

MULLIKEN ATOMIC CHARGES
-----------------------
   0 C :   -0.876237
   1 C :   -0.874485
   2 N :   -0.232994
   3 N :   -0.276487
   4 O :   -0.918636
   5 S :    0.884420
   6 H :    0.342430
   7 H :    0.406979
   8 H :    0.329511
   9 H :    0.348465
  10 H :    0.395931
  11 H :    0.342464
  12 H :    0.056181
  13 H :    0.072459
Sum of atomic charges:   -0.0000000

LOEWDIN ATOMIC CHARGES
----------------------
   0 C :    0.385753
   1 C :    0.406376
   2 N :    0.307114
   3 N :    0.288027
   4 O :   -0.139091
   5 S :    0.683474
   6 H :   -0.182451
   7 H :   -0.206010
   8 H :   -0.180426
   9 H :   -0.182575
  10 H :   -0.196081
  11 H :   -0.182048
  12 H :   -0.395628
  13 H :   -0.406433

  Mayer bond orders larger than 0.100000
B(  0-C ,  2-N ) :   0.8823 B(  0-C ,  6-H ) :   0.9065 B(  0-C ,  7-H ) :   0.8619
B(  0-C ,  8-H ) :   0.8990 B(  1-C ,  3-N ) :   0.8749 B(  1-C ,  9-H ) :   0.8934
B(  1-C , 10-H ) :   0.8524 B(  1-C , 11-H ) :   0.9039 B(  2-N ,  5-S ) :   0.9380
B(  2-N , 12-H ) :   1.0432 B(  3-N ,  5-S ) :   0.9556 B(  3-N , 13-H ) :   0.9921
B(  4-O ,  5-S ) :   1.3623

MP2 TOTAL ENERGY:     -662.971534281 Eh
FINAL SINGLE POINT ENERGY      -662.971534281416

DIPOLE MOMENT
-------------
                                X             Y             Z
Electronic contribution:     -0.48452       4.33469      -2.72935
Nuclear contribution   :      0.29433      -5.29356       1.88224
                        -----------------------------------------
Total Dipole Moment    :     -0.19019      -0.95887      -0.84712
                        -----------------------------------------
Magnitude (a.u.)       :      1.29353
Magnitude (Debye)      :      3.28789

Rotational constants in cm-1:     0.158416     0.071186     0.061536
Rotational constants in MHz :  4749.199398  2134.108071  1844.798801

                             ****ORCA TERMINATED NORMALLY****
TOTAL RUN TIME: 0 days 0 hours 3 minutes 29 seconds 180 msec
