                         Program Version 5.0.3 -  RELEASE  -
|  1> !ri-mp2 aug-cc-pvtz aug-cc-pvtz/c tightscf
|  2> %pal nprocs 16 end
|  3> %maxcore 3800
|  4>
|  5> * xyz 0 1
|  6> C     -2.727109   -0.326483        0.000000
|  7> C     -2.375260    1.038390        0.000000
|  8> C      1.957686   -1.557474        0.000000
|  9> C     -1.750278   -1.286970        0.000000
| 10> C     -1.055155    1.409855        0.000000
| 11> C      0.638110   -1.927342        0.000000
| 12> C      2.326734   -0.200714        0.000000
| 13> C     -0.376443   -0.941789        0.000000
| 14> C     -0.019952    0.443553        0.000000
| 15> C      1.365002    0.779883        0.000000
| 16> O      1.794772    2.076411        0.000000
| 17> H     -3.770509   -0.611247        0.000000
| 18> H     -3.148862    1.793966        0.000000
| 19> H      2.733146   -2.311550        0.000000
| 20> H     -2.017573   -2.335991        0.000000
| 21> H     -0.825143    2.468776        0.000000
| 22> H      0.356325   -2.971639        0.000000
| 23> H      3.367436    0.091086        0.000000
| 24> H      1.046996    2.679866        0.000001
| 25> *
| 26>
| 27>                          ****END OF INPUT****

CARTESIAN COORDINATES (ANGSTROEM)
---------------------------------
  C     -2.727109   -0.326483    0.000000
  C     -2.375260    1.038390    0.000000
  C      1.957686   -1.557474    0.000000
  C     -1.750278   -1.286970    0.000000
  C     -1.055155    1.409855    0.000000
  C      0.638110   -1.927342    0.000000
  C      2.326734   -0.200714    0.000000
  C     -0.376443   -0.941789    0.000000
  C     -0.019952    0.443553    0.000000
  C      1.365002    0.779883    0.000000
  O      1.794772    2.076411    0.000000
  H     -3.770509   -0.611247    0.000000
  H     -3.148862    1.793966    0.000000
  H      2.733146   -2.311550    0.000000
  H     -2.017573   -2.335991    0.000000
  H     -0.825143    2.468776    0.000000
  H      0.356325   -2.971639    0.000000
  H      3.367436    0.091086    0.000000
  H      1.046996    2.679866    0.000001

 Total Charge           Charge          ....    0
 Multiplicity           Mult            ....    1
 Number of Electrons    NEL             ....   76
 Basis Dimension        Dim             ....  690

ORBITAL ENERGIES
----------------

  NO   OCC          E(Eh)            E(eV)
   0   2.0000     -20.592916      -560.3617
   1   2.0000     -11.306815      -307.6741
   2   2.0000     -11.252142      -306.1863
   3   2.0000     -11.251078      -306.1574
   4   2.0000     -11.249931      -306.1262
   5   2.0000     -11.243476      -305.9505
   6   2.0000     -11.242387      -305.9209
   7   2.0000     -11.241083      -305.8854
   8   2.0000     -11.239923      -305.8539
   9   2.0000     -11.228226      -305.5356
  10   2.0000     -11.225860      -305.4712
  11   2.0000      -1.409170       -38.3455
  12   2.0000      -1.180075       -32.1115
  13   2.0000      -1.115223       -30.3468
  14   2.0000      -1.050009       -28.5722
  15   2.0000      -1.017456       -27.6864
  16   2.0000      -0.985604       -26.8196
  17   2.0000      -0.862714       -23.4756
  18   2.0000      -0.854081       -23.2407
  19   2.0000      -0.813963       -22.1491
  20   2.0000      -0.749906       -20.4060
  21   2.0000      -0.718099       -19.5405
  22   2.0000      -0.685772       -18.6608
  23   2.0000      -0.666102       -18.1256
  24   2.0000      -0.633590       -17.2409
  25   2.0000      -0.611135       -16.6298
  26   2.0000      -0.599250       -16.3064
  27   2.0000      -0.596917       -16.2429
  28   2.0000      -0.573330       -15.6011
  29   2.0000      -0.559342       -15.2205
  30   2.0000      -0.538223       -14.6458
  31   2.0000      -0.523451       -14.2438
  32   2.0000      -0.493399       -13.4261
  33   2.0000      -0.492243       -13.3946
  34   2.0000      -0.448761       -12.2114
  35   2.0000      -0.379210       -10.3188
  36   2.0000      -0.327727        -8.9179
  37   2.0000      -0.282957        -7.6997
  38   0.0000       0.026326         0.7164
  39   0.0000       0.030550         0.8313
  40   0.0000       0.032798         0.8925
  41   0.0000       0.042978         1.1695
  42   0.0000       0.043667         1.1882

MULLIKEN ATOMIC CHARGES
-----------------------
   0 C :   -0.495331
   1 C :   -0.361936
   2 C :   -0.397068
   3 C :   -1.146905
   4 C :   -1.403658
   5 C :   -1.113689
   6 C :   -0.898749
   7 C :    1.969516
   8 C :    1.674622
   9 C :    0.410174
  10 O :   -0.929137
  11 H :    0.557349
  12 H :    0.573154
  13 H :    0.554439
  14 H :    0.038177
  15 H :   -0.037617
  16 H :    0.241593
  17 H :    0.557126
  18 H :    0.207941
Sum of atomic charges:    0.0000000

LOEWDIN ATOMIC CHARGES
----------------------
   0 C :    0.207457
   1 C :    0.209671
   2 C :    0.193241
   3 C :    0.225167
   4 C :    0.226190
   5 C :    0.213353
   6 C :    0.212817
   7 C :   -0.120818
   8 C :   -0.077072
   9 C :   -0.336321
  10 O :    0.864448
  11 H :   -0.183569
  12 H :   -0.183940
  13 H :   -0.181194
  14 H :   -0.176700
  15 H :   -0.192103
  16 H :   -0.184496
  17 H :   -0.185286
  18 H :   -0.530846

  Mayer bond orders larger than 0.100000
B(  0-C ,  1-C ) :   1.0198 B(  0-C ,  3-C ) :   1.0938 B(  0-C ,  7-C ) :   0.2308
B(  0-C ,  8-C ) :  -0.1656 B(  0-C , 11-H ) :   0.6028 B(  0-C , 14-H ) :  -0.1443
B(  1-C ,  3-C ) :  -0.1184 B(  1-C ,  4-C ) :   1.3663 B(  1-C , 12-H ) :   0.5898
B(  1-C , 15-H ) :  -0.1268 B(  2-C ,  5-C ) :   1.1145 B(  2-C ,  6-C ) :   0.9835
B(  2-C ,  9-C ) :  -0.1115 B(  2-C , 13-H ) :   0.6249 B(  2-C , 16-H ) :  -0.1350
B(  3-C ,  4-C ) :   0.1808 B(  3-C ,  5-C ) :   0.5101 B(  3-C ,  8-C ) :  -0.3205
B(  3-C , 11-H ) :  -0.2088 B(  3-C , 14-H ) :   1.7001 B(  4-C ,  6-C ) :   0.1644
B(  4-C ,  7-C ) :  -0.3973 B(  4-C ,  8-C ) :  -0.2524 B(  4-C ,  9-C ) :   0.8274
B(  4-C , 12-H ) :  -0.2271 B(  4-C , 15-H ) :   1.6635 B(  5-C ,  7-C ) :  -0.1676
B(  5-C ,  8-C ) :   0.1193 B(  5-C , 13-H ) :  -0.1350 B(  5-C , 16-H ) :   1.2379
B(  5-C , 17-H ) :   0.1068 B(  6-C ,  7-C ) :  -0.2946 B(  6-C ,  8-C ) :   0.3736
B(  6-C ,  9-C ) :   1.0260 B(  6-C , 10-O ) :   0.1774 B(  6-C , 17-H ) :   0.5490
B(  7-C ,  8-C ) :   0.5962 B(  7-C ,  9-C ) :  -0.2271 B(  8-C ,  9-C ) :   0.7212
B(  8-C , 10-O ) :  -0.1157 B(  8-C , 12-H ) :  -0.1208 B(  8-C , 15-H ) :  -0.2325
B(  8-C , 17-H ) :   0.1280 B(  9-C , 10-O ) :   0.3354 B(  9-C , 12-H ) :   0.1782
B(  9-C , 17-H ) :  -0.1276 B( 10-O , 18-H ) :   0.9836

MP2 TOTAL ENERGY:     -460.200986859 Eh
FINAL SINGLE POINT ENERGY      -460.200986859109

DIPOLE MOMENT
-------------
                                X             Y             Z
Electronic contribution:      1.59339       1.17963      -0.00000
Nuclear contribution   :     -2.20763      -1.15238       0.00000
                        -----------------------------------------
Total Dipole Moment    :     -0.61423       0.02725       0.00000
                        -----------------------------------------
Magnitude (a.u.)       :      0.61484
Magnitude (Debye)      :      1.56280

Rotational constants in cm-1:     0.065288     0.037610     0.023863
Rotational constants in MHz :  1957.289786  1127.512574   715.400401

                             ****ORCA TERMINATED NORMALLY****
TOTAL RUN TIME: 0 days 0 hours 15 minutes 12 seconds 651 msec
