                         Program Version 5.0.3 -  RELEASE  -
|  1> !ri-mp2 aug-cc-pvtz aug-cc-pvtz/c tightscf
|  2> %pal nprocs 16 end
|  3>
|  4> * xyz 0 1
|  5> F     -1.941746   -0.828965   -0.048656
|  6> F     -1.207342    1.234561    0.002398
|  7> N     -0.837230   -0.049645   -0.459202
|  8> C      0.253975   -0.468738    0.449582
|  9> C      1.490150    0.334470    0.186438
| 10> C      2.628245   -0.194799   -0.239489
| 11> H      0.410259   -1.522526    0.224676
| 12> H     -0.096603   -0.362385    1.478991
| 13> H      1.421730    1.396780    0.385841
| 14> H      2.723117   -1.253412   -0.447875
| 15> H      3.509677    0.413089   -0.390093
| 16> *
| 17>
| 18>                          ****END OF INPUT****

CARTESIAN COORDINATES (ANGSTROEM)
---------------------------------
  F     -1.941746   -0.828965   -0.048656
  F     -1.207342    1.234561    0.002398
  N     -0.837230   -0.049645   -0.459202
  C      0.253975   -0.468738    0.449582
  C      1.490150    0.334470    0.186438
  C      2.628245   -0.194799   -0.239489
  H      0.410259   -1.522526    0.224676
  H     -0.096603   -0.362385    1.478991
  H      1.421730    1.396780    0.385841
  H      2.723117   -1.253412   -0.447875
  H      3.509677    0.413089   -0.390093

 Total Charge           Charge          ....    0
 Multiplicity           Mult            ....    1
 Number of Electrons    NEL             ....   48
 Basis Dimension        Dim             ....  391

ORBITAL ENERGIES
----------------

  NO   OCC          E(Eh)            E(eV)
   0   2.0000     -26.332768      -716.5510
   1   2.0000     -26.332670      -716.5484
   2   2.0000     -15.772162      -429.1823
   3   2.0000     -11.297209      -307.4127
   4   2.0000     -11.258485      -306.3590
   5   2.0000     -11.250717      -306.1476
   6   2.0000      -1.674579       -45.5676
   7   2.0000      -1.591739       -43.3134
   8   2.0000      -1.180058       -32.1110
   9   2.0000      -1.067433       -29.0463
  10   2.0000      -0.931895       -25.3581
  11   2.0000      -0.804495       -21.8914
  12   2.0000      -0.760277       -20.6882
  13   2.0000      -0.753279       -20.4978
  14   2.0000      -0.737514       -20.0688
  15   2.0000      -0.676019       -18.3954
  16   2.0000      -0.662943       -18.0396
  17   2.0000      -0.635510       -17.2931
  18   2.0000      -0.630478       -17.1562
  19   2.0000      -0.612981       -16.6801
  20   2.0000      -0.560821       -15.2607
  21   2.0000      -0.523615       -14.2483
  22   2.0000      -0.485008       -13.1977
  23   2.0000      -0.397139       -10.8067
  24   0.0000       0.027154         0.7389
  25   0.0000       0.036709         0.9989
  26   0.0000       0.038456         1.0464
  27   0.0000       0.052929         1.4403
  28   0.0000       0.058494         1.5917

MULLIKEN ATOMIC CHARGES
-----------------------
   0 F :   -0.350817
   1 F :   -0.355541
   2 N :    0.108059
   3 C :    0.073434
   4 C :   -0.296450
   5 C :   -1.067186
   6 H :    0.345203
   7 H :    0.332006
   8 H :    0.408544
   9 H :    0.303296
  10 H :    0.499454
Sum of atomic charges:    0.0000000

LOEWDIN ATOMIC CHARGES
----------------------
   0 F :    0.298754
   1 F :    0.299775
   2 N :   -0.376525
   3 C :    0.054994
   4 C :    0.167887
   5 C :    0.534599
   6 H :   -0.181276
   7 H :   -0.168085
   8 H :   -0.197508
   9 H :   -0.214852
  10 H :   -0.217763

  Mayer bond orders larger than 0.100000
B(  0-F ,  2-N ) :   0.7687 B(  1-F ,  2-N ) :   0.7491 B(  2-N ,  3-C ) :   0.7634
B(  3-C ,  4-C ) :   0.7583 B(  3-C ,  6-H ) :   0.8804 B(  3-C ,  7-H ) :   0.8937
B(  4-C ,  5-C ) :   1.4878 B(  4-C ,  8-H ) :   0.8757 B(  5-C ,  9-H ) :   0.9979
B(  5-C , 10-H ) :   0.6934

MP2 TOTAL ENERGY:     -371.038495243 Eh
FINAL SINGLE POINT ENERGY      -371.038495243275

DIPOLE MOMENT
-------------
                                X             Y             Z
Electronic contribution:     -9.59659       1.33195      -0.90733
Nuclear contribution   :     10.72487      -1.67490       1.25380
                        -----------------------------------------
Total Dipole Moment    :      1.12828      -0.34295       0.34647
                        -----------------------------------------
Magnitude (a.u.)       :      1.22909
Magnitude (Debye)      :      3.12410

Rotational constants in cm-1:     0.272346     0.067527     0.057530
Rotational constants in MHz :  8164.721990  2024.419994  1724.716649

                             ****ORCA TERMINATED NORMALLY****
TOTAL RUN TIME: 0 days 0 hours 1 minutes 50 seconds 449 msec
