                         Program Version 5.0.3 -  RELEASE  -
|  1> !ri-mp2 aug-cc-pvtz aug-cc-pvtz/c tightscf
|  2> %pal nprocs 16 end
|  3>
|  4> * xyz 0 1
|  5> C     3.276469   -0.292227    0.099087
|  6> C     2.790514    0.999064    0.229996
|  7> C     1.181024   -1.031756   -0.375895
|  8> C     0.688197    0.275288   -0.221938
|  9> C    -3.203955    0.336431   -0.890716
| 10> N     2.463709   -1.307293   -0.206599
| 11> N     1.497661    1.284923    0.078596
| 12> N    -0.655790    0.607184   -0.433652
| 13> O    -2.260256   -0.137191    1.534977
| 14> S    -1.909653   -0.449316    0.121673
| 15> H     4.326381   -0.516346    0.234552
| 16> H     3.449330    1.825368    0.467782
| 17> H     0.524349   -1.850733   -0.640400
| 18> H    -4.132247   -0.170891   -0.639919
| 19> H    -2.965474    0.215129   -1.944190
| 20> H    -3.270616    1.387654   -0.614934
| 21> H    -0.827771    1.581914   -0.201099
| 22> *
| 23>
| 24>                          ****END OF INPUT****

CARTESIAN COORDINATES (ANGSTROEM)
---------------------------------
  C      3.276469   -0.292227    0.099087
  C      2.790514    0.999064    0.229996
  C      1.181024   -1.031756   -0.375895
  C      0.688197    0.275288   -0.221938
  C     -3.203955    0.336431   -0.890716
  N      2.463709   -1.307293   -0.206599
  N      1.497661    1.284923    0.078596
  N     -0.655790    0.607184   -0.433652
  O     -2.260256   -0.137191    1.534977
  S     -1.909653   -0.449316    0.121673
  H      4.326381   -0.516346    0.234552
  H      3.449330    1.825368    0.467782
  H      0.524349   -1.850733   -0.640400
  H     -4.132247   -0.170891   -0.639919
  H     -2.965474    0.215129   -1.944190
  H     -3.270616    1.387654   -0.614934
  H     -0.827771    1.581914   -0.201099

 Total Charge           Charge          ....    0
 Multiplicity           Mult            ....    1
 Number of Electrons    NEL             ....   82
 Basis Dimension        Dim             ....  625

ORBITAL ENERGIES
----------------

  NO   OCC          E(Eh)            E(eV)
   0   2.0000     -92.115703     -2506.5957
   1   2.0000     -20.528282      -558.6030
   2   2.0000     -15.613166      -424.8559
   3   2.0000     -15.599188      -424.4755
   4   2.0000     -15.591445      -424.2648
   5   2.0000     -11.338532      -308.5371
   6   2.0000     -11.290548      -307.2314
   7   2.0000     -11.285734      -307.1004
   8   2.0000     -11.277132      -306.8664
   9   2.0000     -11.276079      -306.8377
  10   2.0000      -9.097704      -247.5611
  11   2.0000      -6.779576      -184.4816
  12   2.0000      -6.778794      -184.4604
  13   2.0000      -6.777562      -184.4268
  14   2.0000      -1.371247       -37.3135
  15   2.0000      -1.328344       -36.1461
  16   2.0000      -1.254447       -34.1352
  17   2.0000      -1.208092       -32.8738
  18   2.0000      -1.060386       -28.8546
  19   2.0000      -1.023441       -27.8493
  20   2.0000      -0.917221       -24.9589
  21   2.0000      -0.898884       -24.4599
  22   2.0000      -0.849142       -23.1063
  23   2.0000      -0.742313       -20.1994
  24   2.0000      -0.727620       -19.7995
  25   2.0000      -0.698447       -19.0057
  26   2.0000      -0.660097       -17.9621
  27   2.0000      -0.641362       -17.4523
  28   2.0000      -0.631008       -17.1706
  29   2.0000      -0.617741       -16.8096
  30   2.0000      -0.598997       -16.2995
  31   2.0000      -0.586593       -15.9620
  32   2.0000      -0.569717       -15.5028
  33   2.0000      -0.550946       -14.9920
  34   2.0000      -0.505144       -13.7457
  35   2.0000      -0.494155       -13.4466
  36   2.0000      -0.458851       -12.4860
  37   2.0000      -0.433392       -11.7932
  38   2.0000      -0.420482       -11.4419
  39   2.0000      -0.396134       -10.7793
  40   2.0000      -0.336535        -9.1576
  41   0.0000       0.024678         0.6715
  42   0.0000       0.030076         0.8184
  43   0.0000       0.035815         0.9746
  44   0.0000       0.042496         1.1564
  45   0.0000       0.045493         1.2379

MULLIKEN ATOMIC CHARGES
-----------------------
   0 C :   -0.459602
   1 C :   -0.459930
   2 C :   -0.482566
   3 C :    0.666040
   4 C :   -0.878640
   5 N :   -0.468562
   6 N :   -0.453535
   7 N :   -0.233505
   8 O :   -0.973834
   9 S :    0.937918
  10 H :    0.578853
  11 H :    0.588543
  12 H :    0.626075
  13 H :    0.327900
  14 H :    0.327427
  15 H :    0.271563
  16 H :    0.085854
Sum of atomic charges:   -0.0000000

LOEWDIN ATOMIC CHARGES
----------------------
   0 C :    0.015515
   1 C :    0.020249
   2 C :    0.015933
   3 C :   -0.503384
   4 C :    0.419216
   5 N :    0.371662
   6 N :    0.399382
   7 N :    0.310488
   8 O :   -0.160564
   9 S :    0.777445
  10 H :   -0.202291
  11 H :   -0.191328
  12 H :   -0.216305
  13 H :   -0.233946
  14 H :   -0.227161
  15 H :   -0.222166
  16 H :   -0.372745

  Mayer bond orders larger than 0.100000
B(  0-C ,  1-C ) :   1.2138 B(  0-C ,  2-C ) :  -0.2073 B(  0-C ,  3-C ) :   0.1490
B(  0-C ,  5-N ) :   1.0994 B(  0-C , 10-H ) :   0.5961 B(  1-C ,  2-C ) :   0.2590
B(  1-C ,  3-C ) :  -0.1636 B(  1-C ,  6-N ) :   1.1418 B(  1-C , 11-H ) :   0.5934
B(  2-C ,  3-C ) :   0.8859 B(  2-C ,  5-N ) :   0.8504 B(  2-C , 12-H ) :   0.5281
B(  3-C ,  6-N ) :   0.6628 B(  3-C ,  7-N ) :   0.7660 B(  4-C ,  9-S ) :   0.9242
B(  4-C , 13-H ) :   0.9075 B(  4-C , 14-H ) :   0.8844 B(  4-C , 15-H ) :   0.9201
B(  6-N ,  7-N ) :  -0.1068 B(  7-N ,  9-S ) :   0.9151 B(  7-N , 16-H ) :   0.9686
B(  8-O ,  9-S ) :   1.1875

MP2 TOTAL ENERGY:     -831.125250504 Eh
FINAL SINGLE POINT ENERGY      -831.125250504362

DIPOLE MOMENT
-------------
                                X             Y             Z
Electronic contribution:      2.60326      -1.97358       1.92511
Nuclear contribution   :     -2.79546       2.43677      -3.25369
                        -----------------------------------------
Total Dipole Moment    :     -0.19220       0.46319      -1.32858
                        -----------------------------------------
Magnitude (a.u.)       :      1.42007
Magnitude (Debye)      :      3.60953

Rotational constants in cm-1:     0.106876     0.020626     0.019674
Rotational constants in MHz :  3204.054903   618.358821   589.812714

                             ****ORCA TERMINATED NORMALLY****
TOTAL RUN TIME: 0 days 0 hours 9 minutes 9 seconds 718 msec
