                         Program Version 5.0.3 -  RELEASE  -
|  1> !ri-mp2 aug-cc-pvtz aug-cc-pvtz/c tightscf
|  2> %pal nprocs 16 end
|  3> %maxcore 3800
|  4>
|  5> * xyz 0 1
|  6> C     -0.060027   -2.648826    0.000000
|  7> C     -0.034335   -1.937551    1.193561
|  8> C     -0.034335   -1.937551   -1.193561
|  9> C      0.022378   -0.551433    1.203052
| 10> C      0.022378   -0.551433   -1.203052
| 11> C      0.066946    0.180520    0.000000
| 12> C     -0.034335    2.290729    1.239444
| 13> C     -0.034335    2.290729   -1.239444
| 14> N      0.163911    1.564753    0.000000
| 15> H     -0.106296   -3.728607    0.000000
| 16> H     -0.063515   -2.465030    2.138258
| 17> H     -0.063515   -2.465030   -2.138258
| 18> H      0.033546   -0.040931    2.153087
| 19> H      0.033546   -0.040931   -2.153087
| 20> H     -1.037990    2.148981    1.661823
| 21> H      0.110493    3.352219    1.055557
| 22> H      0.693922    1.986879    1.992824
| 23> H      0.110493    3.352219   -1.055557
| 24> H     -1.037990    2.148981   -1.661823
| 25> H      0.693922    1.986879   -1.992824
| 26> *
| 27>
| 28>                          ****END OF INPUT****

CARTESIAN COORDINATES (ANGSTROEM)
---------------------------------
  C     -0.060027   -2.648826    0.000000
  C     -0.034335   -1.937551    1.193561
  C     -0.034335   -1.937551   -1.193561
  C      0.022378   -0.551433    1.203052
  C      0.022378   -0.551433   -1.203052
  C      0.066946    0.180520    0.000000
  C     -0.034335    2.290729    1.239444
  C     -0.034335    2.290729   -1.239444
  N      0.163911    1.564753    0.000000
  H     -0.106296   -3.728607    0.000000
  H     -0.063515   -2.465030    2.138258
  H     -0.063515   -2.465030   -2.138258
  H      0.033546   -0.040931    2.153087
  H      0.033546   -0.040931   -2.153087
  H     -1.037990    2.148981    1.661823
  H      0.110493    3.352219    1.055557
  H      0.693922    1.986879    1.992824
  H      0.110493    3.352219   -1.055557
  H     -1.037990    2.148981   -1.661823
  H      0.693922    1.986879   -1.992824

 Total Charge           Charge          ....    0
 Multiplicity           Mult            ....    1
 Number of Electrons    NEL             ....   66
 Basis Dimension        Dim             ....  667

ORBITAL ENERGIES
----------------

  NO   OCC          E(Eh)            E(eV)
   0   2.0000     -15.568102      -423.6296
   1   2.0000     -11.275390      -306.8190
   2   2.0000     -11.255792      -306.2857
   3   2.0000     -11.255773      -306.2852
   4   2.0000     -11.228929      -305.5547
   5   2.0000     -11.228894      -305.5537
   6   2.0000     -11.217017      -305.2306
   7   2.0000     -11.217002      -305.2302
   8   2.0000     -11.212212      -305.0998
   9   2.0000      -1.256011       -34.1778
  10   2.0000      -1.132046       -30.8045
  11   2.0000      -1.011429       -27.5224
  12   2.0000      -1.005729       -27.3673
  13   2.0000      -0.968186       -26.3457
  14   2.0000      -0.891462       -24.2579
  15   2.0000      -0.816654       -22.2223
  16   2.0000      -0.783429       -21.3182
  17   2.0000      -0.709842       -19.3158
  18   2.0000      -0.648365       -17.6429
  19   2.0000      -0.646697       -17.5975
  20   2.0000      -0.637926       -17.3588
  21   2.0000      -0.617079       -16.7916
  22   2.0000      -0.582223       -15.8431
  23   2.0000      -0.574719       -15.6389
  24   2.0000      -0.559196       -15.2165
  25   2.0000      -0.546114       -14.8605
  26   2.0000      -0.529576       -14.4105
  27   2.0000      -0.505454       -13.7541
  28   2.0000      -0.498336       -13.5604
  29   2.0000      -0.476188       -12.9577
  30   2.0000      -0.406614       -11.0645
  31   2.0000      -0.332436        -9.0460
  32   2.0000      -0.279317        -7.6006
  33   0.0000       0.027202         0.7402
  34   0.0000       0.033439         0.9099
  35   0.0000       0.033642         0.9154
  36   0.0000       0.043560         1.1853
  37   0.0000       0.044766         1.2181

MULLIKEN ATOMIC CHARGES
-----------------------
   0 C :   -0.553672
   1 C :   -0.627390
   2 C :   -0.627378
   3 C :   -0.553386
   4 C :   -0.553378
   5 C :    1.385122
   6 C :   -1.104440
   7 C :   -1.104439
   8 N :   -0.170447
   9 H :    0.490288
  10 H :    0.383924
  11 H :    0.383923
  12 H :    0.303558
  13 H :    0.303561
  14 H :    0.315584
  15 H :    0.384814
  16 H :    0.321679
  17 H :    0.384816
  18 H :    0.315584
  19 H :    0.321678
Sum of atomic charges:    0.0000000

LOEWDIN ATOMIC CHARGES
----------------------
   0 C :    0.183882
   1 C :    0.186123
   2 C :    0.186123
   3 C :    0.221025
   4 C :    0.221025
   5 C :   -0.212427
   6 C :    0.471372
   7 C :    0.471372
   8 N :    0.248804
   9 H :   -0.196662
  10 H :   -0.182370
  11 H :   -0.182370
  12 H :   -0.214634
  13 H :   -0.214634
  14 H :   -0.145169
  15 H :   -0.177086
  16 H :   -0.171060
  17 H :   -0.177086
  18 H :   -0.145169
  19 H :   -0.171060

  Mayer bond orders larger than 0.100000
B(  0-C ,  1-C ) :   1.1099 B(  0-C ,  2-C ) :   1.1099 B(  0-C ,  3-C ) :   0.2453
B(  0-C ,  4-C ) :   0.2453 B(  0-C ,  5-C ) :  -0.1564 B(  0-C ,  9-H ) :   0.7335
B(  1-C ,  3-C ) :   1.0607 B(  1-C ,  5-C ) :  -0.2229 B(  1-C , 10-H ) :   0.9025
B(  2-C ,  4-C ) :   1.0607 B(  2-C ,  5-C ) :  -0.2229 B(  2-C , 11-H ) :   0.9025
B(  3-C ,  4-C ) :   0.2849 B(  3-C ,  5-C ) :   0.6524 B(  3-C ,  6-C ) :  -0.1353
B(  3-C ,  8-N ) :  -0.4109 B(  3-C , 12-H ) :   0.9898 B(  4-C ,  5-C ) :   0.6525
B(  4-C ,  7-C ) :  -0.1353 B(  4-C ,  8-N ) :  -0.4109 B(  4-C , 13-H ) :   0.9898
B(  5-C ,  8-N ) :   0.8067 B(  6-C ,  8-N ) :   1.0499 B(  6-C , 14-H ) :   0.9415
B(  6-C , 15-H ) :   0.8815 B(  6-C , 16-H ) :   0.9866 B(  7-C ,  8-N ) :   1.0498
B(  7-C , 17-H ) :   0.8815 B(  7-C , 18-H ) :   0.9415 B(  7-C , 19-H ) :   0.9866

MP2 TOTAL ENERGY:     -365.444680715 Eh
FINAL SINGLE POINT ENERGY      -365.444680715464

DIPOLE MOMENT
-------------
                                X             Y             Z
Electronic contribution:      0.56025      -5.69928      -0.00000
Nuclear contribution   :     -0.64688       6.38755       0.00000
                        -----------------------------------------
Total Dipole Moment    :     -0.08663       0.68826      -0.00000
                        -----------------------------------------
Magnitude (a.u.)       :      0.69369
Magnitude (Debye)      :      1.76323

Rotational constants in cm-1:     0.117111     0.040907     0.030723
Rotational constants in MHz :  3510.897982  1226.352844   921.040776

                             ****ORCA TERMINATED NORMALLY****
TOTAL RUN TIME: 0 days 0 hours 10 minutes 33 seconds 855 msec
