                         Program Version 5.0.3 -  RELEASE  -
|  1> !ri-mp2 aug-cc-pvtz aug-cc-pvtz/c tightscf
|  2> %pal nprocs 16 end
|  3> %maxcore 3800
|  4>
|  5> * xyz 0 1
|  6> C      2.855440    0.252651    0.039517
|  7> C      1.955251    1.308154   -0.006830
|  8> C      2.360141   -1.050018    0.041527
|  9> C      0.583533    1.082280   -0.050241
| 10> C      0.997959   -1.289253   -0.005941
| 11> C      0.080290   -0.226157   -0.056360
| 12> C     -3.683656   -0.105023    0.019100
| 13> C     -2.294319    0.511126    0.087695
| 14> N     -1.276349   -0.497538   -0.143162
| 15> H      3.919858    0.436494    0.075585
| 16> H      2.318186    2.327791   -0.005576
| 17> H      3.043134   -1.888633    0.080058
| 18> H     -0.090520    1.925367   -0.082058
| 19> H      0.628256   -2.307784   -0.011219
| 20> H     -3.861554   -0.559934   -0.955872
| 21> H     -3.812010   -0.873971    0.784186
| 22> H     -4.445779    0.655703    0.185234
| 23> H     -2.153505    1.006369    1.058333
| 24> H     -2.204125    1.287273   -0.676443
| 25> H     -1.535324   -1.428467    0.139104
| 26> *
| 27>
| 28>                          ****END OF INPUT****

CARTESIAN COORDINATES (ANGSTROEM)
---------------------------------
  C      2.855440    0.252651    0.039517
  C      1.955251    1.308154   -0.006830
  C      2.360141   -1.050018    0.041527
  C      0.583533    1.082280   -0.050241
  C      0.997959   -1.289253   -0.005941
  C      0.080290   -0.226157   -0.056360
  C     -3.683656   -0.105023    0.019100
  C     -2.294319    0.511126    0.087695
  N     -1.276349   -0.497538   -0.143162
  H      3.919858    0.436494    0.075585
  H      2.318186    2.327791   -0.005576
  H      3.043134   -1.888633    0.080058
  H     -0.090520    1.925367   -0.082058
  H      0.628256   -2.307784   -0.011219
  H     -3.861554   -0.559934   -0.955872
  H     -3.812010   -0.873971    0.784186
  H     -4.445779    0.655703    0.185234
  H     -2.153505    1.006369    1.058333
  H     -2.204125    1.287273   -0.676443
  H     -1.535324   -1.428467    0.139104

 Total Charge           Charge          ....    0
 Multiplicity           Mult            ....    1
 Number of Electrons    NEL             ....   66
 Basis Dimension        Dim             ....  667

ORBITAL ENERGIES
----------------

  NO   OCC          E(Eh)            E(eV)
   0   2.0000     -15.561886      -423.4605
   1   2.0000     -11.274943      -306.8068
   2   2.0000     -11.261813      -306.4495
   3   2.0000     -11.230446      -305.5960
   4   2.0000     -11.229976      -305.5832
   5   2.0000     -11.224978      -305.4472
   6   2.0000     -11.218987      -305.2842
   7   2.0000     -11.217229      -305.2363
   8   2.0000     -11.213085      -305.1236
   9   2.0000      -1.242252       -33.8034
  10   2.0000      -1.131649       -30.7937
  11   2.0000      -1.033365       -28.1193
  12   2.0000      -1.008550       -27.4440
  13   2.0000      -0.968008       -26.3408
  14   2.0000      -0.862415       -23.4675
  15   2.0000      -0.820600       -22.3297
  16   2.0000      -0.797089       -21.6899
  17   2.0000      -0.711270       -19.3546
  18   2.0000      -0.666326       -18.1316
  19   2.0000      -0.648456       -17.6454
  20   2.0000      -0.636063       -17.3082
  21   2.0000      -0.605483       -16.4760
  22   2.0000      -0.584382       -15.9018
  23   2.0000      -0.578240       -15.7347
  24   2.0000      -0.540803       -14.7160
  25   2.0000      -0.539384       -14.6774
  26   2.0000      -0.514302       -13.9949
  27   2.0000      -0.502371       -13.6702
  28   2.0000      -0.495363       -13.4795
  29   2.0000      -0.480757       -13.0821
  30   2.0000      -0.421690       -11.4748
  31   2.0000      -0.333695        -9.0803
  32   2.0000      -0.284080        -7.7302
  33   0.0000       0.026870         0.7312
  34   0.0000       0.032341         0.8800
  35   0.0000       0.032985         0.8976
  36   0.0000       0.041974         1.1422
  37   0.0000       0.043957         1.1961

MULLIKEN ATOMIC CHARGES
-----------------------
   0 C :   -0.498063
   1 C :   -0.617767
   2 C :   -0.416803
   3 C :   -0.615644
   4 C :   -0.744952
   5 C :    1.001239
   6 C :   -0.964025
   7 C :   -0.385289
   8 N :   -0.465429
   9 H :    0.476814
  10 H :    0.338640
  11 H :    0.324114
  12 H :    0.572078
  13 H :    0.592910
  14 H :    0.288410
  15 H :    0.271336
  16 H :    0.286745
  17 H :    0.256194
  18 H :    0.286738
  19 H :    0.012752
Sum of atomic charges:   -0.0000000

LOEWDIN ATOMIC CHARGES
----------------------
   0 C :    0.182112
   1 C :    0.183248
   2 C :    0.180245
   3 C :    0.219128
   4 C :    0.218108
   5 C :   -0.224220
   6 C :    0.591326
   7 C :    0.144409
   8 N :    0.561859
   9 H :   -0.197552
  10 H :   -0.183228
  11 H :   -0.183663
  12 H :   -0.203856
  13 H :   -0.185107
  14 H :   -0.166711
  15 H :   -0.169389
  16 H :   -0.170086
  17 H :   -0.138514
  18 H :   -0.153846
  19 H :   -0.304267

  Mayer bond orders larger than 0.100000
B(  0-C ,  1-C ) :   1.1388 B(  0-C ,  2-C ) :   1.0500 B(  0-C ,  3-C ) :   0.2553
B(  0-C ,  4-C ) :   0.2116 B(  0-C ,  9-H ) :   0.7619 B(  0-C , 10-H ) :  -0.1031
B(  0-C , 11-H ) :  -0.1004 B(  1-C ,  3-C ) :   1.1496 B(  1-C ,  5-C ) :  -0.2173
B(  1-C , 10-H ) :   0.9880 B(  2-C ,  4-C ) :   1.1401 B(  2-C ,  5-C ) :  -0.2093
B(  2-C , 11-H ) :   1.0300 B(  3-C ,  4-C ) :   0.4082 B(  3-C ,  5-C ) :   0.7425
B(  3-C ,  8-N ) :  -0.4415 B(  3-C , 12-H ) :   0.5596 B(  4-C ,  5-C ) :   0.5917
B(  4-C ,  8-N ) :  -0.1356 B(  4-C , 13-H ) :   0.5110 B(  5-C ,  8-N ) :   0.8084
B(  6-C ,  7-C ) :   0.8194 B(  6-C , 14-H ) :   0.9573 B(  6-C , 15-H ) :   0.9647
B(  6-C , 16-H ) :   0.9776 B(  7-C ,  8-N ) :   0.8966 B(  7-C , 17-H ) :   0.9397
B(  7-C , 18-H ) :   0.9448 B(  8-N , 19-H ) :   1.1446

MP2 TOTAL ENERGY:     -365.457523814 Eh
FINAL SINGLE POINT ENERGY      -365.457523814018

DIPOLE MOMENT
-------------
                                X             Y             Z
Electronic contribution:      7.72933      -0.68660      -0.39585
Nuclear contribution   :     -8.38832       0.59048       0.60399
                        -----------------------------------------
Total Dipole Moment    :     -0.65899      -0.09612       0.20814
                        -----------------------------------------
Magnitude (a.u.)       :      0.69773
Magnitude (Debye)      :      1.77349

Rotational constants in cm-1:     0.161687     0.029510     0.025231
Rotational constants in MHz :  4847.259331   884.691224   756.414568

                             ****ORCA TERMINATED NORMALLY****
TOTAL RUN TIME: 0 days 0 hours 10 minutes 45 seconds 956 msec
