                         Program Version 5.0.3 -  RELEASE  -
|  1> !ri-mp2 aug-cc-pvtz aug-cc-pvtz/c tightscf
|  2> %pal nprocs 16 end
|  3>
|  4> * xyz 0 1
|  5> C     -1.936874   -0.817158    0.000000
|  6> C     -0.619074   -0.628886    0.000000
|  7> C      1.363850    0.795633    0.000000
|  8> C     -2.590379   -2.163352    0.000000
|  9> C      1.836552    2.234079    0.000000
| 10> N      0.000000    0.623665    0.000000
| 11> O      2.140869   -0.141131    0.000000
| 12> H     -2.595791    0.047327    0.000000
| 13> H      0.088707   -1.445676    0.000000
| 14> H     -3.229378   -2.296210    0.877032
| 15> H     -3.229378   -2.296210   -0.877032
| 16> H     -1.850635   -2.963831    0.000000
| 17> H      2.460883    2.395108   -0.878171
| 18> H      2.460883    2.395108    0.878171
| 19> H      1.027080    2.963093    0.000000
| 20> H     -0.583780    1.442786    0.000000
| 21> *
| 22>
| 23>                          ****END OF INPUT****

CARTESIAN COORDINATES (ANGSTROEM)
---------------------------------
  C     -1.936874   -0.817158    0.000000
  C     -0.619074   -0.628886    0.000000
  C      1.363850    0.795633    0.000000
  C     -2.590379   -2.163352    0.000000
  C      1.836552    2.234079    0.000000
  N      0.000000    0.623665    0.000000
  O      2.140869   -0.141131    0.000000
  H     -2.595791    0.047327    0.000000
  H      0.088707   -1.445676    0.000000
  H     -3.229378   -2.296210    0.877032
  H     -3.229378   -2.296210   -0.877032
  H     -1.850635   -2.963831    0.000000
  H      2.460883    2.395108   -0.878171
  H      2.460883    2.395108    0.878171
  H      1.027080    2.963093    0.000000
  H     -0.583780    1.442786    0.000000

 Total Charge           Charge          ....    0
 Multiplicity           Mult            ....    1
 Number of Electrons    NEL             ....   54
 Basis Dimension        Dim             ....  529

ORBITAL ENERGIES
----------------

  NO   OCC          E(Eh)            E(eV)
   0   2.0000     -20.522159      -558.4363
   1   2.0000     -15.601546      -424.5397
   2   2.0000     -11.358344      -309.0762
   3   2.0000     -11.268828      -306.6404
   4   2.0000     -11.242729      -305.9302
   5   2.0000     -11.227192      -305.5074
   6   2.0000     -11.222941      -305.3918
   7   2.0000      -1.387885       -37.7663
   8   2.0000      -1.250305       -34.0225
   9   2.0000      -1.068432       -29.0735
  10   2.0000      -1.011210       -27.5164
  11   2.0000      -0.930066       -25.3084
  12   2.0000      -0.803412       -21.8619
  13   2.0000      -0.796173       -21.6650
  14   2.0000      -0.687641       -18.7117
  15   2.0000      -0.677100       -18.4248
  16   2.0000      -0.624710       -16.9992
  17   2.0000      -0.600004       -16.3270
  18   2.0000      -0.580162       -15.7870
  19   2.0000      -0.571983       -15.5644
  20   2.0000      -0.570443       -15.5225
  21   2.0000      -0.542095       -14.7512
  22   2.0000      -0.539082       -14.6692
  23   2.0000      -0.510369       -13.8878
  24   2.0000      -0.460740       -12.5374
  25   2.0000      -0.429387       -11.6842
  26   2.0000      -0.323080        -8.7915
  27   0.0000       0.021269         0.5788
  28   0.0000       0.031007         0.8437
  29   0.0000       0.038059         1.0356
  30   0.0000       0.044571         1.2128
  31   0.0000       0.051857         1.4111

MULLIKEN ATOMIC CHARGES
-----------------------
   0 C :   -0.273811
   1 C :   -0.432896
   2 C :    0.458797
   3 C :   -0.713457
   4 C :   -0.690239
   5 N :   -0.048879
   6 O :   -0.875100
   7 H :    0.333094
   8 H :    0.434427
   9 H :    0.275372
  10 H :    0.275372
  11 H :    0.277142
  12 H :    0.293997
  13 H :    0.293997
  14 H :    0.295013
  15 H :    0.097172
Sum of atomic charges:   -0.0000000

LOEWDIN ATOMIC CHARGES
----------------------
   0 C :    0.204819
   1 C :    0.116438
   2 C :   -0.666253
   3 C :    0.537946
   4 C :    0.598072
   5 N :    0.522822
   6 O :    0.439948
   7 H :   -0.191133
   8 H :   -0.192275
   9 H :   -0.179679
  10 H :   -0.179679
  11 H :   -0.183813
  12 H :   -0.171785
  13 H :   -0.171785
  14 H :   -0.186032
  15 H :   -0.297613

  Mayer bond orders larger than 0.100000
B(  0-C ,  1-C ) :   1.0241 B(  0-C ,  2-C ) :   0.1130 B(  0-C ,  3-C ) :   0.7877
B(  0-C ,  5-N ) :  -0.2343 B(  0-C ,  7-H ) :   0.9734 B(  1-C ,  2-C ) :  -0.2286
B(  1-C ,  5-N ) :   0.9068 B(  1-C ,  8-H ) :   0.9482 B(  2-C ,  4-C ) :   0.5362
B(  2-C ,  5-N ) :   1.0378 B(  2-C ,  6-O ) :   1.4032 B(  3-C ,  9-H ) :   0.9737
B(  3-C , 10-H ) :   0.9737 B(  3-C , 11-H ) :   0.9401 B(  4-C ,  6-O ) :  -0.1033
B(  4-C , 12-H ) :   0.9792 B(  4-C , 13-H ) :   0.9792 B(  4-C , 14-H ) :   0.9342
B(  5-N , 15-H ) :   1.0726

MP2 TOTAL ENERGY:     -325.304550958 Eh
FINAL SINGLE POINT ENERGY      -325.304550958184

DIPOLE MOMENT
-------------
                                X             Y             Z
Electronic contribution:      4.50650       0.87957      -0.00000
Nuclear contribution   :     -5.54242       0.24853       0.00000
                        -----------------------------------------
Total Dipole Moment    :     -1.03592       1.12809      -0.00000
                        -----------------------------------------
Magnitude (a.u.)       :      1.53158
Magnitude (Debye)      :      3.89296

Rotational constants in cm-1:     0.287257     0.037885     0.033888
Rotational constants in MHz :  8611.751046  1135.754726  1015.947452

                             ****ORCA TERMINATED NORMALLY****
TOTAL RUN TIME: 0 days 0 hours 4 minutes 50 seconds 296 msec
