                         Program Version 5.0.3 -  RELEASE  -
|  1> !ri-mp2 aug-cc-pvtz aug-cc-pvtz/c tightscf
|  2> %pal nprocs 16 end
|  3>
|  4> * xyz 0 1
|  5> Cl   -0.701864    1.462003   -0.034783
|  6> O    -2.283438   -0.979375   -0.549331
|  7> N    -0.344081   -0.165493    0.372382
|  8> N     2.914608   -0.191919   -0.838450
|  9> C     0.978044   -0.423781    0.908893
| 10> C    -1.224862   -1.151741   -0.010019
| 11> C     2.060093   -0.287664   -0.076810
| 12> H     1.172647    0.247397    1.745782
| 13> H     0.982654   -1.443332    1.297214
| 14> H    -0.829457   -2.142106    0.273049
| 15> *
| 16>
| 17>                          ****END OF INPUT****

CARTESIAN COORDINATES (ANGSTROEM)
---------------------------------
  Cl    -0.701864    1.462003   -0.034783
  O     -2.283438   -0.979375   -0.549331
  N     -0.344081   -0.165493    0.372382
  N      2.914608   -0.191919   -0.838450
  C      0.978044   -0.423781    0.908893
  C     -1.224862   -1.151741   -0.010019
  C      2.060093   -0.287664   -0.076810
  H      1.172647    0.247397    1.745782
  H      0.982654   -1.443332    1.297214
  H     -0.829457   -2.142106    0.273049

 Total Charge           Charge          ....    0
 Multiplicity           Mult            ....    1
 Number of Electrons    NEL             ....   60
 Basis Dimension        Dim             ....  395

ORBITAL ENERGIES
----------------

  NO   OCC          E(Eh)            E(eV)
   0   2.0000    -104.901698     -2854.5203
   1   2.0000     -20.567913      -559.6814
   2   2.0000     -15.681757      -426.7223
   3   2.0000     -15.599971      -424.4968
   4   2.0000     -11.392460      -310.0046
   5   2.0000     -11.366030      -309.2854
   6   2.0000     -11.298521      -307.4484
   7   2.0000     -10.622034      -289.0402
   8   2.0000      -8.089105      -220.1157
   9   2.0000      -8.086340      -220.0405
  10   2.0000      -8.086150      -220.0353
  11   2.0000      -1.431693       -38.9583
  12   2.0000      -1.325519       -36.0692
  13   2.0000      -1.247626       -33.9496
  14   2.0000      -1.118817       -30.4445
  15   2.0000      -1.041148       -28.3311
  16   2.0000      -0.846995       -23.0479
  17   2.0000      -0.778705       -21.1896
  18   2.0000      -0.741314       -20.1722
  19   2.0000      -0.711139       -19.3511
  20   2.0000      -0.653877       -17.7929
  21   2.0000      -0.624292       -16.9878
  22   2.0000      -0.615779       -16.7562
  23   2.0000      -0.581857       -15.8331
  24   2.0000      -0.528526       -14.3819
  25   2.0000      -0.502546       -13.6750
  26   2.0000      -0.495569       -13.4851
  27   2.0000      -0.490650       -13.3513
  28   2.0000      -0.470909       -12.8141
  29   2.0000      -0.421236       -11.4624
  30   0.0000       0.016205         0.4410
  31   0.0000       0.032186         0.8758
  32   0.0000       0.045258         1.2315
  33   0.0000       0.052013         1.4154
  34   0.0000       0.065034         1.7697

MULLIKEN ATOMIC CHARGES
-----------------------
   0 Cl:   -0.144072
   1 O :   -0.657329
   2 N :    0.076252
   3 N :   -0.488351
   4 C :    0.092563
   5 C :   -0.111144
   6 C :   -0.003792
   7 H :    0.344083
   8 H :    0.342586
   9 H :    0.549206
Sum of atomic charges:    0.0000000

LOEWDIN ATOMIC CHARGES
----------------------
   0 Cl:    0.911964
   1 O :    0.402915
   2 N :   -0.360098
   3 N :    0.265744
   4 C :    0.015662
   5 C :   -0.484323
   6 C :   -0.217268
   7 H :   -0.171467
   8 H :   -0.175663
   9 H :   -0.187468

  Mayer bond orders larger than 0.100000
B(  0-Cl,  2-N ) :   0.8872 B(  1-O ,  5-C ) :   1.7301 B(  2-N ,  4-C ) :   0.8406
B(  2-N ,  5-C ) :   1.1403 B(  3-N ,  6-C ) :   2.3231 B(  4-C ,  6-C ) :   0.7764
B(  4-C ,  7-H ) :   0.9017 B(  4-C ,  8-H ) :   0.8790 B(  5-C ,  9-H ) :   0.6103

MP2 TOTAL ENERGY:     -759.984074819 Eh
FINAL SINGLE POINT ENERGY      -759.984074819460

DIPOLE MOMENT
-------------
                                X             Y             Z
Electronic contribution:     -1.88064       4.72869      -1.55367
Nuclear contribution   :      2.19531      -5.17886       3.18917
                        -----------------------------------------
Total Dipole Moment    :      0.31467      -0.45018       1.63549
                        -----------------------------------------
Magnitude (a.u.)       :      1.72526
Magnitude (Debye)      :      4.38526

Rotational constants in cm-1:     0.113143     0.050112     0.039876
Rotational constants in MHz :  3391.947746  1502.310993  1195.439011

                             ****ORCA TERMINATED NORMALLY****
TOTAL RUN TIME: 0 days 0 hours 2 minutes 28 seconds 782 msec
