                         Program Version 5.0.3 -  RELEASE  -
|  1> !ri-mp2 aug-cc-pvtz aug-cc-pvtz/c tightscf
|  2> %pal nprocs 16 end
|  3> %maxcore 3800
|  4>
|  5> * xyz 0 1
|  6> C      2.934750    0.367685    0.004894
|  7> C      2.687481   -1.021705    0.002229
|  8> C      1.883651    1.248979    0.004210
|  9> C      1.403115   -1.502176   -0.001292
| 10> C     -0.563413    1.664514   -0.000104
| 11> C     -1.844909    1.189940   -0.005795
| 12> C     -1.040095   -1.082969   -0.003076
| 13> C      0.547644    0.786363    0.000560
| 14> C      0.294326   -0.618925   -0.002537
| 15> C     -2.104204   -0.206518   -0.005473
| 16> N     -3.423722   -0.650874   -0.067870
| 17> H      3.952870    0.732442    0.007200
| 18> H      3.520954   -1.711733    0.002509
| 19> H      2.064878    2.316734    0.006029
| 20> H      1.220915   -2.569562   -0.003920
| 21> H     -0.385911    2.732646    0.001922
| 22> H     -2.680007    1.879584   -0.016198
| 23> H     -1.221281   -2.151525   -0.006138
| 24> H     -4.116285   -0.020662    0.301917
| 25> H     -3.580151   -1.602931    0.220075
| 26> *
| 27>
| 28>                          ****END OF INPUT****

CARTESIAN COORDINATES (ANGSTROEM)
---------------------------------
  C      2.934750    0.367685    0.004894
  C      2.687481   -1.021705    0.002229
  C      1.883651    1.248979    0.004210
  C      1.403115   -1.502176   -0.001292
  C     -0.563413    1.664514   -0.000104
  C     -1.844909    1.189940   -0.005795
  C     -1.040095   -1.082969   -0.003076
  C      0.547644    0.786363    0.000560
  C      0.294326   -0.618925   -0.002537
  C     -2.104204   -0.206518   -0.005473
  N     -3.423722   -0.650874   -0.067870
  H      3.952870    0.732442    0.007200
  H      3.520954   -1.711733    0.002509
  H      2.064878    2.316734    0.006029
  H      1.220915   -2.569562   -0.003920
  H     -0.385911    2.732646    0.001922
  H     -2.680007    1.879584   -0.016198
  H     -1.221281   -2.151525   -0.006138
  H     -4.116285   -0.020662    0.301917
  H     -3.580151   -1.602931    0.220075

 Total Charge           Charge          ....    0
 Multiplicity           Mult            ....    1
 Number of Electrons    NEL             ....   76
 Basis Dimension        Dim             ....  713

ORBITAL ENERGIES
----------------

  NO   OCC          E(Eh)            E(eV)
   0   2.0000     -15.567756      -423.6202
   1   2.0000     -11.280938      -306.9699
   2   2.0000     -11.242158      -305.9147
   3   2.0000     -11.240265      -305.8632
   4   2.0000     -11.233146      -305.6694
   5   2.0000     -11.231793      -305.6326
   6   2.0000     -11.231682      -305.6296
   7   2.0000     -11.231136      -305.6148
   8   2.0000     -11.226792      -305.4965
   9   2.0000     -11.224830      -305.4432
  10   2.0000     -11.218493      -305.2707
  11   2.0000      -1.228483       -33.4287
  12   2.0000      -1.164318       -31.6827
  13   2.0000      -1.093459       -29.7545
  14   2.0000      -1.044486       -28.4219
  15   2.0000      -0.996786       -27.1239
  16   2.0000      -0.971081       -26.4245
  17   2.0000      -0.854583       -23.2544
  18   2.0000      -0.829510       -22.5721
  19   2.0000      -0.811023       -22.0691
  20   2.0000      -0.715951       -19.4820
  21   2.0000      -0.706873       -19.2350
  22   2.0000      -0.692702       -18.8494
  23   2.0000      -0.654215       -17.8021
  24   2.0000      -0.623555       -16.9678
  25   2.0000      -0.608771       -16.5655
  26   2.0000      -0.585898       -15.9431
  27   2.0000      -0.575802       -15.6684
  28   2.0000      -0.572684       -15.5835
  29   2.0000      -0.545716       -14.8497
  30   2.0000      -0.524934       -14.2842
  31   2.0000      -0.498089       -13.5537
  32   2.0000      -0.490443       -13.3456
  33   2.0000      -0.472894       -12.8681
  34   2.0000      -0.416408       -11.3310
  35   2.0000      -0.377581       -10.2745
  36   2.0000      -0.305116        -8.3026
  37   2.0000      -0.272456        -7.4139
  38   0.0000       0.025082         0.6825
  39   0.0000       0.031055         0.8450
  40   0.0000       0.032283         0.8785
  41   0.0000       0.042222         1.1489
  42   0.0000       0.043272         1.1775

MULLIKEN ATOMIC CHARGES
-----------------------
   0 C :   -0.309731
   1 C :   -0.343924
   2 C :   -1.449443
   3 C :   -1.456717
   4 C :   -1.220619
   5 C :   -0.526134
   6 C :   -0.940499
   7 C :    1.908791
   8 C :    1.816626
   9 C :    1.185875
  10 N :   -0.826902
  11 H :    0.612636
  12 H :    0.620483
  13 H :    0.049123
  14 H :   -0.094730
  15 H :    0.119507
  16 H :    0.463111
  17 H :    0.270705
  18 H :    0.065326
  19 H :    0.056516
Sum of atomic charges:    0.0000000

LOEWDIN ATOMIC CHARGES
----------------------
   0 C :    0.197696
   1 C :    0.197652
   2 C :    0.213613
   3 C :    0.220366
   4 C :    0.222036
   5 C :    0.230984
   6 C :    0.239580
   7 C :   -0.117879
   8 C :   -0.122928
   9 C :   -0.238398
  10 N :    0.851211
  11 H :   -0.191151
  12 H :   -0.185570
  13 H :   -0.178104
  14 H :   -0.181707
  15 H :   -0.173850
  16 H :   -0.182551
  17 H :   -0.180295
  18 H :   -0.312430
  19 H :   -0.308277

  Mayer bond orders larger than 0.100000
B(  0-C ,  1-C ) :   0.9670 B(  0-C ,  2-C ) :   1.2006 B(  0-C ,  3-C ) :  -0.1290
B(  0-C ,  8-C ) :  -0.1117 B(  0-C , 11-H ) :   0.5512 B(  1-C ,  3-C ) :   1.1893
B(  1-C ,  8-C ) :   0.1423 B(  1-C , 12-H ) :   0.4863 B(  1-C , 14-H ) :  -0.1274
B(  2-C ,  3-C ) :   0.1850 B(  2-C ,  4-C ) :   0.8116 B(  2-C ,  6-C ) :  -0.1025
B(  2-C ,  7-C ) :  -0.1214 B(  2-C ,  8-C ) :  -0.1559 B(  2-C , 11-H ) :  -0.2603
B(  2-C , 13-H ) :   1.6482 B(  3-C ,  6-C ) :   0.4521 B(  3-C ,  7-C ) :  -0.3092
B(  3-C ,  8-C ) :  -0.1792 B(  3-C , 12-H ) :  -0.2923 B(  3-C , 14-H ) :   1.9846
B(  4-C ,  5-C ) :   1.3543 B(  4-C ,  6-C ) :  -0.2427 B(  4-C ,  7-C ) :  -0.4573
B(  4-C ,  8-C ) :   0.1071 B(  4-C , 15-H ) :   1.4408 B(  5-C ,  9-C ) :   1.0036
B(  5-C , 10-N ) :  -0.1836 B(  5-C , 16-H ) :   0.6911 B(  6-C ,  7-C ) :   0.3599
B(  6-C ,  9-C ) :   0.9084 B(  6-C , 17-H ) :   0.9739 B(  7-C ,  8-C ) :   0.6636
B(  7-C , 15-H ) :  -0.2037 B(  8-C , 14-H ) :  -0.1160 B(  8-C , 17-H ) :  -0.1239
B(  9-C , 10-N ) :   0.3698 B( 10-N , 18-H ) :   1.1159 B( 10-N , 19-H ) :   1.1229

MP2 TOTAL ENERGY:     -440.341740137 Eh
FINAL SINGLE POINT ENERGY      -440.341740137162

DIPOLE MOMENT
-------------
                                X             Y             Z
Electronic contribution:      0.69719       0.37773      -0.14406
Nuclear contribution   :     -1.24016      -0.39756       0.51137
                        -----------------------------------------
Total Dipole Moment    :     -0.54296      -0.01983       0.36731
                        -----------------------------------------
Magnitude (a.u.)       :      0.65583
Magnitude (Debye)      :      1.66700

Rotational constants in cm-1:     0.095269     0.027667     0.021452
Rotational constants in MHz :  2856.082446   829.447786   643.101097

                             ****ORCA TERMINATED NORMALLY****
TOTAL RUN TIME: 0 days 0 hours 15 minutes 34 seconds 200 msec
