                         Program Version 5.0.3 -  RELEASE  -
|  1> !ri-mp2 aug-cc-pvtz aug-cc-pvtz/c tightscf
|  2> %pal nprocs 16 end
|  3> %maxcore 3800
|  4>
|  5> * xyz 0 1
|  6> C     3.364850    0.398763    0.150943
|  7> C     2.326412    1.312586    0.065958
|  8> C     1.891085   -1.300109   -0.147133
|  9> C     0.842900   -0.369826   -0.242482
| 10> C    -2.122614    1.334764   -0.896648
| 11> N     3.141045   -0.913697    0.037962
| 12> N     1.065571    0.934122   -0.143705
| 13> N    -0.461515   -0.797266   -0.495355
| 14> O    -2.884414   -1.071196   -0.072187
| 15> O    -1.587626    0.402262    1.509475
| 16> S    -1.856311   -0.074094    0.169128
| 17> H     4.385597    0.718852    0.312895
| 18> H     2.507994    2.376178    0.160123
| 19> H     1.700423   -2.365075   -0.225096
| 20> H    -3.002391    1.842073   -0.507181
| 21> H    -1.240827    1.965017   -0.832434
| 22> H    -2.293340    0.973464   -1.906154
| 23> H    -0.611669   -1.792707   -0.582644
| 24> *
| 25>
| 26>                          ****END OF INPUT****

CARTESIAN COORDINATES (ANGSTROEM)
---------------------------------
  C      3.364850    0.398763    0.150943
  C      2.326412    1.312586    0.065958
  C      1.891085   -1.300109   -0.147133
  C      0.842900   -0.369826   -0.242482
  C     -2.122614    1.334764   -0.896648
  N      3.141045   -0.913697    0.037962
  N      1.065571    0.934122   -0.143705
  N     -0.461515   -0.797266   -0.495355
  O     -2.884414   -1.071196   -0.072187
  O     -1.587626    0.402262    1.509475
  S     -1.856311   -0.074094    0.169128
  H      4.385597    0.718852    0.312895
  H      2.507994    2.376178    0.160123
  H      1.700423   -2.365075   -0.225096
  H     -3.002391    1.842073   -0.507181
  H     -1.240827    1.965017   -0.832434
  H     -2.293340    0.973464   -1.906154
  H     -0.611669   -1.792707   -0.582644

 Total Charge           Charge          ....    0
 Multiplicity           Mult            ....    1
 Number of Electrons    NEL             ....   90
 Basis Dimension        Dim             ....  671

ORBITAL ENERGIES
----------------

  NO   OCC          E(Eh)            E(eV)
   0   2.0000     -92.214948     -2509.2963
   1   2.0000     -20.557903      -559.4090
   2   2.0000     -20.556241      -559.3637
   3   2.0000     -15.626034      -425.2060
   4   2.0000     -15.608351      -424.7248
   5   2.0000     -15.600945      -424.5233
   6   2.0000     -11.350897      -308.8736
   7   2.0000     -11.299732      -307.4813
   8   2.0000     -11.296948      -307.4056
   9   2.0000     -11.285259      -307.0875
  10   2.0000     -11.279756      -306.9378
  11   2.0000      -9.180242      -249.8071
  12   2.0000      -6.865650      -186.8238
  13   2.0000      -6.864489      -186.7922
  14   2.0000      -6.864260      -186.7860
  15   2.0000      -1.469331       -39.9825
  16   2.0000      -1.350208       -36.7410
  17   2.0000      -1.340683       -36.4818
  18   2.0000      -1.266352       -34.4592
  19   2.0000      -1.221352       -33.2347
  20   2.0000      -1.065372       -28.9903
  21   2.0000      -1.040458       -28.3123
  22   2.0000      -0.927650       -25.2426
  23   2.0000      -0.911100       -24.7923
  24   2.0000      -0.839249       -22.8371
  25   2.0000      -0.768787       -20.9197
  26   2.0000      -0.739798       -20.1309
  27   2.0000      -0.717277       -19.5181
  28   2.0000      -0.696622       -18.9560
  29   2.0000      -0.680898       -18.5282
  30   2.0000      -0.660030       -17.9603
  31   2.0000      -0.640225       -17.4214
  32   2.0000      -0.622099       -16.9282
  33   2.0000      -0.606950       -16.5159
  34   2.0000      -0.599272       -16.3070
  35   2.0000      -0.582040       -15.8381
  36   2.0000      -0.537702       -14.6316
  37   2.0000      -0.514555       -14.0018
  38   2.0000      -0.512814       -13.9544
  39   2.0000      -0.498491       -13.5646
  40   2.0000      -0.477900       -13.0043
  41   2.0000      -0.475476       -12.9383
  42   2.0000      -0.446045       -12.1375
  43   2.0000      -0.427227       -11.6254
  44   2.0000      -0.347758        -9.4630
  45   0.0000       0.023554         0.6409
  46   0.0000       0.029405         0.8002
  47   0.0000       0.031692         0.8624
  48   0.0000       0.042972         1.1693
  49   0.0000       0.046154         1.2559

MULLIKEN ATOMIC CHARGES
-----------------------
   0 C :   -0.304577
   1 C :   -0.622628
   2 C :   -0.551388
   3 C :    0.540018
   4 C :   -1.017438
   5 N :   -0.528344
   6 N :   -0.188570
   7 N :   -0.263869
   8 O :   -0.987641
   9 O :   -0.976326
  10 S :    2.112690
  11 H :    0.610854
  12 H :    0.546883
  13 H :    0.568990
  14 H :    0.319936
  15 H :    0.403304
  16 H :    0.284384
  17 H :    0.053720
Sum of atomic charges:   -0.0000000

LOEWDIN ATOMIC CHARGES
----------------------
   0 C :    0.023454
   1 C :    0.030029
   2 C :    0.047589
   3 C :   -0.476825
   4 C :    0.512219
   5 N :    0.377531
   6 N :    0.386949
   7 N :    0.413133
   8 O :    0.044289
   9 O :    0.045787
  10 S :    0.174002
  11 H :   -0.199491
  12 H :   -0.187764
  13 H :   -0.187634
  14 H :   -0.204130
  15 H :   -0.232602
  16 H :   -0.203161
  17 H :   -0.363373

  Mayer bond orders larger than 0.100000
B(  0-C ,  1-C ) :   1.2518 B(  0-C ,  2-C ) :  -0.1889 B(  0-C ,  3-C ) :   0.1720
B(  0-C ,  5-N ) :   1.0064 B(  0-C ,  6-N ) :  -0.1240 B(  0-C , 11-H ) :   0.5354
B(  1-C ,  2-C ) :   0.2013 B(  1-C ,  3-C ) :  -0.1414 B(  1-C ,  6-N ) :   1.1625
B(  1-C , 12-H ) :   0.6714 B(  2-C ,  3-C ) :   0.9626 B(  2-C ,  5-N ) :   0.8166
B(  2-C ,  7-N ) :  -0.2100 B(  2-C , 13-H ) :   0.5881 B(  3-C ,  6-N ) :   0.7731
B(  3-C ,  7-N ) :   0.8386 B(  4-C , 10-S ) :   0.8404 B(  4-C , 14-H ) :   0.9231
B(  4-C , 15-H ) :   0.8101 B(  4-C , 16-H ) :   0.9087 B(  6-N ,  7-N ) :  -0.1531
B(  7-N , 10-S ) :   1.0222 B(  7-N , 17-H ) :   1.0419 B(  8-O , 10-S ) :   1.2144
B(  9-O , 10-S ) :   1.2825

MP2 TOTAL ENERGY:     -906.265575810 Eh
FINAL SINGLE POINT ENERGY      -906.265575810455

DIPOLE MOMENT
-------------
                                X             Y             Z
Electronic contribution:     -0.60727      -2.89015       2.25798
Nuclear contribution   :      1.41959       3.61592      -3.48084
                        -----------------------------------------
Total Dipole Moment    :      0.81231       0.72576      -1.22286
                        -----------------------------------------
Magnitude (a.u.)       :      1.63767
Magnitude (Debye)      :      4.16263

Rotational constants in cm-1:     0.084179     0.019839     0.018013
Rotational constants in MHz :  2523.609215   594.762952   540.008661

                             ****ORCA TERMINATED NORMALLY****
TOTAL RUN TIME: 0 days 0 hours 11 minutes 44 seconds 189 msec
