                         Program Version 5.0.3 -  RELEASE  -
|  1> !ri-mp2 aug-cc-pvtz aug-cc-pvtz/c tightscf
|  2> %pal nprocs 16 end
|  3> %maxcore 3800
|  4>
|  5> * xyz 0 1
|  6> C     -2.745482   -0.250488    0.015139
|  7> C     -2.350376    1.101274   -0.020876
|  8> C      1.894620   -1.629753   -0.016536
|  9> C     -1.798435   -1.240778    0.025645
| 10> C     -1.018277    1.430836   -0.033362
| 11> C      0.565283   -1.959620    0.002317
| 12> C      2.304363   -0.285408   -0.011578
| 13> C     -0.414684   -0.938347    0.010052
| 14> C     -0.013885    0.433355   -0.006243
| 15> C      1.383991    0.743412   -0.000677
| 16> N      1.805666    2.071855   -0.042792
| 17> H     -3.797274   -0.503107    0.026539
| 18> H     -3.099801    1.880731   -0.046991
| 19> H      2.647310   -2.406938   -0.024601
| 20> H     -2.097908   -2.281072    0.043095
| 21> H     -0.742879    2.474995   -0.088131
| 22> H      0.249676   -2.994190    0.010295
| 23> H      3.361776   -0.050767   -0.011365
| 24> H      2.778199    2.210429    0.179331
| 25> H      1.218530    2.740032    0.428091
| 26> *
| 27>
| 28>                          ****END OF INPUT****

CARTESIAN COORDINATES (ANGSTROEM)
---------------------------------
  C     -2.745482   -0.250488    0.015139
  C     -2.350376    1.101274   -0.020876
  C      1.894620   -1.629753   -0.016536
  C     -1.798435   -1.240778    0.025645
  C     -1.018277    1.430836   -0.033362
  C      0.565283   -1.959620    0.002317
  C      2.304363   -0.285408   -0.011578
  C     -0.414684   -0.938347    0.010052
  C     -0.013885    0.433355   -0.006243
  C      1.383991    0.743412   -0.000677
  N      1.805666    2.071855   -0.042792
  H     -3.797274   -0.503107    0.026539
  H     -3.099801    1.880731   -0.046991
  H      2.647310   -2.406938   -0.024601
  H     -2.097908   -2.281072    0.043095
  H     -0.742879    2.474995   -0.088131
  H      0.249676   -2.994190    0.010295
  H      3.361776   -0.050767   -0.011365
  H      2.778199    2.210429    0.179331
  H      1.218530    2.740032    0.428091

 Total Charge           Charge          ....    0
 Multiplicity           Mult            ....    1
 Number of Electrons    NEL             ....   76
 Basis Dimension        Dim             ....  713

ORBITAL ENERGIES
----------------

  NO   OCC          E(Eh)            E(eV)
   0   2.0000     -15.567666      -423.6177
   1   2.0000     -11.282554      -307.0139
   2   2.0000     -11.243517      -305.9517
   3   2.0000     -11.240259      -305.8630
   4   2.0000     -11.237872      -305.7980
   5   2.0000     -11.235098      -305.7226
   6   2.0000     -11.233771      -305.6864
   7   2.0000     -11.233008      -305.6657
   8   2.0000     -11.232579      -305.6540
   9   2.0000     -11.220406      -305.3228
  10   2.0000     -11.219460      -305.2970
  11   2.0000      -1.231590       -33.5133
  12   2.0000      -1.160779       -31.5864
  13   2.0000      -1.102383       -29.9974
  14   2.0000      -1.034107       -28.1395
  15   2.0000      -1.008341       -27.4384
  16   2.0000      -0.969302       -26.3761
  17   2.0000      -0.852156       -23.1884
  18   2.0000      -0.842441       -22.9240
  19   2.0000      -0.801917       -21.8213
  20   2.0000      -0.719739       -19.5851
  21   2.0000      -0.713201       -19.4072
  22   2.0000      -0.683879       -18.6093
  23   2.0000      -0.657195       -17.8832
  24   2.0000      -0.637222       -17.3397
  25   2.0000      -0.602383       -16.3917
  26   2.0000      -0.594969       -16.1899
  27   2.0000      -0.577555       -15.7161
  28   2.0000      -0.561276       -15.2731
  29   2.0000      -0.549285       -14.9468
  30   2.0000      -0.529698       -14.4138
  31   2.0000      -0.489433       -13.3181
  32   2.0000      -0.486081       -13.2269
  33   2.0000      -0.478426       -13.0186
  34   2.0000      -0.434563       -11.8251
  35   2.0000      -0.359331        -9.7779
  36   2.0000      -0.320858        -8.7310
  37   2.0000      -0.269256        -7.3268
  38   0.0000       0.026088         0.7099
  39   0.0000       0.030714         0.8358
  40   0.0000       0.032397         0.8816
  41   0.0000       0.041826         1.1381
  42   0.0000       0.042972         1.1693

MULLIKEN ATOMIC CHARGES
-----------------------
   0 C :   -0.444154
   1 C :   -0.347415
   2 C :   -0.469572
   3 C :   -1.170888
   4 C :   -1.420598
   5 C :   -1.145422
   6 C :   -0.761192
   7 C :    1.646059
   8 C :    1.956441
   9 C :    0.566784
  10 N :   -0.754286
  11 H :    0.588322
  12 H :    0.554146
  13 H :    0.569664
  14 H :    0.059174
  15 H :   -0.148478
  16 H :    0.171963
  17 H :    0.438746
  18 H :    0.020398
  19 H :    0.090306
Sum of atomic charges:   -0.0000000

LOEWDIN ATOMIC CHARGES
----------------------
   0 C :    0.203949
   1 C :    0.206466
   2 C :    0.191084
   3 C :    0.222164
   4 C :    0.224760
   5 C :    0.210750
   6 C :    0.218761
   7 C :   -0.121046
   8 C :   -0.070362
   9 C :   -0.208294
  10 N :    0.861335
  11 H :   -0.184337
  12 H :   -0.186361
  13 H :   -0.182029
  14 H :   -0.178697
  15 H :   -0.195709
  16 H :   -0.186766
  17 H :   -0.187245
  18 H :   -0.306096
  19 H :   -0.332326

  Mayer bond orders larger than 0.100000
B(  0-C ,  1-C ) :   1.0423 B(  0-C ,  3-C ) :   1.1543 B(  0-C ,  7-C ) :   0.1963
B(  0-C ,  8-C ) :  -0.1222 B(  0-C , 11-H ) :   0.5662 B(  0-C , 14-H ) :  -0.1186
B(  1-C ,  4-C ) :   1.2454 B(  1-C ,  8-C ) :   0.1318 B(  1-C , 12-H ) :   0.6323
B(  1-C , 15-H ) :  -0.1655 B(  2-C ,  5-C ) :   1.1787 B(  2-C ,  6-C ) :   0.9856
B(  2-C ,  7-C ) :   0.1476 B(  2-C , 13-H ) :   0.5826 B(  2-C , 16-H ) :  -0.1518
B(  3-C ,  4-C ) :   0.1499 B(  3-C ,  5-C ) :   0.5167 B(  3-C ,  7-C ) :   0.1948
B(  3-C ,  8-C ) :  -0.3584 B(  3-C , 11-H ) :  -0.2019 B(  3-C , 14-H ) :   1.6328
B(  4-C ,  6-C ) :   0.1835 B(  4-C ,  7-C ) :  -0.2822 B(  4-C ,  8-C ) :  -0.5262
B(  4-C ,  9-C ) :   0.9551 B(  4-C , 12-H ) :  -0.2674 B(  4-C , 15-H ) :   2.0288
B(  5-C ,  7-C ) :  -0.1117 B(  5-C ,  9-C ) :   0.1643 B(  5-C , 13-H ) :  -0.1455
B(  5-C , 16-H ) :   1.3763 B(  5-C , 17-H ) :   0.1542 B(  6-C ,  7-C ) :  -0.2024
B(  6-C ,  8-C ) :   0.1879 B(  6-C ,  9-C ) :   1.0075 B(  6-C , 10-N ) :  -0.1037
B(  6-C , 17-H ) :   0.7740 B(  7-C ,  8-C ) :   0.5834 B(  7-C , 11-H ) :  -0.1114
B(  7-C , 16-H ) :  -0.1715 B(  8-C ,  9-C ) :   0.6167 B(  8-C , 10-N ) :  -0.1956
B(  8-C , 12-H ) :  -0.1296 B(  8-C , 15-H ) :  -0.2581 B(  8-C , 17-H ) :   0.1518
B(  9-C , 10-N ) :   0.3615 B(  9-C , 12-H ) :   0.1603 B(  9-C , 17-H ) :  -0.1796
B( 10-N , 18-H ) :   1.1298 B( 10-N , 19-H ) :   1.1146

MP2 TOTAL ENERGY:     -440.341370872 Eh
FINAL SINGLE POINT ENERGY      -440.341370871893

DIPOLE MOMENT
-------------
                                X             Y             Z
Electronic contribution:     -0.35858      -0.70422      -0.15257
Nuclear contribution   :      0.52655       1.07883       0.51437
                        -----------------------------------------
Total Dipole Moment    :      0.16796       0.37461       0.36180
                        -----------------------------------------
Magnitude (a.u.)       :      0.54721
Magnitude (Debye)      :      1.39090

Rotational constants in cm-1:     0.064866     0.037716     0.023868
Rotational constants in MHz :  1944.618954  1130.693935   715.547049

                             ****ORCA TERMINATED NORMALLY****
TOTAL RUN TIME: 0 days 0 hours 16 minutes 24 seconds 825 msec
