                         Program Version 5.0.3 -  RELEASE  -
|  1> !ri-mp2 aug-cc-pvtz aug-cc-pvtz/c tightscf
|  2> %pal nprocs 16 end
|  3>
|  4> * xyz 0 1
|  5> C      0.000000    0.000000    0.096002
|  6> C      0.000000    2.447119    0.009890
|  7> C      0.000000   -2.447119    0.009890
|  8> N      0.094200    1.156237   -0.651588
|  9> N     -0.094200   -1.156237   -0.651588
| 10> O      0.000000    0.000000    1.316825
| 11> H     -1.012864    2.672349    0.355132
| 12> H      0.320580    3.222188   -0.683998
| 13> H      0.658299    2.453848    0.874307
| 14> H      1.012864   -2.672349    0.355132
| 15> H     -0.320580   -3.222188   -0.683998
| 16> H     -0.658299   -2.453848    0.874307
| 17> H     -0.241505    1.113406   -1.598970
| 18> H      0.241505   -1.113406   -1.598970
| 19> *
| 20>
| 21>                          ****END OF INPUT****

CARTESIAN COORDINATES (ANGSTROEM)
---------------------------------
  C      0.000000    0.000000    0.096002
  C      0.000000    2.447119    0.009890
  C      0.000000   -2.447119    0.009890
  N      0.094200    1.156237   -0.651588
  N     -0.094200   -1.156237   -0.651588
  O      0.000000    0.000000    1.316825
  H     -1.012864    2.672349    0.355132
  H      0.320580    3.222188   -0.683998
  H      0.658299    2.453848    0.874307
  H      1.012864   -2.672349    0.355132
  H     -0.320580   -3.222188   -0.683998
  H     -0.658299   -2.453848    0.874307
  H     -0.241505    1.113406   -1.598970
  H      0.241505   -1.113406   -1.598970

 Total Charge           Charge          ....    0
 Multiplicity           Mult            ....    1
 Number of Electrons    NEL             ....   48
 Basis Dimension        Dim             ....  460

ORBITAL ENERGIES
----------------

  NO   OCC          E(Eh)            E(eV)
   0   2.0000     -20.506188      -558.0018
   1   2.0000     -15.577678      -423.8902
   2   2.0000     -15.577652      -423.8895
   3   2.0000     -11.367107      -309.3147
   4   2.0000     -11.254325      -306.2457
   5   2.0000     -11.254324      -306.2457
   6   2.0000      -1.386230       -37.7212
   7   2.0000      -1.238401       -33.6986
   8   2.0000      -1.201773       -32.7019
   9   2.0000      -0.969400       -26.3787
  10   2.0000      -0.906361       -24.6633
  11   2.0000      -0.789541       -21.4845
  12   2.0000      -0.751450       -20.4480
  13   2.0000      -0.662422       -18.0254
  14   2.0000      -0.639633       -17.4053
  15   2.0000      -0.613326       -16.6894
  16   2.0000      -0.595050       -16.1921
  17   2.0000      -0.581713       -15.8292
  18   2.0000      -0.543444       -14.7879
  19   2.0000      -0.542390       -14.7592
  20   2.0000      -0.531574       -14.4649
  21   2.0000      -0.438688       -11.9373
  22   2.0000      -0.401654       -10.9296
  23   2.0000      -0.387831       -10.5534
  24   0.0000       0.021663         0.5895
  25   0.0000       0.032926         0.8960
  26   0.0000       0.041773         1.1367
  27   0.0000       0.044102         1.2001
  28   0.0000       0.052949         1.4408

MULLIKEN ATOMIC CHARGES
-----------------------
   0 C :    0.320149
   1 C :   -0.865237
   2 C :   -0.865237
   3 N :   -0.074438
   4 N :   -0.074438
   5 O :   -0.730080
   6 H :    0.301077
   7 H :    0.356394
   8 H :    0.384897
   9 H :    0.301077
  10 H :    0.356394
  11 H :    0.384897
  12 H :    0.102273
  13 H :    0.102273
Sum of atomic charges:   -0.0000000

LOEWDIN ATOMIC CHARGES
----------------------
   0 C :   -0.821559
   1 C :    0.479046
   2 C :    0.479046
   3 N :    0.530047
   4 N :    0.530047
   5 O :    0.443174
   6 H :   -0.162080
   7 H :   -0.174384
   8 H :   -0.182008
   9 H :   -0.162080
  10 H :   -0.174384
  11 H :   -0.182008
  12 H :   -0.301429
  13 H :   -0.301429

  Mayer bond orders larger than 0.100000
B(  0-C ,  3-N ) :   1.0304 B(  0-C ,  4-N ) :   1.0304 B(  0-C ,  5-O ) :   1.5505
B(  1-C ,  3-N ) :   0.9044 B(  1-C ,  6-H ) :   0.9376 B(  1-C ,  7-H ) :   0.8970
B(  1-C ,  8-H ) :   0.8685 B(  2-C ,  4-N ) :   0.9044 B(  2-C ,  9-H ) :   0.9376
B(  2-C , 10-H ) :   0.8970 B(  2-C , 11-H ) :   0.8685 B(  3-N , 12-H ) :   1.0200
B(  4-N , 13-H ) :   1.0200

MP2 TOTAL ENERGY:     -303.338734787 Eh
FINAL SINGLE POINT ENERGY      -303.338734786518

DIPOLE MOMENT
-------------
                                X             Y             Z
Electronic contribution:      0.00000       0.00000       0.56602
Nuclear contribution   :      0.00000       0.00000      -2.14237
                        -----------------------------------------
Total Dipole Moment    :      0.00000       0.00000      -1.57635
                        -----------------------------------------
Magnitude (a.u.)       :      1.57635
Magnitude (Debye)      :      4.00676

Rotational constants in cm-1:     0.330003     0.071800     0.060446
Rotational constants in MHz :  9893.232964  2152.507947  1812.113694

                             ****ORCA TERMINATED NORMALLY****
TOTAL RUN TIME: 0 days 0 hours 3 minutes 23 seconds 64 msec
