                         Program Version 5.0.3 -  RELEASE  -
|  1> !ri-mp2 aug-cc-pvtz aug-cc-pvtz/c tightscf
|  2> %pal nprocs 16 end
|  3>
|  4> * xyz 0 1
|  5> O     -0.689613    0.644791   -0.033712
|  6> N      0.397947   -0.341322   -0.020979
|  7> N      2.699526   -0.326539   -0.051220
|  8> C      1.495578    0.309910    0.018594
|  9> C     -1.853711    0.076390   -0.000732
| 10> C     -2.964471   -0.373779    0.028776
| 11> H      3.498737    0.148468    0.328845
| 12> H      2.698373   -1.329150    0.048330
| 13> H      1.518689    1.394723    0.066269
| 14> H     -3.945580   -0.772460    0.051811
| 15> *
| 16>
| 17>                          ****END OF INPUT****

CARTESIAN COORDINATES (ANGSTROEM)
---------------------------------
  O     -0.689613    0.644791   -0.033712
  N      0.397947   -0.341322   -0.020979
  N      2.699526   -0.326539   -0.051220
  C      1.495578    0.309910    0.018594
  C     -1.853711    0.076390   -0.000732
  C     -2.964471   -0.373779    0.028776
  H      3.498737    0.148468    0.328845
  H      2.698373   -1.329150    0.048330
  H      1.518689    1.394723    0.066269
  H     -3.945580   -0.772460    0.051811

 Total Charge           Charge          ....    0
 Multiplicity           Mult            ....    1
 Number of Electrons    NEL             ....   44
 Basis Dimension        Dim             ....  368

ORBITAL ENERGIES
----------------

  NO   OCC          E(Eh)            E(eV)
   0   2.0000     -20.636831      -561.5567
   1   2.0000     -15.624915      -425.1755
   2   2.0000     -15.607705      -424.7072
   3   2.0000     -11.342926      -308.6567
   4   2.0000     -11.278590      -306.9060
   5   2.0000     -11.205213      -304.9094
   6   2.0000      -1.459073       -39.7034
   7   2.0000      -1.283519       -34.9263
   8   2.0000      -1.156440       -31.4683
   9   2.0000      -0.998324       -27.1658
  10   2.0000      -0.853335       -23.2204
  11   2.0000      -0.789355       -21.4794
  12   2.0000      -0.722402       -19.6576
  13   2.0000      -0.694630       -18.9019
  14   2.0000      -0.675403       -18.3787
  15   2.0000      -0.645906       -17.5760
  16   2.0000      -0.637803       -17.3555
  17   2.0000      -0.549099       -14.9417
  18   2.0000      -0.481697       -13.1077
  19   2.0000      -0.408231       -11.1085
  20   2.0000      -0.375785       -10.2256
  21   2.0000      -0.344623        -9.3777
  22   0.0000       0.017391         0.4732
  23   0.0000       0.035102         0.9552
  24   0.0000       0.038970         1.0604
  25   0.0000       0.051333         1.3969
  26   0.0000       0.069874         1.9014

MULLIKEN ATOMIC CHARGES
-----------------------
   0 O :   -0.243973
   1 N :   -0.248255
   2 N :   -0.369266
   3 C :   -0.133119
   4 C :    0.874180
   5 C :   -1.310450
   6 H :    0.106593
   7 H :    0.199153
   8 H :    0.679515
   9 H :    0.445621
Sum of atomic charges:   -0.0000000

LOEWDIN ATOMIC CHARGES
----------------------
   0 O :    0.312257
   1 N :    0.177317
   2 N :    0.827536
   3 C :   -0.149164
   4 C :   -0.364643
   5 C :    0.302225
   6 H :   -0.307532
   7 H :   -0.297399
   8 H :   -0.168521
   9 H :   -0.332075

  Mayer bond orders larger than 0.100000
B(  0-O ,  1-N ) :   0.8130 B(  0-O ,  4-C ) :   0.9498 B(  0-O ,  5-C ) :  -0.3186
B(  1-N ,  2-N ) :  -0.1054 B(  1-N ,  3-C ) :   1.5284 B(  1-N ,  5-C ) :   0.1144
B(  2-N ,  3-C ) :   0.9837 B(  2-N ,  6-H ) :   1.0924 B(  2-N ,  7-H ) :   0.9599
B(  3-C ,  8-H ) :   0.4860 B(  4-C ,  5-C ) :   1.6812 B(  5-C ,  9-H ) :   0.8534

MP2 TOTAL ENERGY:     -300.766038336 Eh
FINAL SINGLE POINT ENERGY      -300.766038335904

DIPOLE MOMENT
-------------
                                X             Y             Z
Electronic contribution:     -1.94016       0.73762      -0.13955
Nuclear contribution   :      3.71271      -0.54270       0.48582
                        -----------------------------------------
Total Dipole Moment    :      1.77254       0.19492       0.34627
                        -----------------------------------------
Magnitude (a.u.)       :      1.81654
Magnitude (Debye)      :      4.61727

Rotational constants in cm-1:     0.979345     0.052138     0.049557
Rotational constants in MHz : 29360.025071  1563.062803  1485.680774

                             ****ORCA TERMINATED NORMALLY****
TOTAL RUN TIME: 0 days 0 hours 1 minutes 42 seconds 261 msec
