                         Program Version 5.0.3 -  RELEASE  -
|  1> !ri-mp2 aug-cc-pvtz aug-cc-pvtz/c tightscf
|  2> %pal nprocs 16 end
|  3>
|  4> * xyz 0 1
|  5> C     -0.776157    0.482170    0.010862
|  6> N      0.561163    0.638019   -0.078048
|  7> O     -1.303837   -0.617381    0.001319
|  8> O      1.345896   -0.512290    0.011708
|  9> H     -1.318051    1.436615    0.052353
| 10> H      1.043410    1.455182    0.258679
| 11> H      0.666967   -1.213576    0.065911
| 12> *
| 13>
| 14>                          ****END OF INPUT****

CARTESIAN COORDINATES (ANGSTROEM)
---------------------------------
  C     -0.776157    0.482170    0.010862
  N      0.561163    0.638019   -0.078048
  O     -1.303837   -0.617381    0.001319
  O      1.345896   -0.512290    0.011708
  H     -1.318051    1.436615    0.052353
  H      1.043410    1.455182    0.258679
  H      0.666967   -1.213576    0.065911

 Total Charge           Charge          ....    0
 Multiplicity           Mult            ....    1
 Number of Electrons    NEL             ....   32
 Basis Dimension        Dim             ....  253

ORBITAL ENERGIES
----------------

  NO   OCC          E(Eh)            E(eV)
   0   2.0000     -20.621248      -561.1327
   1   2.0000     -20.552303      -559.2566
   2   2.0000     -15.659933      -426.1285
   3   2.0000     -11.374235      -309.5087
   4   2.0000      -1.466421       -39.9033
   5   2.0000      -1.385278       -37.6953
   6   2.0000      -1.168824       -31.8053
   7   2.0000      -0.874564       -23.7981
   8   2.0000      -0.778822       -21.1928
   9   2.0000      -0.713604       -19.4181
  10   2.0000      -0.655537       -17.8381
  11   2.0000      -0.624389       -16.9905
  12   2.0000      -0.598573       -16.2880
  13   2.0000      -0.539858       -14.6903
  14   2.0000      -0.465876       -12.6771
  15   2.0000      -0.405955       -11.0466
  16   0.0000       0.021696         0.5904
  17   0.0000       0.040552         1.1035
  18   0.0000       0.048435         1.3180
  19   0.0000       0.073230         1.9927
  20   0.0000       0.094228         2.5641

MULLIKEN ATOMIC CHARGES
-----------------------
   0 C :   -0.066928
   1 N :    0.088874
   2 O :   -0.623312
   3 O :   -0.475437
   4 H :    0.602381
   5 H :    0.178697
   6 H :    0.295724
Sum of atomic charges:   -0.0000000

LOEWDIN ATOMIC CHARGES
----------------------
   0 C :   -0.370887
   1 N :    0.285175
   2 O :    0.415778
   3 O :    0.737847
   4 H :   -0.180995
   5 H :   -0.309664
   6 H :   -0.577253

  Mayer bond orders larger than 0.100000
B(  0-C ,  1-N ) :   1.2418 B(  0-C ,  2-O ) :   1.7213 B(  0-C ,  4-H ) :   0.5321
B(  1-N ,  3-O ) :   0.7851 B(  1-N ,  5-H ) :   1.0101 B(  3-O ,  6-H ) :   0.9169

MP2 TOTAL ENERGY:     -244.682969924 Eh
FINAL SINGLE POINT ENERGY      -244.682969923536

DIPOLE MOMENT
-------------
                                X             Y             Z
Electronic contribution:     -0.10675      -0.42356      -0.08935
Nuclear contribution   :      0.39017       1.63848       0.37088
                        -----------------------------------------
Total Dipole Moment    :      0.28342       1.21492       0.28153
                        -----------------------------------------
Magnitude (a.u.)       :      1.27891
Magnitude (Debye)      :      3.25074

Rotational constants in cm-1:     0.685906     0.236417     0.176386
Rotational constants in MHz : 20562.957632  7087.599186  5287.905916

                             ****ORCA TERMINATED NORMALLY****
TOTAL RUN TIME: 0 days 0 hours 0 minutes 56 seconds 479 msec
