                         Program Version 5.0.3 -  RELEASE  -
|  1> !ri-mp2 aug-cc-pvtz aug-cc-pvtz/c tightscf
|  2> %pal nprocs 16 end
|  3>
|  4> * xyz 0 1
|  5> S     0.865517   -1.220324    0.000033
|  6> N    -0.472803   -0.109850    0.001005
|  7> N    -1.693397   -0.595410   -0.000089
|  8> N    -2.596092    0.285481   -0.000471
|  9> C    -0.129116    1.320148    0.000374
| 10> C     1.958652    0.149745   -0.000464
| 11> C     1.366917    1.340992   -0.000208
| 12> H    -3.475838   -0.230299   -0.001183
| 13> H    -0.574130    1.802666   -0.877164
| 14> H    -0.573436    1.803341    0.877870
| 15> H     3.018570   -0.049442   -0.000901
| 16> H     1.913895    2.272063   -0.000472
| 17> *
| 18>
| 19>                          ****END OF INPUT****

CARTESIAN COORDINATES (ANGSTROEM)
---------------------------------
  S      0.865517   -1.220324    0.000033
  N     -0.472803   -0.109850    0.001005
  N     -1.693397   -0.595410   -0.000089
  N     -2.596092    0.285481   -0.000471
  C     -0.129116    1.320148    0.000374
  C      1.958652    0.149745   -0.000464
  C      1.366917    1.340992   -0.000208
  H     -3.475838   -0.230299   -0.001183
  H     -0.574130    1.802666   -0.877164
  H     -0.573436    1.803341    0.877870
  H      3.018570   -0.049442   -0.000901
  H      1.913895    2.272063   -0.000472

 Total Charge           Charge          ....    0
 Multiplicity           Mult            ....    1
 Number of Electrons    NEL             ....   60
 Basis Dimension        Dim             ....  441

ORBITAL ENERGIES
----------------

  NO   OCC          E(Eh)            E(eV)
   0   2.0000     -92.008405     -2503.6760
   1   2.0000     -15.678018      -426.6205
   2   2.0000     -15.632862      -425.3918
   3   2.0000     -15.583703      -424.0541
   4   2.0000     -11.286069      -307.1096
   5   2.0000     -11.281993      -306.9986
   6   2.0000     -11.255799      -306.2859
   7   2.0000      -9.005151      -245.0426
   8   2.0000      -6.686280      -181.9429
   9   2.0000      -6.685293      -181.9161
  10   2.0000      -6.683721      -181.8733
  11   2.0000      -1.416426       -38.5429
  12   2.0000      -1.232547       -33.5393
  13   2.0000      -1.102315       -29.9955
  14   2.0000      -1.019534       -27.7429
  15   2.0000      -0.942046       -25.6344
  16   2.0000      -0.792806       -21.5734
  17   2.0000      -0.782606       -21.2958
  18   2.0000      -0.710520       -19.3342
  19   2.0000      -0.666312       -18.1313
  20   2.0000      -0.663461       -18.0537
  21   2.0000      -0.624793       -17.0015
  22   2.0000      -0.574079       -15.6215
  23   2.0000      -0.554750       -15.0955
  24   2.0000      -0.537384       -14.6230
  25   2.0000      -0.496937       -13.5224
  26   2.0000      -0.477008       -12.9800
  27   2.0000      -0.411704       -11.2030
  28   2.0000      -0.391133       -10.6433
  29   2.0000      -0.300782        -8.1847
  30   0.0000       0.025892         0.7046
  31   0.0000       0.034519         0.9393
  32   0.0000       0.039139         1.0650
  33   0.0000       0.047422         1.2904
  34   0.0000       0.054626         1.4864

MULLIKEN ATOMIC CHARGES
-----------------------
   0 S :   -0.209350
   1 N :    0.672509
   2 N :   -0.403709
   3 N :   -0.623122
   4 C :   -0.145586
   5 C :   -0.461197
   6 C :   -0.538575
   7 H :    0.185559
   8 H :    0.322207
   9 H :    0.322306
  10 H :    0.545831
  11 H :    0.333126
Sum of atomic charges:    0.0000000

LOEWDIN ATOMIC CHARGES
----------------------
   0 S :    1.103943
   1 N :   -0.317019
   2 N :   -0.009348
   3 N :    0.461345
   4 C :    0.066393
   5 C :   -0.199807
   6 C :    0.125669
   7 H :   -0.466595
   8 H :   -0.159702
   9 H :   -0.159621
  10 H :   -0.256504
  11 H :   -0.188754

  Mayer bond orders larger than 0.100000
B(  0-S ,  1-N ) :   0.8012 B(  0-S ,  5-C ) :   0.9682 B(  0-S ,  6-C ) :   0.1110
B(  1-N ,  2-N ) :   0.2547 B(  1-N ,  4-C ) :   0.6968 B(  1-N ,  5-C ) :  -0.1867
B(  2-N ,  3-N ) :   1.3162 B(  3-N ,  7-H ) :   0.9191 B(  4-C ,  6-C ) :   0.9175
B(  4-C ,  8-H ) :   0.9156 B(  4-C ,  9-H ) :   0.9155 B(  5-C ,  6-C ) :   1.6476
B(  5-C , 10-H ) :   0.6519 B(  6-C , 11-H ) :   0.9907

MP2 TOTAL ENERGY:     -678.671090391 Eh
FINAL SINGLE POINT ENERGY      -678.671090391222

DIPOLE MOMENT
-------------
                                X             Y             Z
Electronic contribution:      0.51204      -5.02446       0.00128
Nuclear contribution   :      0.24894       5.51270      -0.00181
                        -----------------------------------------
Total Dipole Moment    :      0.76099       0.48824      -0.00053
                        -----------------------------------------
Magnitude (a.u.)       :      0.90415
Magnitude (Debye)      :      2.29816

Rotational constants in cm-1:     0.153454     0.065399     0.046246
Rotational constants in MHz :  4600.434907  1960.602614  1386.434811

                             ****ORCA TERMINATED NORMALLY****
TOTAL RUN TIME: 0 days 0 hours 3 minutes 54 seconds 691 msec
