                         Program Version 5.0.3 -  RELEASE  -
|  1> !ri-mp2 aug-cc-pvtz aug-cc-pvtz/c tightscf
|  2> %pal nprocs 16 end
|  3>
|  4> * xyz 0 1
|  5> C      0.975299    0.827111   -0.352809
|  6> C      1.037330   -0.681581   -0.465009
|  7> C      1.707835    0.013482    0.686561
|  8> C     -0.339639    1.518890    0.000186
|  9> C     -0.218086   -1.511099   -0.270848
| 10> C     -1.568408    0.613209   -0.153427
| 11> C     -1.336768   -0.765176    0.466692
| 12> H      1.606840    1.375880   -1.039268
| 13> H      1.707047   -1.069245   -1.223026
| 14> H      2.788502    0.048694    0.705499
| 15> H      1.251515   -0.062096    1.665475
| 16> H     -0.295481    1.889223    1.028594
| 17> H     -0.460026    2.400340   -0.631932
| 18> H     -0.593963   -1.797410   -1.258217
| 19> H      0.025275   -2.442322    0.248361
| 20> H     -2.438162    1.095924    0.297128
| 21> H     -1.797265    0.485618   -1.216378
| 22> H     -2.251524   -1.359759    0.428994
| 23> H     -1.088138   -0.653867    1.526702
| 24> *
| 25>
| 26>                          ****END OF INPUT****

CARTESIAN COORDINATES (ANGSTROEM)
---------------------------------
  C      0.975299    0.827111   -0.352809
  C      1.037330   -0.681581   -0.465009
  C      1.707835    0.013482    0.686561
  C     -0.339639    1.518890    0.000186
  C     -0.218086   -1.511099   -0.270848
  C     -1.568408    0.613209   -0.153427
  C     -1.336768   -0.765176    0.466692
  H      1.606840    1.375880   -1.039268
  H      1.707047   -1.069245   -1.223026
  H      2.788502    0.048694    0.705499
  H      1.251515   -0.062096    1.665475
  H     -0.295481    1.889223    1.028594
  H     -0.460026    2.400340   -0.631932
  H     -0.593963   -1.797410   -1.258217
  H      0.025275   -2.442322    0.248361
  H     -2.438162    1.095924    0.297128
  H     -1.797265    0.485618   -1.216378
  H     -2.251524   -1.359759    0.428994
  H     -1.088138   -0.653867    1.526702

 Total Charge           Charge          ....    0
 Multiplicity           Mult            ....    1
 Number of Electrons    NEL             ....   54
 Basis Dimension        Dim             ....  598

ORBITAL ENERGIES
----------------

  NO   OCC          E(Eh)            E(eV)
   0   2.0000     -11.221550      -305.3539
   1   2.0000     -11.220583      -305.3276
   2   2.0000     -11.215711      -305.1950
   3   2.0000     -11.215099      -305.1784
   4   2.0000     -11.213693      -305.1401
   5   2.0000     -11.212634      -305.1113
   6   2.0000     -11.212523      -305.1083
   7   2.0000      -1.154046       -31.4032
   8   2.0000      -1.052033       -28.6273
   9   2.0000      -0.999136       -27.1879
  10   2.0000      -0.881558       -23.9884
  11   2.0000      -0.822574       -22.3834
  12   2.0000      -0.787646       -21.4329
  13   2.0000      -0.714797       -19.4506
  14   2.0000      -0.675260       -18.3748
  15   2.0000      -0.614068       -16.7096
  16   2.0000      -0.597506       -16.2590
  17   2.0000      -0.588631       -16.0175
  18   2.0000      -0.572197       -15.5703
  19   2.0000      -0.525410       -14.2971
  20   2.0000      -0.511238       -13.9115
  21   2.0000      -0.490945       -13.3593
  22   2.0000      -0.468846       -12.7579
  23   2.0000      -0.464612       -12.6427
  24   2.0000      -0.437704       -11.9105
  25   2.0000      -0.391675       -10.6580
  26   2.0000      -0.382418       -10.4061
  27   0.0000       0.029873         0.8129
  28   0.0000       0.034915         0.9501
  29   0.0000       0.036140         0.9834
  30   0.0000       0.037409         1.0180
  31   0.0000       0.051143         1.3917

MULLIKEN ATOMIC CHARGES
-----------------------
   0 C :   -0.496471
   1 C :   -0.239416
   2 C :   -1.133084
   3 C :   -0.264234
   4 C :   -0.293747
   5 C :   -0.546613
   6 C :   -0.411946
   7 H :    0.411823
   8 H :    0.512939
   9 H :    0.462568
  10 H :    0.169835
  11 H :    0.226893
  12 H :    0.249224
  13 H :    0.096813
  14 H :    0.284311
  15 H :    0.298671
  16 H :    0.183705
  17 H :    0.335270
  18 H :    0.153459
Sum of atomic charges:    0.0000000

LOEWDIN ATOMIC CHARGES
----------------------
   0 C :    0.081222
   1 C :    0.067769
   2 C :    0.387853
   3 C :    0.316823
   4 C :    0.306984
   5 C :    0.292873
   6 C :    0.288191
   7 H :   -0.138278
   8 H :   -0.133875
   9 H :   -0.154210
  10 H :   -0.158421
  11 H :   -0.146351
  12 H :   -0.150702
  13 H :   -0.146878
  14 H :   -0.140699
  15 H :   -0.143622
  16 H :   -0.140179
  17 H :   -0.142504
  18 H :   -0.145998

  Mayer bond orders larger than 0.100000
B(  0-C ,  1-C ) :   0.6258 B(  0-C ,  2-C ) :   1.0634 B(  0-C ,  3-C ) :   0.7821
B(  0-C ,  7-H ) :   0.6840 B(  1-C ,  2-C ) :   0.8829 B(  1-C ,  4-C ) :   0.6535
B(  1-C ,  8-H ) :   0.5485 B(  2-C ,  9-H ) :   0.6379 B(  2-C , 10-H ) :   1.1376
B(  3-C ,  5-C ) :   0.9025 B(  3-C , 11-H ) :   1.0195 B(  3-C , 12-H ) :   0.9608
B(  4-C ,  5-C ) :   0.1004 B(  4-C ,  6-C ) :   0.8765 B(  4-C , 13-H ) :   1.0957
B(  4-C , 14-H ) :   0.9323 B(  5-C ,  6-C ) :   0.8734 B(  5-C , 15-H ) :   0.9276
B(  5-C , 16-H ) :   1.0393 B(  6-C , 17-H ) :   0.9053 B(  6-C , 18-H ) :   1.0498

MP2 TOTAL ENERGY:     -273.337238638 Eh
FINAL SINGLE POINT ENERGY      -273.337238637810

DIPOLE MOMENT
-------------
                                X             Y             Z
Electronic contribution:      1.58020       0.09563      -0.61149
Nuclear contribution   :     -1.62963      -0.09387       0.56093
                        -----------------------------------------
Total Dipole Moment    :     -0.04943       0.00175      -0.05056
                        -----------------------------------------
Magnitude (a.u.)       :      0.07073
Magnitude (Debye)      :      0.17978

Rotational constants in cm-1:     0.127098     0.099072     0.067577
Rotational constants in MHz :  3810.299717  2970.089867  2025.916656

                             ****ORCA TERMINATED NORMALLY****
TOTAL RUN TIME: 0 days 0 hours 7 minutes 0 seconds 460 msec
