                         Program Version 5.0.3 -  RELEASE  -
|  1> !ri-mp2 aug-cc-pvtz aug-cc-pvtz/c tightscf
|  2> %pal nprocs 16 end
|  3>
|  4> * xyz 0 1
|  5> C    -2.434690    1.007305     0.195988
|  6> C    -1.066080    1.206618     0.141234
|  7> C    -2.925749   -0.286900     0.055755
|  8> C    -0.831663   -1.149867    -0.199198
|  9> C    -0.234965    0.103590    -0.047113
| 10> C     1.234805    0.320466    -0.099690
| 11> N    -2.146220   -1.349895    -0.145302
| 12> N     2.025184   -0.770786     0.116502
| 13> O     1.753325    1.403823    -0.352026
| 14> O     3.394425   -0.509645     0.206692
| 15> H    -3.113977    1.834745     0.344733
| 16> H    -0.627372    2.189562     0.238840
| 17> H    -3.991491   -0.478121     0.101031
| 18> H    -0.227759   -2.027390    -0.401000
| 19> H     1.753487   -1.488411     0.769860
| 20> H     3.422406    0.453688     0.028951
| 21> *
| 22>
| 23>                          ****END OF INPUT****

CARTESIAN COORDINATES (ANGSTROEM)
---------------------------------
  C     -2.434690    1.007305    0.195988
  C     -1.066080    1.206618    0.141234
  C     -2.925749   -0.286900    0.055755
  C     -0.831663   -1.149867   -0.199198
  C     -0.234965    0.103590   -0.047113
  C      1.234805    0.320466   -0.099690
  N     -2.146220   -1.349895   -0.145302
  N      2.025184   -0.770786    0.116502
  O      1.753325    1.403823   -0.352026
  O      3.394425   -0.509645    0.206692
  H     -3.113977    1.834745    0.344733
  H     -0.627372    2.189562    0.238840
  H     -3.991491   -0.478121    0.101031
  H     -0.227759   -2.027390   -0.401000
  H      1.753487   -1.488411    0.769860
  H      3.422406    0.453688    0.028951

 Total Charge           Charge          ....    0
 Multiplicity           Mult            ....    1
 Number of Electrons    NEL             ....   72
 Basis Dimension        Dim             ....  598

ORBITAL ENERGIES
----------------

  NO   OCC          E(Eh)            E(eV)
   0   2.0000     -20.612300      -560.8892
   1   2.0000     -20.551578      -559.2369
   2   2.0000     -15.652424      -425.9241
   3   2.0000     -15.586218      -424.1225
   4   2.0000     -11.381684      -309.7114
   5   2.0000     -11.304445      -307.6096
   6   2.0000     -11.299723      -307.4811
   7   2.0000     -11.281650      -306.9893
   8   2.0000     -11.272289      -306.7346
   9   2.0000     -11.259773      -306.3940
  10   2.0000      -1.463185       -39.8153
  11   2.0000      -1.384014       -37.6609
  12   2.0000      -1.285304       -34.9749
  13   2.0000      -1.170702       -31.8564
  14   2.0000      -1.114636       -30.3308
  15   2.0000      -1.061562       -28.8866
  16   2.0000      -0.911004       -24.7897
  17   2.0000      -0.884876       -24.0787
  18   2.0000      -0.843155       -22.9434
  19   2.0000      -0.771288       -20.9878
  20   2.0000      -0.725522       -19.7424
  21   2.0000      -0.712941       -19.4001
  22   2.0000      -0.688097       -18.7241
  23   2.0000      -0.652999       -17.7690
  24   2.0000      -0.645310       -17.5598
  25   2.0000      -0.612653       -16.6711
  26   2.0000      -0.596462       -16.2306
  27   2.0000      -0.593692       -16.1552
  28   2.0000      -0.572472       -15.5778
  29   2.0000      -0.551544       -15.0083
  30   2.0000      -0.535170       -14.5627
  31   2.0000      -0.474345       -12.9076
  32   2.0000      -0.437308       -11.8998
  33   2.0000      -0.410787       -11.1781
  34   2.0000      -0.403663       -10.9842
  35   2.0000      -0.370641       -10.0857
  36   0.0000       0.023468         0.6386
  37   0.0000       0.031197         0.8489
  38   0.0000       0.035161         0.9568
  39   0.0000       0.047402         1.2899
  40   0.0000       0.049192         1.3386

MULLIKEN ATOMIC CHARGES
-----------------------
   0 C :   -0.393024
   1 C :   -0.989865
   2 C :   -0.569781
   3 C :   -0.765685
   4 C :    1.934182
   5 C :    0.416642
   6 N :   -0.512086
   7 N :   -0.006799
   8 O :   -0.852885
   9 O :   -0.546322
  10 H :    0.273849
  11 H :    0.346355
  12 H :    0.682679
  13 H :    0.518912
  14 H :    0.172653
  15 H :    0.291177
Sum of atomic charges:   -0.0000000

LOEWDIN ATOMIC CHARGES
----------------------
   0 C :    0.221786
   1 C :    0.217251
   2 C :    0.026713
   3 C :    0.028372
   4 C :   -0.115053
   5 C :   -0.668378
   6 N :    0.383612
   7 N :    0.316970
   8 O :    0.483094
   9 O :    0.745175
  10 H :   -0.185242
  11 H :   -0.167952
  12 H :   -0.185723
  13 H :   -0.190883
  14 H :   -0.309136
  15 H :   -0.600607

  Mayer bond orders larger than 0.100000
B(  0-C ,  1-C ) :   1.3532 B(  0-C ,  2-C ) :   0.9529 B(  0-C ,  4-C ) :  -0.2445
B(  0-C ,  6-N ) :  -0.1095 B(  0-C , 10-H ) :   1.0957 B(  1-C ,  2-C ) :   0.3333
B(  1-C ,  3-C ) :   0.2257 B(  1-C ,  4-C ) :   0.5438 B(  1-C ,  6-N ) :   0.1074
B(  1-C , 11-H ) :   0.9419 B(  2-C ,  3-C ) :   0.2408 B(  2-C ,  4-C ) :  -0.2352
B(  2-C ,  6-N ) :   1.3480 B(  2-C , 12-H ) :   0.3641 B(  3-C ,  4-C ) :   0.4946
B(  3-C ,  5-C ) :  -0.1011 B(  3-C ,  6-N ) :   0.9515 B(  3-C , 13-H ) :   0.6093
B(  4-C ,  5-C ) :   0.2543 B(  4-C ,  6-N ) :  -0.1831 B(  4-C ,  7-N ) :  -0.1429
B(  4-C ,  8-O ) :  -0.1034 B(  4-C , 10-H ) :  -0.1126 B(  5-C ,  7-N ) :   1.0277
B(  5-C ,  8-O ) :   1.1957 B(  7-N ,  9-O ) :   0.6649 B(  7-N , 14-H ) :   1.0088
B(  9-O , 15-H ) :   0.9036

MP2 TOTAL ENERGY:     -491.288758231 Eh
FINAL SINGLE POINT ENERGY      -491.288758230962

DIPOLE MOMENT
-------------
                                X             Y             Z
Electronic contribution:      1.66316      -0.37598      -0.46248
Nuclear contribution   :     -2.64740       0.47551       1.05724
                        -----------------------------------------
Total Dipole Moment    :     -0.98424       0.09952       0.59476
                        -----------------------------------------
Magnitude (a.u.)       :      1.15429
Magnitude (Debye)      :      2.93396

Rotational constants in cm-1:     0.122282     0.027318     0.022656
Rotational constants in MHz :  3665.915906   818.967546   679.221419

                             ****ORCA TERMINATED NORMALLY****
TOTAL RUN TIME: 0 days 0 hours 8 minutes 17 seconds 147 msec
