                         Program Version 5.0.3 -  RELEASE  -
|  1> !ri-mp2 aug-cc-pvtz aug-cc-pvtz/c tightscf
|  2> %pal nprocs 16 end
|  3>
|  4> * xyz 0 1
|  5> C     0.000000     0.000000    1.385266
|  6> C     0.000000     1.130265    0.339297
|  7> C     0.000000    -1.130265    0.339297
|  8> C     1.252143     0.780951   -0.492266
|  9> C    -1.252143     0.780951   -0.492266
| 10> C    -1.252143    -0.780951   -0.492266
| 11> C     1.252143    -0.780951   -0.492266
| 12> H    -0.887352     0.000000    2.020515
| 13> H     0.887352     0.000000    2.020515
| 14> H     0.000000     2.146851    0.729171
| 15> H     0.000000    -2.146851    0.729171
| 16> H     2.153759     1.172887   -0.019845
| 17> H    -2.153759    -1.172887   -0.019845
| 18> H     2.153759    -1.172887   -0.019845
| 19> H    -2.153759     1.172887   -0.019845
| 20> H     1.204295    -1.201509   -1.497189
| 21> H    -1.204295     1.201509   -1.497189
| 22> H     1.204295     1.201509   -1.497189
| 23> H    -1.204295    -1.201509   -1.497189
| 24> *
| 25>
| 26>                          ****END OF INPUT****

CARTESIAN COORDINATES (ANGSTROEM)
---------------------------------
  C      0.000000    0.000000    1.385266
  C      0.000000    1.130265    0.339297
  C      0.000000   -1.130265    0.339297
  C      1.252143    0.780951   -0.492266
  C     -1.252143    0.780951   -0.492266
  C     -1.252143   -0.780951   -0.492266
  C      1.252143   -0.780951   -0.492266
  H     -0.887352    0.000000    2.020515
  H      0.887352    0.000000    2.020515
  H      0.000000    2.146851    0.729171
  H      0.000000   -2.146851    0.729171
  H      2.153759    1.172887   -0.019845
  H     -2.153759   -1.172887   -0.019845
  H      2.153759   -1.172887   -0.019845
  H     -2.153759    1.172887   -0.019845
  H      1.204295   -1.201509   -1.497189
  H     -1.204295    1.201509   -1.497189
  H      1.204295    1.201509   -1.497189
  H     -1.204295   -1.201509   -1.497189

 Total Charge           Charge          ....    0
 Multiplicity           Mult            ....    1
 Number of Electrons    NEL             ....   54
 Basis Dimension        Dim             ....  598

ORBITAL ENERGIES
----------------

  NO   OCC          E(Eh)            E(eV)
   0   2.0000     -11.216768      -305.2238
   1   2.0000     -11.216759      -305.2235
   2   2.0000     -11.211338      -305.0760
   3   2.0000     -11.211296      -305.0749
   4   2.0000     -11.210802      -305.0614
   5   2.0000     -11.210765      -305.0604
   6   2.0000     -11.209097      -305.0150
   7   2.0000      -1.158555       -31.5259
   8   2.0000      -0.994712       -27.0675
   9   2.0000      -0.975727       -26.5509
  10   2.0000      -0.938209       -25.5300
  11   2.0000      -0.820316       -22.3219
  12   2.0000      -0.753331       -20.4992
  13   2.0000      -0.726333       -19.7645
  14   2.0000      -0.675987       -18.3945
  15   2.0000      -0.634197       -17.2574
  16   2.0000      -0.625550       -17.0221
  17   2.0000      -0.545493       -14.8436
  18   2.0000      -0.541621       -14.7383
  19   2.0000      -0.501851       -13.6561
  20   2.0000      -0.492137       -13.3917
  21   2.0000      -0.481714       -13.1081
  22   2.0000      -0.464106       -12.6290
  23   2.0000      -0.461371       -12.5545
  24   2.0000      -0.441926       -12.0254
  25   2.0000      -0.428441       -11.6585
  26   2.0000      -0.416014       -11.3203
  27   0.0000       0.029226         0.7953
  28   0.0000       0.035093         0.9549
  29   0.0000       0.037842         1.0297
  30   0.0000       0.038178         1.0389
  31   0.0000       0.049908         1.3581

MULLIKEN ATOMIC CHARGES
-----------------------
   0 C :   -0.734228
   1 C :   -0.285349
   2 C :   -0.285349
   3 C :   -0.583230
   4 C :   -0.583230
   5 C :   -0.583230
   6 C :   -0.583230
   7 H :    0.287500
   8 H :    0.287500
   9 H :    0.480926
  10 H :    0.480926
  11 H :    0.272457
  12 H :    0.272457
  13 H :    0.272457
  14 H :    0.272457
  15 H :    0.252792
  16 H :    0.252792
  17 H :    0.252792
  18 H :    0.252792
Sum of atomic charges:   -0.0000000

LOEWDIN ATOMIC CHARGES
----------------------
   0 C :    0.318427
   1 C :    0.017277
   2 C :    0.017277
   3 C :    0.330451
   4 C :    0.330451
   5 C :    0.330451
   6 C :    0.330451
   7 H :   -0.131612
   8 H :   -0.131612
   9 H :   -0.121061
  10 H :   -0.121061
  11 H :   -0.144673
  12 H :   -0.144673
  13 H :   -0.144673
  14 H :   -0.144673
  15 H :   -0.147686
  16 H :   -0.147686
  17 H :   -0.147686
  18 H :   -0.147686

  Mayer bond orders larger than 0.100000
B(  0-C ,  1-C ) :   0.9934 B(  0-C ,  2-C ) :   0.9934 B(  0-C ,  7-H ) :   0.9452
B(  0-C ,  8-H ) :   0.9452 B(  1-C ,  3-C ) :   0.9228 B(  1-C ,  4-C ) :   0.9228
B(  1-C ,  9-H ) :   0.7431 B(  2-C ,  5-C ) :   0.9228 B(  2-C ,  6-C ) :   0.9228
B(  2-C , 10-H ) :   0.7431 B(  3-C ,  6-C ) :   1.0443 B(  3-C , 11-H ) :   0.9317
B(  3-C , 17-H ) :   0.9913 B(  4-C ,  5-C ) :   1.0443 B(  4-C , 14-H ) :   0.9317
B(  4-C , 16-H ) :   0.9913 B(  5-C , 12-H ) :   0.9317 B(  5-C , 18-H ) :   0.9913
B(  6-C , 13-H ) :   0.9317 B(  6-C , 15-H ) :   0.9913

MP2 TOTAL ENERGY:     -273.366301668 Eh
FINAL SINGLE POINT ENERGY      -273.366301668303

DIPOLE MOMENT
-------------
                                X             Y             Z
Electronic contribution:      0.00000      -0.00000       0.63066
Nuclear contribution   :      0.00000       0.00000      -0.59977
                        -----------------------------------------
Total Dipole Moment    :      0.00000      -0.00000       0.03088
                        -----------------------------------------
Magnitude (a.u.)       :      0.03088
Magnitude (Debye)      :      0.07850

Rotational constants in cm-1:     0.123551     0.107196     0.092567
Rotational constants in MHz :  3703.952102  3213.665698  2775.086773

                             ****ORCA TERMINATED NORMALLY****
TOTAL RUN TIME: 0 days 0 hours 7 minutes 46 seconds 445 msec
