                         Program Version 5.0.3 -  RELEASE  -
|  1> !ri-mp2 aug-cc-pvtz aug-cc-pvtz/c tightscf
|  2> %pal nprocs 16 end
|  3>
|  4> * xyz 0 1
|  5> C     -1.071395   -1.776836    0.000000
|  6> C      1.414442    2.421868    0.000000
|  7> C      1.409577    0.893657    0.000000
|  8> C      0.000000    0.338803    0.000000
|  9> O     -2.169335   -1.290400    0.000000
| 10> O      0.086608   -1.109139    0.000000
| 11> H     -0.866386   -2.854791    0.000000
| 12> H      0.909790    2.821701    0.881287
| 13> H      2.434143    2.805918    0.000000
| 14> H      0.909790    2.821701   -0.881287
| 15> H      1.940343    0.515991    0.876316
| 16> H      1.940343    0.515991   -0.876316
| 17> H     -0.560976    0.652422    0.881239
| 18> H     -0.560976    0.652422   -0.881239
| 19> *
| 20>
| 21>                          ****END OF INPUT****

CARTESIAN COORDINATES (ANGSTROEM)
---------------------------------
  C     -1.071395   -1.776836    0.000000
  C      1.414442    2.421868    0.000000
  C      1.409577    0.893657    0.000000
  C      0.000000    0.338803    0.000000
  O     -2.169335   -1.290400    0.000000
  O      0.086608   -1.109139    0.000000
  H     -0.866386   -2.854791    0.000000
  H      0.909790    2.821701    0.881287
  H      2.434143    2.805918    0.000000
  H      0.909790    2.821701   -0.881287
  H      1.940343    0.515991    0.876316
  H      1.940343    0.515991   -0.876316
  H     -0.560976    0.652422    0.881239
  H     -0.560976    0.652422   -0.881239

 Total Charge           Charge          ....    0
 Multiplicity           Mult            ....    1
 Number of Electrons    NEL             ....   48
 Basis Dimension        Dim             ....  460

ORBITAL ENERGIES
----------------

  NO   OCC          E(Eh)            E(eV)
   0   2.0000     -20.609676      -560.8178
   1   2.0000     -20.554123      -559.3061
   2   2.0000     -11.381358      -309.7025
   3   2.0000     -11.292283      -307.2786
   4   2.0000     -11.233593      -305.6816
   5   2.0000     -11.225660      -305.4657
   6   2.0000      -1.463682       -39.8288
   7   2.0000      -1.367547       -37.2129
   8   2.0000      -1.076684       -29.2981
   9   2.0000      -0.960809       -26.1449
  10   2.0000      -0.845230       -22.9999
  11   2.0000      -0.806403       -21.9433
  12   2.0000      -0.724268       -19.7083
  13   2.0000      -0.688983       -18.7482
  14   2.0000      -0.680074       -18.5058
  15   2.0000      -0.615255       -16.7419
  16   2.0000      -0.602340       -16.3905
  17   2.0000      -0.546525       -14.8717
  18   2.0000      -0.545090       -14.8327
  19   2.0000      -0.524364       -14.2687
  20   2.0000      -0.495815       -13.4918
  21   2.0000      -0.492713       -13.4074
  22   2.0000      -0.464086       -12.6284
  23   2.0000      -0.459466       -12.5027
  24   0.0000       0.027964         0.7609
  25   0.0000       0.034131         0.9288
  26   0.0000       0.039268         1.0685
  27   0.0000       0.039961         1.0874
  28   0.0000       0.052636         1.4323

MULLIKEN ATOMIC CHARGES
-----------------------
   0 C :   -0.172702
   1 C :   -0.915345
   2 C :   -0.454047
   3 C :   -0.055108
   4 O :   -0.621922
   5 O :   -0.396126
   6 H :    0.618191
   7 H :    0.282936
   8 H :    0.281170
   9 H :    0.282936
  10 H :    0.266144
  11 H :    0.266144
  12 H :    0.308865
  13 H :    0.308865
Sum of atomic charges:   -0.0000000

LOEWDIN ATOMIC CHARGES
----------------------
   0 C :   -0.520081
   1 C :    0.579653
   2 C :    0.254506
   3 C :    0.040932
   4 O :    0.413665
   5 O :    0.554325
   6 H :   -0.202849
   7 H :   -0.169526
   8 H :   -0.171519
   9 H :   -0.169526
  10 H :   -0.150762
  11 H :   -0.150762
  12 H :   -0.154028
  13 H :   -0.154028

  Mayer bond orders larger than 0.100000
B(  0-C ,  4-O ) :   1.8365 B(  0-C ,  5-O ) :   1.2713 B(  0-C ,  6-H ) :   0.5646
B(  1-C ,  2-C ) :   0.9072 B(  1-C ,  7-H ) :   0.9346 B(  1-C ,  8-H ) :   0.9813
B(  1-C ,  9-H ) :   0.9346 B(  2-C ,  3-C ) :   0.8633 B(  2-C , 10-H ) :   0.9433
B(  2-C , 11-H ) :   0.9433 B(  3-C ,  5-O ) :   0.7101 B(  3-C , 12-H ) :   0.9259
B(  3-C , 13-H ) :   0.9259

MP2 TOTAL ENERGY:     -307.148481846 Eh
FINAL SINGLE POINT ENERGY      -307.148481845718

DIPOLE MOMENT
-------------
                                X             Y             Z
Electronic contribution:     -5.32572      -7.84465       0.00000
Nuclear contribution   :      6.25489       8.07643       0.00000
                        -----------------------------------------
Total Dipole Moment    :      0.92917       0.23178       0.00000
                        -----------------------------------------
Magnitude (a.u.)       :      0.95764
Magnitude (Debye)      :      2.43413

Rotational constants in cm-1:     0.410370     0.052657     0.047910
Rotational constants in MHz : 12302.594971  1578.624922  1436.311880

                             ****ORCA TERMINATED NORMALLY****
TOTAL RUN TIME: 0 days 0 hours 2 minutes 57 seconds 36 msec
