                         Program Version 5.0.3 -  RELEASE  -
|  1> !ri-mp2 aug-cc-pvtz aug-cc-pvtz/c tightscf
|  2> %pal nprocs 16 end
|  3>
|  4> * xyz 0 1
|  5> O      0.003809    1.878896   -0.058549
|  6> O     -1.325094   -1.341270   -0.193926
|  7> N     -1.242362    0.008952    0.182819
|  8> C     -0.039394    0.667675    0.014547
|  9> C      1.144130   -0.169619    0.016092
| 10> C      2.171402   -0.787529    0.007182
| 11> H     -1.418256   -1.824659    0.635941
| 12> H     -2.054044    0.531652   -0.119875
| 13> H      3.082283   -1.333824   -0.002916
| 14> *
| 15>
| 16>                          ****END OF INPUT****

CARTESIAN COORDINATES (ANGSTROEM)
---------------------------------
  O      0.003809    1.878896   -0.058549
  O     -1.325094   -1.341270   -0.193926
  N     -1.242362    0.008952    0.182819
  C     -0.039394    0.667675    0.014547
  C      1.144130   -0.169619    0.016092
  C      2.171402   -0.787529    0.007182
  H     -1.418256   -1.824659    0.635941
  H     -2.054044    0.531652   -0.119875
  H      3.082283   -1.333824   -0.002916

 Total Charge           Charge          ....    0
 Multiplicity           Mult            ....    1
 Number of Electrons    NEL             ....   44
 Basis Dimension        Dim             ....  345

ORBITAL ENERGIES
----------------

  NO   OCC          E(Eh)            E(eV)
   0   2.0000     -20.634981      -561.5064
   1   2.0000     -20.554204      -559.3083
   2   2.0000     -15.654907      -425.9917
   3   2.0000     -11.395790      -310.0952
   4   2.0000     -11.268505      -306.6316
   5   2.0000     -11.260285      -306.4079
   6   2.0000      -1.461570       -39.7713
   7   2.0000      -1.403352       -38.1871
   8   2.0000      -1.163577       -31.6625
   9   2.0000      -1.065710       -28.9994
  10   2.0000      -0.907464       -24.6934
  11   2.0000      -0.775421       -21.1003
  12   2.0000      -0.744166       -20.2498
  13   2.0000      -0.719859       -19.5884
  14   2.0000      -0.695137       -18.9156
  15   2.0000      -0.639308       -17.3965
  16   2.0000      -0.586731       -15.9658
  17   2.0000      -0.542566       -14.7640
  18   2.0000      -0.474648       -12.9158
  19   2.0000      -0.432906       -11.7800
  20   2.0000      -0.427387       -11.6298
  21   2.0000      -0.423900       -11.5349
  22   0.0000       0.023735         0.6459
  23   0.0000       0.031368         0.8536
  24   0.0000       0.043492         1.1835
  25   0.0000       0.067790         1.8447
  26   0.0000       0.078479         2.1355

MULLIKEN ATOMIC CHARGES
-----------------------
   0 O :   -0.652123
   1 O :   -0.423926
   2 N :    0.063700
   3 C :    0.258023
   4 C :    1.495110
   5 C :   -1.595197
   6 H :    0.236718
   7 H :    0.145180
   8 H :    0.472515
Sum of atomic charges:    0.0000000

LOEWDIN ATOMIC CHARGES
----------------------
   0 O :    0.430358
   1 O :    0.728736
   2 N :    0.294566
   3 C :   -0.774281
   4 C :   -0.014666
   5 C :    0.416088
   6 H :   -0.490402
   7 H :   -0.310174
   8 H :   -0.280225

  Mayer bond orders larger than 0.100000
B(  0-O ,  3-C ) :   1.5495 B(  0-O ,  4-C ) :  -0.1308 B(  1-O ,  2-N ) :   0.7649
B(  1-O ,  6-H ) :   0.9888 B(  2-N ,  3-C ) :   1.1189 B(  2-N ,  4-C ) :  -0.1576
B(  2-N ,  7-H ) :   1.0045 B(  3-C ,  4-C ) :   0.4415 B(  3-C ,  5-C ) :  -0.1071
B(  4-C ,  5-C ) :   0.8406 B(  4-C ,  8-H ) :  -0.1176 B(  5-C ,  8-H ) :   0.9465

MP2 TOTAL ENERGY:     -320.665966570 Eh
FINAL SINGLE POINT ENERGY      -320.665966570426

DIPOLE MOMENT
-------------
                                X             Y             Z
Electronic contribution:      0.25606       1.17933      -0.12210
Nuclear contribution   :     -0.40621      -2.54360       0.49569
                        -----------------------------------------
Total Dipole Moment    :     -0.15015      -1.36427       0.37358
                        -----------------------------------------
Magnitude (a.u.)       :      1.42244
Magnitude (Debye)      :      3.61556

Rotational constants in cm-1:     0.160361     0.120699     0.069739
Rotational constants in MHz :  4807.499044  3618.464480  2090.720300

                             ****ORCA TERMINATED NORMALLY****
TOTAL RUN TIME: 0 days 0 hours 1 minutes 44 seconds 532 msec
