                         Program Version 5.0.3 -  RELEASE  -
|  1> !ri-mp2 aug-cc-pvtz aug-cc-pvtz/c tightscf
|  2> %pal nprocs 16 end
|  3>
|  4> * xyz 0 1
|  5> C     0.000000     1.265036   -0.119107
|  6> C     0.000000    -1.265036   -0.119107
|  7> C     0.000000     2.401004    0.887119
|  8> C     0.000000    -2.401004    0.887119
|  9> N     0.000000     0.000000    0.490686
| 10> O     0.000000     1.434626   -1.309734
| 11> O     0.000000    -1.434626   -1.309734
| 12> H     0.000000     3.342860    0.347946
| 13> H    -0.882484     2.352586    1.527823
| 14> H     0.882484     2.352586    1.527823
| 15> H    -0.882484    -2.352586    1.527823
| 16> H     0.882484    -2.352586    1.527823
| 17> H     0.000000    -3.342860    0.347946
| 18> H     0.000000     0.000000    1.497619
| 19> *
| 20>
| 21>                          ****END OF INPUT****

CARTESIAN COORDINATES (ANGSTROEM)
---------------------------------
  C      0.000000    1.265036   -0.119107
  C      0.000000   -1.265036   -0.119107
  C      0.000000    2.401004    0.887119
  C      0.000000   -2.401004    0.887119
  N      0.000000    0.000000    0.490686
  O      0.000000    1.434626   -1.309734
  O      0.000000   -1.434626   -1.309734
  H      0.000000    3.342860    0.347946
  H     -0.882484    2.352586    1.527823
  H      0.882484    2.352586    1.527823
  H     -0.882484   -2.352586    1.527823
  H      0.882484   -2.352586    1.527823
  H      0.000000   -3.342860    0.347946
  H      0.000000    0.000000    1.497619

 Total Charge           Charge          ....    0
 Multiplicity           Mult            ....    1
 Number of Electrons    NEL             ....   54
 Basis Dimension        Dim             ....  483

ORBITAL ENERGIES
----------------

  NO   OCC          E(Eh)            E(eV)
   0   2.0000     -20.541122      -558.9524
   1   2.0000     -20.541121      -558.9523
   2   2.0000     -15.615321      -424.9145
   3   2.0000     -11.371012      -309.4210
   4   2.0000     -11.370996      -309.4205
   5   2.0000     -11.251511      -306.1692
   6   2.0000     -11.251511      -306.1692
   7   2.0000      -1.415732       -38.5240
   8   2.0000      -1.390334       -37.8329
   9   2.0000      -1.248846       -33.9828
  10   2.0000      -1.042411       -28.3655
  11   2.0000      -1.006666       -27.3928
  12   2.0000      -0.855704       -23.2849
  13   2.0000      -0.778270       -21.1778
  14   2.0000      -0.705666       -19.2021
  15   2.0000      -0.676925       -18.4201
  16   2.0000      -0.648488       -17.6462
  17   2.0000      -0.621899       -16.9227
  18   2.0000      -0.613594       -16.6968
  19   2.0000      -0.605702       -16.4820
  20   2.0000      -0.589893       -16.0518
  21   2.0000      -0.568228       -15.4623
  22   2.0000      -0.552246       -15.0274
  23   2.0000      -0.506619       -13.7858
  24   2.0000      -0.465841       -12.6762
  25   2.0000      -0.428462       -11.6590
  26   2.0000      -0.416670       -11.3382
  27   0.0000       0.015755         0.4287
  28   0.0000       0.030129         0.8199
  29   0.0000       0.033347         0.9074
  30   0.0000       0.041304         1.1240
  31   0.0000       0.051697         1.4067

MULLIKEN ATOMIC CHARGES
-----------------------
   0 C :    0.242668
   1 C :    0.242668
   2 C :   -0.673185
   3 C :   -0.673185
   4 N :    0.265342
   5 O :   -0.690457
   6 O :   -0.690457
   7 H :    0.316653
   8 H :    0.300862
   9 H :    0.300862
  10 H :    0.300862
  11 H :    0.300862
  12 H :    0.316653
  13 H :    0.139851
Sum of atomic charges:    0.0000000

LOEWDIN ATOMIC CHARGES
----------------------
   0 C :   -0.643242
   1 C :   -0.643242
   2 C :    0.593117
   3 C :    0.593117
   4 N :    0.537491
   5 O :    0.465852
   6 O :    0.465852
   7 H :   -0.181029
   8 H :   -0.172170
   9 H :   -0.172170
  10 H :   -0.172170
  11 H :   -0.172170
  12 H :   -0.181029
  13 H :   -0.318210

  Mayer bond orders larger than 0.100000
B(  0-C ,  1-C ) :  -0.1217 B(  0-C ,  2-C ) :   0.6477 B(  0-C ,  4-N ) :   0.8841
B(  0-C ,  5-O ) :   1.5480 B(  1-C ,  3-C ) :   0.6477 B(  1-C ,  4-N ) :   0.8841
B(  1-C ,  6-O ) :   1.5480 B(  2-C ,  7-H ) :   0.9584 B(  2-C ,  8-H ) :   0.9256
B(  2-C ,  9-H ) :   0.9256 B(  3-C , 10-H ) :   0.9256 B(  3-C , 11-H ) :   0.9256
B(  3-C , 12-H ) :   0.9584 B(  4-N ,  5-O ) :  -0.1094 B(  4-N ,  6-O ) :  -0.1094
B(  4-N , 13-H ) :   1.0443

MP2 TOTAL ENERGY:     -361.234818197 Eh
FINAL SINGLE POINT ENERGY      -361.234818196891

DIPOLE MOMENT
-------------
                                X             Y             Z
Electronic contribution:     -0.00000       0.00000      -5.55931
Nuclear contribution   :      0.00000      -0.00000       8.29181
                        -----------------------------------------
Total Dipole Moment    :     -0.00000       0.00000       2.73251
                        -----------------------------------------
Magnitude (a.u.)       :      2.73251
Magnitude (Debye)      :      6.94548

Rotational constants in cm-1:     0.183441     0.057977     0.044789
Rotational constants in MHz :  5499.434760  1738.096583  1342.728037

                             ****ORCA TERMINATED NORMALLY****
TOTAL RUN TIME: 0 days 0 hours 3 minutes 51 seconds 388 msec
