                         Program Version 5.0.3 -  RELEASE  -
|  1> !ri-mp2 aug-cc-pvtz aug-cc-pvtz/c tightscf
|  2> %pal nprocs 16 end
|  3> %maxcore 3800
|  4>
|  5> * xyz 0 1
|  6> C      4.970457   -0.129620    0.573340
|  7> C      3.980470   -0.194879   -0.308575
|  8> C     -3.651956   -0.553136    0.088042
|  9> C      2.695911    0.573157   -0.232484
| 10> C     -2.411683    0.337221    0.003428
| 11> C      1.456682   -0.330273   -0.147562
| 12> C     -1.096612   -0.441957   -0.031602
| 13> C      0.142340    0.449970   -0.118069
| 14> C     -4.960299    0.234816    0.126740
| 15> H      5.870978   -0.718575    0.461701
| 16> H      4.915733    0.519817    1.439288
| 17> H      4.082499   -0.862497   -1.160575
| 18> H     -3.662992   -1.236357   -0.766511
| 19> H     -3.581017   -1.184624    0.978831
| 20> H      2.603275    1.205727   -1.122753
| 21> H      2.721293    1.246627    0.628130
| 22> H     -2.482102    0.968002   -0.889247
| 23> H     -2.402836    1.023095    0.857279
| 24> H      1.452629   -1.017103   -0.999926
| 25> H      1.532776   -0.955399    0.746703
| 26> H     -1.106759   -1.128904   -0.884359
| 27> H     -1.026517   -1.070974    0.862031
| 28> H      0.074720    1.076852   -1.013503
| 29> H      0.150888    1.138809    0.733091
| 30> H     -5.824377   -0.428184    0.188857
| 31> H     -5.077618    0.848983   -0.768541
| 32> H     -4.992428    0.902909    0.989943
| 33> *
| 34>
| 35>                          ****END OF INPUT****

CARTESIAN COORDINATES (ANGSTROEM)
---------------------------------
  C      4.970457   -0.129620    0.573340
  C      3.980470   -0.194879   -0.308575
  C     -3.651956   -0.553136    0.088042
  C      2.695911    0.573157   -0.232484
  C     -2.411683    0.337221    0.003428
  C      1.456682   -0.330273   -0.147562
  C     -1.096612   -0.441957   -0.031602
  C      0.142340    0.449970   -0.118069
  C     -4.960299    0.234816    0.126740
  H      5.870978   -0.718575    0.461701
  H      4.915733    0.519817    1.439288
  H      4.082499   -0.862497   -1.160575
  H     -3.662992   -1.236357   -0.766511
  H     -3.581017   -1.184624    0.978831
  H      2.603275    1.205727   -1.122753
  H      2.721293    1.246627    0.628130
  H     -2.482102    0.968002   -0.889247
  H     -2.402836    1.023095    0.857279
  H      1.452629   -1.017103   -0.999926
  H      1.532776   -0.955399    0.746703
  H     -1.106759   -1.128904   -0.884359
  H     -1.026517   -1.070974    0.862031
  H      0.074720    1.076852   -1.013503
  H      0.150888    1.138809    0.733091
  H     -5.824377   -0.428184    0.188857
  H     -5.077618    0.848983   -0.768541
  H     -4.992428    0.902909    0.989943

 Total Charge           Charge          ....    0
 Multiplicity           Mult            ....    1
 Number of Electrons    NEL             ....   72
 Basis Dimension        Dim             ....  828

ORBITAL ENERGIES
----------------

  NO   OCC          E(Eh)            E(eV)
   0   2.0000     -11.229476      -305.5696
   1   2.0000     -11.222489      -305.3795
   2   2.0000     -11.217970      -305.2565
   3   2.0000     -11.215818      -305.1979
   4   2.0000     -11.215502      -305.1893
   5   2.0000     -11.215398      -305.1865
   6   2.0000     -11.214223      -305.1545
   7   2.0000     -11.213362      -305.1311
   8   2.0000     -11.209335      -305.0215
   9   2.0000      -1.097145       -29.8548
  10   2.0000      -1.073617       -29.2146
  11   2.0000      -1.033885       -28.1334
  12   2.0000      -0.980519       -26.6813
  13   2.0000      -0.915702       -24.9175
  14   2.0000      -0.844783       -22.9877
  15   2.0000      -0.793029       -21.5794
  16   2.0000      -0.786746       -21.4085
  17   2.0000      -0.753906       -20.5148
  18   2.0000      -0.659179       -17.9372
  19   2.0000      -0.639988       -17.4150
  20   2.0000      -0.614843       -16.7307
  21   2.0000      -0.596548       -16.2329
  22   2.0000      -0.586622       -15.9628
  23   2.0000      -0.567549       -15.4438
  24   2.0000      -0.562178       -15.2976
  25   2.0000      -0.534148       -14.5349
  26   2.0000      -0.518864       -14.1190
  27   2.0000      -0.513518       -13.9735
  28   2.0000      -0.488229       -13.2854
  29   2.0000      -0.483480       -13.1562
  30   2.0000      -0.474838       -12.9210
  31   2.0000      -0.464539       -12.6408
  32   2.0000      -0.459130       -12.4936
  33   2.0000      -0.458694       -12.4817
  34   2.0000      -0.438499       -11.9322
  35   2.0000      -0.357559        -9.7297
  36   0.0000       0.030515         0.8303
  37   0.0000       0.031387         0.8541
  38   0.0000       0.034636         0.9425
  39   0.0000       0.035756         0.9730
  40   0.0000       0.041797         1.1374

MULLIKEN ATOMIC CHARGES
-----------------------
   0 C :   -1.056569
   1 C :   -0.264355
   2 C :   -0.508476
   3 C :   -0.064781
   4 C :   -0.301500
   5 C :   -0.482259
   6 C :   -0.388644
   7 C :   -0.316441
   8 C :   -1.006298
   9 H :    0.503490
  10 H :    0.220457
  11 H :    0.180987
  12 H :    0.225016
  13 H :    0.225633
  14 H :    0.237251
  15 H :    0.162263
  16 H :    0.240242
  17 H :    0.233845
  18 H :    0.211985
  19 H :    0.246903
  20 H :    0.229025
  21 H :    0.224638
  22 H :    0.234634
  23 H :    0.219565
  24 H :    0.273151
  25 H :    0.260176
  26 H :    0.260061
Sum of atomic charges:    0.0000000

LOEWDIN ATOMIC CHARGES
----------------------
   0 C :    0.523209
   1 C :    0.179071
   2 C :    0.256457
   3 C :    0.245701
   4 C :    0.269376
   5 C :    0.275233
   6 C :    0.277820
   7 C :    0.277811
   8 C :    0.577641
   9 H :   -0.231065
  10 H :   -0.222881
  11 H :   -0.183760
  12 H :   -0.148216
  13 H :   -0.148162
  14 H :   -0.147454
  15 H :   -0.156417
  16 H :   -0.141514
  17 H :   -0.141659
  18 H :   -0.142871
  19 H :   -0.140624
  20 H :   -0.140016
  21 H :   -0.139846
  22 H :   -0.140332
  23 H :   -0.139408
  24 H :   -0.174412
  25 H :   -0.171819
  26 H :   -0.171863

  Mayer bond orders larger than 0.100000
B(  0-C ,  1-C ) :   1.3454 B(  0-C ,  9-H ) :   0.6518 B(  0-C , 10-H ) :   1.1458
B(  1-C ,  3-C ) :   0.6686 B(  1-C , 11-H ) :   1.1510 B(  2-C ,  4-C ) :   0.9069
B(  2-C ,  8-C ) :   0.9356 B(  2-C , 12-H ) :   0.9762 B(  2-C , 13-H ) :   0.9741
B(  3-C ,  5-C ) :   0.9929 B(  3-C , 14-H ) :   0.9728 B(  3-C , 15-H ) :   0.9985
B(  4-C ,  6-C ) :   0.9761 B(  4-C , 16-H ) :   0.9548 B(  4-C , 17-H ) :   0.9624
B(  5-C ,  7-C ) :   0.9410 B(  5-C , 18-H ) :   0.9640 B(  5-C , 19-H ) :   0.9708
B(  6-C ,  7-C ) :   0.9731 B(  6-C , 20-H ) :   0.9525 B(  6-C , 21-H ) :   0.9551
B(  7-C , 22-H ) :   0.9467 B(  7-C , 23-H ) :   0.9603 B(  8-C , 24-H ) :   0.9935
B(  8-C , 25-H ) :   0.9722 B(  8-C , 26-H ) :   0.9723

MP2 TOTAL ENERGY:     -352.983821984 Eh
FINAL SINGLE POINT ENERGY      -352.983821984201

DIPOLE MOMENT
-------------
                                X             Y             Z
Electronic contribution:      7.04997      -0.34723      -0.35325
Nuclear contribution   :     -7.23204       0.35155       0.30039
                        -----------------------------------------
Total Dipole Moment    :     -0.18207       0.00432      -0.05286
                        -----------------------------------------
Magnitude (a.u.)       :      0.18964
Magnitude (Debye)      :      0.48201

Rotational constants in cm-1:     0.302485     0.012201     0.012083
Rotational constants in MHz :  9068.281737   365.775592   362.244573

                             ****ORCA TERMINATED NORMALLY****
TOTAL RUN TIME: 0 days 0 hours 15 minutes 9 seconds 913 msec
