                         Program Version 5.0.3 -  RELEASE  -
|  1> !ri-mp2 aug-cc-pvtz aug-cc-pvtz/c tightscf
|  2> %pal nprocs 16 end
|  3>
|  4> * xyz 0 1
|  5> F    -2.192510   -0.268440    1.108615
|  6> F    -2.196021   -0.431782   -1.071868
|  7> N    -1.580972    0.316470   -0.035136
|  8> N     1.505260   -1.737413    0.024215
|  9> N     0.347175    2.296354    0.002544
| 10> C    -0.202650   -0.061410   -0.009063
| 11> C     0.727919    0.992051   -0.013556
| 12> C     0.228543   -1.384447    0.013005
| 13> C     2.079236    0.604782   -0.004927
| 14> C     2.400219   -0.735610    0.013200
| 15> H     1.025447    3.014652   -0.169637
| 16> H    -0.622485    2.526037   -0.124140
| 17> H    -0.507894   -2.178420    0.017074
| 18> H     2.859819    1.353746   -0.007846
| 19> H     3.442048   -1.034086    0.020506
| 20> *
| 21>
| 22>                          ****END OF INPUT****

CARTESIAN COORDINATES (ANGSTROEM)
---------------------------------
  F     -2.192510   -0.268440    1.108615
  F     -2.196021   -0.431782   -1.071868
  N     -1.580972    0.316470   -0.035136
  N      1.505260   -1.737413    0.024215
  N      0.347175    2.296354    0.002544
  C     -0.202650   -0.061410   -0.009063
  C      0.727919    0.992051   -0.013556
  C      0.228543   -1.384447    0.013005
  C      2.079236    0.604782   -0.004927
  C      2.400219   -0.735610    0.013200
  H      1.025447    3.014652   -0.169637
  H     -0.622485    2.526037   -0.124140
  H     -0.507894   -2.178420    0.017074
  H      2.859819    1.353746   -0.007846
  H      3.442048   -1.034086    0.020506

 Total Charge           Charge          ....    0
 Multiplicity           Mult            ....    1
 Number of Electrons    NEL             ....   74
 Basis Dimension        Dim             ....  575

ORBITAL ENERGIES
----------------

  NO   OCC          E(Eh)            E(eV)
   0   2.0000     -26.336161      -716.6434
   1   2.0000     -26.333788      -716.5788
   2   2.0000     -15.779324      -429.3772
   3   2.0000     -15.602386      -424.5625
   4   2.0000     -15.566116      -423.5755
   5   2.0000     -11.334172      -308.4185
   6   2.0000     -11.300155      -307.4929
   7   2.0000     -11.294697      -307.3443
   8   2.0000     -11.281473      -306.9845
   9   2.0000     -11.247703      -306.0655
  10   2.0000      -1.673900       -45.5491
  11   2.0000      -1.590827       -43.2886
  12   2.0000      -1.291503       -35.1436
  13   2.0000      -1.254299       -34.1312
  14   2.0000      -1.178811       -32.0771
  15   2.0000      -1.068878       -29.0857
  16   2.0000      -1.016001       -27.6468
  17   2.0000      -0.884697       -24.0738
  18   2.0000      -0.869930       -23.6720
  19   2.0000      -0.778619       -21.1873
  20   2.0000      -0.764951       -20.8154
  21   2.0000      -0.753387       -20.5007
  22   2.0000      -0.745525       -20.2868
  23   2.0000      -0.722559       -19.6618
  24   2.0000      -0.676043       -18.3961
  25   2.0000      -0.666484       -18.1360
  26   2.0000      -0.650061       -17.6891
  27   2.0000      -0.637341       -17.3429
  28   2.0000      -0.629506       -17.1297
  29   2.0000      -0.616224       -16.7683
  30   2.0000      -0.582226       -15.8432
  31   2.0000      -0.542029       -14.7494
  32   2.0000      -0.507679       -13.8147
  33   2.0000      -0.506304       -13.7772
  34   2.0000      -0.428432       -11.6582
  35   2.0000      -0.375605       -10.2207
  36   2.0000      -0.350225        -9.5301
  37   0.0000       0.018065         0.4916
  38   0.0000       0.031545         0.8584
  39   0.0000       0.040820         1.1108
  40   0.0000       0.048072         1.3081
  41   0.0000       0.059480         1.6185

MULLIKEN ATOMIC CHARGES
-----------------------
   0 F :   -0.374643
   1 F :   -0.373012
   2 N :   -0.119720
   3 N :   -0.571319
   4 N :   -0.720128
   5 C :    1.392163
   6 C :    0.872218
   7 C :   -0.780406
   8 C :   -0.651120
   9 C :   -0.560465
  10 H :    0.045946
  11 H :    0.115248
  12 H :    0.738452
  13 H :    0.277519
  14 H :    0.709268
Sum of atomic charges:    0.0000000

LOEWDIN ATOMIC CHARGES
----------------------
   0 F :    0.300351
   1 F :    0.305541
   2 N :   -0.377633
   3 N :    0.370518
   4 N :    0.875042
   5 C :   -0.315347
   6 C :   -0.248572
   7 C :    0.004762
   8 C :    0.227655
   9 C :    0.011777
  10 H :   -0.285733
  11 H :   -0.314729
  12 H :   -0.181611
  13 H :   -0.187456
  14 H :   -0.184565

  Mayer bond orders larger than 0.100000
B(  0-F ,  2-N ) :   0.7402 B(  1-F ,  2-N ) :   0.7270 B(  2-N ,  5-C ) :   0.1455
B(  3-N ,  5-C ) :  -0.1066 B(  3-N ,  6-C ) :   0.1302 B(  3-N ,  7-C ) :   1.1070
B(  3-N ,  9-C ) :   1.2128 B(  3-N , 14-H ) :  -0.1060 B(  4-N ,  5-C ) :  -0.1579
B(  4-N ,  6-C ) :   0.5960 B(  4-N ,  8-C ) :  -0.1143 B(  4-N , 10-H ) :   1.2069
B(  4-N , 11-H ) :   1.1089 B(  5-C ,  6-C ) :   0.8810 B(  5-C ,  7-C ) :   1.0534
B(  5-C ,  9-C ) :  -0.1421 B(  6-C ,  7-C ) :   0.1223 B(  6-C ,  8-C ) :   0.7407
B(  6-C ,  9-C ) :   0.1426 B(  7-C , 12-H ) :   0.2112 B(  8-C ,  9-C ) :   1.1900
B(  8-C , 13-H ) :   1.0400 B(  9-C , 14-H ) :   0.3096

MP2 TOTAL ENERGY:     -556.453431272 Eh
FINAL SINGLE POINT ENERGY      -556.453431271782

DIPOLE MOMENT
-------------
                                X             Y             Z
Electronic contribution:     -9.15740      -2.66834       0.08928
Nuclear contribution   :     10.08733       4.19349      -0.28768
                        -----------------------------------------
Total Dipole Moment    :      0.92993       1.52515      -0.19840
                        -----------------------------------------
Magnitude (a.u.)       :      1.79728
Magnitude (Debye)      :      4.56833

Rotational constants in cm-1:     0.071235     0.037765     0.028450
Rotational constants in MHz :  2135.570665  1132.153149   852.897602

                             ****ORCA TERMINATED NORMALLY****
TOTAL RUN TIME: 0 days 0 hours 7 minutes 23 seconds 114 msec
