                         Program Version 5.0.3 -  RELEASE  -
|  1> !ri-mp2 aug-cc-pvtz aug-cc-pvtz/c tightscf
|  2> %pal nprocs 16 end
|  3>
|  4> * xyz 0 1
|  5> C      2.188329   -0.578455    0.000000
|  6> C     -1.460704    0.073620    0.000000
|  7> C      0.000000    0.510660    0.000000
|  8> N     -2.360917    1.087263    0.000000
|  9> N      0.840666   -0.658435    0.000000
| 10> O      2.817916    0.462897    0.000000
| 11> O     -1.784599   -1.100738    0.000000
| 12> H      2.671946   -1.568981    0.000000
| 13> H      0.198935    1.134237    0.876265
| 14> H      0.198935    1.134237   -0.876265
| 15> H     -3.341011    0.863104    0.000000
| 16> H     -2.082734    2.051773    0.000000
| 17> H      0.363396   -1.548392    0.000000
| 18> *
| 19>
| 20>                          ****END OF INPUT****

CARTESIAN COORDINATES (ANGSTROEM)
---------------------------------
  C      2.188329   -0.578455    0.000000
  C     -1.460704    0.073620    0.000000
  C      0.000000    0.510660    0.000000
  N     -2.360917    1.087263    0.000000
  N      0.840666   -0.658435    0.000000
  O      2.817916    0.462897    0.000000
  O     -1.784599   -1.100738    0.000000
  H      2.671946   -1.568981    0.000000
  H      0.198935    1.134237    0.876265
  H      0.198935    1.134237   -0.876265
  H     -3.341011    0.863104    0.000000
  H     -2.082734    2.051773    0.000000
  H      0.363396   -1.548392    0.000000

 Total Charge           Charge          ....    0
 Multiplicity           Mult            ....    1
 Number of Electrons    NEL             ....   54
 Basis Dimension        Dim             ....  460

ORBITAL ENERGIES
----------------

  NO   OCC          E(Eh)            E(eV)
   0   2.0000     -20.544697      -559.0496
   1   2.0000     -20.527344      -558.5774
   2   2.0000     -15.605925      -424.6588
   3   2.0000     -15.594075      -424.3364
   4   2.0000     -11.377307      -309.5923
   5   2.0000     -11.351141      -308.8803
   6   2.0000     -11.294411      -307.3365
   7   2.0000      -1.409626       -38.3579
   8   2.0000      -1.384794       -37.6822
   9   2.0000      -1.244632       -33.8682
  10   2.0000      -1.235786       -33.6274
  11   2.0000      -1.011798       -27.5324
  12   2.0000      -0.845389       -23.0042
  13   2.0000      -0.806727       -21.9522
  14   2.0000      -0.770323       -20.9615
  15   2.0000      -0.724485       -19.7142
  16   2.0000      -0.679215       -18.4824
  17   2.0000      -0.667614       -18.1667
  18   2.0000      -0.644929       -17.5494
  19   2.0000      -0.609992       -16.5987
  20   2.0000      -0.583237       -15.8707
  21   2.0000      -0.579979       -15.7820
  22   2.0000      -0.531957       -14.4753
  23   2.0000      -0.454510       -12.3679
  24   2.0000      -0.440638       -11.9904
  25   2.0000      -0.435260       -11.8440
  26   2.0000      -0.401578       -10.9275
  27   0.0000       0.018356         0.4995
  28   0.0000       0.034984         0.9520
  29   0.0000       0.039887         1.0854
  30   0.0000       0.042740         1.1630
  31   0.0000       0.053110         1.4452

MULLIKEN ATOMIC CHARGES
-----------------------
   0 C :   -0.319174
   1 C :    0.465840
   2 C :    0.152845
   3 N :   -0.346647
   4 N :   -0.130299
   5 O :   -0.704696
   6 O :   -0.799262
   7 H :    0.600592
   8 H :    0.298734
   9 H :    0.298734
  10 H :    0.158357
  11 H :    0.133241
  12 H :    0.191737
Sum of atomic charges:   -0.0000000

LOEWDIN ATOMIC CHARGES
----------------------
   0 C :   -0.372314
   1 C :   -0.645092
   2 C :    0.177532
   3 N :    0.858551
   4 N :    0.512888
   5 O :    0.395020
   6 O :    0.457374
   7 H :   -0.177970
   8 H :   -0.142956
   9 H :   -0.142956
  10 H :   -0.285823
  11 H :   -0.292505
  12 H :   -0.341748

  Mayer bond orders larger than 0.100000
B(  0-C ,  2-C ) :  -0.1662 B(  0-C ,  4-N ) :   1.3107 B(  0-C ,  5-O ) :   1.7147
B(  0-C ,  7-H ) :   0.5437 B(  1-C ,  2-C ) :   0.6337 B(  1-C ,  3-N ) :   1.0597
B(  1-C ,  6-O ) :   1.3285 B(  2-C ,  4-N ) :   0.6934 B(  2-C ,  6-O ) :   0.1339
B(  2-C ,  8-H ) :   0.9205 B(  2-C ,  9-H ) :   0.9205 B(  3-N , 10-H ) :   1.0408
B(  3-N , 11-H ) :   1.0526 B(  4-N , 12-H ) :   0.9442

MP2 TOTAL ENERGY:     -377.284308269 Eh
FINAL SINGLE POINT ENERGY      -377.284308269256

DIPOLE MOMENT
-------------
                                X             Y             Z
Electronic contribution:      0.73042      -1.50021       0.00000
Nuclear contribution   :     -1.97001       2.04479       0.00000
                        -----------------------------------------
Total Dipole Moment    :     -1.23960       0.54458       0.00000
                        -----------------------------------------
Magnitude (a.u.)       :      1.35395
Magnitude (Debye)      :      3.44146

Rotational constants in cm-1:     0.257646     0.044968     0.038557
Rotational constants in MHz :  7724.034224  1348.105259  1155.906457

                             ****ORCA TERMINATED NORMALLY****
TOTAL RUN TIME: 0 days 0 hours 3 minutes 26 seconds 74 msec
