                         Program Version 5.0.3 -  RELEASE  -
|  1> !ri-mp2 aug-cc-pvtz aug-cc-pvtz/c tightscf
|  2> %pal nprocs 16 end
|  3>
|  4> * xyz 0 1
|  5> Cl     2.020286   -0.360915    0.000049
|  6> O      0.203450    1.555974   -0.000169
|  7> N     -0.574181   -0.605015    0.000072
|  8> C      0.376440    0.384407   -0.000039
|  9> C     -1.897702   -0.346943    0.000026
| 10> C     -3.075438   -0.133700   -0.000002
| 11> H     -0.254865   -1.560965    0.000162
| 12> H     -4.118136    0.061245   -0.000060
| 13> *
| 14>
| 15>                          ****END OF INPUT****

CARTESIAN COORDINATES (ANGSTROEM)
---------------------------------
  Cl     2.020286   -0.360915    0.000049
  O      0.203450    1.555974   -0.000169
  N     -0.574181   -0.605015    0.000072
  C      0.376440    0.384407   -0.000039
  C     -1.897702   -0.346943    0.000026
  C     -3.075438   -0.133700   -0.000002
  H     -0.254865   -1.560965    0.000162
  H     -4.118136    0.061245   -0.000060

 Total Charge           Charge          ....    0
 Multiplicity           Mult            ....    1
 Number of Electrons    NEL             ....   52
 Basis Dimension        Dim             ....  326

ORBITAL ENERGIES
----------------

  NO   OCC          E(Eh)            E(eV)
   0   2.0000    -104.870539     -2853.6724
   1   2.0000     -20.588339      -560.2372
   2   2.0000     -15.663126      -426.2153
   3   2.0000     -11.450666      -311.5885
   4   2.0000     -11.293534      -307.3127
   5   2.0000     -11.250053      -306.1295
   6   2.0000     -10.594611      -288.2940
   7   2.0000      -8.061307      -219.3593
   8   2.0000      -8.059460      -219.3091
   9   2.0000      -8.059393      -219.3072
  10   2.0000      -1.462191       -39.7883
  11   2.0000      -1.311307       -35.6825
  12   2.0000      -1.143273       -31.1100
  13   2.0000      -1.042885       -28.3783
  14   2.0000      -0.886132       -24.1129
  15   2.0000      -0.814151       -22.1542
  16   2.0000      -0.728385       -19.8204
  17   2.0000      -0.717074       -19.5126
  18   2.0000      -0.659658       -17.9502
  19   2.0000      -0.651023       -17.7152
  20   2.0000      -0.533674       -14.5220
  21   2.0000      -0.503603       -13.7037
  22   2.0000      -0.485575       -13.2132
  23   2.0000      -0.475015       -12.9258
  24   2.0000      -0.428229       -11.6527
  25   2.0000      -0.383423       -10.4335
  26   0.0000       0.023506         0.6396
  27   0.0000       0.033125         0.9014
  28   0.0000       0.064280         1.7491
  29   0.0000       0.076081         2.0703
  30   0.0000       0.080087         2.1793

MULLIKEN ATOMIC CHARGES
-----------------------
   0 Cl:   -0.212467
   1 O :   -0.500728
   2 N :    0.188909
   3 C :    0.500502
   4 C :    0.759409
   5 C :   -1.391484
   6 H :    0.196593
   7 H :    0.459265
Sum of atomic charges:    0.0000000

LOEWDIN ATOMIC CHARGES
----------------------
   0 Cl:    0.863945
   1 O :    0.383080
   2 N :    0.353226
   3 C :   -1.244268
   4 C :   -0.108242
   5 C :    0.392463
   6 H :   -0.341691
   7 H :   -0.298513

  Mayer bond orders larger than 0.100000
B(  0-Cl,  3-C ) :   0.8454 B(  1-O ,  3-C ) :   1.7336 B(  2-N ,  3-C ) :   1.2043
B(  2-N ,  4-C ) :   0.6766 B(  2-N ,  5-C ) :  -0.3268 B(  2-N ,  6-H ) :   1.0040
B(  3-C ,  4-C ) :  -0.1360 B(  4-C ,  5-C ) :   1.7540 B(  4-C ,  7-H ) :  -0.1178
B(  5-C ,  7-H ) :   0.9479

MP2 TOTAL ENERGY:     -704.718903399 Eh
FINAL SINGLE POINT ENERGY      -704.718903398611

DIPOLE MOMENT
-------------
                                X             Y             Z
Electronic contribution:      6.40951      -0.26894       0.00008
Nuclear contribution   :     -6.85311      -0.90802       0.00003
                        -----------------------------------------
Total Dipole Moment    :     -0.44359      -1.17696       0.00010
                        -----------------------------------------
Magnitude (a.u.)       :      1.25778
Magnitude (Debye)      :      3.19703

Rotational constants in cm-1:     0.310110     0.051837     0.044413
Rotational constants in MHz :  9296.854490  1554.024597  1331.462680

                             ****ORCA TERMINATED NORMALLY****
TOTAL RUN TIME: 0 days 0 hours 1 minutes 30 seconds 983 msec
