                         Program Version 5.0.3 -  RELEASE  -
|  1> !ri-mp2 aug-cc-pvtz aug-cc-pvtz/c tightscf
|  2> %pal nprocs 16 end
|  3>
|  4> * xyz 0 1
|  5> Cl   -0.857697    1.572767    0.000268
|  6> N    -0.570057   -0.129205   -0.000081
|  7> N     1.743589    0.140834    0.000082
|  8> N    -2.544730   -1.638675   -0.000357
|  9> C     0.749729   -0.615993   -0.000106
| 10> C    -1.632177   -0.928384   -0.000224
| 11> C     3.070199   -0.442365    0.000029
| 12> H     0.755182   -1.709286   -0.000314
| 13> H     3.613291   -0.089928    0.877506
| 14> H     3.613351   -0.089629   -0.877292
| 15> H     3.070905   -1.538419   -0.000158
| 16> *
| 17>
| 18>                          ****END OF INPUT****

CARTESIAN COORDINATES (ANGSTROEM)
---------------------------------
  Cl    -0.857697    1.572767    0.000268
  N     -0.570057   -0.129205   -0.000081
  N      1.743589    0.140834    0.000082
  N     -2.544730   -1.638675   -0.000357
  C      0.749729   -0.615993   -0.000106
  C     -1.632177   -0.928384   -0.000224
  C      3.070199   -0.442365    0.000029
  H      0.755182   -1.709286   -0.000314
  H      3.613291   -0.089928    0.877506
  H      3.613351   -0.089629   -0.877292
  H      3.070905   -1.538419   -0.000158

 Total Charge           Charge          ....    0
 Multiplicity           Mult            ....    1
 Number of Electrons    NEL             ....   60
 Basis Dimension        Dim             ....  418

ORBITAL ENERGIES
----------------

  NO   OCC          E(Eh)            E(eV)
   0   2.0000    -104.909548     -2854.7339
   1   2.0000     -15.701279      -427.2535
   2   2.0000     -15.588274      -424.1785
   3   2.0000     -15.582735      -424.0278
   4   2.0000     -11.357392      -309.0503
   5   2.0000     -11.328861      -308.2740
   6   2.0000     -11.271657      -306.7174
   7   2.0000     -10.629399      -289.2406
   8   2.0000      -8.096470      -220.3162
   9   2.0000      -8.093483      -220.2349
  10   2.0000      -8.093297      -220.2298
  11   2.0000      -1.370003       -37.2797
  12   2.0000      -1.260494       -34.2998
  13   2.0000      -1.223127       -33.2830
  14   2.0000      -1.105865       -30.0921
  15   2.0000      -0.990324       -26.9481
  16   2.0000      -0.871918       -23.7261
  17   2.0000      -0.788417       -21.4539
  18   2.0000      -0.690638       -18.7932
  19   2.0000      -0.668419       -18.1886
  20   2.0000      -0.654231       -17.8025
  21   2.0000      -0.608612       -16.5612
  22   2.0000      -0.582841       -15.8599
  23   2.0000      -0.577431       -15.7127
  24   2.0000      -0.509385       -13.8611
  25   2.0000      -0.507931       -13.8215
  26   2.0000      -0.483138       -13.1469
  27   2.0000      -0.478156       -13.0113
  28   2.0000      -0.443635       -12.0719
  29   2.0000      -0.385598       -10.4927
  30   0.0000       0.023545         0.6407
  31   0.0000       0.038384         1.0445
  32   0.0000       0.041327         1.1246
  33   0.0000       0.046963         1.2779
  34   0.0000       0.057355         1.5607

MULLIKEN ATOMIC CHARGES
-----------------------
   0 Cl:   -0.040421
   1 N :    0.532104
   2 N :   -0.407689
   3 N :   -0.571134
   4 C :   -0.186344
   5 C :   -0.106911
   6 C :   -0.743574
   7 H :    0.530830
   8 H :    0.320366
   9 H :    0.320369
  10 H :    0.352403
Sum of atomic charges:   -0.0000000

LOEWDIN ATOMIC CHARGES
----------------------
   0 Cl:    0.899423
   1 N :   -0.413674
   2 N :    0.329569
   3 N :    0.235463
   4 C :   -0.207842
   5 C :   -0.514499
   6 C :    0.394801
   7 H :   -0.166201
   8 H :   -0.184699
   9 H :   -0.184697
  10 H :   -0.187644

  Mayer bond orders larger than 0.100000
B(  0-Cl,  1-N ) :   0.8495 B(  1-N ,  2-N ) :  -0.1287 B(  1-N ,  3-N ) :  -0.2939
B(  1-N ,  4-C ) :   0.8193 B(  1-N ,  5-C ) :   0.9534 B(  2-N ,  4-C ) :   1.6161
B(  2-N ,  6-C ) :   0.8149 B(  3-N ,  5-C ) :   2.6589 B(  4-C ,  5-C ) :  -0.1378
B(  4-C ,  7-H ) :   0.6857 B(  6-C ,  8-H ) :   0.9044 B(  6-C ,  9-H ) :   0.9044
B(  6-C , 10-H ) :   0.9120

MP2 TOTAL ENERGY:     -740.083572756 Eh
FINAL SINGLE POINT ENERGY      -740.083572755898

DIPOLE MOMENT
-------------
                                X             Y             Z
Electronic contribution:    -10.32437       5.51529       0.00066
Nuclear contribution   :     11.76490      -5.45202      -0.00062
                        -----------------------------------------
Total Dipole Moment    :      1.44053       0.06327       0.00004
                        -----------------------------------------
Magnitude (a.u.)       :      1.44192
Magnitude (Debye)      :      3.66507

Rotational constants in cm-1:     0.112706     0.047795     0.033771
Rotational constants in MHz :  3378.855324  1432.845421  1012.424077

                             ****ORCA TERMINATED NORMALLY****
TOTAL RUN TIME: 0 days 0 hours 2 minutes 55 seconds 111 msec
