                         Program Version 5.0.3 -  RELEASE  -
|  1> !ri-mp2 aug-cc-pvtz aug-cc-pvtz/c tightscf
|  2> %pal nprocs 16 end
|  3>
|  4> * xyz 0 1
|  5> C      0.752140   -0.876732        0.000000
|  6> C     -0.594330   -0.964738        0.000000
|  7> C      0.000000    1.101527        0.000000
|  8> N      1.118628    0.463667        0.000000
|  9> O     -1.098400    0.308078        0.000000
| 10> H      1.482368   -1.666223        0.000000
| 11> H     -1.305329   -1.768953        0.000000
| 12> H     -0.167090    2.164537        0.000000
| 13> *
| 14>
| 15>                          ****END OF INPUT****

CARTESIAN COORDINATES (ANGSTROEM)
---------------------------------
  C      0.752140   -0.876732    0.000000
  C     -0.594330   -0.964738    0.000000
  C      0.000000    1.101527    0.000000
  N      1.118628    0.463667    0.000000
  O     -1.098400    0.308078    0.000000
  H      1.482368   -1.666223    0.000000
  H     -1.305329   -1.768953    0.000000
  H     -0.167090    2.164537    0.000000

 Total Charge           Charge          ....    0
 Multiplicity           Mult            ....    1
 Number of Electrons    NEL             ....   36
 Basis Dimension        Dim             ....  299

ORBITAL ENERGIES
----------------

  NO   OCC          E(Eh)            E(eV)
   0   2.0000     -20.645013      -561.7794
   1   2.0000     -15.571214      -423.7143
   2   2.0000     -11.338450      -308.5349
   3   2.0000     -11.298640      -307.4516
   4   2.0000     -11.266106      -306.5663
   5   2.0000      -1.491470       -40.5850
   6   2.0000      -1.238951       -33.7136
   7   2.0000      -1.039439       -28.2846
   8   2.0000      -0.845395       -23.0044
   9   2.0000      -0.824584       -22.4381
  10   2.0000      -0.755952       -20.5705
  11   2.0000      -0.662931       -18.0393
  12   2.0000      -0.631852       -17.1936
  13   2.0000      -0.600406       -16.3379
  14   2.0000      -0.583054       -15.8657
  15   2.0000      -0.466652       -12.6983
  16   2.0000      -0.458882       -12.4868
  17   2.0000      -0.350783        -9.5453
  18   0.0000       0.028212         0.7677
  19   0.0000       0.035764         0.9732
  20   0.0000       0.040633         1.1057
  21   0.0000       0.070918         1.9298
  22   0.0000       0.080470         2.1897

MULLIKEN ATOMIC CHARGES
-----------------------
   0 C :   -0.301033
   1 C :   -0.422258
   2 C :   -0.313436
   3 N :   -0.478998
   4 O :   -0.301175
   5 H :    0.559367
   6 H :    0.612218
   7 H :    0.645314
Sum of atomic charges:   -0.0000000

LOEWDIN ATOMIC CHARGES
----------------------
   0 C :   -0.014628
   1 C :   -0.035421
   2 C :   -0.235345
   3 N :    0.331171
   4 O :    0.549326
   5 H :   -0.204492
   6 H :   -0.199471
   7 H :   -0.191141

  Mayer bond orders larger than 0.100000
B(  0-C ,  1-C ) :   1.5934 B(  0-C ,  3-N ) :   0.8460 B(  0-C ,  5-H ) :   0.7008
B(  1-C ,  4-O ) :   0.9176 B(  1-C ,  6-H ) :   0.6313 B(  2-C ,  3-N ) :   1.5818
B(  2-C ,  4-O ) :   1.1166 B(  2-C ,  7-H ) :   0.5448

MP2 TOTAL ENERGY:     -245.639504772 Eh
FINAL SINGLE POINT ENERGY      -245.639504772066

DIPOLE MOMENT
-------------
                                X             Y             Z
Electronic contribution:     -0.50479       0.96017       0.00000
Nuclear contribution   :     -0.00078      -1.23650       0.00000
                        -----------------------------------------
Total Dipole Moment    :     -0.50558      -0.27632       0.00000
                        -----------------------------------------
Magnitude (a.u.)       :      0.57616
Magnitude (Debye)      :      1.46449

Rotational constants in cm-1:     0.336360     0.324952     0.165279
Rotational constants in MHz : 10083.804769  9741.808145  4954.928347

                             ****ORCA TERMINATED NORMALLY****
TOTAL RUN TIME: 0 days 0 hours 0 minutes 54 seconds 167 msec
