                         Program Version 5.0.3 -  RELEASE  -
|  1> !ri-mp2 aug-cc-pvtz aug-cc-pvtz/c tightscf
|  2> %pal nprocs 16 end
|  3>
|  4> * xyz 0 1
|  5> S      1.225174   -0.898935   -0.254228
|  6> O      1.535098    0.658588    0.407850
|  7> O     -2.480973   -0.262291    0.091047
|  8> N     -0.366881   -1.120825    0.191149
|  9> C     -1.293951   -0.078457   -0.057482
| 10> C     -0.684163    1.233340   -0.309598
| 11> C      0.572566    1.541966    0.062753
| 12> H     -1.361545    2.031989   -0.568230
| 13> H     -0.591464   -1.718951    0.976121
| 14> H      0.918677    2.564229    0.156502
| 15> *
| 16>
| 17>                          ****END OF INPUT****

CARTESIAN COORDINATES (ANGSTROEM)
---------------------------------
  S      1.225174   -0.898935   -0.254228
  O      1.535098    0.658588    0.407850
  O     -2.480973   -0.262291    0.091047
  N     -0.366881   -1.120825    0.191149
  C     -1.293951   -0.078457   -0.057482
  C     -0.684163    1.233340   -0.309598
  C      0.572566    1.541966    0.062753
  H     -1.361545    2.031989   -0.568230
  H     -0.591464   -1.718951    0.976121
  H      0.918677    2.564229    0.156502

 Total Charge           Charge          ....    0
 Multiplicity           Mult            ....    1
 Number of Electrons    NEL             ....   60
 Basis Dimension        Dim             ....  395

ORBITAL ENERGIES
----------------

  NO   OCC          E(Eh)            E(eV)
   0   2.0000     -92.064206     -2505.1944
   1   2.0000     -20.641251      -561.6770
   2   2.0000     -20.549927      -559.1920
   3   2.0000     -15.625796      -425.1995
   4   2.0000     -11.380455      -309.6779
   5   2.0000     -11.348659      -308.8127
   6   2.0000     -11.252450      -306.1947
   7   2.0000      -9.055375      -246.4093
   8   2.0000      -6.736316      -183.3045
   9   2.0000      -6.734803      -183.2633
  10   2.0000      -6.733052      -183.2157
  11   2.0000      -1.450189       -39.4617
  12   2.0000      -1.408078       -38.3157
  13   2.0000      -1.254644       -34.1406
  14   2.0000      -1.085848       -29.5474
  15   2.0000      -0.961958       -26.1762
  16   2.0000      -0.891496       -24.2588
  17   2.0000      -0.778867       -21.1940
  18   2.0000      -0.736577       -20.0433
  19   2.0000      -0.719512       -19.5789
  20   2.0000      -0.668748       -18.1976
  21   2.0000      -0.650419       -17.6988
  22   2.0000      -0.621024       -16.8989
  23   2.0000      -0.579289       -15.7633
  24   2.0000      -0.564651       -15.3649
  25   2.0000      -0.549334       -14.9481
  26   2.0000      -0.475253       -12.9323
  27   2.0000      -0.443714       -12.0741
  28   2.0000      -0.386458       -10.5160
  29   2.0000      -0.380609       -10.3569
  30   0.0000       0.026268         0.7148
  31   0.0000       0.034797         0.9469
  32   0.0000       0.044035         1.1982
  33   0.0000       0.053126         1.4456
  34   0.0000       0.063215         1.7202

MULLIKEN ATOMIC CHARGES
-----------------------
   0 S :    0.267525
   1 O :   -0.588864
   2 O :   -0.710619
   3 N :   -0.111400
   4 C :    0.509474
   5 C :   -0.302242
   6 C :   -0.206846
   7 H :    0.337942
   8 H :    0.111308
   9 H :    0.693722
Sum of atomic charges:   -0.0000000

LOEWDIN ATOMIC CHARGES
----------------------
   0 S :    0.937203
   1 O :    0.151792
   2 O :    0.435621
   3 N :    0.101717
   4 C :   -0.792883
   5 C :    0.144674
   6 C :   -0.192385
   7 H :   -0.219010
   8 H :   -0.374537
   9 H :   -0.192193

  Mayer bond orders larger than 0.100000
B(  0-S ,  1-O ) :   0.7226 B(  0-S ,  3-N ) :   1.0254 B(  1-O ,  6-C ) :   1.0248
B(  2-O ,  4-C ) :   1.4783 B(  3-N ,  4-C ) :   0.9735 B(  3-N ,  8-H ) :   1.0465
B(  4-C ,  5-C ) :   0.8669 B(  4-C ,  6-C ) :   0.1199 B(  5-C ,  6-C ) :   1.5185
B(  5-C ,  7-H ) :   0.9298 B(  6-C ,  9-H ) :   0.4391

MP2 TOTAL ENERGY:     -718.465214212 Eh
FINAL SINGLE POINT ENERGY      -718.465214212298

DIPOLE MOMENT
-------------
                                X             Y             Z
Electronic contribution:      2.04375      -2.45236      -0.40529
Nuclear contribution   :     -1.04793       2.79462       0.55920
                        -----------------------------------------
Total Dipole Moment    :      0.99581       0.34226       0.15391
                        -----------------------------------------
Magnitude (a.u.)       :      1.06418
Magnitude (Debye)      :      2.70493

Rotational constants in cm-1:     0.140407     0.074331     0.050911
Rotational constants in MHz :  4209.310207  2228.377615  1526.275714

                             ****ORCA TERMINATED NORMALLY****
TOTAL RUN TIME: 0 days 0 hours 2 minutes 27 seconds 170 msec
