                         Program Version 5.0.3 -  RELEASE  -
|  1> !ri-mp2 aug-cc-pvtz aug-cc-pvtz/c tightscf
|  2> %pal nprocs 16 end
|  3> %maxcore 3800
|  4>
|  5> * xyz 0 1
|  6> C      2.743376    0.386487    0.533004
|  7> C      3.403443   -0.769047   -0.220309
|  8> C      1.628643    1.096455   -0.247194
|  9> C      0.402478    0.244625   -0.603456
| 10> C     -0.402478   -0.244624    0.603457
| 11> C     -1.628643   -1.096455    0.247194
| 12> C     -2.743376   -0.386487   -0.533004
| 13> C     -3.403443    0.769047    0.220308
| 14> H      3.803237   -0.434641   -1.180362
| 15> H      4.230374   -1.189255    0.353881
| 16> H     -3.507182   -1.127157   -0.783972
| 17> H     -4.230374    1.189255   -0.353882
| 18> H     -2.701500    1.579527    0.420693
| 19> H     -3.803238    0.434642    1.180362
| 20> H      2.701500   -1.579527   -0.420694
| 21> H     -0.242366    0.842416   -1.252097
| 22> H      2.055029    1.496389   -1.172579
| 23> H      3.507182    1.127157    0.783972
| 24> H      2.356936    0.024239    1.488923
| 25> H     -1.295689   -1.964325   -0.330509
| 26> H     -2.356936   -0.024240   -1.488923
| 27> H      0.709119   -0.617126   -1.204218
| 28> H      1.295689    1.964325    0.330509
| 29> H      0.242366   -0.842416    1.252098
| 30> H     -0.709119    0.617127    1.204218
| 31> H     -2.055029   -1.496389    1.172580
| 32> *
| 33>
| 34>                          ****END OF INPUT****

CARTESIAN COORDINATES (ANGSTROEM)
---------------------------------
  C      2.743376    0.386487    0.533004
  C      3.403443   -0.769047   -0.220309
  C      1.628643    1.096455   -0.247194
  C      0.402478    0.244625   -0.603456
  C     -0.402478   -0.244624    0.603457
  C     -1.628643   -1.096455    0.247194
  C     -2.743376   -0.386487   -0.533004
  C     -3.403443    0.769047    0.220308
  H      3.803237   -0.434641   -1.180362
  H      4.230374   -1.189255    0.353881
  H     -3.507182   -1.127157   -0.783972
  H     -4.230374    1.189255   -0.353882
  H     -2.701500    1.579527    0.420693
  H     -3.803238    0.434642    1.180362
  H      2.701500   -1.579527   -0.420694
  H     -0.242366    0.842416   -1.252097
  H      2.055029    1.496389   -1.172579
  H      3.507182    1.127157    0.783972
  H      2.356936    0.024239    1.488923
  H     -1.295689   -1.964325   -0.330509
  H     -2.356936   -0.024240   -1.488923
  H      0.709119   -0.617126   -1.204218
  H      1.295689    1.964325    0.330509
  H      0.242366   -0.842416    1.252098
  H     -0.709119    0.617127    1.204218
  H     -2.055029   -1.496389    1.172580

 Total Charge           Charge          ....    0
 Multiplicity           Mult            ....    1
 Number of Electrons    NEL             ....   66
 Basis Dimension        Dim             ....  782

ORBITAL ENERGIES
----------------

  NO   OCC          E(Eh)            E(eV)
   0   2.0000     -11.213727      -305.1410
   1   2.0000     -11.213727      -305.1410
   2   2.0000     -11.212595      -305.1102
   3   2.0000     -11.212578      -305.1098
   4   2.0000     -11.211129      -305.0703
   5   2.0000     -11.210536      -305.0542
   6   2.0000     -11.207925      -304.9831
   7   2.0000     -11.207925      -304.9831
   8   2.0000      -1.089990       -29.6601
   9   2.0000      -1.057122       -28.7658
  10   2.0000      -1.004035       -27.3212
  11   2.0000      -0.948142       -25.8003
  12   2.0000      -0.886408       -24.1204
  13   2.0000      -0.842022       -22.9126
  14   2.0000      -0.780780       -21.2461
  15   2.0000      -0.747645       -20.3444
  16   2.0000      -0.644046       -17.5254
  17   2.0000      -0.626108       -17.0373
  18   2.0000      -0.610176       -16.6037
  19   2.0000      -0.603298       -16.4166
  20   2.0000      -0.569410       -15.4944
  21   2.0000      -0.554005       -15.0753
  22   2.0000      -0.545417       -14.8415
  23   2.0000      -0.538012       -14.6400
  24   2.0000      -0.515723       -14.0335
  25   2.0000      -0.503141       -13.6912
  26   2.0000      -0.489947       -13.3321
  27   2.0000      -0.470915       -12.8142
  28   2.0000      -0.464514       -12.6401
  29   2.0000      -0.458405       -12.4738
  30   2.0000      -0.449079       -12.2200
  31   2.0000      -0.437511       -11.9053
  32   2.0000      -0.432824       -11.7777
  33   0.0000       0.030296         0.8244
  34   0.0000       0.033207         0.9036
  35   0.0000       0.034012         0.9255
  36   0.0000       0.035906         0.9771
  37   0.0000       0.046067         1.2536

MULLIKEN ATOMIC CHARGES
-----------------------
   0 C :   -0.462313
   1 C :   -0.971876
   2 C :   -0.486143
   3 C :   -0.352262
   4 C :   -0.352261
   5 C :   -0.486144
   6 C :   -0.462312
   7 C :   -0.971877
   8 H :    0.236161
   9 H :    0.278300
  10 H :    0.339742
  11 H :    0.278300
  12 H :    0.312861
  13 H :    0.236161
  14 H :    0.312861
  15 H :    0.366440
  16 H :    0.225869
  17 H :    0.339743
  18 H :    0.174835
  19 H :    0.182166
  20 H :    0.174835
  21 H :    0.156220
  22 H :    0.182165
  23 H :    0.366440
  24 H :    0.156220
  25 H :    0.225868
Sum of atomic charges:    0.0000000

LOEWDIN ATOMIC CHARGES
----------------------
   0 C :    0.265686
   1 C :    0.579710
   2 C :    0.291054
   3 C :    0.284023
   4 C :    0.284024
   5 C :    0.291054
   6 C :    0.265685
   7 C :    0.579709
   8 H :   -0.166682
   9 H :   -0.171784
  10 H :   -0.150509
  11 H :   -0.171784
  12 H :   -0.178047
  13 H :   -0.166681
  14 H :   -0.178047
  15 H :   -0.153389
  16 H :   -0.146145
  17 H :   -0.150509
  18 H :   -0.160386
  19 H :   -0.144838
  20 H :   -0.160386
  21 H :   -0.148693
  22 H :   -0.144838
  23 H :   -0.153388
  24 H :   -0.148694
  25 H :   -0.146144

  Mayer bond orders larger than 0.100000
B(  0-C ,  1-C ) :   0.8411 B(  0-C ,  2-C ) :   0.8812 B(  0-C , 17-H ) :   0.9053
B(  0-C , 18-H ) :   1.0263 B(  1-C ,  8-H ) :   0.9888 B(  1-C ,  9-H ) :   0.9718
B(  1-C , 14-H ) :   0.9324 B(  2-C ,  3-C ) :   0.9041 B(  2-C , 16-H ) :   0.9919
B(  2-C , 22-H ) :   1.0077 B(  3-C ,  4-C ) :   0.8159 B(  3-C , 15-H ) :   0.8668
B(  3-C , 21-H ) :   1.0283 B(  4-C ,  5-C ) :   0.9041 B(  4-C , 23-H ) :   0.8668
B(  4-C , 24-H ) :   1.0283 B(  5-C ,  6-C ) :   0.8812 B(  5-C , 19-H ) :   1.0077
B(  5-C , 25-H ) :   0.9919 B(  6-C ,  7-C ) :   0.8411 B(  6-C , 10-H ) :   0.9053
B(  6-C , 20-H ) :   1.0263 B(  7-C , 11-H ) :   0.9718 B(  7-C , 12-H ) :   0.9324
B(  7-C , 13-H ) :   0.9888

MP2 TOTAL ENERGY:     -314.982040356 Eh
FINAL SINGLE POINT ENERGY      -314.982040356037

DIPOLE MOMENT
-------------
                                X             Y             Z
Electronic contribution:      0.00000       0.00000      -0.00000
Nuclear contribution   :     -0.00000      -0.00000      -0.00000
                        -----------------------------------------
Total Dipole Moment    :     -0.00000       0.00000      -0.00000
                        -----------------------------------------
Magnitude (a.u.)       :      0.00000
Magnitude (Debye)      :      0.00000

Rotational constants in cm-1:     0.153516     0.024358     0.023122
Rotational constants in MHz :  4602.303940   730.248463   693.179402

                             ****ORCA TERMINATED NORMALLY****
TOTAL RUN TIME: 0 days 0 hours 15 minutes 13 seconds 922 msec
