                         Program Version 5.0.3 -  RELEASE  -
|  1> !ri-mp2 aug-cc-pvtz aug-cc-pvtz/c tightscf
|  2> %pal nprocs 16 end
|  3>
|  4> * xyz 0 1
|  5> O     0.000000     0.000000    0.854896
|  6> C     0.000000     0.731605   -0.373327
|  7> C     0.000000    -0.731605   -0.373327
|  8> H     0.917863     1.266951   -0.589809
|  9> H    -0.917863     1.266951   -0.589809
| 10> H    -0.917863    -1.266951   -0.589809
| 11> H     0.917863    -1.266951   -0.589809
| 12> *
| 13>
| 14>                          ****END OF INPUT****

CARTESIAN COORDINATES (ANGSTROEM)
---------------------------------
  O      0.000000    0.000000    0.854896
  C      0.000000    0.731605   -0.373327
  C      0.000000   -0.731605   -0.373327
  H      0.917863    1.266951   -0.589809
  H     -0.917863    1.266951   -0.589809
  H     -0.917863   -1.266951   -0.589809
  H      0.917863   -1.266951   -0.589809

 Total Charge           Charge          ....    0
 Multiplicity           Mult            ....    1
 Number of Electrons    NEL             ....   24
 Basis Dimension        Dim             ....  230

ORBITAL ENERGIES
----------------

  NO   OCC          E(Eh)            E(eV)
   0   2.0000     -20.572354      -559.8022
   1   2.0000     -11.286443      -307.1197
   2   2.0000     -11.285635      -307.0977
   3   2.0000      -1.410968       -38.3944
   4   2.0000      -0.934730       -25.4353
   5   2.0000      -0.863193       -23.4887
   6   2.0000      -0.705616       -19.2008
   7   2.0000      -0.661721       -18.0064
   8   2.0000      -0.548655       -14.9296
   9   2.0000      -0.543885       -14.7999
  10   2.0000      -0.452470       -12.3123
  11   2.0000      -0.452439       -12.3115
  12   0.0000       0.029797         0.8108
  13   0.0000       0.039225         1.0674
  14   0.0000       0.040180         1.0933
  15   0.0000       0.059498         1.6190
  16   0.0000       0.072924         1.9844

MULLIKEN ATOMIC CHARGES
-----------------------
   0 O :   -0.629308
   1 C :   -0.506998
   2 C :   -0.506998
   3 H :    0.410826
   4 H :    0.410826
   5 H :    0.410826
   6 H :    0.410826
Sum of atomic charges:    0.0000000

LOEWDIN ATOMIC CHARGES
----------------------
   0 O :    0.503466
   1 C :    0.100694
   2 C :    0.100694
   3 H :   -0.176213
   4 H :   -0.176213
   5 H :   -0.176213
   6 H :   -0.176213

  Mayer bond orders larger than 0.100000
B(  0-O ,  1-C ) :   0.8073 B(  0-O ,  2-C ) :   0.8073 B(  1-C ,  2-C ) :   1.1616
B(  1-C ,  3-H ) :   0.8166 B(  1-C ,  4-H ) :   0.8166 B(  2-C ,  5-H ) :   0.8166
B(  2-C ,  6-H ) :   0.8166

MP2 TOTAL ENERGY:     -153.513931482 Eh
FINAL SINGLE POINT ENERGY      -153.513931481694

DIPOLE MOMENT
-------------
                                X             Y             Z
Electronic contribution:     -0.00000      -0.00000       1.52883
Nuclear contribution   :      0.00000       0.00000      -2.40011
                        -----------------------------------------
Total Dipole Moment    :     -0.00000      -0.00000      -0.87129
                        -----------------------------------------
Magnitude (a.u.)       :      0.87129
Magnitude (Debye)      :      2.21464

Rotational constants in cm-1:     0.854982     0.741760     0.472868
Rotational constants in MHz : 25631.728710 22237.404137 14176.221750

                             ****ORCA TERMINATED NORMALLY****
TOTAL RUN TIME: 0 days 0 hours 0 minutes 34 seconds 25 msec
