                         Program Version 5.0.3 -  RELEASE  -
|  1> !ri-mp2 aug-cc-pvtz aug-cc-pvtz/c tightscf
|  2> %pal nprocs 16 end
|  3>
|  4> * xyz 0 1
|  5> O     -0.485466    0.609325    0.000033
|  6> N     -1.490658   -0.472251   -0.000012
|  7> C      0.723672    0.132472    0.000000
|  8> C      1.867234   -0.225589   -0.000026
|  9> H     -2.052385   -0.232984   -0.814329
| 10> H     -2.052359   -0.233078    0.814350
| 11> H      2.877638   -0.544080   -0.000049
| 12> *
| 13>
| 14>                          ****END OF INPUT****

CARTESIAN COORDINATES (ANGSTROEM)
---------------------------------
  O     -0.485466    0.609325    0.000033
  N     -1.490658   -0.472251   -0.000012
  C      0.723672    0.132472    0.000000
  C      1.867234   -0.225589   -0.000026
  H     -2.052385   -0.232984   -0.814329
  H     -2.052359   -0.233078    0.814350
  H      2.877638   -0.544080   -0.000049

 Total Charge           Charge          ....    0
 Multiplicity           Mult            ....    1
 Number of Electrons    NEL             ....   30
 Basis Dimension        Dim             ....  253

ORBITAL ENERGIES
----------------

  NO   OCC          E(Eh)            E(eV)
   0   2.0000     -20.650938      -561.9406
   1   2.0000     -15.649338      -425.8401
   2   2.0000     -11.287953      -307.1608
   3   2.0000     -11.216171      -305.2075
   4   2.0000      -1.466717       -39.9114
   5   2.0000      -1.152907       -31.3722
   6   2.0000      -1.006098       -27.3773
   7   2.0000      -0.760223       -20.6867
   8   2.0000      -0.732319       -19.9274
   9   2.0000      -0.690418       -18.7872
  10   2.0000      -0.681462       -18.5435
  11   2.0000      -0.583339       -15.8735
  12   2.0000      -0.478101       -13.0098
  13   2.0000      -0.387704       -10.5500
  14   2.0000      -0.369064       -10.0427
  15   0.0000       0.024147         0.6571
  16   0.0000       0.037204         1.0124
  17   0.0000       0.044887         1.2214
  18   0.0000       0.071804         1.9539
  19   0.0000       0.097636         2.6568

MULLIKEN ATOMIC CHARGES
-----------------------
   0 O :   -0.322663
   1 N :   -0.250265
   2 C :    0.734024
   3 C :   -1.105094
   4 H :    0.216484
   5 H :    0.216483
   6 H :    0.511031
Sum of atomic charges:    0.0000000

LOEWDIN ATOMIC CHARGES
----------------------
   0 O :    0.384371
   1 N :    0.679076
   2 C :   -0.342381
   3 C :    0.305525
   4 H :   -0.349055
   5 H :   -0.349055
   6 H :   -0.328480

  Mayer bond orders larger than 0.100000
B(  0-O ,  1-N ) :   0.8101 B(  0-O ,  2-C ) :   1.0131 B(  0-O ,  3-C ) :  -0.1257
B(  1-N ,  4-H ) :   0.9310 B(  1-N ,  5-H ) :   0.9310 B(  2-C ,  3-C ) :   1.8645
B(  3-C ,  6-H ) :   0.6978

MP2 TOTAL ENERGY:     -207.475893039 Eh
FINAL SINGLE POINT ENERGY      -207.475893038683

DIPOLE MOMENT
-------------
                                X             Y             Z
Electronic contribution:      0.36429       0.95318       0.00004
Nuclear contribution   :     -1.22804      -0.99083      -0.00003
                        -----------------------------------------
Total Dipole Moment    :     -0.86374      -0.03765       0.00001
                        -----------------------------------------
Magnitude (a.u.)       :      0.86456
Magnitude (Debye)      :      2.19755

Rotational constants in cm-1:     1.452059     0.166553     0.153042
Rotational constants in MHz : 43531.633925  4993.121106  4588.068831

                             ****ORCA TERMINATED NORMALLY****
TOTAL RUN TIME: 0 days 0 hours 0 minutes 46 seconds 885 msec
