                         Program Version 5.0.3 -  RELEASE  -
|  1> !ri-mp2 aug-cc-pvtz aug-cc-pvtz/c tightscf
|  2> %pal nprocs 16 end
|  3>
|  4> * xyz 0 1
|  5> C     -0.000362   -0.062016    1.039066
|  6> C     -0.000362   -0.062016   -1.039066
|  7> H     -0.886662    1.703368    0.000000
|  8> H      0.886384    1.702690    0.000000
|  9> C     -0.000362    1.073690    0.000000
| 10> H     -0.890999   -0.134448    1.666799
| 11> H      0.889472   -0.133116    1.668112
| 12> H     -0.890999   -0.134448   -1.666799
| 13> H      0.889472   -0.133116   -1.668112
| 14> O      0.001231   -1.071110    0.000000
| 15> *
| 16>
| 17>                          ****END OF INPUT****

CARTESIAN COORDINATES (ANGSTROEM)
---------------------------------
  C     -0.000362   -0.062016    1.039066
  C     -0.000362   -0.062016   -1.039066
  H     -0.886662    1.703368    0.000000
  H      0.886384    1.702690    0.000000
  C     -0.000362    1.073690    0.000000
  H     -0.890999   -0.134448    1.666799
  H      0.889472   -0.133116    1.668112
  H     -0.890999   -0.134448   -1.666799
  H      0.889472   -0.133116   -1.668112
  O      0.001231   -1.071110    0.000000

 Total Charge           Charge          ....    0
 Multiplicity           Mult            ....    1
 Number of Electrons    NEL             ....   32
 Basis Dimension        Dim             ....  322

ORBITAL ENERGIES
----------------

  NO   OCC          E(Eh)            E(eV)
   0   2.0000     -20.545432      -559.0696
   1   2.0000     -11.277689      -306.8815
   2   2.0000     -11.277688      -306.8815
   3   2.0000     -11.230771      -305.6048
   4   2.0000      -1.370966       -37.3059
   5   2.0000      -1.012122       -27.5412
   6   2.0000      -0.932373       -25.3712
   7   2.0000      -0.773150       -21.0385
   8   2.0000      -0.684915       -18.6375
   9   2.0000      -0.667227       -18.1562
  10   2.0000      -0.589313       -16.0360
  11   2.0000      -0.563760       -15.3407
  12   2.0000      -0.538062       -14.6414
  13   2.0000      -0.469128       -12.7656
  14   2.0000      -0.459561       -12.5053
  15   2.0000      -0.411715       -11.2033
  16   0.0000       0.029748         0.8095
  17   0.0000       0.039615         1.0780
  18   0.0000       0.039712         1.0806
  19   0.0000       0.044274         1.2047
  20   0.0000       0.058431         1.5900

MULLIKEN ATOMIC CHARGES
-----------------------
   0 C :   -0.309118
   1 C :   -0.309118
   2 H :    0.318692
   3 H :    0.318252
   4 C :   -0.609990
   5 H :    0.312945
   6 H :    0.313184
   7 H :    0.312945
   8 H :    0.313184
   9 O :   -0.660977
Sum of atomic charges:    0.0000000

LOEWDIN ATOMIC CHARGES
----------------------
   0 C :    0.068534
   1 C :    0.068534
   2 H :   -0.163642
   3 H :   -0.163686
   4 C :    0.321235
   5 H :   -0.162459
   6 H :   -0.162467
   7 H :   -0.162459
   8 H :   -0.162467
   9 O :    0.518877

  Mayer bond orders larger than 0.100000
B(  0-C ,  4-C ) :   0.9940 B(  0-C ,  5-H ) :   0.9053 B(  0-C ,  6-H ) :   0.9051
B(  0-C ,  9-O ) :   0.7490 B(  1-C ,  4-C ) :   0.9940 B(  1-C ,  7-H ) :   0.9053
B(  1-C ,  8-H ) :   0.9051 B(  1-C ,  9-O ) :   0.7490 B(  2-H ,  4-C ) :   0.8773
B(  3-H ,  4-C ) :   0.8777

MP2 TOTAL ENERGY:     -192.739992629 Eh
FINAL SINGLE POINT ENERGY      -192.739992628706

DIPOLE MOMENT
-------------
                                X             Y             Z
Electronic contribution:      0.00223      -2.09453       0.00000
Nuclear contribution   :     -0.00343       2.95323       0.00000
                        -----------------------------------------
Total Dipole Moment    :     -0.00120       0.85869       0.00000
                        -----------------------------------------
Magnitude (a.u.)       :      0.85869
Magnitude (Debye)      :      2.18263

Rotational constants in cm-1:     0.402081     0.393368     0.224109
Rotational constants in MHz : 12054.074986 11792.881408  6718.604223

                             ****ORCA TERMINATED NORMALLY****
TOTAL RUN TIME: 0 days 0 hours 1 minutes 0 seconds 516 msec
