                         Program Version 5.0.3 -  RELEASE  -
|  1> !ri-mp2 aug-cc-pvtz aug-cc-pvtz/c tightscf
|  2> %pal nprocs 16 end
|  3> %maxcore 3800
|  4>
|  5> * xyz 0 1
|  6> C      4.339193   -0.239943    0.516430
|  7> C      3.327634   -0.231568   -0.343062
|  8> C     -4.298854   -0.403949    0.124866
|  9> C      2.068612    0.568357   -0.199112
| 10> C     -3.042666    0.464354    0.079878
| 11> C      0.803711   -0.301438   -0.153528
| 12> C     -1.749886   -0.346967   -0.014527
| 13> C     -0.486737    0.513029   -0.061371
| 14> H      5.218634   -0.848262    0.352660
| 15> H      4.324601    0.365016    1.415596
| 16> H      3.390219   -0.857805   -1.229651
| 17> H     -4.383423   -1.021698   -0.771594
| 18> H     -4.283461   -1.075093    0.986132
| 19> H     -5.202181    0.203631    0.194727
| 20> H      1.984175    1.258703   -1.046285
| 21> H      2.125947    1.184941    0.701645
| 22> H     -3.101914    1.147047   -0.773197
| 23> H     -3.005278    1.097541    0.971468
| 24> H      0.770340   -0.934721   -1.045813
| 25> H      0.870178   -0.981984    0.700136
| 26> H     -1.788071   -0.982079   -0.905996
| 27> H     -1.691063   -1.029675    0.839789
| 28> H     -0.544961    1.194564   -0.916651
| 29> H     -0.449783    1.148628    0.829586
| 30> *
| 31>
| 32>                          ****END OF INPUT****

CARTESIAN COORDINATES (ANGSTROEM)
---------------------------------
  C      4.339193   -0.239943    0.516430
  C      3.327634   -0.231568   -0.343062
  C     -4.298854   -0.403949    0.124866
  C      2.068612    0.568357   -0.199112
  C     -3.042666    0.464354    0.079878
  C      0.803711   -0.301438   -0.153528
  C     -1.749886   -0.346967   -0.014527
  C     -0.486737    0.513029   -0.061371
  H      5.218634   -0.848262    0.352660
  H      4.324601    0.365016    1.415596
  H      3.390219   -0.857805   -1.229651
  H     -4.383423   -1.021698   -0.771594
  H     -4.283461   -1.075093    0.986132
  H     -5.202181    0.203631    0.194727
  H      1.984175    1.258703   -1.046285
  H      2.125947    1.184941    0.701645
  H     -3.101914    1.147047   -0.773197
  H     -3.005278    1.097541    0.971468
  H      0.770340   -0.934721   -1.045813
  H      0.870178   -0.981984    0.700136
  H     -1.788071   -0.982079   -0.905996
  H     -1.691063   -1.029675    0.839789
  H     -0.544961    1.194564   -0.916651
  H     -0.449783    1.148628    0.829586

 Total Charge           Charge          ....    0
 Multiplicity           Mult            ....    1
 Number of Electrons    NEL             ....   64
 Basis Dimension        Dim             ....  736

ORBITAL ENERGIES
----------------

  NO   OCC          E(Eh)            E(eV)
   0   2.0000     -11.229532      -305.5711
   1   2.0000     -11.222582      -305.3820
   2   2.0000     -11.218115      -305.2604
   3   2.0000     -11.216016      -305.2033
   4   2.0000     -11.215856      -305.1990
   5   2.0000     -11.215630      -305.1928
   6   2.0000     -11.214205      -305.1540
   7   2.0000     -11.209699      -305.0314
   8   2.0000      -1.096139       -29.8275
   9   2.0000      -1.066902       -29.0319
  10   2.0000      -1.018404       -27.7122
  11   2.0000      -0.954262       -25.9668
  12   2.0000      -0.877497       -23.8779
  13   2.0000      -0.806251       -21.9392
  14   2.0000      -0.787400       -21.4263
  15   2.0000      -0.753980       -20.5168
  16   2.0000      -0.657718       -17.8974
  17   2.0000      -0.635650       -17.2969
  18   2.0000      -0.607600       -16.5336
  19   2.0000      -0.591049       -16.0833
  20   2.0000      -0.584932       -15.9168
  21   2.0000      -0.557790       -15.1783
  22   2.0000      -0.542061       -14.7502
  23   2.0000      -0.529510       -14.4087
  24   2.0000      -0.502965       -13.6864
  25   2.0000      -0.496161       -13.5012
  26   2.0000      -0.479614       -13.0510
  27   2.0000      -0.469461       -12.7747
  28   2.0000      -0.461565       -12.5598
  29   2.0000      -0.460223       -12.5233
  30   2.0000      -0.444521       -12.0960
  31   2.0000      -0.357656        -9.7323
  32   0.0000       0.030629         0.8334
  33   0.0000       0.031911         0.8683
  34   0.0000       0.035235         0.9588
  35   0.0000       0.036418         0.9910
  36   0.0000       0.043472         1.1829

MULLIKEN ATOMIC CHARGES
-----------------------
   0 C :   -1.053980
   1 C :   -0.257916
   2 C :   -0.999969
   3 C :   -0.053227
   4 C :   -0.501047
   5 C :   -0.443013
   6 C :   -0.326995
   7 C :   -0.373387
   8 H :    0.506560
   9 H :    0.216588
  10 H :    0.175501
  11 H :    0.262988
  12 H :    0.262781
  13 H :    0.276091
  14 H :    0.242238
  15 H :    0.159876
  16 H :    0.233554
  17 H :    0.227773
  18 H :    0.219021
  19 H :    0.255763
  20 H :    0.242796
  21 H :    0.239014
  22 H :    0.251657
  23 H :    0.237334
Sum of atomic charges:    0.0000000

LOEWDIN ATOMIC CHARGES
----------------------
   0 C :    0.523195
   1 C :    0.179044
   2 C :    0.577833
   3 C :    0.245784
   4 C :    0.256573
   5 C :    0.274630
   6 C :    0.269497
   7 C :    0.275854
   8 H :   -0.231145
   9 H :   -0.222868
  10 H :   -0.183847
  11 H :   -0.171769
  12 H :   -0.171706
  13 H :   -0.174327
  14 H :   -0.147366
  15 H :   -0.156249
  16 H :   -0.148160
  17 H :   -0.148147
  18 H :   -0.143134
  19 H :   -0.140521
  20 H :   -0.141477
  21 H :   -0.141312
  22 H :   -0.140748
  23 H :   -0.139636

  Mayer bond orders larger than 0.100000
B(  0-C ,  1-C ) :   1.3475 B(  0-C ,  8-H ) :   0.6469 B(  0-C ,  9-H ) :   1.1510
B(  1-C ,  3-C ) :   0.6691 B(  1-C , 10-H ) :   1.1557 B(  2-C ,  4-C ) :   0.9292
B(  2-C , 11-H ) :   0.9692 B(  2-C , 12-H ) :   0.9681 B(  2-C , 13-H ) :   0.9894
B(  3-C ,  5-C ) :   0.9934 B(  3-C , 14-H ) :   0.9687 B(  3-C , 15-H ) :   0.9976
B(  4-C ,  6-C ) :   0.9071 B(  4-C , 16-H ) :   0.9687 B(  4-C , 17-H ) :   0.9738
B(  5-C ,  7-C ) :   0.9448 B(  5-C , 18-H ) :   0.9601 B(  5-C , 19-H ) :   0.9625
B(  6-C ,  7-C ) :   0.9824 B(  6-C , 20-H ) :   0.9518 B(  6-C , 21-H ) :   0.9551
B(  7-C , 22-H ) :   0.9404 B(  7-C , 23-H ) :   0.9551

MP2 TOTAL ENERGY:     -313.758789292 Eh
FINAL SINGLE POINT ENERGY      -313.758789292316

DIPOLE MOMENT
-------------
                                X             Y             Z
Electronic contribution:      5.99420       0.18636      -0.37233
Nuclear contribution   :     -6.17611      -0.14058       0.32407
                        -----------------------------------------
Total Dipole Moment    :     -0.18191       0.04578      -0.04826
                        -----------------------------------------
Magnitude (a.u.)       :      0.19369
Magnitude (Debye)      :      0.49233

Rotational constants in cm-1:     0.334871     0.017417     0.017189
Rotational constants in MHz : 10039.190258   522.157121   515.309625

                             ****ORCA TERMINATED NORMALLY****
TOTAL RUN TIME: 0 days 0 hours 11 minutes 2 seconds 867 msec
