                         Program Version 5.0.3 -  RELEASE  -
|  1> !ri-mp2 aug-cc-pvtz aug-cc-pvtz/c tightscf
|  2> %pal nprocs 16 end
|  3>
|  4> * xyz 0 1
|  5> C    -0.054169     0.770269       0.000000
|  6> C     0.054169    -0.770269       0.000000
|  7> O    -1.121261     1.323096       0.000000
|  8> O     1.121261    -1.323096       0.000000
|  9> O     1.121261     1.380321       0.000000
| 10> O    -1.121261    -1.380321       0.000000
| 11> H     1.811137     0.691631       0.000000
| 12> H    -1.811137    -0.691631       0.000000
| 13> *
| 14>
| 15>                          ****END OF INPUT****

CARTESIAN COORDINATES (ANGSTROEM)
---------------------------------
  C     -0.054169    0.770269    0.000000
  C      0.054169   -0.770269    0.000000
  O     -1.121261    1.323096    0.000000
  O      1.121261   -1.323096    0.000000
  O      1.121261    1.380321    0.000000
  O     -1.121261   -1.380321    0.000000
  H      1.811137    0.691631    0.000000
  H     -1.811137   -0.691631    0.000000

 Total Charge           Charge          ....    0
 Multiplicity           Mult            ....    1
 Number of Electrons    NEL             ....   46
 Basis Dimension        Dim             ....  322

ORBITAL ENERGIES
----------------

  NO   OCC          E(Eh)            E(eV)
   0   2.0000     -20.653595      -562.0129
   1   2.0000     -20.653593      -562.0128
   2   2.0000     -20.603533      -560.6506
   3   2.0000     -20.603533      -560.6506
   4   2.0000     -11.437476      -311.2295
   5   2.0000     -11.436928      -311.2146
   6   2.0000      -1.528822       -41.6013
   7   2.0000      -1.492059       -40.6010
   8   2.0000      -1.431930       -38.9648
   9   2.0000      -1.406755       -38.2798
  10   2.0000      -0.963051       -26.2060
  11   2.0000      -0.861271       -23.4364
  12   2.0000      -0.854083       -23.2408
  13   2.0000      -0.728240       -19.8164
  14   2.0000      -0.700564       -19.0633
  15   2.0000      -0.696410       -18.9503
  16   2.0000      -0.687119       -18.6975
  17   2.0000      -0.645394       -17.5621
  18   2.0000      -0.600852       -16.3500
  19   2.0000      -0.570614       -15.5272
  20   2.0000      -0.528406       -14.3786
  21   2.0000      -0.522647       -14.2220
  22   2.0000      -0.479071       -13.0362
  23   0.0000       0.029111         0.7922
  24   0.0000       0.037782         1.0281
  25   0.0000       0.056846         1.5469
  26   0.0000       0.061515         1.6739
  27   0.0000       0.073885         2.0105

MULLIKEN ATOMIC CHARGES
-----------------------
   0 C :    0.696795
   1 C :    0.696795
   2 O :   -0.611752
   3 O :   -0.611752
   4 O :   -0.368999
   5 O :   -0.368999
   6 H :    0.283955
   7 H :    0.283955
Sum of atomic charges:    0.0000000

LOEWDIN ATOMIC CHARGES
----------------------
   0 C :   -0.780744
   1 C :   -0.780744
   2 O :    0.463649
   3 O :    0.463649
   4 O :    0.844573
   5 O :    0.844573
   6 H :   -0.527479
   7 H :   -0.527479

  Mayer bond orders larger than 0.100000
B(  0-C ,  1-C ) :   0.9028 B(  0-C ,  2-O ) :   1.5955 B(  0-C ,  4-O ) :   1.0201
B(  1-C ,  3-O ) :   1.5955 B(  1-C ,  5-O ) :   1.0201 B(  4-O ,  6-H ) :   0.9144
B(  5-O ,  7-H ) :   0.9144

MP2 TOTAL ENERGY:     -377.793440283 Eh
FINAL SINGLE POINT ENERGY      -377.793440283434

DIPOLE MOMENT
-------------
                                X             Y             Z
Electronic contribution:      0.00000      -0.00000      -0.00000
Nuclear contribution   :      0.00000       0.00000       0.00000
                        -----------------------------------------
Total Dipole Moment    :      0.00000      -0.00000      -0.00000
                        -----------------------------------------
Magnitude (a.u.)       :      0.00000
Magnitude (Debye)      :      0.00000

Rotational constants in cm-1:     0.194081     0.127247     0.076857
Rotational constants in MHz :  5818.403812  3814.774168  2304.109465

                             ****ORCA TERMINATED NORMALLY****
TOTAL RUN TIME: 0 days 0 hours 1 minutes 8 seconds 655 msec
