                         Program Version 5.0.3 -  RELEASE  -
|  1> !ri-mp2 aug-cc-pvtz aug-cc-pvtz/c tightscf
|  2> %pal nprocs 16 end
|  3>
|  4> * xyz 0 1
|  5> O     -0.749026   -0.493037        0.000000
|  6> C      0.778446   -0.240644        0.000000
|  7> C      0.000000    0.750804        0.000000
|  8> H      1.619799   -0.896149        0.000000
|  9> H     -0.298263    1.779489        0.000000
| 10> *
| 11>
| 12>                          ****END OF INPUT****

CARTESIAN COORDINATES (ANGSTROEM)
---------------------------------
  O     -0.749026   -0.493037    0.000000
  C      0.778446   -0.240644    0.000000
  C      0.000000    0.750804    0.000000
  H      1.619799   -0.896149    0.000000
  H     -0.298263    1.779489    0.000000

 Total Charge           Charge          ....    0
 Multiplicity           Mult            ....    1
 Number of Electrons    NEL             ....   22
 Basis Dimension        Dim             ....  184

ORBITAL ENERGIES
----------------

  NO   OCC          E(Eh)            E(eV)
   0   2.0000     -20.569909      -559.7357
   1   2.0000     -11.316046      -307.9253
   2   2.0000     -11.306934      -307.6773
   3   2.0000      -1.379826       -37.5470
   4   2.0000      -0.970262       -26.4022
   5   2.0000      -0.820595       -22.3295
   6   2.0000      -0.723447       -19.6860
   7   2.0000      -0.584307       -15.8998
   8   2.0000      -0.538789       -14.6612
   9   2.0000      -0.500383       -13.6161
  10   2.0000      -0.344014        -9.3611
  11   0.0000       0.027363         0.7446
  12   0.0000       0.030842         0.8393
  13   0.0000       0.071141         1.9359
  14   0.0000       0.083845         2.2815
  15   0.0000       0.086242         2.3468

MULLIKEN ATOMIC CHARGES
-----------------------
   0 O :   -0.481164
   1 C :   -0.433948
   2 C :   -0.276392
   3 H :    0.608462
   4 H :    0.583042
Sum of atomic charges:   -0.0000000

LOEWDIN ATOMIC CHARGES
----------------------
   0 O :    0.334954
   1 C :    0.123404
   2 C :   -0.030143
   3 H :   -0.222098
   4 H :   -0.206118

  Mayer bond orders larger than 0.100000
B(  0-O ,  1-C ) :   0.7155 B(  0-O ,  2-C ) :   0.7965 B(  1-C ,  2-C ) :   1.3784
B(  1-C ,  3-H ) :   0.5917 B(  2-C ,  4-H ) :   0.6840

MP2 TOTAL ENERGY:     -152.209390566 Eh
FINAL SINGLE POINT ENERGY      -152.209390565590

DIPOLE MOMENT
-------------
                                X             Y             Z
Electronic contribution:     -0.43223      -0.24271      -0.00000
Nuclear contribution   :      1.28731       0.86058       0.00000
                        -----------------------------------------
Total Dipole Moment    :      0.85509       0.61788      -0.00000
                        -----------------------------------------
Magnitude (a.u.)       :      1.05496
Magnitude (Debye)      :      2.68150

Rotational constants in cm-1:     1.146038     0.861057     0.491658
Rotational constants in MHz : 34357.349940 25813.834950 14739.529598

                             ****ORCA TERMINATED NORMALLY****
TOTAL RUN TIME: 0 days 0 hours 0 minutes 26 seconds 501 msec
