                         Program Version 5.0.3 -  RELEASE  -
|  1> !ri-mp2 aug-cc-pvtz aug-cc-pvtz/c tightscf
|  2> %pal nprocs 16 end
|  3>
|  4> * xyz 0 1
|  5> C     -0.718651   -0.816155        0.000000
|  6> C      0.000000    0.539124        0.000000
|  7> O      1.331696    0.432025        0.000000
|  8> O     -0.618671    1.571383        0.000000
|  9> O     -0.159963   -1.873970        0.000000
| 10> H     -1.815745   -0.700767        0.000000
| 11> H      1.703152    1.327452        0.000000
| 12> *
| 13>
| 14>                          ****END OF INPUT****

CARTESIAN COORDINATES (ANGSTROEM)
---------------------------------
  C     -0.718651   -0.816155    0.000000
  C      0.000000    0.539124    0.000000
  O      1.331696    0.432025    0.000000
  O     -0.618671    1.571383    0.000000
  O     -0.159963   -1.873970    0.000000
  H     -1.815745   -0.700767    0.000000
  H      1.703152    1.327452    0.000000

 Total Charge           Charge          ....    0
 Multiplicity           Mult            ....    1
 Number of Electrons    NEL             ....   38
 Basis Dimension        Dim             ....  276

ORBITAL ENERGIES
----------------

  NO   OCC          E(Eh)            E(eV)
   0   2.0000     -20.642664      -561.7154
   1   2.0000     -20.608546      -560.7870
   2   2.0000     -20.590625      -560.2994
   3   2.0000     -11.419215      -310.7326
   4   2.0000     -11.371434      -309.4325
   5   2.0000      -1.500819       -40.8394
   6   2.0000      -1.439808       -39.1792
   7   2.0000      -1.399730       -38.0886
   8   2.0000      -0.975551       -26.5461
   9   2.0000      -0.842402       -22.9229
  10   2.0000      -0.739555       -20.1243
  11   2.0000      -0.726340       -19.7647
  12   2.0000      -0.689603       -18.7651
  13   2.0000      -0.666813       -18.1449
  14   2.0000      -0.629474       -17.1289
  15   2.0000      -0.562669       -15.3110
  16   2.0000      -0.530826       -14.4445
  17   2.0000      -0.512858       -13.9556
  18   2.0000      -0.455198       -12.3866
  19   0.0000       0.025887         0.7044
  20   0.0000       0.036663         0.9977
  21   0.0000       0.046796         1.2734
  22   0.0000       0.070604         1.9212
  23   0.0000       0.080542         2.1917

MULLIKEN ATOMIC CHARGES
-----------------------
   0 C :    0.095282
   1 C :    0.619083
   2 O :   -0.296282
   3 O :   -0.656375
   4 O :   -0.570967
   5 H :    0.563252
   6 H :    0.246007
Sum of atomic charges:   -0.0000000

LOEWDIN ATOMIC CHARGES
----------------------
   0 C :   -0.218430
   1 C :   -0.820396
   2 O :    0.819505
   3 O :    0.433702
   4 O :    0.449125
   5 H :   -0.202763
   6 H :   -0.460743

  Mayer bond orders larger than 0.100000
B(  0-C ,  1-C ) :   0.8151 B(  0-C ,  4-O ) :   1.7134 B(  0-C ,  5-H ) :   0.6298
B(  1-C ,  2-O ) :   1.0963 B(  1-C ,  3-O ) :   1.6400 B(  2-O ,  6-H ) :   0.9423

MP2 TOTAL ENERGY:     -302.624016292 Eh
FINAL SINGLE POINT ENERGY      -302.624016292471

DIPOLE MOMENT
-------------
                                X             Y             Z
Electronic contribution:      0.18619      -0.13679       0.00000
Nuclear contribution   :     -0.10013       0.60607       0.00000
                        -----------------------------------------
Total Dipole Moment    :      0.08606       0.46928       0.00000
                        -----------------------------------------
Magnitude (a.u.)       :      0.47710
Magnitude (Debye)      :      1.21270

Rotational constants in cm-1:     0.365517     0.148303     0.105499
Rotational constants in MHz : 10957.920703  4446.018600  3162.770140

                             ****ORCA TERMINATED NORMALLY****
TOTAL RUN TIME: 0 days 0 hours 0 minutes 54 seconds 323 msec
