                         Program Version 5.0.3 -  RELEASE  -
|  1> !ri-mp2 aug-cc-pvtz aug-cc-pvtz/c tightscf
|  2> %pal nprocs 16 end
|  3>
|  4> * xyz 0 1
|  5> C      1.183630   -1.657236    0.000000
|  6> C      1.978197   -0.519415    0.000000
|  7> C     -0.201692   -1.524488    0.000000
|  8> C      1.385481    0.737927    0.000000
|  9> C     -0.822901   -0.278622    0.000000
| 10> C      0.000000    0.854617    0.000000
| 11> C     -2.318300   -0.130060    0.000000
| 12> O     -0.625320    2.075643    0.000000
| 13> H      1.634666   -2.639701    0.000000
| 14> H      3.056498   -0.602769    0.000000
| 15> H     -0.822640   -2.411682    0.000000
| 16> H      1.999453    1.631427    0.000000
| 17> H     -2.661652    0.425255    0.874779
| 18> H     -2.661652    0.425255   -0.874779
| 19> H     -2.803146   -1.104999    0.000000
| 20> H      0.034538    2.775735    0.000000
| 21> *
| 22>
| 23>                          ****END OF INPUT****

CARTESIAN COORDINATES (ANGSTROEM)
---------------------------------
  C      1.183630   -1.657236    0.000000
  C      1.978197   -0.519415    0.000000
  C     -0.201692   -1.524488    0.000000
  C      1.385481    0.737927    0.000000
  C     -0.822901   -0.278622    0.000000
  C      0.000000    0.854617    0.000000
  C     -2.318300   -0.130060    0.000000
  O     -0.625320    2.075643    0.000000
  H      1.634666   -2.639701    0.000000
  H      3.056498   -0.602769    0.000000
  H     -0.822640   -2.411682    0.000000
  H      1.999453    1.631427    0.000000
  H     -2.661652    0.425255    0.874779
  H     -2.661652    0.425255   -0.874779
  H     -2.803146   -1.104999    0.000000
  H      0.034538    2.775735    0.000000

 Total Charge           Charge          ....    0
 Multiplicity           Mult            ....    1
 Number of Electrons    NEL             ....   58
 Basis Dimension        Dim             ....  552

ORBITAL ENERGIES
----------------

  NO   OCC          E(Eh)            E(eV)
   0   2.0000     -20.589869      -560.2788
   1   2.0000     -11.297760      -307.4277
   2   2.0000     -11.235934      -305.7453
   3   2.0000     -11.235257      -305.7269
   4   2.0000     -11.232722      -305.6579
   5   2.0000     -11.231571      -305.6266
   6   2.0000     -11.224187      -305.4256
   7   2.0000     -11.217518      -305.2442
   8   2.0000      -1.403868       -38.2012
   9   2.0000      -1.150385       -31.3036
  10   2.0000      -1.047358       -28.5000
  11   2.0000      -1.005241       -27.3540
  12   2.0000      -0.931148       -25.3378
  13   2.0000      -0.844765       -22.9872
  14   2.0000      -0.801150       -21.8004
  15   2.0000      -0.729615       -19.8538
  16   2.0000      -0.674958       -18.3665
  17   2.0000      -0.652069       -17.7437
  18   2.0000      -0.603734       -16.4284
  19   2.0000      -0.600454       -16.3392
  20   2.0000      -0.582467       -15.8497
  21   2.0000      -0.562641       -15.3103
  22   2.0000      -0.550953       -14.9922
  23   2.0000      -0.541949       -14.7472
  24   2.0000      -0.502315       -13.6687
  25   2.0000      -0.486652       -13.2425
  26   2.0000      -0.477904       -13.0044
  27   2.0000      -0.334776        -9.1097
  28   2.0000      -0.310250        -8.4423
  29   0.0000       0.026788         0.7289
  30   0.0000       0.033290         0.9059
  31   0.0000       0.034111         0.9282
  32   0.0000       0.045519         1.2386
  33   0.0000       0.049144         1.3373

MULLIKEN ATOMIC CHARGES
-----------------------
   0 C :   -0.580653
   1 C :   -0.327785
   2 C :   -0.691410
   3 C :   -0.895681
   4 C :    0.996410
   5 C :    0.573479
   6 C :   -0.866253
   7 O :   -0.757392
   8 H :    0.641350
   9 H :    0.275586
  10 H :    0.026225
  11 H :    0.690648
  12 H :    0.271356
  13 H :    0.271356
  14 H :    0.268785
  15 H :    0.103978
Sum of atomic charges:    0.0000000

LOEWDIN ATOMIC CHARGES
----------------------
   0 C :    0.189811
   1 C :    0.181729
   2 C :    0.204640
   3 C :    0.208071
   4 C :   -0.110913
   5 C :   -0.355570
   6 C :    0.574284
   7 O :    0.847361
   8 H :   -0.191776
   9 H :   -0.185025
  10 H :   -0.180226
  11 H :   -0.186379
  12 H :   -0.167845
  13 H :   -0.167845
  14 H :   -0.181427
  15 H :   -0.478891

  Mayer bond orders larger than 0.100000
B(  0-C ,  1-C ) :   1.1561 B(  0-C ,  2-C ) :   1.0750 B(  0-C ,  3-C ) :   0.2915
B(  0-C ,  4-C ) :   0.2376 B(  0-C ,  8-H ) :   0.4657 B(  0-C ,  9-H ) :  -0.1434
B(  1-C ,  2-C ) :  -0.2393 B(  1-C ,  3-C ) :   1.1848 B(  1-C ,  5-C ) :  -0.3036
B(  1-C ,  9-H ) :   1.0373 B(  1-C , 11-H ) :   0.1319 B(  2-C ,  4-C ) :   0.7677
B(  2-C ,  5-C ) :  -0.3775 B(  2-C ,  6-C ) :   0.1152 B(  2-C , 10-H ) :   1.5983
B(  3-C ,  4-C ) :   0.2887 B(  3-C ,  5-C ) :   1.1166 B(  3-C ,  7-O ) :  -0.1254
B(  3-C ,  9-H ) :  -0.1036 B(  3-C , 11-H ) :   0.2282 B(  4-C ,  5-C ) :   1.1218
B(  4-C ,  6-C ) :   0.3553 B(  4-C , 10-H ) :  -0.1400 B(  5-C ,  6-C ) :   0.1873
B(  5-C ,  7-O ) :   0.6409 B(  6-C , 12-H ) :   0.9881 B(  6-C , 13-H ) :   0.9881
B(  6-C , 14-H ) :   1.0102 B(  7-O , 15-H ) :   1.0972 B(  9-H , 10-H ) :   0.1062

MP2 TOTAL ENERGY:     -346.107693581 Eh
FINAL SINGLE POINT ENERGY      -346.107693580820

DIPOLE MOMENT
-------------
                                X             Y             Z
Electronic contribution:      2.60156       1.67842      -0.00000
Nuclear contribution   :     -2.25007      -1.47946       0.00000
                        -----------------------------------------
Total Dipole Moment    :      0.35149       0.19895      -0.00000
                        -----------------------------------------
Magnitude (a.u.)       :      0.40389
Magnitude (Debye)      :      1.02660

Rotational constants in cm-1:     0.109448     0.073564     0.044351
Rotational constants in MHz :  3281.171262  2205.403046  1329.617708

                             ****ORCA TERMINATED NORMALLY****
TOTAL RUN TIME: 0 days 0 hours 6 minutes 10 seconds 459 msec
