                         Program Version 5.0.3 -  RELEASE  -
|  1> !ri-mp2 aug-cc-pvtz aug-cc-pvtz/c tightscf
|  2> %pal nprocs 16 end
|  3> %maxcore 3800
|  4>
|  5> * xyz 0 1
|  6> C      0.107535   -2.168802    0.000000
|  7> C     -0.072713   -1.229601    1.197282
|  8> C     -0.072713   -1.229601   -1.197282
|  9> C      0.643552    0.075590    0.785834
| 10> C     -0.072713    1.375568    1.203592
| 11> C     -0.955423    1.735879    0.000000
| 12> C     -0.072713    1.375568   -1.203592
| 13> C      0.643552    0.075590   -0.785834
| 14> H     -0.591384   -3.006411    0.000000
| 15> H     -0.635977    1.262705   -2.131346
| 16> H     -0.635977    1.262705    2.131346
| 17> H      0.312527   -1.639812   -2.131505
| 18> H     -1.275571    2.778231    0.000000
| 19> H      0.312527   -1.639812    2.131505
| 20> H      1.117840   -2.587719    0.000000
| 21> H     -1.860267    1.122424    0.000000
| 22> H      1.664077    0.059193   -1.169844
| 23> H      0.658197    2.171586   -1.366919
| 24> H      1.664077    0.059193    1.169844
| 25> H     -1.139228   -1.037507    1.348434
| 26> H      0.658197    2.171586    1.366919
| 27> H     -1.139228   -1.037507   -1.348434
| 28> *
| 29>
| 30>                          ****END OF INPUT****

CARTESIAN COORDINATES (ANGSTROEM)
---------------------------------
  C      0.107535   -2.168802    0.000000
  C     -0.072713   -1.229601    1.197282
  C     -0.072713   -1.229601   -1.197282
  C      0.643552    0.075590    0.785834
  C     -0.072713    1.375568    1.203592
  C     -0.955423    1.735879    0.000000
  C     -0.072713    1.375568   -1.203592
  C      0.643552    0.075590   -0.785834
  H     -0.591384   -3.006411    0.000000
  H     -0.635977    1.262705   -2.131346
  H     -0.635977    1.262705    2.131346
  H      0.312527   -1.639812   -2.131505
  H     -1.275571    2.778231    0.000000
  H      0.312527   -1.639812    2.131505
  H      1.117840   -2.587719    0.000000
  H     -1.860267    1.122424    0.000000
  H      1.664077    0.059193   -1.169844
  H      0.658197    2.171586   -1.366919
  H      1.664077    0.059193    1.169844
  H     -1.139228   -1.037507    1.348434
  H      0.658197    2.171586    1.366919
  H     -1.139228   -1.037507   -1.348434

 Total Charge           Charge          ....    0
 Multiplicity           Mult            ....    1
 Number of Electrons    NEL             ....   62
 Basis Dimension        Dim             ....  690

ORBITAL ENERGIES
----------------

  NO   OCC          E(Eh)            E(eV)
   0   2.0000     -11.213540      -305.1359
   1   2.0000     -11.213021      -305.1218
   2   2.0000     -11.210912      -305.0644
   3   2.0000     -11.210532      -305.0541
   4   2.0000     -11.209503      -305.0261
   5   2.0000     -11.209367      -305.0224
   6   2.0000     -11.209305      -305.0207
   7   2.0000     -11.209149      -305.0165
   8   2.0000      -1.140301       -31.0292
   9   2.0000      -1.053384       -28.6640
  10   2.0000      -0.987468       -26.8704
  11   2.0000      -0.929260       -25.2864
  12   2.0000      -0.895338       -24.3634
  13   2.0000      -0.791185       -21.5292
  14   2.0000      -0.764790       -20.8110
  15   2.0000      -0.723067       -19.6756
  16   2.0000      -0.668452       -18.1895
  17   2.0000      -0.622278       -16.9330
  18   2.0000      -0.619553       -16.8589
  19   2.0000      -0.592332       -16.1182
  20   2.0000      -0.579157       -15.7597
  21   2.0000      -0.531208       -14.4549
  22   2.0000      -0.506976       -13.7955
  23   2.0000      -0.476254       -12.9595
  24   2.0000      -0.475345       -12.9348
  25   2.0000      -0.461410       -12.5556
  26   2.0000      -0.446347       -12.1457
  27   2.0000      -0.446101       -12.1390
  28   2.0000      -0.436554       -11.8792
  29   2.0000      -0.435966       -11.8632
  30   2.0000      -0.434767       -11.8306
  31   0.0000       0.029678         0.8076
  32   0.0000       0.035395         0.9632
  33   0.0000       0.035535         0.9670
  34   0.0000       0.035649         0.9700
  35   0.0000       0.049439         1.3453

MULLIKEN ATOMIC CHARGES
-----------------------
   0 C :   -0.748102
   1 C :   -0.475549
   2 C :   -0.475549
   3 C :   -0.100774
   4 C :   -0.638399
   5 C :   -0.507707
   6 C :   -0.638398
   7 C :   -0.100775
   8 H :    0.360728
   9 H :    0.338131
  10 H :    0.338131
  11 H :    0.343994
  12 H :    0.406556
  13 H :    0.343994
  14 H :    0.139263
  15 H :    0.150198
  16 H :    0.361218
  17 H :    0.128127
  18 H :    0.361218
  19 H :    0.142784
  20 H :    0.128127
  21 H :    0.142784
Sum of atomic charges:    0.0000000

LOEWDIN ATOMIC CHARGES
----------------------
   0 C :    0.304487
   1 C :    0.312685
   2 C :    0.312685
   3 C :    0.048685
   4 C :    0.317616
   5 C :    0.300648
   6 C :    0.317616
   7 C :    0.048685
   8 H :   -0.142150
   9 H :   -0.141818
  10 H :   -0.141818
  11 H :   -0.138288
  12 H :   -0.142204
  13 H :   -0.138288
  14 H :   -0.140320
  15 H :   -0.144619
  16 H :   -0.128420
  17 H :   -0.142473
  18 H :   -0.128420
  19 H :   -0.145906
  20 H :   -0.142473
  21 H :   -0.145906

  Mayer bond orders larger than 0.100000
B(  0-C ,  1-C ) :   0.9832 B(  0-C ,  2-C ) :   0.9832 B(  0-C ,  8-H ) :   0.8854
B(  0-C , 14-H ) :   1.0670 B(  1-C ,  3-C ) :   0.9195 B(  1-C , 13-H ) :   0.8764
B(  1-C , 19-H ) :   1.0876 B(  2-C ,  7-C ) :   0.9195 B(  2-C , 11-H ) :   0.8764
B(  2-C , 21-H ) :   1.0876 B(  3-C ,  4-C ) :   0.8725 B(  3-C ,  7-C ) :   0.9999
B(  3-C , 18-H ) :   0.8075 B(  4-C ,  5-C ) :   0.9454 B(  4-C , 10-H ) :   0.8840
B(  4-C , 20-H ) :   1.1226 B(  5-C ,  6-C ) :   0.9454 B(  5-C , 12-H ) :   0.8154
B(  5-C , 15-H ) :   1.0694 B(  6-C ,  7-C ) :   0.8725 B(  6-C ,  9-H ) :   0.8840
B(  6-C , 17-H ) :   1.1226 B(  7-C , 16-H ) :   0.8075

MP2 TOTAL ENERGY:     -312.597967295 Eh
FINAL SINGLE POINT ENERGY      -312.597967295181

DIPOLE MOMENT
-------------
                                X             Y             Z
Electronic contribution:      0.98489       0.06758      -0.00000
Nuclear contribution   :     -0.94060      -0.06461      -0.00000
                        -----------------------------------------
Total Dipole Moment    :      0.04429       0.00297      -0.00000
                        -----------------------------------------
Magnitude (a.u.)       :      0.04439
Magnitude (Debye)      :      0.11284

Rotational constants in cm-1:     0.114592     0.065351     0.050172
Rotational constants in MHz :  3435.393338  1959.186889  1504.110983

                             ****ORCA TERMINATED NORMALLY****
TOTAL RUN TIME: 0 days 0 hours 12 minutes 31 seconds 76 msec
