                         Program Version 5.0.3 -  RELEASE  -
|  1> !ri-mp2 aug-cc-pvtz aug-cc-pvtz/c tightscf
|  2> %pal nprocs 16 end
|  3>
|  4> * xyz 0 1
|  5> C      0.000000    0.694844    2.382562
|  6> C      0.000000   -0.694844    2.382562
|  7> C      0.000000    1.388047    1.181404
|  8> C      0.000000   -1.388047    1.181404
|  9> C      0.000000    0.697332   -0.025757
| 10> C      0.000000   -0.697332   -0.025757
| 11> Cl     0.000000    1.605090   -1.512263
| 12> Cl     0.000000   -1.605090   -1.512263
| 13> H      0.000000    1.242555    3.314599
| 14> H      0.000000   -1.242555    3.314599
| 15> H      0.000000    2.468014    1.164618
| 16> H      0.000000   -2.468014    1.164618
| 17> *
| 18>
| 19>                          ****END OF INPUT****

CARTESIAN COORDINATES (ANGSTROEM)
---------------------------------
  C      0.000000    0.694844    2.382562
  C      0.000000   -0.694844    2.382562
  C      0.000000    1.388047    1.181404
  C      0.000000   -1.388047    1.181404
  C      0.000000    0.697332   -0.025757
  C      0.000000   -0.697332   -0.025757
  Cl     0.000000    1.605090   -1.512263
  Cl     0.000000   -1.605090   -1.512263
  H      0.000000    1.242555    3.314599
  H      0.000000   -1.242555    3.314599
  H      0.000000    2.468014    1.164618
  H      0.000000   -2.468014    1.164618

 Total Charge           Charge          ....    0
 Multiplicity           Mult            ....    1
 Number of Electrons    NEL             ....   74
 Basis Dimension        Dim             ....  468

ORBITAL ENERGIES
----------------

  NO   OCC          E(Eh)            E(eV)
   0   2.0000    -104.849911     -2853.1111
   1   2.0000    -104.849911     -2853.1111
   2   2.0000     -11.320961      -308.0590
   3   2.0000     -11.319752      -308.0261
   4   2.0000     -11.262357      -306.4643
   5   2.0000     -11.262350      -306.4641
   6   2.0000     -11.258714      -306.3652
   7   2.0000     -11.257492      -306.3319
   8   2.0000     -10.573520      -287.7201
   9   2.0000     -10.573517      -287.7200
  10   2.0000      -8.040414      -218.7908
  11   2.0000      -8.040412      -218.7907
  12   2.0000      -8.038458      -218.7376
  13   2.0000      -8.038456      -218.7375
  14   2.0000      -8.038447      -218.7372
  15   2.0000      -8.038446      -218.7372
  16   2.0000      -1.220273       -33.2053
  17   2.0000      -1.138917       -30.9915
  18   2.0000      -1.128858       -30.7178
  19   2.0000      -1.026845       -27.9419
  20   2.0000      -0.998398       -27.1678
  21   2.0000      -0.855546       -23.2806
  22   2.0000      -0.828141       -22.5349
  23   2.0000      -0.712118       -19.3777
  24   2.0000      -0.674089       -18.3429
  25   2.0000      -0.651535       -17.7292
  26   2.0000      -0.607690       -16.5361
  27   2.0000      -0.597183       -16.2502
  28   2.0000      -0.575642       -15.6640
  29   2.0000      -0.532818       -14.4987
  30   2.0000      -0.529328       -14.4037
  31   2.0000      -0.491744       -13.3810
  32   2.0000      -0.474748       -12.9186
  33   2.0000      -0.474742       -12.9184
  34   2.0000      -0.449990       -12.2448
  35   2.0000      -0.356540        -9.7019
  36   2.0000      -0.344687        -9.3794
  37   0.0000       0.025607         0.6968
  38   0.0000       0.032491         0.8841
  39   0.0000       0.040826         1.1109
  40   0.0000       0.051202         1.3933
  41   0.0000       0.068855         1.8737

MULLIKEN ATOMIC CHARGES
-----------------------
   0 C :   -0.232210
   1 C :   -0.232210
   2 C :   -0.775700
   3 C :   -0.775700
   4 C :    0.467263
   5 C :    0.467263
   6 Cl:   -0.465299
   7 Cl:   -0.465299
   8 H :    0.482240
   9 H :    0.482240
  10 H :    0.523706
  11 H :    0.523706
Sum of atomic charges:   -0.0000000

LOEWDIN ATOMIC CHARGES
----------------------
   0 C :    0.188812
   1 C :    0.188812
   2 C :    0.091837
   3 C :    0.091837
   4 C :   -0.857073
   5 C :   -0.857073
   6 Cl:    0.962807
   7 Cl:    0.962807
   8 H :   -0.181876
   9 H :   -0.181876
  10 H :   -0.204508
  11 H :   -0.204508

  Mayer bond orders larger than 0.100000
B(  0-C ,  1-C ) :   1.1088 B(  0-C ,  2-C ) :   1.0937 B(  0-C ,  8-H ) :   0.8126
B(  1-C ,  3-C ) :   1.0937 B(  1-C ,  9-H ) :   0.8126 B(  2-C ,  4-C ) :   1.2573
B(  2-C , 10-H ) :   0.7125 B(  3-C ,  5-C ) :   1.2573 B(  3-C , 11-H ) :   0.7125
B(  4-C ,  5-C ) :   1.3985 B(  4-C ,  6-Cl) :   0.4850 B(  4-C ,  7-Cl) :   0.1756
B(  5-C ,  6-Cl) :   0.1756 B(  5-C ,  7-Cl) :   0.4850

MP2 TOTAL ENERGY:    -1149.989742673 Eh
FINAL SINGLE POINT ENERGY     -1149.989742672770

DIPOLE MOMENT
-------------
                                X             Y             Z
Electronic contribution:     -0.00000      -0.00000     -11.41658
Nuclear contribution   :      0.00000       0.00000      12.56008
                        -----------------------------------------
Total Dipole Moment    :     -0.00000      -0.00000       1.14350
                        -----------------------------------------
Magnitude (a.u.)       :      1.14350
Magnitude (Debye)      :      2.90655

Rotational constants in cm-1:     0.062989     0.047385     0.027042
Rotational constants in MHz :  1888.350229  1420.554028   810.692397

                             ****ORCA TERMINATED NORMALLY****
TOTAL RUN TIME: 0 days 0 hours 4 minutes 21 seconds 116 msec
