                         Program Version 5.0.3 -  RELEASE  -
|  1> !ri-mp2 aug-cc-pvtz aug-cc-pvtz/c tightscf
|  2> %pal nprocs 16 end
|  3> %maxcore 3800
|  4>
|  5> * xyz 0 1
|  6> C      5.101251   -0.357927   -0.007494
|  7> C      3.825718    0.482347    0.025964
|  8> C      2.547647   -0.356251   -0.014566
|  9> C      1.264914    0.475125    0.016833
| 10> C     -0.011971   -0.365198   -0.021296
| 11> C     -1.294964    0.466445    0.009286
| 12> C     -2.568842   -0.377394   -0.031588
| 13> C     -3.845971    0.454973    0.002143
| 14> N     -5.033409   -0.402959   -0.068536
| 15> H      5.152333   -0.960610   -0.916686
| 16> H      5.145033   -1.041786    0.842745
| 17> H      5.993780    0.268535    0.025090
| 18> H      3.820683    1.101568    0.928131
| 19> H      3.825838    1.178470   -0.818216
| 20> H      2.553701   -0.977563   -0.916520
| 21> H      2.547940   -1.052494    0.830938
| 22> H      1.260595    1.097575    0.917951
| 23> H      1.264843    1.169787   -0.829777
| 24> H     -0.007756   -0.987992   -0.921778
| 25> H     -0.012300   -1.059295    0.825700
| 26> H     -1.298111    1.089499    0.909813
| 27> H     -1.294044    1.159823   -0.838338
| 28> H     -2.580405   -0.997246   -0.931668
| 29> H     -2.571992   -1.069529    0.818063
| 30> H     -3.867157    1.118505   -0.865912
| 31> H     -3.829717    1.101269    0.891642
| 32> H     -5.881430    0.149049   -0.095245
| 33> H     -5.094663   -0.999577    0.748129
| 34> *
| 35>
| 36>                          ****END OF INPUT****

CARTESIAN COORDINATES (ANGSTROEM)
---------------------------------
  C      5.101251   -0.357927   -0.007494
  C      3.825718    0.482347    0.025964
  C      2.547647   -0.356251   -0.014566
  C      1.264914    0.475125    0.016833
  C     -0.011971   -0.365198   -0.021296
  C     -1.294964    0.466445    0.009286
  C     -2.568842   -0.377394   -0.031588
  C     -3.845971    0.454973    0.002143
  N     -5.033409   -0.402959   -0.068536
  H      5.152333   -0.960610   -0.916686
  H      5.145033   -1.041786    0.842745
  H      5.993780    0.268535    0.025090
  H      3.820683    1.101568    0.928131
  H      3.825838    1.178470   -0.818216
  H      2.553701   -0.977563   -0.916520
  H      2.547940   -1.052494    0.830938
  H      1.260595    1.097575    0.917951
  H      1.264843    1.169787   -0.829777
  H     -0.007756   -0.987992   -0.921778
  H     -0.012300   -1.059295    0.825700
  H     -1.298111    1.089499    0.909813
  H     -1.294044    1.159823   -0.838338
  H     -2.580405   -0.997246   -0.931668
  H     -2.571992   -1.069529    0.818063
  H     -3.867157    1.118505   -0.865912
  H     -3.829717    1.101269    0.891642
  H     -5.881430    0.149049   -0.095245
  H     -5.094663   -0.999577    0.748129

 Total Charge           Charge          ....    0
 Multiplicity           Mult            ....    1
 Number of Electrons    NEL             ....   74
 Basis Dimension        Dim             ....  851

ORBITAL ENERGIES
----------------

  NO   OCC          E(Eh)            E(eV)
   0   2.0000     -15.535898      -422.7533
   1   2.0000     -11.243300      -305.9458
   2   2.0000     -11.214389      -305.1591
   3   2.0000     -11.214051      -305.1498
   4   2.0000     -11.212896      -305.1184
   5   2.0000     -11.212380      -305.1044
   6   2.0000     -11.211843      -305.0898
   7   2.0000     -11.211668      -305.0850
   8   2.0000     -11.208484      -304.9983
   9   2.0000      -1.173464       -31.9316
  10   2.0000      -1.088417       -29.6173
  11   2.0000      -1.054249       -28.6876
  12   2.0000      -1.001707       -27.2578
  13   2.0000      -0.936132       -25.4734
  14   2.0000      -0.865473       -23.5507
  15   2.0000      -0.807860       -21.9830
  16   2.0000      -0.786735       -21.4081
  17   2.0000      -0.783655       -21.3243
  18   2.0000      -0.663957       -18.0672
  19   2.0000      -0.650062       -17.6891
  20   2.0000      -0.631325       -17.1792
  21   2.0000      -0.609729       -16.5916
  22   2.0000      -0.589994       -16.0546
  23   2.0000      -0.577596       -15.7172
  24   2.0000      -0.565640       -15.3918
  25   2.0000      -0.550388       -14.9768
  26   2.0000      -0.531550       -14.4642
  27   2.0000      -0.507607       -13.8127
  28   2.0000      -0.503674       -13.7057
  29   2.0000      -0.490162       -13.3380
  30   2.0000      -0.475410       -12.9366
  31   2.0000      -0.469509       -12.7760
  32   2.0000      -0.460368       -12.5272
  33   2.0000      -0.457352       -12.4452
  34   2.0000      -0.456155       -12.4126
  35   2.0000      -0.432340       -11.7646
  36   2.0000      -0.385902       -10.5009
  37   0.0000       0.029021         0.7897
  38   0.0000       0.031053         0.8450
  39   0.0000       0.034972         0.9516
  40   0.0000       0.037602         1.0232
  41   0.0000       0.041758         1.1363

MULLIKEN ATOMIC CHARGES
-----------------------
   0 C :   -1.010055
   1 C :   -0.520525
   2 C :   -0.308419
   3 C :   -0.349977
   4 C :   -0.313294
   5 C :   -0.326281
   6 C :   -0.398208
   7 C :   -0.228544
   8 N :   -0.634499
   9 H :    0.260166
  10 H :    0.259706
  11 H :    0.274353
  12 H :    0.221644
  13 H :    0.223799
  14 H :    0.234113
  15 H :    0.230564
  16 H :    0.226749
  17 H :    0.223996
  18 H :    0.217211
  19 H :    0.222255
  20 H :    0.229557
  21 H :    0.221143
  22 H :    0.196922
  23 H :    0.195912
  24 H :    0.251700
  25 H :    0.213787
  26 H :    0.083348
  27 H :    0.102877
Sum of atomic charges:    0.0000000

LOEWDIN ATOMIC CHARGES
----------------------
   0 C :    0.577446
   1 C :    0.256215
   2 C :    0.269208
   3 C :    0.277327
   4 C :    0.278887
   5 C :    0.274016
   6 C :    0.269952
   7 C :    0.144538
   8 N :    0.837482
   9 H :   -0.171867
  10 H :   -0.171954
  11 H :   -0.174526
  12 H :   -0.148354
  13 H :   -0.148316
  14 H :   -0.141497
  15 H :   -0.141726
  16 H :   -0.140300
  17 H :   -0.140182
  18 H :   -0.139427
  19 H :   -0.140018
  20 H :   -0.141533
  21 H :   -0.140198
  22 H :   -0.142874
  23 H :   -0.143699
  24 H :   -0.151648
  25 H :   -0.145765
  26 H :   -0.330784
  27 H :   -0.330401

  Mayer bond orders larger than 0.100000
B(  0-C ,  1-C ) :   0.9373 B(  0-C ,  9-H ) :   0.9738 B(  0-C , 10-H ) :   0.9739
B(  0-C , 11-H ) :   0.9925 B(  1-C ,  2-C ) :   0.9113 B(  1-C , 12-H ) :   0.9803
B(  1-C , 13-H ) :   0.9777 B(  2-C ,  3-C ) :   0.9783 B(  2-C , 14-H ) :   0.9596
B(  2-C , 15-H ) :   0.9630 B(  3-C ,  4-C ) :   0.9720 B(  3-C , 16-H ) :   0.9539
B(  3-C , 17-H ) :   0.9564 B(  4-C ,  5-C ) :   0.9471 B(  4-C , 18-H ) :   0.9623
B(  4-C , 19-H ) :   0.9618 B(  5-C ,  6-C ) :   0.9197 B(  5-C ,  7-C ) :  -0.1040
B(  5-C , 20-H ) :   0.9482 B(  5-C , 21-H ) :   0.9698 B(  6-C ,  7-C ) :   1.0118
B(  6-C ,  8-N ) :  -0.1107 B(  6-C , 22-H ) :   0.9774 B(  6-C , 23-H ) :   0.9764
B(  7-C ,  8-N ) :   0.7686 B(  7-C , 24-H ) :   0.9562 B(  7-C , 25-H ) :   0.9967
B(  8-N , 26-H ) :   1.0101 B(  8-N , 27-H ) :   0.9836

MP2 TOTAL ENERGY:     -370.244308497 Eh
FINAL SINGLE POINT ENERGY      -370.244308497270

DIPOLE MOMENT
-------------
                                X             Y             Z
Electronic contribution:     -5.50570      -0.00956      -0.23866
Nuclear contribution   :      5.48140       0.30713       0.64911
                        -----------------------------------------
Total Dipole Moment    :     -0.02429       0.29756       0.41045
                        -----------------------------------------
Magnitude (a.u.)       :      0.50755
Magnitude (Debye)      :      1.29008

Rotational constants in cm-1:     0.324050     0.011441     0.011243
Rotational constants in MHz :  9714.782128   342.994238   337.059753

                             ****ORCA TERMINATED NORMALLY****
TOTAL RUN TIME: 0 days 0 hours 16 minutes 33 seconds 727 msec
