                         Program Version 5.0.3 -  RELEASE  -
|  1> !ri-mp2 aug-cc-pvtz aug-cc-pvtz/c tightscf
|  2> %pal nprocs 16 end
|  3>
|  4> * xyz 0 1
|  5> N     -1.545214    0.875722    0.000075
|  6> H     -2.543731    0.764446    0.000029
|  7> H     -1.130576    1.791761    0.000310
|  8> O      1.533181   -0.905280    0.000099
|  9> H      2.449443   -0.589400    0.000108
| 10> O     -1.138031   -1.371045   -0.000085
| 11> O      1.125097    1.307223   -0.000114
| 12> C      0.739014    0.164691   -0.000013
| 13> C     -0.759117   -0.222031   -0.000015
| 14> *
| 15>
| 16>                          ****END OF INPUT****

CARTESIAN COORDINATES (ANGSTROEM)
---------------------------------
  N     -1.545214    0.875722    0.000075
  H     -2.543731    0.764446    0.000029
  H     -1.130576    1.791761    0.000310
  O      1.533181   -0.905280    0.000099
  H      2.449443   -0.589400    0.000108
  O     -1.138031   -1.371045   -0.000085
  O      1.125097    1.307223   -0.000114
  C      0.739014    0.164691   -0.000013
  C     -0.759117   -0.222031   -0.000015

 Total Charge           Charge          ....    0
 Multiplicity           Mult            ....    1
 Number of Electrons    NEL             ....   46
 Basis Dimension        Dim             ....  345

ORBITAL ENERGIES
----------------

  NO   OCC          E(Eh)            E(eV)
   0   2.0000     -20.638415      -561.5998
   1   2.0000     -20.585653      -560.1641
   2   2.0000     -20.552813      -559.2705
   3   2.0000     -15.606428      -424.6725
   4   2.0000     -11.419039      -310.7278
   5   2.0000     -11.385971      -309.8280
   6   2.0000      -1.498573       -40.7782
   7   2.0000      -1.410360       -38.3778
   8   2.0000      -1.396612       -38.0037
   9   2.0000      -1.238650       -33.7054
  10   2.0000      -0.955570       -26.0024
  11   2.0000      -0.828299       -22.5392
  12   2.0000      -0.772226       -21.0133
  13   2.0000      -0.732012       -19.9190
  14   2.0000      -0.694968       -18.9111
  15   2.0000      -0.667282       -18.1577
  16   2.0000      -0.661989       -18.0136
  17   2.0000      -0.608900       -16.5690
  18   2.0000      -0.586178       -15.9507
  19   2.0000      -0.531134       -14.4529
  20   2.0000      -0.510919       -13.9028
  21   2.0000      -0.443814       -12.0768
  22   2.0000      -0.435040       -11.8380
  23   0.0000       0.024734         0.6730
  24   0.0000       0.030794         0.8380
  25   0.0000       0.050090         1.3630
  26   0.0000       0.079861         2.1731
  27   0.0000       0.080148         2.1809

MULLIKEN ATOMIC CHARGES
-----------------------
   0 N :   -0.285442
   1 H :    0.164773
   2 H :    0.192097
   3 O :   -0.319117
   4 H :    0.241982
   5 O :   -0.672661
   6 O :   -0.709268
   7 C :    0.703215
   8 C :    0.684421
Sum of atomic charges:   -0.0000000

LOEWDIN ATOMIC CHARGES
----------------------
   0 N :    0.835488
   1 H :   -0.282352
   2 H :   -0.335685
   3 O :    0.832992
   4 H :   -0.458883
   5 O :    0.427292
   6 O :    0.454519
   7 C :   -0.786587
   8 C :   -0.686783

  Mayer bond orders larger than 0.100000
B(  0-N ,  1-H ) :   1.0108 B(  0-N ,  2-H ) :   1.0230 B(  0-N ,  8-C ) :   0.9992
B(  3-O ,  4-H ) :   0.9511 B(  3-O ,  7-C ) :   1.0213 B(  5-O ,  8-C ) :   1.4516
B(  6-O ,  7-C ) :   1.5035 B(  7-C ,  8-C ) :   0.8476

MP2 TOTAL ENERGY:     -357.929867067 Eh
FINAL SINGLE POINT ENERGY      -357.929867067127

DIPOLE MOMENT
-------------
                                X             Y             Z
Electronic contribution:      1.25407      -0.97378      -0.00017
Nuclear contribution   :     -1.17384       1.89825       0.00043
                        -----------------------------------------
Total Dipole Moment    :      0.08022       0.92448       0.00026
                        -----------------------------------------
Magnitude (a.u.)       :      0.92795
Magnitude (Debye)      :      2.35866

Rotational constants in cm-1:     0.196531     0.120506     0.074702
Rotational constants in MHz :  5891.844854  3612.676977  2239.495343

                             ****ORCA TERMINATED NORMALLY****
TOTAL RUN TIME: 0 days 0 hours 1 minutes 27 seconds 296 msec
