                         Program Version 5.0.3 -  RELEASE  -
|  1> !ri-mp2 aug-cc-pvtz aug-cc-pvtz/c tightscf
|  2> %pal nprocs 16 end
|  3>
|  4> * xyz 0 1
|  5> S      0.050457   -1.283028    0.254896
|  6> S      1.318484    0.295909   -0.230152
|  7> O     -1.268667   -0.524946   -0.458383
|  8> C      0.011024    1.451390    0.341037
|  9> C     -1.372949    0.839488   -0.008592
| 10> H      0.172355    2.395956   -0.175996
| 11> H      0.109777    1.603307    1.412522
| 12> H     -1.847822    1.369365   -0.831999
| 13> H     -2.016479    0.879572    0.871964
| 14> *
| 15>
| 16>                          ****END OF INPUT****

CARTESIAN COORDINATES (ANGSTROEM)
---------------------------------
  S      0.050457   -1.283028    0.254896
  S      1.318484    0.295909   -0.230152
  O     -1.268667   -0.524946   -0.458383
  C      0.011024    1.451390    0.341037
  C     -1.372949    0.839488   -0.008592
  H      0.172355    2.395956   -0.175996
  H      0.109777    1.603307    1.412522
  H     -1.847822    1.369365   -0.831999
  H     -2.016479    0.879572    0.871964

 Total Charge           Charge          ....    0
 Multiplicity           Mult            ....    1
 Number of Electrons    NEL             ....   56
 Basis Dimension        Dim             ....  330

ORBITAL ENERGIES
----------------

  NO   OCC          E(Eh)            E(eV)
   0   2.0000     -92.026379     -2504.1651
   1   2.0000     -91.986298     -2503.0744
   2   2.0000     -20.600843      -560.5774
   3   2.0000     -11.306361      -307.6617
   4   2.0000     -11.282685      -307.0175
   5   2.0000      -9.019402      -245.4304
   6   2.0000      -8.984945      -244.4928
   7   2.0000      -6.700085      -182.3186
   8   2.0000      -6.698996      -182.2889
   9   2.0000      -6.697301      -182.2428
  10   2.0000      -6.665739      -181.3840
  11   2.0000      -6.664888      -181.3608
  12   2.0000      -6.663615      -181.3262
  13   2.0000      -1.393680       -37.9239
  14   2.0000      -1.078992       -29.3609
  15   2.0000      -1.018358       -27.7109
  16   2.0000      -0.841466       -22.8975
  17   2.0000      -0.829305       -22.5665
  18   2.0000      -0.683248       -18.5921
  19   2.0000      -0.661441       -17.9987
  20   2.0000      -0.610189       -16.6041
  21   2.0000      -0.596048       -16.2193
  22   2.0000      -0.526871       -14.3369
  23   2.0000      -0.507812       -13.8183
  24   2.0000      -0.476497       -12.9662
  25   2.0000      -0.451842       -12.2953
  26   2.0000      -0.403972       -10.9926
  27   2.0000      -0.335996        -9.1429
  28   0.0000       0.027860         0.7581
  29   0.0000       0.038733         1.0540
  30   0.0000       0.040832         1.1111
  31   0.0000       0.056193         1.5291
  32   0.0000       0.061149         1.6640

MULLIKEN ATOMIC CHARGES
-----------------------
   0 S :    0.114030
   1 S :   -0.158671
   2 O :   -0.614370
   3 C :   -0.351533
   4 C :   -0.202354
   5 H :    0.325045
   6 H :    0.260821
   7 H :    0.323815
   8 H :    0.303216
Sum of atomic charges:    0.0000000

LOEWDIN ATOMIC CHARGES
----------------------
   0 S :    0.438125
   1 S :    0.676345
   2 O :    0.036215
   3 C :   -0.154711
   4 C :   -0.137428
   5 H :   -0.242270
   6 H :   -0.246765
   7 H :   -0.186021
   8 H :   -0.183490

  Mayer bond orders larger than 0.100000
B(  0-S ,  1-S ) :   1.0643 B(  0-S ,  2-O ) :   0.8370 B(  1-S ,  3-C ) :   0.9395
B(  2-O ,  4-C ) :   0.6738 B(  3-C ,  4-C ) :   0.9767 B(  3-C ,  5-H ) :   0.8797
B(  3-C ,  6-H ) :   0.9146 B(  4-C ,  7-H ) :   0.8953 B(  4-C ,  8-H ) :   0.9146

MP2 TOTAL ENERGY:     -948.978402209 Eh
FINAL SINGLE POINT ENERGY      -948.978402208939

DIPOLE MOMENT
-------------
                                X             Y             Z
Electronic contribution:      3.28399      -5.10673      -0.82990
Nuclear contribution   :     -3.54331       6.09643       1.23331
                        -----------------------------------------
Total Dipole Moment    :     -0.25932       0.98970       0.40341
                        -----------------------------------------
Magnitude (a.u.)       :      1.09977
Magnitude (Debye)      :      2.79539

Rotational constants in cm-1:     0.146879     0.134450     0.077993
Rotational constants in MHz :  4403.312213  4030.724273  2338.183413

                             ****ORCA TERMINATED NORMALLY****
TOTAL RUN TIME: 0 days 0 hours 1 minutes 27 seconds 197 msec
