                         Program Version 5.0.3 -  RELEASE  -
|  1> !ri-mp2 aug-cc-pvtz aug-cc-pvtz/c tightscf
|  2> %pal nprocs 16 end
|  3> %maxcore 3800
|  4>
|  5> * xyz 0 1
|  6> C     -3.346877   -3.031775    0.000000
|  7> C     -2.834619   -1.946702    0.000000
|  8> C      3.714400    1.932692    0.000000
|  9> C     -2.190041   -0.639220    0.000000
| 10> C      2.187929    1.995002    0.000000
| 11> C     -0.653223   -0.713523    0.000000
| 12> C      1.528109    0.615773    0.000000
| 13> C      0.000000    0.667374    0.000000
| 14> H     -3.805160   -3.988782    0.000000
| 15> H      4.087265    1.405598    0.880672
| 16> H      4.155073    2.930520    0.000000
| 17> H      4.087265    1.405598   -0.880672
| 18> H     -2.527896   -0.075379   -0.874546
| 19> H     -2.527896   -0.075379    0.874546
| 20> H      1.845994    2.557334    0.874089
| 21> H      1.845994    2.557334   -0.874089
| 22> H     -0.326053   -1.280282   -0.874781
| 23> H     -0.326053   -1.280282    0.874781
| 24> H      1.870789    0.052846    0.874570
| 25> H      1.870789    0.052846   -0.874570
| 26> H     -0.342088    1.230153   -0.875038
| 27> H     -0.342088    1.230153    0.875038
| 28> *
| 29>
| 30>                          ****END OF INPUT****

CARTESIAN COORDINATES (ANGSTROEM)
---------------------------------
  C     -3.346877   -3.031775    0.000000
  C     -2.834619   -1.946702    0.000000
  C      3.714400    1.932692    0.000000
  C     -2.190041   -0.639220    0.000000
  C      2.187929    1.995002    0.000000
  C     -0.653223   -0.713523    0.000000
  C      1.528109    0.615773    0.000000
  C      0.000000    0.667374    0.000000
  H     -3.805160   -3.988782    0.000000
  H      4.087265    1.405598    0.880672
  H      4.155073    2.930520    0.000000
  H      4.087265    1.405598   -0.880672
  H     -2.527896   -0.075379   -0.874546
  H     -2.527896   -0.075379    0.874546
  H      1.845994    2.557334    0.874089
  H      1.845994    2.557334   -0.874089
  H     -0.326053   -1.280282   -0.874781
  H     -0.326053   -1.280282    0.874781
  H      1.870789    0.052846    0.874570
  H      1.870789    0.052846   -0.874570
  H     -0.342088    1.230153   -0.875038
  H     -0.342088    1.230153    0.875038

 Total Charge           Charge          ....    0
 Multiplicity           Mult            ....    1
 Number of Electrons    NEL             ....   62
 Basis Dimension        Dim             ....  690

ORBITAL ENERGIES
----------------

  NO   OCC          E(Eh)            E(eV)
   0   2.0000     -11.248906      -306.0983
   1   2.0000     -11.229559      -305.5718
   2   2.0000     -11.227147      -305.5062
   3   2.0000     -11.221480      -305.3520
   4   2.0000     -11.218897      -305.2817
   5   2.0000     -11.218042      -305.2584
   6   2.0000     -11.215358      -305.1854
   7   2.0000     -11.211763      -305.0876
   8   2.0000      -1.101525       -29.9740
   9   2.0000      -1.066179       -29.0122
  10   2.0000      -1.016782       -27.6680
  11   2.0000      -0.964441       -26.2438
  12   2.0000      -0.889596       -24.2071
  13   2.0000      -0.813923       -22.1480
  14   2.0000      -0.791868       -21.5478
  15   2.0000      -0.715098       -19.4588
  16   2.0000      -0.661328       -17.9956
  17   2.0000      -0.634090       -17.2545
  18   2.0000      -0.624552       -16.9949
  19   2.0000      -0.591739       -16.1020
  20   2.0000      -0.570874       -15.5343
  21   2.0000      -0.553860       -15.0713
  22   2.0000      -0.543482       -14.7889
  23   2.0000      -0.515624       -14.0308
  24   2.0000      -0.494783       -13.4637
  25   2.0000      -0.478013       -13.0074
  26   2.0000      -0.467229       -12.7140
  27   2.0000      -0.464406       -12.6371
  28   2.0000      -0.458452       -12.4751
  29   2.0000      -0.381797       -10.3892
  30   2.0000      -0.380357       -10.3500
  31   0.0000       0.029464         0.8018
  32   0.0000       0.031442         0.8556
  33   0.0000       0.034611         0.9418
  34   0.0000       0.037396         1.0176
  35   0.0000       0.041299         1.1238

MULLIKEN ATOMIC CHARGES
-----------------------
   0 C :   -1.753165
   1 C :    1.214483
   2 C :   -1.001165
   3 C :   -0.367037
   4 C :   -0.488773
   5 C :   -0.525309
   6 C :   -0.335121
   7 C :   -0.381420
   8 H :    0.462879
   9 H :    0.261977
  10 H :    0.277250
  11 H :    0.261977
  12 H :    0.210948
  13 H :    0.210948
  14 H :    0.233779
  15 H :    0.233779
  16 H :    0.232556
  17 H :    0.232556
  18 H :    0.249747
  19 H :    0.249747
  20 H :    0.259682
  21 H :    0.259682
Sum of atomic charges:    0.0000000

LOEWDIN ATOMIC CHARGES
----------------------
   0 C :    0.394474
   1 C :    0.021711
   2 C :    0.578731
   3 C :    0.206450
   4 C :    0.257185
   5 C :    0.272057
   6 C :    0.270935
   7 C :    0.276018
   8 H :   -0.307475
   9 H :   -0.171376
  10 H :   -0.173946
  11 H :   -0.171376
  12 H :   -0.157474
  13 H :   -0.157474
  14 H :   -0.147896
  15 H :   -0.147896
  16 H :   -0.141036
  17 H :   -0.141036
  18 H :   -0.140681
  19 H :   -0.140681
  20 H :   -0.139607
  21 H :   -0.139607

  Mayer bond orders larger than 0.100000
B(  0-C ,  5-C ) :   0.1663 B(  0-C ,  8-H ) :   1.0657 B(  1-C ,  3-C ) :   0.8937
B(  1-C ,  8-H ) :  -0.2002 B(  2-C ,  4-C ) :   0.9253 B(  2-C ,  9-H ) :   0.9705
B(  2-C , 10-H ) :   0.9887 B(  2-C , 11-H ) :   0.9705 B(  3-C ,  5-C ) :   1.0949
B(  3-C , 12-H ) :   0.9713 B(  3-C , 13-H ) :   0.9713 B(  4-C ,  6-C ) :   0.9120
B(  4-C , 14-H ) :   0.9675 B(  4-C , 15-H ) :   0.9675 B(  5-C ,  7-C ) :   0.9259
B(  5-C , 16-H ) :   0.9562 B(  5-C , 17-H ) :   0.9562 B(  6-C ,  7-C ) :   0.9730
B(  6-C , 18-H ) :   0.9465 B(  6-C , 19-H ) :   0.9465 B(  7-C , 20-H ) :   0.9350
B(  7-C , 21-H ) :   0.9350

MP2 TOTAL ENERGY:     -312.522385210 Eh
FINAL SINGLE POINT ENERGY      -312.522385209626

DIPOLE MOMENT
-------------
                                X             Y             Z
Electronic contribution:     -9.86569      -6.79852      -0.00000
Nuclear contribution   :     10.10764       7.10295       0.00000
                        -----------------------------------------
Total Dipole Moment    :      0.24195       0.30444      -0.00000
                        -----------------------------------------
Magnitude (a.u.)       :      0.38887
Magnitude (Debye)      :      0.98844

Rotational constants in cm-1:     0.357183     0.018208     0.017661
Rotational constants in MHz : 10708.075325   545.853440   529.470461

                             ****ORCA TERMINATED NORMALLY****
TOTAL RUN TIME: 0 days 0 hours 10 minutes 9 seconds 187 msec
