                         Program Version 5.0.3 -  RELEASE  -
|  1> !ri-mp2 aug-cc-pvtz aug-cc-pvtz/c tightscf
|  2> %pal nprocs 16 end
|  3>
|  4> * xyz 0 1
|  5> C      0.000000    0.694295   -0.532279
|  6> C      0.000000    1.395728    0.658951
|  7> C      0.000000    0.694955    1.860549
|  8> C      0.000000   -0.694955    1.860549
|  9> C      0.000000   -1.395728    0.658951
| 10> C      0.000000   -0.694295   -0.532279
| 11> F      0.000000   -1.349838   -1.705237
| 12> F      0.000000    1.349838   -1.705237
| 13> H      0.000000    2.476041    0.629411
| 14> H      0.000000    1.238774    2.794390
| 15> H      0.000000   -1.238774    2.794390
| 16> H      0.000000   -2.476041    0.629411
| 17> *
| 18>
| 19>                          ****END OF INPUT****

CARTESIAN COORDINATES (ANGSTROEM)
---------------------------------
  C      0.000000    0.694295   -0.532279
  C      0.000000    1.395728    0.658951
  C      0.000000    0.694955    1.860549
  C      0.000000   -0.694955    1.860549
  C      0.000000   -1.395728    0.658951
  C      0.000000   -0.694295   -0.532279
  F      0.000000   -1.349838   -1.705237
  F      0.000000    1.349838   -1.705237
  H      0.000000    2.476041    0.629411
  H      0.000000    1.238774    2.794390
  H      0.000000   -1.238774    2.794390
  H      0.000000   -2.476041    0.629411

 Total Charge           Charge          ....    0
 Multiplicity           Mult            ....    1
 Number of Electrons    NEL             ....   58
 Basis Dimension        Dim             ....  460

ORBITAL ENERGIES
----------------

  NO   OCC          E(Eh)            E(eV)
   0   2.0000     -26.321546      -716.2457
   1   2.0000     -26.321544      -716.2456
   2   2.0000     -11.342173      -308.6362
   3   2.0000     -11.340928      -308.6023
   4   2.0000     -11.259754      -306.3935
   5   2.0000     -11.259733      -306.3929
   6   2.0000     -11.256956      -306.3173
   7   2.0000     -11.255748      -306.2845
   8   2.0000      -1.645072       -44.7647
   9   2.0000      -1.631048       -44.3831
  10   2.0000      -1.181317       -32.1453
  11   2.0000      -1.047168       -28.4949
  12   2.0000      -1.037374       -28.2284
  13   2.0000      -0.880914       -23.9709
  14   2.0000      -0.863006       -23.4836
  15   2.0000      -0.774289       -21.0695
  16   2.0000      -0.741761       -20.1844
  17   2.0000      -0.734379       -19.9835
  18   2.0000      -0.718037       -19.5388
  19   2.0000      -0.690774       -18.7969
  20   2.0000      -0.666434       -18.1346
  21   2.0000      -0.661979       -18.0134
  22   2.0000      -0.630671       -17.1614
  23   2.0000      -0.601679       -16.3725
  24   2.0000      -0.550281       -14.9739
  25   2.0000      -0.530619       -14.4389
  26   2.0000      -0.519888       -14.1469
  27   2.0000      -0.362757        -9.8711
  28   2.0000      -0.350755        -9.5445
  29   0.0000       0.025769         0.7012
  30   0.0000       0.032007         0.8710
  31   0.0000       0.038840         1.0569
  32   0.0000       0.050225         1.3667
  33   0.0000       0.071126         1.9354

MULLIKEN ATOMIC CHARGES
-----------------------
   0 C :    0.580349
   1 C :   -0.684448
   2 C :   -0.431037
   3 C :   -0.431037
   4 C :   -0.684448
   5 C :    0.580349
   6 F :   -0.450508
   7 F :   -0.450508
   8 H :    0.461236
   9 H :    0.524408
  10 H :    0.524408
  11 H :    0.461236
Sum of atomic charges:    0.0000000

LOEWDIN ATOMIC CHARGES
----------------------
   0 C :   -0.516927
   1 C :    0.189928
   2 C :    0.186872
   3 C :    0.186872
   4 C :    0.189928
   5 C :   -0.516927
   6 F :    0.504165
   7 F :    0.504165
   8 H :   -0.179754
   9 H :   -0.184284
  10 H :   -0.184284
  11 H :   -0.179754

  Mayer bond orders larger than 0.100000
B(  0-C ,  1-C ) :   1.2623 B(  0-C ,  5-C ) :   1.2783 B(  0-C ,  7-F ) :   0.4471
B(  1-C ,  2-C ) :   1.2762 B(  1-C ,  7-F ) :   0.1238 B(  1-C ,  8-H ) :   0.6766
B(  2-C ,  3-C ) :   1.0957 B(  2-C ,  9-H ) :   0.6813 B(  3-C ,  4-C ) :   1.2762
B(  3-C , 10-H ) :   0.6813 B(  4-C ,  5-C ) :   1.2623 B(  4-C ,  6-F ) :   0.1238
B(  4-C , 11-H ) :   0.6766 B(  5-C ,  6-F ) :   0.4471 B(  6-F , 11-H ) :   0.1205
B(  7-F ,  8-H ) :   0.1205

MP2 TOTAL ENERGY:     -430.013373256 Eh
FINAL SINGLE POINT ENERGY      -430.013373255516

DIPOLE MOMENT
-------------
                                X             Y             Z
Electronic contribution:      0.00000      -0.00000      -8.56327
Nuclear contribution   :      0.00000       0.00000       9.75322
                        -----------------------------------------
Total Dipole Moment    :      0.00000      -0.00000       1.18995
                        -----------------------------------------
Magnitude (a.u.)       :      1.18995
Magnitude (Debye)      :      3.02461

Rotational constants in cm-1:     0.108997     0.074422     0.044225
Rotational constants in MHz :  3267.637147  2231.101732  1325.836898

                             ****ORCA TERMINATED NORMALLY****
TOTAL RUN TIME: 0 days 0 hours 3 minutes 28 seconds 992 msec
