                         Program Version 5.0.3 -  RELEASE  -
|  1> !ri-mp2 aug-cc-pvtz aug-cc-pvtz/c tightscf
|  2> %pal nprocs 16 end
|  3>
|  4> * xyz 0 1
|  5> O     -0.105885   -1.140297   -0.063377
|  6> O     -2.056550   -0.017889   -0.074554
|  7> N      1.295288   -0.679344    0.308891
|  8> N      1.383531    0.622036   -0.219008
|  9> C     -0.862295   -0.019042    0.010796
| 10> C      0.089800    1.168812    0.183518
| 11> H      1.867042   -1.302225   -0.257604
| 12> H      1.412350    0.590975   -1.239324
| 13> H     -0.209208    2.014166   -0.427950
| 14> H      0.112541    1.465110    1.233260
| 15> *
| 16>
| 17>                          ****END OF INPUT****

CARTESIAN COORDINATES (ANGSTROEM)
---------------------------------
  O     -0.105885   -1.140297   -0.063377
  O     -2.056550   -0.017889   -0.074554
  N      1.295288   -0.679344    0.308891
  N      1.383531    0.622036   -0.219008
  C     -0.862295   -0.019042    0.010796
  C      0.089800    1.168812    0.183518
  H      1.867042   -1.302225   -0.257604
  H      1.412350    0.590975   -1.239324
  H     -0.209208    2.014166   -0.427950
  H      0.112541    1.465110    1.233260

 Total Charge           Charge          ....    0
 Multiplicity           Mult            ....    1
 Number of Electrons    NEL             ....   46
 Basis Dimension        Dim             ....  368

ORBITAL ENERGIES
----------------

  NO   OCC          E(Eh)            E(eV)
   0   2.0000     -20.637019      -561.5618
   1   2.0000     -20.556065      -559.3590
   2   2.0000     -15.688780      -426.9134
   3   2.0000     -15.631288      -425.3490
   4   2.0000     -11.391170      -309.9695
   5   2.0000     -11.299801      -307.4832
   6   2.0000      -1.491003       -40.5723
   7   2.0000      -1.395274       -37.9673
   8   2.0000      -1.290441       -35.1147
   9   2.0000      -1.100464       -29.9451
  10   2.0000      -0.943926       -25.6855
  11   2.0000      -0.814128       -22.1535
  12   2.0000      -0.771339       -20.9892
  13   2.0000      -0.722877       -19.6705
  14   2.0000      -0.665865       -18.1191
  15   2.0000      -0.647968       -17.6321
  16   2.0000      -0.627873       -17.0853
  17   2.0000      -0.597816       -16.2674
  18   2.0000      -0.571806       -15.5596
  19   2.0000      -0.534043       -14.5320
  20   2.0000      -0.489458       -13.3188
  21   2.0000      -0.449191       -12.2231
  22   2.0000      -0.417507       -11.3609
  23   0.0000       0.020889         0.5684
  24   0.0000       0.034562         0.9405
  25   0.0000       0.039124         1.0646
  26   0.0000       0.055375         1.5068
  27   0.0000       0.068023         1.8510

MULLIKEN ATOMIC CHARGES
-----------------------
   0 O :   -0.379388
   1 O :   -0.653564
   2 N :   -0.086410
   3 N :   -0.245712
   4 C :    0.456760
   5 C :   -0.025348
   6 H :    0.177424
   7 H :    0.110290
   8 H :    0.343746
   9 H :    0.302202
Sum of atomic charges:   -0.0000000

LOEWDIN ATOMIC CHARGES
----------------------
   0 O :    0.473018
   1 O :    0.413191
   2 N :    0.323894
   3 N :    0.418651
   4 C :   -0.845370
   5 C :    0.164351
   6 H :   -0.339466
   7 H :   -0.307641
   8 H :   -0.150842
   9 H :   -0.149786

  Mayer bond orders larger than 0.100000
B(  0-O ,  2-N ) :   0.7371 B(  0-O ,  4-C ) :   1.0254 B(  1-O ,  4-C ) :   1.5823
B(  2-N ,  3-N ) :   0.8211 B(  2-N ,  6-H ) :   0.9008 B(  3-N ,  5-C ) :   0.7997
B(  3-N ,  7-H ) :   0.9087 B(  4-C ,  5-C ) :   0.7356 B(  5-C ,  8-H ) :   0.8862
B(  5-C ,  9-H ) :   0.9040

MP2 TOTAL ENERGY:     -337.942906407 Eh
FINAL SINGLE POINT ENERGY      -337.942906407402

DIPOLE MOMENT
-------------
                                X             Y             Z
Electronic contribution:     -1.71186      -2.14426       0.07909
Nuclear contribution   :      3.10419       2.69715      -0.68008
                        -----------------------------------------
Total Dipole Moment    :      1.39233       0.55289      -0.60099
                        -----------------------------------------
Magnitude (a.u.)       :      1.61414
Magnitude (Debye)      :      4.10282

Rotational constants in cm-1:     0.266913     0.121643     0.088712
Rotational constants in MHz :  8001.847366  3646.760499  2659.514643

                             ****ORCA TERMINATED NORMALLY****
TOTAL RUN TIME: 0 days 0 hours 1 minutes 45 seconds 404 msec
