                         Program Version 5.0.3 -  RELEASE  -
|  1> !ri-mp2 aug-cc-pvtz aug-cc-pvtz/c tightscf
|  2> %pal nprocs 16 end
|  3>
|  4> * xyz 0 1
|  5> C     0.000000     0.693498    1.952555
|  6> C     0.000000    -0.693498    1.952555
|  7> C     0.000000     1.377876    0.743109
|  8> C     0.000000    -1.377876    0.743109
|  9> C     0.000000     0.703110   -0.476273
| 10> C     0.000000    -0.703110   -0.476273
| 11> C     0.000000     1.477433   -1.768050
| 12> C     0.000000    -1.477433   -1.768050
| 13> H     0.000000     1.241957    2.885153
| 14> H     0.000000    -1.241957    2.885153
| 15> H     0.000000     2.461031    0.743277
| 16> H     0.000000    -2.461031    0.743277
| 17> H     0.876446     1.245249   -2.378000
| 18> H    -0.876446     1.245249   -2.378000
| 19> H     0.000000     2.550074   -1.580471
| 20> H     0.876446    -1.245249   -2.378000
| 21> H     0.000000    -2.550074   -1.580471
| 22> H    -0.876446    -1.245249   -2.378000
| 23> *
| 24>
| 25>                          ****END OF INPUT****

CARTESIAN COORDINATES (ANGSTROEM)
---------------------------------
  C      0.000000    0.693498    1.952555
  C      0.000000   -0.693498    1.952555
  C      0.000000    1.377876    0.743109
  C      0.000000   -1.377876    0.743109
  C      0.000000    0.703110   -0.476273
  C      0.000000   -0.703110   -0.476273
  C      0.000000    1.477433   -1.768050
  C      0.000000   -1.477433   -1.768050
  H      0.000000    1.241957    2.885153
  H      0.000000   -1.241957    2.885153
  H      0.000000    2.461031    0.743277
  H      0.000000   -2.461031    0.743277
  H      0.876446    1.245249   -2.378000
  H     -0.876446    1.245249   -2.378000
  H      0.000000    2.550074   -1.580471
  H      0.876446   -1.245249   -2.378000
  H      0.000000   -2.550074   -1.580471
  H     -0.876446   -1.245249   -2.378000

 Total Charge           Charge          ....    0
 Multiplicity           Mult            ....    1
 Number of Electrons    NEL             ....   58
 Basis Dimension        Dim             ....  598

ORBITAL ENERGIES
----------------

  NO   OCC          E(Eh)            E(eV)
   0   2.0000     -11.235733      -305.7398
   1   2.0000     -11.234580      -305.7085
   2   2.0000     -11.226360      -305.4848
   3   2.0000     -11.225583      -305.4636
   4   2.0000     -11.224770      -305.4415
   5   2.0000     -11.224296      -305.4286
   6   2.0000     -11.221727      -305.3587
   7   2.0000     -11.221721      -305.3585
   8   2.0000      -1.155275       -31.4366
   9   2.0000      -1.049750       -28.5651
  10   2.0000      -1.031908       -28.0796
  11   2.0000      -0.947779       -25.7904
  12   2.0000      -0.915506       -24.9122
  13   2.0000      -0.811663       -22.0865
  14   2.0000      -0.784116       -21.3369
  15   2.0000      -0.678186       -18.4544
  16   2.0000      -0.645110       -17.5543
  17   2.0000      -0.619529       -16.8583
  18   2.0000      -0.591846       -16.1049
  19   2.0000      -0.572468       -15.5777
  20   2.0000      -0.558644       -15.2015
  21   2.0000      -0.550404       -14.9773
  22   2.0000      -0.539104       -14.6698
  23   2.0000      -0.537965       -14.6388
  24   2.0000      -0.480831       -13.0841
  25   2.0000      -0.478955       -13.0330
  26   2.0000      -0.476935       -12.9781
  27   2.0000      -0.327869        -8.9218
  28   2.0000      -0.317076        -8.6281
  29   0.0000       0.030114         0.8194
  30   0.0000       0.032849         0.8939
  31   0.0000       0.033021         0.8985
  32   0.0000       0.044525         1.2116
  33   0.0000       0.047025         1.2796

MULLIKEN ATOMIC CHARGES
-----------------------
   0 C :   -0.255655
   1 C :   -0.255655
   2 C :   -1.020247
   3 C :   -1.020247
   4 C :    0.918011
   5 C :    0.918011
   6 C :   -0.872606
   7 C :   -0.872606
   8 H :    0.576741
   9 H :    0.576741
  10 H :   -0.077626
  11 H :   -0.077626
  12 H :    0.257681
  13 H :    0.257681
  14 H :    0.216020
  15 H :    0.257681
  16 H :    0.216020
  17 H :    0.257681
Sum of atomic charges:    0.0000000

LOEWDIN ATOMIC CHARGES
----------------------
   0 C :    0.193949
   1 C :    0.193949
   2 C :    0.210539
   3 C :    0.210539
   4 C :   -0.098417
   5 C :   -0.098417
   6 C :    0.576225
   7 C :    0.576225
   8 H :   -0.186819
   9 H :   -0.186819
  10 H :   -0.184090
  11 H :   -0.184090
  12 H :   -0.166151
  13 H :   -0.166151
  14 H :   -0.179085
  15 H :   -0.166151
  16 H :   -0.179085
  17 H :   -0.166151

  Mayer bond orders larger than 0.100000
B(  0-C ,  1-C ) :   0.9933 B(  0-C ,  2-C ) :   0.9206 B(  0-C ,  3-C ) :  -0.1317
B(  0-C ,  4-C ) :   0.1308 B(  0-C ,  7-C ) :   0.1284 B(  0-C ,  8-H ) :   0.6696
B(  0-C , 10-H ) :  -0.1302 B(  1-C ,  2-C ) :  -0.1317 B(  1-C ,  3-C ) :   0.9206
B(  1-C ,  5-C ) :   0.1308 B(  1-C ,  6-C ) :   0.1284 B(  1-C ,  9-H ) :   0.6696
B(  1-C , 11-H ) :  -0.1302 B(  2-C ,  3-C ) :   0.1571 B(  2-C ,  4-C ) :   0.6154
B(  2-C ,  8-H ) :  -0.1751 B(  2-C , 10-H ) :   1.7815 B(  3-C ,  5-C ) :   0.6154
B(  3-C ,  9-H ) :  -0.1751 B(  3-C , 11-H ) :   1.7815 B(  4-C ,  5-C ) :   1.2128
B(  4-C ,  6-C ) :   0.2560 B(  4-C ,  7-C ) :   0.1832 B(  4-C , 12-H ) :  -0.1001
B(  4-C , 13-H ) :  -0.1001 B(  5-C ,  6-C ) :   0.1832 B(  5-C ,  7-C ) :   0.2560
B(  5-C , 15-H ) :  -0.1001 B(  5-C , 17-H ) :  -0.1001 B(  6-C , 12-H ) :   1.0165
B(  6-C , 13-H ) :   1.0165 B(  6-C , 14-H ) :   1.0494 B(  7-C , 15-H ) :   1.0165
B(  7-C , 16-H ) :   1.0494 B(  7-C , 17-H ) :   1.0165

MP2 TOTAL ENERGY:     -310.204723750 Eh
FINAL SINGLE POINT ENERGY      -310.204723750391

DIPOLE MOMENT
-------------
                                X             Y             Z
Electronic contribution:     -0.00000       0.00000       5.29825
Nuclear contribution   :      0.00000       0.00000      -5.55689
                        -----------------------------------------
Total Dipole Moment    :     -0.00000       0.00000      -0.25865
                        -----------------------------------------
Magnitude (a.u.)       :      0.25865
Magnitude (Debye)      :      0.65743

Rotational constants in cm-1:     0.105856     0.072058     0.043560
Rotational constants in MHz :  3173.497603  2160.240407  1305.885012

                             ****ORCA TERMINATED NORMALLY****
TOTAL RUN TIME: 0 days 0 hours 8 minutes 16 seconds 413 msec
