                         Program Version 5.0.3 -  RELEASE  -
|  1> !ri-mp2 aug-cc-pvtz aug-cc-pvtz/c tightscf
|  2> %pal nprocs 16 end
|  3>
|  4> * xyz 0 1
|  5> C      0.331694    0.699305   -0.000060
|  6> C     -0.331694   -0.699305   -0.000060
|  7> O     -0.331694    1.722137   -0.000002
|  8> O      0.331694   -1.722137   -0.000002
|  9> N      1.672475    0.623238   -0.000051
| 10> N     -1.672475   -0.623238   -0.000051
| 11> H      2.224941    1.462119    0.000258
| 12> H      2.104637   -0.286302    0.000475
| 13> H     -2.224941   -1.462119    0.000258
| 14> H     -2.104637    0.286302    0.000475
| 15> *
| 16>
| 17>                          ****END OF INPUT****

CARTESIAN COORDINATES (ANGSTROEM)
---------------------------------
  C      0.331694    0.699305   -0.000060
  C     -0.331694   -0.699305   -0.000060
  O     -0.331694    1.722137   -0.000002
  O      0.331694   -1.722137   -0.000002
  N      1.672475    0.623238   -0.000051
  N     -1.672475   -0.623238   -0.000051
  H      2.224941    1.462119    0.000258
  H      2.104637   -0.286302    0.000475
  H     -2.224941   -1.462119    0.000258
  H     -2.104637    0.286302    0.000475

 Total Charge           Charge          ....    0
 Multiplicity           Mult            ....    1
 Number of Electrons    NEL             ....   46
 Basis Dimension        Dim             ....  368

ORBITAL ENERGIES
----------------

  NO   OCC          E(Eh)            E(eV)
   0   2.0000     -20.548759      -559.1602
   1   2.0000     -20.548759      -559.1601
   2   2.0000     -15.602178      -424.5568
   3   2.0000     -15.602177      -424.5568
   4   2.0000     -11.377669      -309.6021
   5   2.0000     -11.377119      -309.5871
   6   2.0000      -1.422178       -38.6994
   7   2.0000      -1.393328       -37.9144
   8   2.0000      -1.241211       -33.7751
   9   2.0000      -1.229029       -33.4436
  10   2.0000      -0.925067       -25.1723
  11   2.0000      -0.806222       -21.9384
  12   2.0000      -0.777055       -21.1447
  13   2.0000      -0.732949       -19.9445
  14   2.0000      -0.673498       -18.3268
  15   2.0000      -0.665413       -18.1068
  16   2.0000      -0.625845       -17.0301
  17   2.0000      -0.608595       -16.5607
  18   2.0000      -0.558167       -15.1885
  19   2.0000      -0.515126       -14.0173
  20   2.0000      -0.443393       -12.0653
  21   2.0000      -0.426152       -11.5962
  22   2.0000      -0.424483       -11.5508
  23   0.0000       0.026120         0.7107
  24   0.0000       0.029985         0.8159
  25   0.0000       0.048814         1.3283
  26   0.0000       0.058202         1.5837
  27   0.0000       0.085152         2.3171

MULLIKEN ATOMIC CHARGES
-----------------------
   0 C :    0.687743
   1 C :    0.687743
   2 O :   -0.738484
   3 O :   -0.738484
   4 N :   -0.281451
   5 N :   -0.281451
   6 H :    0.148727
   7 H :    0.183465
   8 H :    0.148727
   9 H :    0.183465
Sum of atomic charges:   -0.0000000

LOEWDIN ATOMIC CHARGES
----------------------
   0 C :   -0.665038
   1 C :   -0.665038
   2 O :    0.433482
   3 O :    0.433482
   4 N :    0.845840
   5 N :    0.845840
   6 H :   -0.279462
   7 H :   -0.334823
   8 H :   -0.279462
   9 H :   -0.334823

  Mayer bond orders larger than 0.100000
B(  0-C ,  1-C ) :   0.8318 B(  0-C ,  2-O ) :   1.4160 B(  0-C ,  4-N ) :   0.9941
B(  1-C ,  3-O ) :   1.4160 B(  1-C ,  5-N ) :   0.9941 B(  4-N ,  6-H ) :   1.0469
B(  4-N ,  7-H ) :   1.0218 B(  5-N ,  8-H ) :   1.0469 B(  5-N ,  9-H ) :   1.0218

MP2 TOTAL ENERGY:     -338.076285879 Eh
FINAL SINGLE POINT ENERGY      -338.076285879131

DIPOLE MOMENT
-------------
                                X             Y             Z
Electronic contribution:      0.00000       0.00000      -0.00051
Nuclear contribution   :     -0.00000      -0.00000       0.00144
                        -----------------------------------------
Total Dipole Moment    :      0.00000       0.00000       0.00093
                        -----------------------------------------
Magnitude (a.u.)       :      0.00093
Magnitude (Debye)      :      0.00236

Rotational constants in cm-1:     0.189437     0.123547     0.074778
Rotational constants in MHz :  5679.192346  3703.843326  2241.794611

                             ****ORCA TERMINATED NORMALLY****
TOTAL RUN TIME: 0 days 0 hours 1 minutes 38 seconds 280 msec
