                         Program Version 5.0.3 -  RELEASE  -
|  1> !ri-mp2 aug-cc-pvtz aug-cc-pvtz/c tightscf
|  2> %pal nprocs 16 end
|  3> %maxcore 3800
|  4>
|  5> * xyz 0 1
|  6> C      2.934682    0.194779   -0.004319
|  7> C      4.206745   -0.627668    0.015541
|  8> C     -4.735634    0.345804    0.007764
|  9> C      1.629987   -0.583788   -0.011871
| 10> C     -3.474297   -0.516071   -0.008273
| 11> C      0.371967    0.276168    0.007321
| 12> C     -2.183074    0.302813    0.008272
| 13> C     -0.914399   -0.550257   -0.008442
| 14> O      2.963972    1.405012   -0.011805
| 15> H      5.073473    0.025936   -0.034823
| 16> H      4.252724   -1.223691    0.929740
| 17> H      4.223317   -1.329172   -0.820869
| 18> H     -4.771299    1.007919   -0.859773
| 19> H     -4.773151    0.972598    0.901088
| 20> H     -5.638271   -0.266633   -0.005463
| 21> H      1.647676   -1.270090    0.842461
| 22> H      1.642249   -1.235279   -0.893437
| 23> H     -3.483287   -1.191182    0.852863
| 24> H     -3.482233   -1.157183   -0.895044
| 25> H      0.388911    0.953592   -0.849010
| 26> H      0.390148    0.917782    0.891046
| 27> H     -2.174223    0.979058   -0.852885
| 28> H     -2.174641    0.944692    0.895375
| 29> H     -0.924559   -1.192399   -0.895918
| 30> H     -0.924462   -1.226723    0.853135
| 31> *
| 32>
| 33>                          ****END OF INPUT****

CARTESIAN COORDINATES (ANGSTROEM)
---------------------------------
  C      2.934682    0.194779   -0.004319
  C      4.206745   -0.627668    0.015541
  C     -4.735634    0.345804    0.007764
  C      1.629987   -0.583788   -0.011871
  C     -3.474297   -0.516071   -0.008273
  C      0.371967    0.276168    0.007321
  C     -2.183074    0.302813    0.008272
  C     -0.914399   -0.550257   -0.008442
  O      2.963972    1.405012   -0.011805
  H      5.073473    0.025936   -0.034823
  H      4.252724   -1.223691    0.929740
  H      4.223317   -1.329172   -0.820869
  H     -4.771299    1.007919   -0.859773
  H     -4.773151    0.972598    0.901088
  H     -5.638271   -0.266633   -0.005463
  H      1.647676   -1.270090    0.842461
  H      1.642249   -1.235279   -0.893437
  H     -3.483287   -1.191182    0.852863
  H     -3.482233   -1.157183   -0.895044
  H      0.388911    0.953592   -0.849010
  H      0.390148    0.917782    0.891046
  H     -2.174223    0.979058   -0.852885
  H     -2.174641    0.944692    0.895375
  H     -0.924559   -1.192399   -0.895918
  H     -0.924462   -1.226723    0.853135

 Total Charge           Charge          ....    0
 Multiplicity           Mult            ....    1
 Number of Electrons    NEL             ....   72
 Basis Dimension        Dim             ....  782

ORBITAL ENERGIES
----------------

  NO   OCC          E(Eh)            E(eV)
   0   2.0000     -20.542820      -558.9986
   1   2.0000     -11.328072      -308.2525
   2   2.0000     -11.235996      -305.7470
   3   2.0000     -11.232857      -305.6616
   4   2.0000     -11.219131      -305.2881
   5   2.0000     -11.218522      -305.2715
   6   2.0000     -11.216975      -305.2294
   7   2.0000     -11.215057      -305.1772
   8   2.0000     -11.210094      -305.0422
   9   2.0000      -1.385220       -37.6937
  10   2.0000      -1.093660       -29.7600
  11   2.0000      -1.056760       -28.7559
  12   2.0000      -1.015149       -27.6236
  13   2.0000      -0.968899       -26.3651
  14   2.0000      -0.890429       -24.2298
  15   2.0000      -0.813528       -22.1372
  16   2.0000      -0.789085       -21.4721
  17   2.0000      -0.731925       -19.9167
  18   2.0000      -0.660224       -17.9656
  19   2.0000      -0.650339       -17.6966
  20   2.0000      -0.630408       -17.1543
  21   2.0000      -0.624264       -16.9871
  22   2.0000      -0.594442       -16.1756
  23   2.0000      -0.584042       -15.8926
  24   2.0000      -0.566951       -15.4275
  25   2.0000      -0.558165       -15.1884
  26   2.0000      -0.540583       -14.7100
  27   2.0000      -0.527439       -14.3523
  28   2.0000      -0.510701       -13.8969
  29   2.0000      -0.489978       -13.3330
  30   2.0000      -0.486410       -13.2359
  31   2.0000      -0.471987       -12.8434
  32   2.0000      -0.463802       -12.6207
  33   2.0000      -0.461481       -12.5575
  34   2.0000      -0.454148       -12.3580
  35   2.0000      -0.405864       -11.0441
  36   0.0000       0.025513         0.6943
  37   0.0000       0.030061         0.8180
  38   0.0000       0.035508         0.9662
  39   0.0000       0.037213         1.0126
  40   0.0000       0.042609         1.1594

MULLIKEN ATOMIC CHARGES
-----------------------
   0 C :    0.463379
   1 C :   -0.898603
   2 C :   -1.003073
   3 C :   -0.288285
   4 C :   -0.512727
   5 C :   -0.320732
   6 C :   -0.304307
   7 C :   -0.308717
   8 O :   -0.868835
   9 H :    0.313606
  10 H :    0.309745
  11 H :    0.307498
  12 H :    0.259391
  13 H :    0.259389
  14 H :    0.278667
  15 H :    0.222882
  16 H :    0.223583
  17 H :    0.221561
  18 H :    0.221477
  19 H :    0.225950
  20 H :    0.223594
  21 H :    0.244348
  22 H :    0.245531
  23 H :    0.242266
  24 H :    0.242409
Sum of atomic charges:   -0.0000000

LOEWDIN ATOMIC CHARGES
----------------------
   0 C :   -0.508191
   1 C :    0.589237
   2 C :    0.578416
   3 C :    0.273692
   4 C :    0.256538
   5 C :    0.268641
   6 C :    0.271442
   7 C :    0.276844
   8 O :    0.474482
   9 H :   -0.182992
  10 H :   -0.172680
  11 H :   -0.174110
  12 H :   -0.171455
  13 H :   -0.171442
  14 H :   -0.174251
  15 H :   -0.145906
  16 H :   -0.145828
  17 H :   -0.148334
  18 H :   -0.148324
  19 H :   -0.142483
  20 H :   -0.141385
  21 H :   -0.140416
  22 H :   -0.140359
  23 H :   -0.140595
  24 H :   -0.140540

  Mayer bond orders larger than 0.100000
B(  0-C ,  1-C ) :   0.9516 B(  0-C ,  3-C ) :   0.7728 B(  0-C ,  8-O ) :   1.1726
B(  1-C ,  9-H ) :   0.9457 B(  1-C , 10-H ) :   0.9361 B(  1-C , 11-H ) :   0.9418
B(  2-C ,  4-C ) :   0.9367 B(  2-C , 12-H ) :   0.9732 B(  2-C , 13-H ) :   0.9733
B(  2-C , 14-H ) :   0.9862 B(  3-C ,  5-C ) :   1.0260 B(  3-C , 15-H ) :   0.9681
B(  3-C , 16-H ) :   0.9648 B(  4-C ,  6-C ) :   0.9144 B(  4-C , 17-H ) :   0.9767
B(  4-C , 18-H ) :   0.9766 B(  5-C ,  7-C ) :   0.9259 B(  5-C , 19-H ) :   0.9702
B(  5-C , 20-H ) :   0.9685 B(  6-C ,  7-C ) :   0.9486 B(  6-C , 21-H ) :   0.9521
B(  6-C , 22-H ) :   0.9519 B(  7-C , 23-H ) :   0.9493 B(  7-C , 24-H ) :   0.9474

MP2 TOTAL ENERGY:     -388.915046476 Eh
FINAL SINGLE POINT ENERGY      -388.915046476154

DIPOLE MOMENT
-------------
                                X             Y             Z
Electronic contribution:     11.15862       3.25457      -0.05207
Nuclear contribution   :    -11.26456      -4.50188       0.06148
                        -----------------------------------------
Total Dipole Moment    :     -0.10594      -1.24732       0.00941
                        -----------------------------------------
Magnitude (a.u.)       :      1.25184
Magnitude (Debye)      :      3.18193

Rotational constants in cm-1:     0.212149     0.014489     0.013803
Rotational constants in MHz :  6360.062841   434.372864   413.792742

                             ****ORCA TERMINATED NORMALLY****
TOTAL RUN TIME: 0 days 0 hours 15 minutes 54 seconds 83 msec
