                         Program Version 5.0.3 -  RELEASE  -
|  1> !ri-mp2 aug-cc-pvtz aug-cc-pvtz/c tightscf
|  2> %pal nprocs 16 end
|  3>
|  4> * xyz 0 1
|  5> C     -1.885447   -0.818106    0.007501
|  6> C     -1.975051    0.568350   -0.000697
|  7> C     -0.628773   -1.412605    0.008802
|  8> C     -0.822932    1.340246   -0.004708
|  9> C      0.543272   -0.661462    0.000704
| 10> C      0.440882    0.742403   -0.003804
| 11> C      1.892340   -1.326342   -0.010307
| 12> N      1.590034    1.533681   -0.069114
| 13> H     -2.777856   -1.428093    0.012258
| 14> H     -2.942118    1.053384   -0.001815
| 15> H     -0.550201   -2.492945    0.013468
| 16> H     -0.896228    2.421222   -0.012731
| 17> H      2.483420   -1.022758   -0.878512
| 18> H      2.479480   -1.078545    0.880504
| 19> H      1.791171   -2.409860   -0.037583
| 20> H      2.429428    1.133051    0.315391
| 21> H      1.466926    2.493869    0.207873
| 22> *
| 23>
| 24>                          ****END OF INPUT****

CARTESIAN COORDINATES (ANGSTROEM)
---------------------------------
  C     -1.885447   -0.818106    0.007501
  C     -1.975051    0.568350   -0.000697
  C     -0.628773   -1.412605    0.008802
  C     -0.822932    1.340246   -0.004708
  C      0.543272   -0.661462    0.000704
  C      0.440882    0.742403   -0.003804
  C      1.892340   -1.326342   -0.010307
  N      1.590034    1.533681   -0.069114
  H     -2.777856   -1.428093    0.012258
  H     -2.942118    1.053384   -0.001815
  H     -0.550201   -2.492945    0.013468
  H     -0.896228    2.421222   -0.012731
  H      2.483420   -1.022758   -0.878512
  H      2.479480   -1.078545    0.880504
  H      1.791171   -2.409860   -0.037583
  H      2.429428    1.133051    0.315391
  H      1.466926    2.493869    0.207873

 Total Charge           Charge          ....    0
 Multiplicity           Mult            ....    1
 Number of Electrons    NEL             ....   58
 Basis Dimension        Dim             ....  575

ORBITAL ENERGIES
----------------

  NO   OCC          E(Eh)            E(eV)
   0   2.0000     -15.563550      -423.5057
   1   2.0000     -11.272477      -306.7397
   2   2.0000     -11.229157      -305.5609
   3   2.0000     -11.227879      -305.5261
   4   2.0000     -11.226947      -305.5008
   5   2.0000     -11.224221      -305.4266
   6   2.0000     -11.219766      -305.3054
   7   2.0000     -11.214901      -305.1730
   8   2.0000      -1.224788       -33.3282
   9   2.0000      -1.127214       -30.6730
  10   2.0000      -1.041438       -28.3390
  11   2.0000      -0.987700       -26.8767
  12   2.0000      -0.929401       -25.2903
  13   2.0000      -0.822865       -22.3913
  14   2.0000      -0.796340       -21.6695
  15   2.0000      -0.696835       -18.9618
  16   2.0000      -0.690576       -18.7915
  17   2.0000      -0.642779       -17.4909
  18   2.0000      -0.602695       -16.4002
  19   2.0000      -0.590632       -16.0719
  20   2.0000      -0.580740       -15.8027
  21   2.0000      -0.565891       -15.3987
  22   2.0000      -0.542685       -14.7672
  23   2.0000      -0.515520       -14.0280
  24   2.0000      -0.494534       -13.4569
  25   2.0000      -0.481433       -13.1004
  26   2.0000      -0.446032       -12.1372
  27   2.0000      -0.327563        -8.9134
  28   2.0000      -0.289252        -7.8709
  29   0.0000       0.026814         0.7297
  30   0.0000       0.032351         0.8803
  31   0.0000       0.034534         0.9397
  32   0.0000       0.045926         1.2497
  33   0.0000       0.046979         1.2784

MULLIKEN ATOMIC CHARGES
-----------------------
   0 C :   -0.521219
   1 C :   -0.271748
   2 C :   -0.887154
   3 C :   -0.908690
   4 C :    1.159118
   5 C :    0.662175
   6 C :   -0.922289
   7 N :   -0.718903
   8 H :    0.696116
   9 H :    0.316168
  10 H :   -0.039695
  11 H :    0.549706
  12 H :    0.264899
  13 H :    0.243321
  14 H :    0.248421
  15 H :    0.098799
  16 H :    0.030976
Sum of atomic charges:    0.0000000

LOEWDIN ATOMIC CHARGES
----------------------
   0 C :    0.187504
   1 C :    0.180585
   2 C :    0.200887
   3 C :    0.213574
   4 C :   -0.094653
   5 C :   -0.222446
   6 C :    0.568693
   7 N :    0.859973
   8 H :   -0.194711
   9 H :   -0.185145
  10 H :   -0.181706
  11 H :   -0.185636
  12 H :   -0.164281
  13 H :   -0.166836
  14 H :   -0.178533
  15 H :   -0.329898
  16 H :   -0.307372

  Mayer bond orders larger than 0.100000
B(  0-C ,  1-C ) :   1.1136 B(  0-C ,  2-C ) :   1.1132 B(  0-C ,  3-C ) :   0.1795
B(  0-C ,  4-C ) :   0.1958 B(  0-C ,  5-C ) :   0.1399 B(  0-C ,  8-H ) :   0.3871
B(  0-C ,  9-H ) :  -0.1202 B(  1-C ,  2-C ) :  -0.2302 B(  1-C ,  3-C ) :   1.1870
B(  1-C ,  5-C ) :  -0.2495 B(  1-C ,  9-H ) :   1.0082 B(  2-C ,  4-C ) :   0.6290
B(  2-C ,  5-C ) :  -0.3515 B(  2-C ,  8-H ) :  -0.1154 B(  2-C ,  9-H ) :   0.1181
B(  2-C , 10-H ) :   1.7285 B(  3-C ,  4-C ) :   0.3089 B(  3-C ,  5-C ) :   1.0559
B(  3-C ,  7-N ) :  -0.1718 B(  3-C ,  9-H ) :  -0.1123 B(  3-C , 11-H ) :   0.5145
B(  4-C ,  5-C ) :   1.1365 B(  4-C ,  6-C ) :   0.2198 B(  4-C ,  7-N ) :  -0.2278
B(  4-C , 10-H ) :  -0.1966 B(  5-C ,  6-C ) :   0.2943 B(  5-C ,  7-N ) :   0.5277
B(  5-C , 10-H ) :   0.1035 B(  5-C , 11-H ) :   0.1007 B(  6-C , 12-H ) :   0.9898
B(  6-C , 13-H ) :   0.9863 B(  6-C , 14-H ) :   1.0628 B(  7-N , 15-H ) :   1.0807
B(  7-N , 16-H ) :   1.1336 B(  8-H , 10-H ) :  -0.1131 B(  9-H , 10-H ) :   0.1002

MP2 TOTAL ENERGY:     -326.246903017 Eh
FINAL SINGLE POINT ENERGY      -326.246903016962

DIPOLE MOMENT
-------------
                                X             Y             Z
Electronic contribution:     -3.10305       1.53728      -0.15192
Nuclear contribution   :      3.55113      -1.34353       0.50669
                        -----------------------------------------
Total Dipole Moment    :      0.44808       0.19375       0.35477
                        -----------------------------------------
Magnitude (a.u.)       :      0.60347
Magnitude (Debye)      :      1.53390

Rotational constants in cm-1:     0.108041     0.073325     0.044083
Rotational constants in MHz :  3238.984698  2198.213545  1321.579237

                             ****ORCA TERMINATED NORMALLY****
TOTAL RUN TIME: 0 days 0 hours 7 minutes 17 seconds 80 msec
