                         Program Version 5.0.3 -  RELEASE  -
|  1> !ri-mp2 aug-cc-pvtz aug-cc-pvtz/c tightscf
|  2> %pal nprocs 16 end
|  3> %maxcore 3800
|  4>
|  5> * xyz 0 1
|  6> C      3.802531    1.530625    0.000000
|  7> C     -4.637584   -1.541445    0.000000
|  8> C      2.306092    1.687856    0.000000
|  9> C     -3.126767   -1.767415    0.000000
| 10> C      1.512129    0.387412    0.000000
| 11> C     -2.319569   -0.468725    0.000000
| 12> C      0.000000    0.612534    0.000000
| 13> C     -0.806536   -0.686509    0.000000
| 14> O      4.392118    0.479692    0.000000
| 15> H      4.367576    2.486731    0.000000
| 16> H     -4.952565   -0.978042    0.880795
| 17> H     -5.181814   -2.486837    0.000000
| 18> H     -4.952565   -0.978042   -0.880795
| 19> H      2.054742    2.311831   -0.867367
| 20> H      2.054742    2.311831    0.867367
| 21> H     -2.848014   -2.363887   -0.873950
| 22> H     -2.848014   -2.363887    0.873950
| 23> H      1.799348   -0.206318    0.870716
| 24> H      1.799348   -0.206318   -0.870716
| 25> H     -2.599270    0.128270   -0.874711
| 26> H     -2.599270    0.128270    0.874711
| 27> H     -0.279114    1.209821    0.874730
| 28> H     -0.279114    1.209821   -0.874730
| 29> H     -0.527370   -1.283394   -0.874398
| 30> H     -0.527370   -1.283394    0.874398
| 31> *
| 32>
| 33>                          ****END OF INPUT****

CARTESIAN COORDINATES (ANGSTROEM)
---------------------------------
  C      3.802531    1.530625    0.000000
  C     -4.637584   -1.541445    0.000000
  C      2.306092    1.687856    0.000000
  C     -3.126767   -1.767415    0.000000
  C      1.512129    0.387412    0.000000
  C     -2.319569   -0.468725    0.000000
  C      0.000000    0.612534    0.000000
  C     -0.806536   -0.686509    0.000000
  O      4.392118    0.479692    0.000000
  H      4.367576    2.486731    0.000000
  H     -4.952565   -0.978042    0.880795
  H     -5.181814   -2.486837    0.000000
  H     -4.952565   -0.978042   -0.880795
  H      2.054742    2.311831   -0.867367
  H      2.054742    2.311831    0.867367
  H     -2.848014   -2.363887   -0.873950
  H     -2.848014   -2.363887    0.873950
  H      1.799348   -0.206318    0.870716
  H      1.799348   -0.206318   -0.870716
  H     -2.599270    0.128270   -0.874711
  H     -2.599270    0.128270    0.874711
  H     -0.279114    1.209821    0.874730
  H     -0.279114    1.209821   -0.874730
  H     -0.527370   -1.283394   -0.874398
  H     -0.527370   -1.283394    0.874398

 Total Charge           Charge          ....    0
 Multiplicity           Mult            ....    1
 Number of Electrons    NEL             ....   72
 Basis Dimension        Dim             ....  782

ORBITAL ENERGIES
----------------

  NO   OCC          E(Eh)            E(eV)
   0   2.0000     -20.556537      -559.3718
   1   2.0000     -11.330835      -308.3277
   2   2.0000     -11.242105      -305.9132
   3   2.0000     -11.224312      -305.4291
   4   2.0000     -11.222189      -305.3713
   5   2.0000     -11.217690      -305.2489
   6   2.0000     -11.217350      -305.2396
   7   2.0000     -11.216270      -305.2102
   8   2.0000     -11.210972      -305.0661
   9   2.0000      -1.394385       -37.9432
  10   2.0000      -1.098828       -29.9006
  11   2.0000      -1.067139       -29.0383
  12   2.0000      -1.014866       -27.6159
  13   2.0000      -0.946489       -25.7553
  14   2.0000      -0.870944       -23.6996
  15   2.0000      -0.807953       -21.9855
  16   2.0000      -0.789940       -21.4954
  17   2.0000      -0.768386       -20.9088
  18   2.0000      -0.672966       -18.3123
  19   2.0000      -0.663607       -18.0577
  20   2.0000      -0.636077       -17.3085
  21   2.0000      -0.629317       -17.1246
  22   2.0000      -0.594027       -16.1643
  23   2.0000      -0.590551       -16.0697
  24   2.0000      -0.564963       -15.3734
  25   2.0000      -0.545808       -14.8522
  26   2.0000      -0.530616       -14.4388
  27   2.0000      -0.518754       -14.1160
  28   2.0000      -0.508312       -13.8319
  29   2.0000      -0.487597       -13.2682
  30   2.0000      -0.482813       -13.1380
  31   2.0000      -0.469855       -12.7854
  32   2.0000      -0.462968       -12.5980
  33   2.0000      -0.462156       -12.5759
  34   2.0000      -0.452278       -12.3071
  35   2.0000      -0.415104       -11.2956
  36   0.0000       0.026257         0.7145
  37   0.0000       0.029537         0.8037
  38   0.0000       0.035261         0.9595
  39   0.0000       0.036548         0.9945
  40   0.0000       0.041146         1.1197

MULLIKEN ATOMIC CHARGES
-----------------------
   0 C :   -0.229509
   1 C :   -1.003045
   2 C :   -0.339410
   3 C :   -0.508781
   4 C :   -0.243480
   5 C :   -0.317275
   6 C :   -0.276245
   7 C :   -0.370741
   8 O :   -0.757777
   9 H :    0.500454
  10 H :    0.260696
  11 H :    0.274086
  12 H :    0.260696
  13 H :    0.239950
  14 H :    0.239950
  15 H :    0.224334
  16 H :    0.224334
  17 H :    0.209931
  18 H :    0.209931
  19 H :    0.231522
  20 H :    0.231522
  21 H :    0.230470
  22 H :    0.230470
  23 H :    0.238959
  24 H :    0.238959
Sum of atomic charges:    0.0000000

LOEWDIN ATOMIC CHARGES
----------------------
   0 C :   -0.208434
   1 C :    0.578033
   2 C :    0.257312
   3 C :    0.257088
   4 C :    0.264807
   5 C :    0.269661
   6 C :    0.277032
   7 C :    0.279549
   8 O :    0.443545
   9 H :   -0.176993
  10 H :   -0.171736
  11 H :   -0.174127
  12 H :   -0.171736
  13 H :   -0.151611
  14 H :   -0.151611
  15 H :   -0.147760
  16 H :   -0.147760
  17 H :   -0.141918
  18 H :   -0.141918
  19 H :   -0.141560
  20 H :   -0.141560
  21 H :   -0.140307
  22 H :   -0.140307
  23 H :   -0.138845
  24 H :   -0.138845

  Mayer bond orders larger than 0.100000
B(  0-C ,  2-C ) :   0.7877 B(  0-C ,  4-C ) :  -0.1610 B(  0-C ,  8-O ) :   1.5737
B(  0-C ,  9-H ) :   0.7265 B(  1-C ,  3-C ) :   0.9289 B(  1-C , 10-H ) :   0.9722
B(  1-C , 11-H ) :   0.9922 B(  1-C , 12-H ) :   0.9722 B(  2-C ,  4-C ) :   1.0047
B(  2-C , 13-H ) :   0.9674 B(  2-C , 14-H ) :   0.9674 B(  3-C ,  5-C ) :   0.9130
B(  3-C , 15-H ) :   0.9759 B(  3-C , 16-H ) :   0.9759 B(  4-C ,  6-C ) :   0.9350
B(  4-C , 17-H ) :   0.9709 B(  4-C , 18-H ) :   0.9709 B(  5-C ,  7-C ) :   0.9797
B(  5-C , 19-H ) :   0.9603 B(  5-C , 20-H ) :   0.9603 B(  6-C ,  7-C ) :   0.9370
B(  6-C , 21-H ) :   0.9505 B(  6-C , 22-H ) :   0.9505 B(  7-C , 23-H ) :   0.9465
B(  7-C , 24-H ) :   0.9465

MP2 TOTAL ENERGY:     -388.904094280 Eh
FINAL SINGLE POINT ENERGY      -388.904094279939

DIPOLE MOMENT
-------------
                                X             Y             Z
Electronic contribution:     15.46096       3.34225       0.00000
Nuclear contribution   :    -16.29372      -2.48472       0.00000
                        -----------------------------------------
Total Dipole Moment    :     -0.83276       0.85753       0.00000
                        -----------------------------------------
Magnitude (a.u.)       :      1.19535
Magnitude (Debye)      :      3.03833

Rotational constants in cm-1:     0.254916     0.012904     0.012478
Rotational constants in MHz :  7642.185790   386.857801   374.091999

                             ****ORCA TERMINATED NORMALLY****
TOTAL RUN TIME: 0 days 0 hours 15 minutes 47 seconds 700 msec
