                         Program Version 5.0.3 -  RELEASE  -
|  1> !ri-mp2 aug-cc-pvtz aug-cc-pvtz/c tightscf
|  2> %pal nprocs 16 end
|  3>
|  4> * xyz 0 1
|  5> C      0.863078   -0.004934   -0.012038
|  6> C     -1.345484    0.742595    0.139382
|  7> C     -1.296433   -0.772693   -0.105039
|  8> N      0.032123    1.081398   -0.166734
|  9> O      2.061521   -0.022202    0.030559
| 10> O      0.084494   -1.127510    0.081246
| 11> H     -2.049443    1.241627   -0.524845
| 12> H     -1.609416    0.978619    1.174750
| 13> H     -1.897195   -1.346525    0.595247
| 14> H     -1.584158   -1.025162   -1.126673
| 15> H      0.420261    1.989541    0.020394
| 16> *
| 17>
| 18>                          ****END OF INPUT****

CARTESIAN COORDINATES (ANGSTROEM)
---------------------------------
  C      0.863078   -0.004934   -0.012038
  C     -1.345484    0.742595    0.139382
  C     -1.296433   -0.772693   -0.105039
  N      0.032123    1.081398   -0.166734
  O      2.061521   -0.022202    0.030559
  O      0.084494   -1.127510    0.081246
  H     -2.049443    1.241627   -0.524845
  H     -1.609416    0.978619    1.174750
  H     -1.897195   -1.346525    0.595247
  H     -1.584158   -1.025162   -1.126673
  H      0.420261    1.989541    0.020394

 Total Charge           Charge          ....    0
 Multiplicity           Mult            ....    1
 Number of Electrons    NEL             ....   46
 Basis Dimension        Dim             ....  391

ORBITAL ENERGIES
----------------

  NO   OCC          E(Eh)            E(eV)
   0   2.0000     -20.605851      -560.7137
   1   2.0000     -20.528912      -558.6201
   2   2.0000     -15.598815      -424.4653
   3   2.0000     -11.402307      -310.2725
   4   2.0000     -11.311658      -307.8059
   5   2.0000     -11.295083      -307.3548
   6   2.0000      -1.469589       -39.9895
   7   2.0000      -1.365562       -37.1588
   8   2.0000      -1.246575       -33.9210
   9   2.0000      -1.035064       -28.1655
  10   2.0000      -0.890229       -24.2244
  11   2.0000      -0.832361       -22.6497
  12   2.0000      -0.722990       -19.6736
  13   2.0000      -0.720733       -19.6121
  14   2.0000      -0.668418       -18.1886
  15   2.0000      -0.621892       -16.9226
  16   2.0000      -0.605363       -16.4728
  17   2.0000      -0.595802       -16.2126
  18   2.0000      -0.583642       -15.8817
  19   2.0000      -0.532562       -14.4918
  20   2.0000      -0.462254       -12.5786
  21   2.0000      -0.455745       -12.4015
  22   2.0000      -0.416739       -11.3400
  23   0.0000       0.020168         0.5488
  24   0.0000       0.032845         0.8937
  25   0.0000       0.034778         0.9464
  26   0.0000       0.044377         1.2076
  27   0.0000       0.055236         1.5031

MULLIKEN ATOMIC CHARGES
-----------------------
   0 C :    0.387082
   1 C :   -0.372410
   2 C :   -0.265337
   3 N :   -0.116688
   4 O :   -0.661982
   5 O :   -0.337220
   6 H :    0.329792
   7 H :    0.298060
   8 H :    0.340869
   9 H :    0.289501
  10 H :    0.108332
Sum of atomic charges:    0.0000000

LOEWDIN ATOMIC CHARGES
----------------------
   0 C :   -0.951849
   1 C :    0.205372
   2 C :    0.091200
   3 N :    0.546305
   4 O :    0.408190
   5 O :    0.575119
   6 H :   -0.146929
   7 H :   -0.143108
   8 H :   -0.155605
   9 H :   -0.151988
  10 H :   -0.276707

  Mayer bond orders larger than 0.100000
B(  0-C ,  3-N ) :   1.0573 B(  0-C ,  4-O ) :   1.6834 B(  0-C ,  5-O ) :   1.0479
B(  1-C ,  2-C ) :   0.9680 B(  1-C ,  3-N ) :   0.8281 B(  1-C ,  6-H ) :   0.9078
B(  1-C ,  7-H ) :   0.9221 B(  2-C ,  5-O ) :   0.7286 B(  2-C ,  8-H ) :   0.8894
B(  2-C ,  9-H ) :   0.9531 B(  3-N , 10-H ) :   1.0327

MP2 TOTAL ENERGY:     -322.004764005 Eh
FINAL SINGLE POINT ENERGY      -322.004764005494

DIPOLE MOMENT
-------------
                                X             Y             Z
Electronic contribution:      4.52160      -0.98675      -0.03988
Nuclear contribution   :     -6.63321       1.81192       0.13856
                        -----------------------------------------
Total Dipole Moment    :     -2.11161       0.82517       0.09868
                        -----------------------------------------
Magnitude (a.u.)       :      2.26926
Magnitude (Debye)      :      5.76800

Rotational constants in cm-1:     0.263172     0.124089     0.087998
Rotational constants in MHz :  7889.688132  3720.100699  2638.107895

                             ****ORCA TERMINATED NORMALLY****
TOTAL RUN TIME: 0 days 0 hours 2 minutes 0 seconds 393 msec
