                         Program Version 5.0.3 -  RELEASE  -
|  1> !ri-mp2 aug-cc-pvtz aug-cc-pvtz/c tightscf
|  2> %pal nprocs 16 end
|  3>
|  4> * xyz 0 1
|  5> C      0.136653   -2.474879        0.000000
|  6> C     -1.086113   -1.807655        0.000000
|  7> C      1.225830   -0.491905        0.000000
|  8> C      0.000000    0.176466        0.000000
|  9> C     -0.001608    1.673965        0.000000
| 10> N      1.295696   -1.820586        0.000000
| 11> N     -1.158456   -0.482162        0.000000
| 12> O      1.008915    2.334974        0.000000
| 13> O     -1.233924    2.207653        0.000000
| 14> H      0.179099   -3.557509        0.000000
| 15> H     -2.020706   -2.355520        0.000000
| 16> H      2.152353    0.065708        0.000000
| 17> H     -1.119931    3.169586        0.000000
| 18> *
| 19>
| 20>                          ****END OF INPUT****

CARTESIAN COORDINATES (ANGSTROEM)
---------------------------------
  C      0.136653   -2.474879    0.000000
  C     -1.086113   -1.807655    0.000000
  C      1.225830   -0.491905    0.000000
  C      0.000000    0.176466    0.000000
  C     -0.001608    1.673965    0.000000
  N      1.295696   -1.820586    0.000000
  N     -1.158456   -0.482162    0.000000
  O      1.008915    2.334974    0.000000
  O     -1.233924    2.207653    0.000000
  H      0.179099   -3.557509    0.000000
  H     -2.020706   -2.355520    0.000000
  H      2.152353    0.065708    0.000000
  H     -1.119931    3.169586    0.000000

 Total Charge           Charge          ....    0
 Multiplicity           Mult            ....    1
 Number of Electrons    NEL             ....   64
 Basis Dimension        Dim             ....  506

ORBITAL ENERGIES
----------------

  NO   OCC          E(Eh)            E(eV)
   0   2.0000     -20.622698      -561.1721
   1   2.0000     -20.562381      -559.5308
   2   2.0000     -15.613702      -424.8704
   3   2.0000     -15.605359      -424.6434
   4   2.0000     -11.404293      -310.3266
   5   2.0000     -11.307085      -307.6814
   6   2.0000     -11.304436      -307.6093
   7   2.0000     -11.302344      -307.5524
   8   2.0000     -11.297470      -307.4198
   9   2.0000      -1.479092       -40.2481
  10   2.0000      -1.375249       -37.4224
  11   2.0000      -1.329466       -36.1766
  12   2.0000      -1.240509       -33.7560
  13   2.0000      -1.084029       -29.4979
  14   2.0000      -0.951189       -25.8832
  15   2.0000      -0.917906       -24.9775
  16   2.0000      -0.847577       -23.0638
  17   2.0000      -0.750172       -20.4132
  18   2.0000      -0.736142       -20.0314
  19   2.0000      -0.707199       -19.2439
  20   2.0000      -0.700991       -19.0749
  21   2.0000      -0.651927       -17.7398
  22   2.0000      -0.650519       -17.7015
  23   2.0000      -0.608767       -16.5654
  24   2.0000      -0.587981       -15.9998
  25   2.0000      -0.575347       -15.6560
  26   2.0000      -0.513943       -13.9851
  27   2.0000      -0.497908       -13.5488
  28   2.0000      -0.480490       -13.0748
  29   2.0000      -0.453791       -12.3483
  30   2.0000      -0.423792       -11.5320
  31   2.0000      -0.375526       -10.2186
  32   0.0000       0.024716         0.6726
  33   0.0000       0.032598         0.8870
  34   0.0000       0.038394         1.0448
  35   0.0000       0.045750         1.2449
  36   0.0000       0.047236         1.2853

MULLIKEN ATOMIC CHARGES
-----------------------
   0 C :   -0.406159
   1 C :   -0.437383
   2 C :   -0.623893
   3 C :    1.049561
   4 C :    0.604361
   5 N :   -0.438060
   6 N :   -0.485338
   7 O :   -0.826189
   8 O :   -0.415351
   9 H :    0.597369
  10 H :    0.585538
  11 H :    0.542721
  12 H :    0.252822
Sum of atomic charges:   -0.0000000

LOEWDIN ATOMIC CHARGES
----------------------
   0 C :    0.033850
   1 C :    0.037136
   2 C :    0.035017
   3 C :   -0.317655
   4 C :   -0.813798
   5 N :    0.389071
   6 N :    0.390142
   7 O :    0.451793
   8 O :    0.833575
   9 H :   -0.188567
  10 H :   -0.192337
  11 H :   -0.191428
  12 H :   -0.466798

  Mayer bond orders larger than 0.100000
B(  0-C ,  1-C ) :   1.1280 B(  0-C ,  2-C ) :  -0.1471 B(  0-C ,  3-C ) :   0.1721
B(  0-C ,  5-N ) :   1.1421 B(  0-C ,  9-H ) :   0.5758 B(  1-C ,  2-C ) :   0.1456
B(  1-C ,  3-C ) :  -0.1516 B(  1-C ,  6-N ) :   1.1597 B(  1-C , 10-H ) :   0.6094
B(  2-C ,  3-C ) :   0.8486 B(  2-C ,  4-C ) :   0.1159 B(  2-C ,  5-N ) :   0.8144
B(  2-C ,  6-N ) :   0.1143 B(  2-C , 11-H ) :   0.6616 B(  3-C ,  4-C ) :   0.5991
B(  3-C ,  6-N ) :   0.5174 B(  3-C ,  7-O ) :  -0.1554 B(  3-C ,  8-O ) :   0.1194
B(  4-C ,  7-O ) :   1.5016 B(  4-C ,  8-O ) :   0.8407 B(  8-O , 12-H ) :   0.9373

MP2 TOTAL ENERGY:     -452.117801928 Eh
FINAL SINGLE POINT ENERGY      -452.117801927737

DIPOLE MOMENT
-------------
                                X             Y             Z
Electronic contribution:      0.16478       1.95836      -0.00000
Nuclear contribution   :     -0.78639      -2.53727       0.00000
                        -----------------------------------------
Total Dipole Moment    :     -0.62162      -0.57891      -0.00000
                        -----------------------------------------
Magnitude (a.u.)       :      0.84943
Magnitude (Debye)      :      2.15909

Rotational constants in cm-1:     0.135676     0.042754     0.032510
Rotational constants in MHz :  4067.459624  1281.740308   974.618077

                             ****ORCA TERMINATED NORMALLY****
TOTAL RUN TIME: 0 days 0 hours 5 minutes 36 seconds 420 msec
