                         Program Version 5.0.3 -  RELEASE  -
|  1> !ri-mp2 aug-cc-pvtz aug-cc-pvtz/c tightscf
|  2> %pal nprocs 16 end
|  3>
|  4> * xyz 0 1
|  5> O     -2.769216   -0.536264    0.000215
|  6> C     -0.546543    0.198083   -0.000698
|  7> C     -1.974175    0.375575    0.000309
|  8> C      0.660285    0.101518   -0.000632
|  9> C      2.012661   -0.024555   -0.000207
| 10> C      3.212576   -0.134634    0.000498
| 11> H     -2.304988    1.428398    0.001460
| 12> H      4.269894   -0.234210    0.001198
| 13> *
| 14>
| 15>                          ****END OF INPUT****

CARTESIAN COORDINATES (ANGSTROEM)
---------------------------------
  O     -2.769216   -0.536264    0.000215
  C     -0.546543    0.198083   -0.000698
  C     -1.974175    0.375575    0.000309
  C      0.660285    0.101518   -0.000632
  C      2.012661   -0.024555   -0.000207
  C      3.212576   -0.134634    0.000498
  H     -2.304988    1.428398    0.001460
  H      4.269894   -0.234210    0.001198

 Total Charge           Charge          ....    0
 Multiplicity           Mult            ....    1
 Number of Electrons    NEL             ....   40
 Basis Dimension        Dim             ....  322

ORBITAL ENERGIES
----------------

  NO   OCC          E(Eh)            E(eV)
   0   2.0000     -20.585378      -560.1566
   1   2.0000     -11.372739      -309.4680
   2   2.0000     -11.296538      -307.3944
   3   2.0000     -11.282386      -307.0093
   4   2.0000     -11.278319      -306.8987
   5   2.0000     -11.277056      -306.8643
   6   2.0000      -1.418116       -38.5889
   7   2.0000      -1.119589       -30.4656
   8   2.0000      -1.053910       -28.6783
   9   2.0000      -0.939193       -25.5568
  10   2.0000      -0.846468       -23.0336
  11   2.0000      -0.742256       -20.1978
  12   2.0000      -0.728205       -19.8155
  13   2.0000      -0.671456       -18.2712
  14   2.0000      -0.571467       -15.5504
  15   2.0000      -0.513412       -13.9707
  16   2.0000      -0.502805       -13.6820
  17   2.0000      -0.469345       -12.7715
  18   2.0000      -0.386775       -10.5247
  19   2.0000      -0.386614       -10.5203
  20   0.0000       0.023043         0.6270
  21   0.0000       0.030072         0.8183
  22   0.0000       0.033936         0.9234
  23   0.0000       0.062474         1.7000
  24   0.0000       0.065348         1.7782

MULLIKEN ATOMIC CHARGES
-----------------------
   0 O :   -0.609898
   1 C :    0.880046
   2 C :   -0.213822
   3 C :   -0.928890
   4 C :    1.055904
   5 C :   -1.040450
   6 H :    0.418680
   7 H :    0.438429
Sum of atomic charges:    0.0000000

LOEWDIN ATOMIC CHARGES
----------------------
   0 O :    0.424870
   1 C :    0.060972
   2 C :   -0.300034
   3 C :   -0.036729
   4 C :   -0.085625
   5 C :    0.419390
   6 H :   -0.203388
   7 H :   -0.279456

  Mayer bond orders larger than 0.100000
B(  0-O ,  2-C ) :   1.6760 B(  1-C ,  4-C ) :  -1.4818 B(  1-C ,  5-C ) :   4.2628
B(  1-C ,  7-H ) :   0.1345 B(  2-C ,  3-C ) :  -0.7848 B(  2-C ,  5-C ) :   1.2845
B(  2-C ,  6-H ) :   0.8622 B(  3-C ,  4-C ) :   2.9046 B(  3-C ,  5-C ) :  -4.6286
B(  3-C ,  7-H ) :  -0.2485 B(  4-C ,  5-C ) :   0.7640 B(  5-C ,  6-H ) :   0.1205
B(  5-C ,  7-H ) :   0.9705

MP2 TOTAL ENERGY:     -266.304949501 Eh
FINAL SINGLE POINT ENERGY      -266.304949501063

DIPOLE MOMENT
-------------
                                X             Y             Z
Electronic contribution:     -0.65781      -0.36031      -0.00182
Nuclear contribution   :      1.84873       1.14097       0.00256
                        -----------------------------------------
Total Dipole Moment    :      1.19092       0.78067       0.00074
                        -----------------------------------------
Magnitude (a.u.)       :      1.42398
Magnitude (Debye)      :      3.61947

Rotational constants in cm-1:     1.840193     0.044993     0.043919
Rotational constants in MHz : 55167.592559  1348.845690  1316.653688

                             ****ORCA TERMINATED NORMALLY****
TOTAL RUN TIME: 0 days 0 hours 1 minutes 17 seconds 381 msec
