                         Program Version 5.0.3 -  RELEASE  -
|  1> !ri-mp2 aug-cc-pvtz aug-cc-pvtz/c tightscf
|  2> %pal nprocs 16 end
|  3>
|  4> * xyz 0 1
|  5> C     -0.053693    2.019437        0.000000
|  6> C      1.204654   -1.469386        0.000000
|  7> C      1.220966   -0.085509        0.000000
|  8> C     -0.022972   -2.123259        0.000000
|  9> C     -1.181722   -0.159565        0.000000
| 10> C      0.000000    0.592498        0.000000
| 11> N     -0.100145    3.170672        0.000000
| 12> N     -1.195466   -1.486799        0.000000
| 13> H      2.124938   -2.035655        0.000000
| 14> H      2.150017    0.466484        0.000000
| 15> H     -0.067713   -3.205810        0.000000
| 16> H     -2.141358    0.342572        0.000000
| 17> *
| 18>
| 19>                          ****END OF INPUT****

CARTESIAN COORDINATES (ANGSTROEM)
---------------------------------
  C     -0.053693    2.019437    0.000000
  C      1.204654   -1.469386    0.000000
  C      1.220966   -0.085509    0.000000
  C     -0.022972   -2.123259    0.000000
  C     -1.181722   -0.159565    0.000000
  C      0.000000    0.592498    0.000000
  N     -0.100145    3.170672    0.000000
  N     -1.195466   -1.486799    0.000000
  H      2.124938   -2.035655    0.000000
  H      2.150017    0.466484    0.000000
  H     -0.067713   -3.205810    0.000000
  H     -2.141358    0.342572    0.000000

 Total Charge           Charge          ....    0
 Multiplicity           Mult            ....    1
 Number of Electrons    NEL             ....   54
 Basis Dimension        Dim             ....  460

ORBITAL ENERGIES
----------------

  NO   OCC          E(Eh)            E(eV)
   0   2.0000     -15.593898      -424.3315
   1   2.0000     -15.581508      -423.9944
   2   2.0000     -11.313137      -307.8461
   3   2.0000     -11.307852      -307.7023
   4   2.0000     -11.298735      -307.4542
   5   2.0000     -11.296477      -307.3928
   6   2.0000     -11.285191      -307.0857
   7   2.0000     -11.269420      -306.6565
   8   2.0000      -1.294914       -35.2364
   9   2.0000      -1.232533       -33.5389
  10   2.0000      -1.132188       -30.8084
  11   2.0000      -1.077795       -29.3283
  12   2.0000      -0.918992       -25.0070
  13   2.0000      -0.895679       -24.3727
  14   2.0000      -0.780177       -21.2297
  15   2.0000      -0.728333       -19.8189
  16   2.0000      -0.704050       -19.1582
  17   2.0000      -0.643123       -17.5003
  18   2.0000      -0.610282       -16.6066
  19   2.0000      -0.586467       -15.9586
  20   2.0000      -0.578030       -15.7290
  21   2.0000      -0.558694       -15.2028
  22   2.0000      -0.507123       -13.7995
  23   2.0000      -0.485780       -13.2188
  24   2.0000      -0.444279       -12.0895
  25   2.0000      -0.411871       -11.2076
  26   2.0000      -0.371749       -10.1158
  27   0.0000       0.020192         0.5495
  28   0.0000       0.032261         0.8779
  29   0.0000       0.037057         1.0084
  30   0.0000       0.047669         1.2971
  31   0.0000       0.053051         1.4436

MULLIKEN ATOMIC CHARGES
-----------------------
   0 C :    0.544473
   1 C :   -0.271245
   2 C :   -1.039221
   3 C :   -0.516565
   4 C :   -0.883066
   5 C :    1.657772
   6 N :   -0.859854
   7 N :   -0.436734
   8 H :    0.295529
   9 H :    0.314890
  10 H :    0.665988
  11 H :    0.528033
Sum of atomic charges:   -0.0000000

LOEWDIN ATOMIC CHARGES
----------------------
   0 C :   -0.243304
   1 C :    0.218574
   2 C :    0.210166
   3 C :    0.030723
   4 C :    0.028487
   5 C :   -0.194727
   6 N :    0.270683
   7 N :    0.384353
   8 H :   -0.184276
   9 H :   -0.159840
  10 H :   -0.184331
  11 H :   -0.176508

  Mayer bond orders larger than 0.100000
B(  0-C ,  2-C ) :   0.1615 B(  0-C ,  4-C ) :  -0.1185 B(  0-C ,  5-C ) :   0.9073
B(  0-C ,  6-N ) :   1.7083 B(  1-C ,  2-C ) :   1.3001 B(  1-C ,  3-C ) :   0.9353
B(  1-C ,  5-C ) :  -0.1234 B(  1-C ,  7-N ) :  -0.1091 B(  1-C ,  8-H ) :   1.0474
B(  2-C ,  3-C ) :   0.2415 B(  2-C ,  4-C ) :   0.2667 B(  2-C ,  5-C ) :   0.4441
B(  2-C ,  7-N ) :   0.1098 B(  2-C ,  9-H ) :   1.0847 B(  3-C ,  4-C ) :   0.2722
B(  3-C ,  5-C ) :  -0.1669 B(  3-C ,  7-N ) :   1.2765 B(  3-C , 10-H ) :   0.4096
B(  4-C ,  5-C ) :   0.4492 B(  4-C ,  7-N ) :   1.0651 B(  4-C , 11-H ) :   0.6271
B(  5-C ,  7-N ) :  -0.1586

MP2 TOTAL ENERGY:     -339.864239923 Eh
FINAL SINGLE POINT ENERGY      -339.864239922774

DIPOLE MOMENT
-------------
                                X             Y             Z
Electronic contribution:     -1.15563       2.83790      -0.00000
Nuclear contribution   :      2.00498      -4.30800       0.00000
                        -----------------------------------------
Total Dipole Moment    :      0.84934      -1.47010      -0.00000
                        -----------------------------------------
Magnitude (a.u.)       :      1.69782
Magnitude (Debye)      :      4.31551

Rotational constants in cm-1:     0.195958     0.052644     0.041496
Rotational constants in MHz :  5874.685155  1578.228660  1244.023037

                             ****ORCA TERMINATED NORMALLY****
TOTAL RUN TIME: 0 days 0 hours 3 minutes 52 seconds 755 msec
