                         Program Version 5.0.3 -  RELEASE  -
|  1> !ri-mp2 aug-cc-pvtz aug-cc-pvtz/c tightscf
|  2> %pal nprocs 16 end
|  3>
|  4> * xyz 0 1
|  5> O      0.828981   -0.789180   -0.238022
|  6> C     -1.508266    0.097281   -0.148770
|  7> H     -1.418953    0.320203   -1.211647
|  8> H     -2.074015   -0.829198   -0.038726
|  9> H     -2.076905    0.897311    0.329487
| 10> C     -0.152980   -0.033489    0.484726
| 11> H     -0.154020   -0.247472    1.550696
| 12> C      1.040125    0.616650   -0.061363
| 13> H      0.954099    1.210204   -0.965902
| 14> H      1.864673    0.879739    0.592713
| 15> *
| 16>
| 17>                          ****END OF INPUT****

CARTESIAN COORDINATES (ANGSTROEM)
---------------------------------
  O      0.828981   -0.789180   -0.238022
  C     -1.508266    0.097281   -0.148770
  H     -1.418953    0.320203   -1.211647
  H     -2.074015   -0.829198   -0.038726
  H     -2.076905    0.897311    0.329487
  C     -0.152980   -0.033489    0.484726
  H     -0.154020   -0.247472    1.550696
  C      1.040125    0.616650   -0.061363
  H      0.954099    1.210204   -0.965902
  H      1.864673    0.879739    0.592713

 Total Charge           Charge          ....    0
 Multiplicity           Mult            ....    1
 Number of Electrons    NEL             ....   32
 Basis Dimension        Dim             ....  322

ORBITAL ENERGIES
----------------

  NO   OCC          E(Eh)            E(eV)
   0   2.0000     -20.565413      -559.6133
   1   2.0000     -11.288081      -307.1643
   2   2.0000     -11.280196      -306.9497
   3   2.0000     -11.225769      -305.4687
   4   2.0000      -1.405680       -38.2505
   5   2.0000      -1.013660       -27.5831
   6   2.0000      -0.909021       -24.7357
   7   2.0000      -0.815287       -22.1851
   8   2.0000      -0.696524       -18.9534
   9   2.0000      -0.643363       -17.5068
  10   2.0000      -0.587157       -15.9774
  11   2.0000      -0.563242       -15.3266
  12   2.0000      -0.525907       -14.3107
  13   2.0000      -0.516621       -14.0580
  14   2.0000      -0.445904       -12.1337
  15   2.0000      -0.433533       -11.7970
  16   0.0000       0.029143         0.7930
  17   0.0000       0.037689         1.0256
  18   0.0000       0.038718         1.0536
  19   0.0000       0.047133         1.2826
  20   0.0000       0.056903         1.5484

MULLIKEN ATOMIC CHARGES
-----------------------
   0 O :   -0.712317
   1 C :   -0.782004
   2 H :    0.303461
   3 H :    0.258175
   4 H :    0.271263
   5 C :    0.127283
   6 H :    0.468949
   7 C :   -0.710733
   8 H :    0.373345
   9 H :    0.402577
Sum of atomic charges:   -0.0000000

LOEWDIN ATOMIC CHARGES
----------------------
   0 O :    0.527369
   1 C :    0.591354
   2 H :   -0.175986
   3 H :   -0.171523
   4 H :   -0.172940
   5 C :   -0.231939
   6 H :   -0.149937
   7 C :    0.123235
   8 H :   -0.169775
   9 H :   -0.169857

  Mayer bond orders larger than 0.100000
B(  0-O ,  5-C ) :   0.5493 B(  0-O ,  7-C ) :   0.9855 B(  1-C ,  2-H ) :   0.9267
B(  1-C ,  3-H ) :   0.9790 B(  1-C ,  4-H ) :   0.9525 B(  1-C ,  5-C ) :   0.7830
B(  5-C ,  6-H ) :   0.7333 B(  5-C ,  7-C ) :   1.1422 B(  7-C ,  8-H ) :   0.8626
B(  7-C ,  9-H ) :   0.8345

MP2 TOTAL ENERGY:     -192.746181983 Eh
FINAL SINGLE POINT ENERGY      -192.746181982509

DIPOLE MOMENT
-------------
                                X             Y             Z
Electronic contribution:      2.61866      -1.53678       0.04394
Nuclear contribution   :     -2.99255       2.29544       0.26166
                        -----------------------------------------
Total Dipole Moment    :     -0.37390       0.75865       0.30560
                        -----------------------------------------
Magnitude (a.u.)       :      0.89930
Magnitude (Debye)      :      2.28584

Rotational constants in cm-1:     0.607773     0.221998     0.197750
Rotational constants in MHz : 18220.569480  6655.339185  5928.407708

                             ****ORCA TERMINATED NORMALLY****
TOTAL RUN TIME: 0 days 0 hours 0 minutes 59 seconds 95 msec
