                         Program Version 5.0.3 -  RELEASE  -
|  1> !ri-mp2 aug-cc-pvtz aug-cc-pvtz/c tightscf
|  2> %pal nprocs 16 end
|  3>
|  4> * xyz 0 1
|  5> C      0.000000    0.705485   -0.012772
|  6> C      0.000000    1.324526   -1.289733
|  7> C      0.000000   -0.705485   -0.012772
|  8> N      0.000000    0.681794   -2.426927
|  9> C      0.000000   -1.324526   -1.289733
| 10> N      0.000000   -0.681794   -2.426927
| 11> C      0.000000    1.404939    1.211306
| 12> C      0.000000    0.705423    2.392790
| 13> C      0.000000   -0.705423    2.392790
| 14> C      0.000000   -1.404939    1.211306
| 15> H      0.000000   -2.407381   -1.364362
| 16> H      0.000000    2.407381   -1.364362
| 17> H      0.000000   -1.235415    3.335672
| 18> H      0.000000    1.235415    3.335672
| 19> H      0.000000   -2.487234    1.207629
| 20> H      0.000000    2.487234    1.207629
| 21> *
| 22>
| 23>                          ****END OF INPUT****

CARTESIAN COORDINATES (ANGSTROEM)
---------------------------------
  C      0.000000    0.705485   -0.012772
  C      0.000000    1.324526   -1.289733
  C      0.000000   -0.705485   -0.012772
  N      0.000000    0.681794   -2.426927
  C      0.000000   -1.324526   -1.289733
  N      0.000000   -0.681794   -2.426927
  C      0.000000    1.404939    1.211306
  C      0.000000    0.705423    2.392790
  C      0.000000   -0.705423    2.392790
  C      0.000000   -1.404939    1.211306
  H      0.000000   -2.407381   -1.364362
  H      0.000000    2.407381   -1.364362
  H      0.000000   -1.235415    3.335672
  H      0.000000    1.235415    3.335672
  H      0.000000   -2.487234    1.207629
  H      0.000000    2.487234    1.207629

 Total Charge           Charge          ....    0
 Multiplicity           Mult            ....    1
 Number of Electrons    NEL             ....   68
 Basis Dimension        Dim             ....  598

ORBITAL ENERGIES
----------------

  NO   OCC          E(Eh)            E(eV)
   0   2.0000     -15.600811      -424.5196
   1   2.0000     -15.600119      -424.5008
   2   2.0000     -11.284080      -307.0554
   3   2.0000     -11.284057      -307.0548
   4   2.0000     -11.270730      -306.6922
   5   2.0000     -11.269604      -306.6615
   6   2.0000     -11.265101      -306.5390
   7   2.0000     -11.264590      -306.5251
   8   2.0000     -11.263657      -306.4997
   9   2.0000     -11.263067      -306.4836
  10   2.0000      -1.334118       -36.3032
  11   2.0000      -1.186695       -32.2916
  12   2.0000      -1.128192       -30.6997
  13   2.0000      -1.071822       -29.1658
  14   2.0000      -1.046643       -28.4806
  15   2.0000      -0.905282       -24.6340
  16   2.0000      -0.893208       -24.3054
  17   2.0000      -0.849741       -23.1226
  18   2.0000      -0.741499       -20.1772
  19   2.0000      -0.737162       -20.0592
  20   2.0000      -0.705477       -19.1970
  21   2.0000      -0.651870       -17.7383
  22   2.0000      -0.642897       -17.4941
  23   2.0000      -0.613767       -16.7015
  24   2.0000      -0.612137       -16.6571
  25   2.0000      -0.585539       -15.9333
  26   2.0000      -0.553809       -15.0699
  27   2.0000      -0.527161       -14.3448
  28   2.0000      -0.506792       -13.7905
  29   2.0000      -0.461551       -12.5594
  30   2.0000      -0.422011       -11.4835
  31   2.0000      -0.406837       -11.0706
  32   2.0000      -0.365661        -9.9502
  33   2.0000      -0.333553        -9.0764
  34   0.0000       0.021172         0.5761
  35   0.0000       0.027014         0.7351
  36   0.0000       0.034778         0.9464
  37   0.0000       0.042557         1.1580
  38   0.0000       0.052213         1.4208

MULLIKEN ATOMIC CHARGES
-----------------------
   0 C :    1.618910
   1 C :   -0.637154
   2 C :    1.618910
   3 N :   -0.599205
   4 C :   -0.637154
   5 N :   -0.599205
   6 C :   -1.129202
   7 C :   -0.399650
   8 C :   -0.399651
   9 C :   -1.129202
  10 H :    0.525807
  11 H :    0.525807
  12 H :    0.584939
  13 H :    0.584939
  14 H :    0.035555
  15 H :    0.035555
Sum of atomic charges:    0.0000000

LOEWDIN ATOMIC CHARGES
----------------------
   0 C :   -0.129599
   1 C :    0.019647
   2 C :   -0.129599
   3 N :    0.201480
   4 C :    0.019647
   5 N :    0.201480
   6 C :    0.232195
   7 C :    0.217652
   8 C :    0.217652
   9 C :    0.232195
  10 H :   -0.189131
  11 H :   -0.189131
  12 H :   -0.179664
  13 H :   -0.179664
  14 H :   -0.172580
  15 H :   -0.172580

  Mayer bond orders larger than 0.100000
B(  0-C ,  1-C ) :   0.1292 B(  0-C ,  2-C ) :   0.7857 B(  0-C ,  3-N ) :  -0.1149
B(  0-C ,  4-C ) :   0.1404 B(  0-C ,  6-C ) :   0.2436 B(  0-C ,  8-C ) :  -0.1005
B(  0-C ,  9-C ) :  -0.2399 B(  1-C ,  2-C ) :   0.1404 B(  1-C ,  3-N ) :   1.0955
B(  1-C ,  5-N ) :   0.1023 B(  1-C , 11-H ) :   0.5967 B(  2-C ,  4-C ) :   0.1292
B(  2-C ,  5-N ) :  -0.1149 B(  2-C ,  6-C ) :  -0.2399 B(  2-C ,  7-C ) :  -0.1005
B(  2-C ,  9-C ) :   0.2436 B(  3-N ,  4-C ) :   0.1023 B(  3-N ,  5-N ) :   0.4256
B(  4-C ,  5-N ) :   1.0955 B(  4-C , 10-H ) :   0.5967 B(  6-C ,  7-C ) :   1.2923
B(  6-C ,  9-C ) :   0.2168 B(  6-C , 13-H ) :  -0.2556 B(  6-C , 15-H ) :   1.7987
B(  7-C ,  8-C ) :   1.0079 B(  7-C , 13-H ) :   0.5723 B(  8-C ,  9-C ) :   1.2923
B(  8-C , 12-H ) :   0.5723 B(  9-C , 12-H ) :  -0.2556 B(  9-C , 14-H ) :   1.7987

MP2 TOTAL ENERGY:     -417.104397438 Eh
FINAL SINGLE POINT ENERGY      -417.104397437873

DIPOLE MOMENT
-------------
                                X             Y             Z
Electronic contribution:      0.00000       0.00000      -4.08257
Nuclear contribution   :      0.00000      -0.00000       6.21068
                        -----------------------------------------
Total Dipole Moment    :      0.00000       0.00000       2.12811
                        -----------------------------------------
Magnitude (a.u.)       :      2.12811
Magnitude (Debye)      :      5.40923

Rotational constants in cm-1:     0.109662     0.041463     0.030087
Rotational constants in MHz :  3287.586032  1243.039360   901.994423

                             ****ORCA TERMINATED NORMALLY****
TOTAL RUN TIME: 0 days 0 hours 8 minutes 54 seconds 629 msec
