                         Program Version 5.0.3 -  RELEASE  -
|  1> !ri-mp2 aug-cc-pvtz aug-cc-pvtz/c tightscf
|  2> %pal nprocs 16 end
|  3>
|  4> * xyz 0 1
|  5> C      1.101422    1.086436    0.000000
|  6> C      0.000000    0.612760    0.000000
|  7> C     -1.353510   -1.424068    0.000000
|  8> C      2.441080    1.653556    0.000000
|  9> C     -1.345349    0.043042    0.000000
| 10> N     -1.379143   -2.572655    0.000000
| 11> H      2.603677    2.273574    0.882742
| 12> H      3.194285    0.864356    0.000000
| 13> H      2.603677    2.273574   -0.882742
| 14> H     -1.904748    0.383361   -0.875875
| 15> H     -1.904748    0.383361    0.875875
| 16> *
| 17>
| 18>                          ****END OF INPUT****

CARTESIAN COORDINATES (ANGSTROEM)
---------------------------------
  C      1.101422    1.086436    0.000000
  C      0.000000    0.612760    0.000000
  C     -1.353510   -1.424068    0.000000
  C      2.441080    1.653556    0.000000
  C     -1.345349    0.043042    0.000000
  N     -1.379143   -2.572655    0.000000
  H      2.603677    2.273574    0.882742
  H      3.194285    0.864356    0.000000
  H      2.603677    2.273574   -0.882742
  H     -1.904748    0.383361   -0.875875
  H     -1.904748    0.383361    0.875875

 Total Charge           Charge          ....    0
 Multiplicity           Mult            ....    1
 Number of Electrons    NEL             ....   42
 Basis Dimension        Dim             ....  391

ORBITAL ENERGIES
----------------

  NO   OCC          E(Eh)            E(eV)
   0   2.0000     -15.573298      -423.7710
   1   2.0000     -11.314657      -307.8875
   2   2.0000     -11.279699      -306.9362
   3   2.0000     -11.259250      -306.3798
   4   2.0000     -11.249019      -306.1014
   5   2.0000     -11.242309      -305.9188
   6   2.0000      -1.227636       -33.4057
   7   2.0000      -1.107125       -30.1264
   8   2.0000      -1.049380       -28.5551
   9   2.0000      -0.956580       -26.0299
  10   2.0000      -0.735157       -20.0046
  11   2.0000      -0.687610       -18.7108
  12   2.0000      -0.654128       -17.7997
  13   2.0000      -0.635412       -17.2904
  14   2.0000      -0.601120       -16.3573
  15   2.0000      -0.600697       -16.3458
  16   2.0000      -0.561037       -15.2666
  17   2.0000      -0.473284       -12.8787
  18   2.0000      -0.470321       -12.7981
  19   2.0000      -0.397143       -10.8068
  20   2.0000      -0.392388       -10.6774
  21   0.0000       0.023251         0.6327
  22   0.0000       0.028638         0.7793
  23   0.0000       0.037801         1.0286
  24   0.0000       0.046364         1.2616
  25   0.0000       0.052251         1.4218

MULLIKEN ATOMIC CHARGES
-----------------------
   0 C :   -0.035319
   1 C :    0.079869
   2 C :    0.079885
   3 C :   -0.948941
   4 C :   -0.078950
   5 N :   -0.506327
   6 H :    0.290428
   7 H :    0.272017
   8 H :    0.290428
   9 H :    0.278456
  10 H :    0.278456
Sum of atomic charges:   -0.0000000

LOEWDIN ATOMIC CHARGES
----------------------
   0 C :    0.088638
   1 C :    0.077117
   2 C :   -0.217826
   3 C :    0.521827
   4 C :    0.162766
   5 N :    0.256831
   6 H :   -0.183653
   7 H :   -0.182131
   8 H :   -0.183653
   9 H :   -0.169959
  10 H :   -0.169959

  Mayer bond orders larger than 0.100000
B(  0-C ,  1-C ) :   2.1164 B(  0-C ,  2-C ) :   0.3226 B(  0-C ,  3-C ) :   1.1074
B(  0-C ,  4-C ) :  -0.2269 B(  1-C ,  2-C ) :   0.1030 B(  1-C ,  3-C ) :  -0.1431
B(  1-C ,  4-C ) :   1.0897 B(  2-C ,  4-C ) :   0.6850 B(  2-C ,  5-N ) :   2.3093
B(  3-C ,  4-C ) :   0.1110 B(  3-C ,  6-H ) :   0.9467 B(  3-C ,  7-H ) :   0.9557
B(  3-C ,  8-H ) :   0.9467 B(  4-C ,  9-H ) :   0.9123 B(  4-C , 10-H ) :   0.9123

MP2 TOTAL ENERGY:     -247.708760560 Eh
FINAL SINGLE POINT ENERGY      -247.708760560165

DIPOLE MOMENT
-------------
                                X             Y             Z
Electronic contribution:     -4.25234      -4.42525      -0.00000
Nuclear contribution   :      4.57113       6.14576       0.00000
                        -----------------------------------------
Total Dipole Moment    :      0.31879       1.72050      -0.00000
                        -----------------------------------------
Magnitude (a.u.)       :      1.74979
Magnitude (Debye)      :      4.44760

Rotational constants in cm-1:     0.435199     0.050375     0.045916
Rotational constants in MHz : 13046.935561  1510.210654  1376.522600

                             ****ORCA TERMINATED NORMALLY****
TOTAL RUN TIME: 0 days 0 hours 1 minutes 38 seconds 23 msec
