                         Program Version 5.0.3 -  RELEASE  -
|  1> !ri-mp2 aug-cc-pvtz aug-cc-pvtz/c tightscf
|  2> %pal nprocs 16 end
|  3>
|  4> * xyz 0 1
|  5> N      0.000000    0.000000    1.892411
|  6> C      0.000000    0.000000    0.737350
|  7> C      0.000000    0.000000   -0.631058
|  8> C      0.000000    0.000000   -1.831727
|  9> H      0.000000    0.000000   -2.894266
| 10> *
| 11>
| 12>                          ****END OF INPUT****

CARTESIAN COORDINATES (ANGSTROEM)
---------------------------------
  N      0.000000    0.000000    1.892411
  C      0.000000    0.000000    0.737350
  C      0.000000    0.000000   -0.631058
  C      0.000000    0.000000   -1.831727
  H      0.000000    0.000000   -2.894266

 Total Charge           Charge          ....    0
 Multiplicity           Mult            ....    1
 Number of Electrons    NEL             ....   26
 Basis Dimension        Dim             ....  207

ORBITAL ENERGIES
----------------

  NO   OCC          E(Eh)            E(eV)
   0   2.0000     -15.606346      -424.6703
   1   2.0000     -11.311483      -307.8011
   2   2.0000     -11.302154      -307.5473
   3   2.0000     -11.297661      -307.4250
   4   2.0000      -1.249661       -34.0050
   5   2.0000      -1.098229       -29.8843
   6   2.0000      -0.909962       -24.7613
   7   2.0000      -0.757661       -20.6170
   8   2.0000      -0.590292       -16.0627
   9   2.0000      -0.549495       -14.9525
  10   2.0000      -0.549495       -14.9525
  11   2.0000      -0.429210       -11.6794
  12   2.0000      -0.429210       -11.6794
  13   0.0000       0.020557         0.5594
  14   0.0000       0.059500         1.6191
  15   0.0000       0.059754         1.6260
  16   0.0000       0.059754         1.6260
  17   0.0000       0.081399         2.2150

MULLIKEN ATOMIC CHARGES
-----------------------
   0 N :   -0.582804
   1 C :    0.087621
   2 C :    1.762089
   3 C :   -1.719488
   4 H :    0.452581
Sum of atomic charges:    0.0000000

LOEWDIN ATOMIC CHARGES
----------------------
   0 N :    0.264461
   1 C :   -0.335744
   2 C :   -0.077222
   3 C :    0.418341
   4 H :   -0.269836

  Mayer bond orders larger than 0.100000
B(  0-N ,  1-C ) :   2.1271 B(  0-N ,  2-C ) :  -0.1945 B(  1-C ,  2-C ) :   0.7406
B(  1-C ,  3-C ) :  -0.2072 B(  2-C ,  4-H ) :  -0.1801 B(  3-C ,  4-H ) :   0.9262

MP2 TOTAL ENERGY:     -169.250440692 Eh
FINAL SINGLE POINT ENERGY      -169.250440691583

DIPOLE MOMENT
-------------
                                X             Y             Z
Electronic contribution:     -0.00000       0.00000       1.11734
Nuclear contribution   :      0.00000       0.00000      -2.75788
                        -----------------------------------------
Total Dipole Moment    :     -0.00000       0.00000      -1.64055
                        -----------------------------------------
Magnitude (a.u.)       :      1.64055
Magnitude (Debye)      :      4.16993

Rotational constants in cm-1:     0.000000     0.153170     0.153170
Rotational constants in MHz :     0.000000  4591.934458  4591.934458

                             ****ORCA TERMINATED NORMALLY****
TOTAL RUN TIME: 0 days 0 hours 0 minutes 29 seconds 185 msec
