                         Program Version 5.0.3 -  RELEASE  -
|  1> !ri-mp2 aug-cc-pvtz aug-cc-pvtz/c tightscf
|  2> %pal nprocs 16 end
|  3>
|  4> * xyz 0 1
|  5> C      0.000000    0.688857    1.174003
|  6> C      0.000000   -0.688857    1.174003
|  7> C      0.000000   -1.319429   -0.067431
|  8> C      0.000000    1.319429   -0.067431
|  9> H      0.000000    1.265199    2.088781
| 10> H      0.000000   -1.265199    2.088781
| 11> H      0.000000   -2.398824   -0.151216
| 12> H      0.000000    2.398824   -0.151216
| 13> N      0.000000    0.664263   -1.225286
| 14> N      0.000000   -0.664263   -1.225286
| 15> *
| 16>
| 17>                          ****END OF INPUT****

CARTESIAN COORDINATES (ANGSTROEM)
---------------------------------
  C      0.000000    0.688857    1.174003
  C      0.000000   -0.688857    1.174003
  C      0.000000   -1.319429   -0.067431
  C      0.000000    1.319429   -0.067431
  H      0.000000    1.265199    2.088781
  H      0.000000   -1.265199    2.088781
  H      0.000000   -2.398824   -0.151216
  H      0.000000    2.398824   -0.151216
  N      0.000000    0.664263   -1.225286
  N      0.000000   -0.664263   -1.225286

 Total Charge           Charge          ....    0
 Multiplicity           Mult            ....    1
 Number of Electrons    NEL             ....   42
 Basis Dimension        Dim             ....  368

ORBITAL ENERGIES
----------------

  NO   OCC          E(Eh)            E(eV)
   0   2.0000     -15.612170      -424.8287
   1   2.0000     -15.611335      -424.8060
   2   2.0000     -11.283891      -307.0503
   3   2.0000     -11.283868      -307.0497
   4   2.0000     -11.271921      -306.7246
   5   2.0000     -11.270583      -306.6882
   6   2.0000      -1.349087       -36.7105
   7   2.0000      -1.117300       -30.4033
   8   2.0000      -1.115065       -30.3425
   9   2.0000      -0.902998       -24.5718
  10   2.0000      -0.889614       -24.2076
  11   2.0000      -0.732646       -19.9363
  12   2.0000      -0.701639       -19.0926
  13   2.0000      -0.667525       -18.1643
  14   2.0000      -0.602597       -16.3975
  15   2.0000      -0.590505       -16.0685
  16   2.0000      -0.580045       -15.7838
  17   2.0000      -0.482036       -13.1169
  18   2.0000      -0.406375       -11.0580
  19   2.0000      -0.405917       -11.0456
  20   2.0000      -0.385212       -10.4821
  21   0.0000       0.021965         0.5977
  22   0.0000       0.030550         0.8313
  23   0.0000       0.039715         1.0807
  24   0.0000       0.049372         1.3435
  25   0.0000       0.070420         1.9162

MULLIKEN ATOMIC CHARGES
-----------------------
   0 C :   -0.251110
   1 C :   -0.251110
   2 C :   -0.405197
   3 C :   -0.405197
   4 H :    0.373062
   5 H :    0.373062
   6 H :    0.660091
   7 H :    0.660091
   8 N :   -0.376847
   9 N :   -0.376847
Sum of atomic charges:   -0.0000000

LOEWDIN ATOMIC CHARGES
----------------------
   0 C :    0.194703
   1 C :    0.194703
   2 C :   -0.003991
   3 C :   -0.003991
   4 H :   -0.178975
   5 H :   -0.178975
   6 H :   -0.200624
   7 H :   -0.200624
   8 N :    0.188887
   9 N :    0.188887

  Mayer bond orders larger than 0.100000
B(  0-C ,  1-C ) :   1.1900 B(  0-C ,  3-C ) :   0.9597 B(  0-C ,  4-H ) :   0.9906
B(  1-C ,  2-C ) :   0.9597 B(  1-C ,  5-H ) :   0.9906 B(  2-C ,  6-H ) :   0.4278
B(  2-C ,  9-N ) :   1.3469 B(  3-C ,  7-H ) :   0.4278 B(  3-C ,  8-N ) :   1.3469
B(  8-N ,  9-N ) :   0.2810

MP2 TOTAL ENERGY:     -263.777152334 Eh
FINAL SINGLE POINT ENERGY      -263.777152333863

DIPOLE MOMENT
-------------
                                X             Y             Z
Electronic contribution:      0.00000      -0.00000      -2.07954
Nuclear contribution   :      0.00000       0.00000       3.80237
                        -----------------------------------------
Total Dipole Moment    :      0.00000      -0.00000       1.72283
                        -----------------------------------------
Magnitude (a.u.)       :      1.72283
Magnitude (Debye)      :      4.37909

Rotational constants in cm-1:     0.209652     0.200843     0.102576
Rotational constants in MHz :  6285.217020  6021.111702  3075.165194

                             ****ORCA TERMINATED NORMALLY****
TOTAL RUN TIME: 0 days 0 hours 1 minutes 39 seconds 988 msec
