                         Program Version 5.0.3 -  RELEASE  -
|  1> !ri-mp2 aug-cc-pvtz aug-cc-pvtz/c tightscf
|  2> %pal nprocs 16 end
|  3>
|  4> * xyz 0 1
|  5> C     -3.193395    0.219196    0.022962
|  6> C     -1.870687   -0.543222   -0.031096
|  7> C     -0.644306    0.369108    0.017163
|  8> C      0.681934   -0.388325   -0.039089
|  9> C      1.902025    0.524730    0.012238
| 10> N      3.142821   -0.252296   -0.075802
| 11> H     -4.046943   -0.459069   -0.014935
| 12> H     -3.274969    0.803363    0.942009
| 13> H     -3.283672    0.912302   -0.816050
| 14> H     -1.834066   -1.145994   -0.943292
| 15> H     -1.824205   -1.251686    0.801403
| 16> H     -0.682799    0.973279    0.929858
| 17> H     -0.692022    1.077721   -0.816618
| 18> H      0.733834   -0.987957   -0.951398
| 19> H      0.730562   -1.095733    0.796545
| 20> H      1.844936    1.150237    0.914816
| 21> H      1.879005    1.205826   -0.842025
| 22> H      3.244316   -0.859616    0.728902
| 23> H      3.952849    0.354475   -0.091672
| 24> *
| 25>
| 26>                          ****END OF INPUT****

CARTESIAN COORDINATES (ANGSTROEM)
---------------------------------
  C     -3.193395    0.219196    0.022962
  C     -1.870687   -0.543222   -0.031096
  C     -0.644306    0.369108    0.017163
  C      0.681934   -0.388325   -0.039089
  C      1.902025    0.524730    0.012238
  N      3.142821   -0.252296   -0.075802
  H     -4.046943   -0.459069   -0.014935
  H     -3.274969    0.803363    0.942009
  H     -3.283672    0.912302   -0.816050
  H     -1.834066   -1.145994   -0.943292
  H     -1.824205   -1.251686    0.801403
  H     -0.682799    0.973279    0.929858
  H     -0.692022    1.077721   -0.816618
  H      0.733834   -0.987957   -0.951398
  H      0.730562   -1.095733    0.796545
  H      1.844936    1.150237    0.914816
  H      1.879005    1.205826   -0.842025
  H      3.244316   -0.859616    0.728902
  H      3.952849    0.354475   -0.091672

 Total Charge           Charge          ....    0
 Multiplicity           Mult            ....    1
 Number of Electrons    NEL             ....   50
 Basis Dimension        Dim             ....  575

ORBITAL ENERGIES
----------------

  NO   OCC          E(Eh)            E(eV)
   0   2.0000     -15.536114      -422.7592
   1   2.0000     -11.243584      -305.9535
   2   2.0000     -11.215494      -305.1891
   3   2.0000     -11.214285      -305.1562
   4   2.0000     -11.212002      -305.0941
   5   2.0000     -11.209229      -305.0186
   6   2.0000      -1.173700       -31.9380
   7   2.0000      -1.072561       -29.1859
   8   2.0000      -0.998172       -27.1616
   9   2.0000      -0.899650       -24.4807
  10   2.0000      -0.811731       -22.0883
  11   2.0000      -0.787497       -21.4289
  12   2.0000      -0.662698       -18.0329
  13   2.0000      -0.640861       -17.4387
  14   2.0000      -0.615960       -16.7611
  15   2.0000      -0.588035       -16.0013
  16   2.0000      -0.564005       -15.3474
  17   2.0000      -0.548950       -14.9377
  18   2.0000      -0.529531       -14.4093
  19   2.0000      -0.498266       -13.5585
  20   2.0000      -0.479746       -13.0546
  21   2.0000      -0.465247       -12.6600
  22   2.0000      -0.460323       -12.5260
  23   2.0000      -0.452258       -12.3066
  24   2.0000      -0.386245       -10.5103
  25   0.0000       0.029414         0.8004
  26   0.0000       0.033199         0.9034
  27   0.0000       0.036821         1.0020
  28   0.0000       0.040022         1.0891
  29   0.0000       0.050080         1.3627

MULLIKEN ATOMIC CHARGES
-----------------------
   0 C :   -0.980398
   1 C :   -0.480413
   2 C :   -0.297928
   3 C :   -0.392816
   4 C :   -0.190625
   5 N :   -0.620351
   6 H :    0.271345
   7 H :    0.268182
   8 H :    0.265845
   9 H :    0.238392
  10 H :    0.244423
  11 H :    0.269586
  12 H :    0.265239
  13 H :    0.230940
  14 H :    0.228186
  15 H :    0.228978
  16 H :    0.264886
  17 H :    0.101337
  18 H :    0.085192
Sum of atomic charges:    0.0000000

LOEWDIN ATOMIC CHARGES
----------------------
   0 C :    0.577543
   1 C :    0.255795
   2 C :    0.263314
   3 C :    0.267401
   4 C :    0.144110
   5 N :    0.837399
   6 H :   -0.174335
   7 H :   -0.171914
   8 H :   -0.171731
   9 H :   -0.147815
  10 H :   -0.148397
  11 H :   -0.143371
  12 H :   -0.142066
  13 H :   -0.143321
  14 H :   -0.144060
  15 H :   -0.145739
  16 H :   -0.151703
  17 H :   -0.330311
  18 H :   -0.330798

  Mayer bond orders larger than 0.100000
B(  0-C ,  1-C ) :   0.9256 B(  0-C ,  6-H ) :   0.9927 B(  0-C ,  7-H ) :   0.9588
B(  0-C ,  8-H ) :   0.9623 B(  1-C ,  2-C ) :   0.8946 B(  1-C ,  9-H ) :   0.9656
B(  1-C , 10-H ) :   0.9643 B(  2-C ,  3-C ) :   0.9063 B(  2-C , 11-H ) :   0.9292
B(  2-C , 12-H ) :   0.9448 B(  3-C ,  4-C ) :   0.9831 B(  3-C , 13-H ) :   0.9518
B(  3-C , 14-H ) :   0.9527 B(  4-C ,  5-N ) :   0.7528 B(  4-C , 15-H ) :   0.9798
B(  4-C , 16-H ) :   0.9455 B(  5-N , 17-H ) :   0.9877 B(  5-N , 18-H ) :   1.0130

MP2 TOTAL ENERGY:     -252.569268555 Eh
FINAL SINGLE POINT ENERGY      -252.569268555468

DIPOLE MOMENT
-------------
                                X             Y             Z
Electronic contribution:      3.49474      -0.46873      -0.27017
Nuclear contribution   :     -3.48476       0.72789       0.68634
                        -----------------------------------------
Total Dipole Moment    :      0.00998       0.25916       0.41618
                        -----------------------------------------
Magnitude (a.u.)       :      0.49038
Magnitude (Debye)      :      1.24644

Rotational constants in cm-1:     0.514341     0.037839     0.036530
Rotational constants in MHz : 15419.563996  1134.391417  1095.154997

                             ****ORCA TERMINATED NORMALLY****
TOTAL RUN TIME: 0 days 0 hours 4 minutes 39 seconds 114 msec
