                         Program Version 5.0.3 -  RELEASE  -
|  1> !ri-mp2 aug-cc-pvtz aug-cc-pvtz/c tightscf
|  2> %pal nprocs 16 end
|  3>
|  4> * xyz 0 1
|  5> C     -1.391545    0.000201   -0.000002
|  6> C     -2.595600    0.000392   -0.000004
|  7> C      2.836362   -0.000147    0.000002
|  8> C      2.137248    1.202242    0.000001
|  9> C      2.137077   -1.202403    0.000001
| 10> C      0.750328    1.206082   -0.000001
| 11> C      0.750116   -1.206050   -0.000001
| 12> C      0.034638    0.000067   -0.000002
| 13> C     -4.050167   -0.000024    0.000003
| 14> H      3.918041   -0.000216    0.000003
| 15> H      2.674572    2.141336    0.000001
| 16> H      2.674269   -2.141571    0.000002
| 17> H      0.206696    2.140516   -0.000001
| 18> H      0.206275   -2.140361   -0.000001
| 19> H     -4.443661   -0.509666    0.881896
| 20> H     -4.443259    1.018099   -0.000365
| 21> H     -4.443669   -0.510309   -0.881514
| 22> *
| 23>
| 24>                          ****END OF INPUT****

CARTESIAN COORDINATES (ANGSTROEM)
---------------------------------
  C     -1.391545    0.000201   -0.000002
  C     -2.595600    0.000392   -0.000004
  C      2.836362   -0.000147    0.000002
  C      2.137248    1.202242    0.000001
  C      2.137077   -1.202403    0.000001
  C      0.750328    1.206082   -0.000001
  C      0.750116   -1.206050   -0.000001
  C      0.034638    0.000067   -0.000002
  C     -4.050167   -0.000024    0.000003
  H      3.918041   -0.000216    0.000003
  H      2.674572    2.141336    0.000001
  H      2.674269   -2.141571    0.000002
  H      0.206696    2.140516   -0.000001
  H      0.206275   -2.140361   -0.000001
  H     -4.443661   -0.509666    0.881896
  H     -4.443259    1.018099   -0.000365
  H     -4.443669   -0.510309   -0.881514

 Total Charge           Charge          ....    0
 Multiplicity           Mult            ....    1
 Number of Electrons    NEL             ....   62
 Basis Dimension        Dim             ....  598

ORBITAL ENERGIES
----------------

  NO   OCC          E(Eh)            E(eV)
   0   2.0000     -11.259347      -306.3824
   1   2.0000     -11.247395      -306.0572
   2   2.0000     -11.239581      -305.8445
   3   2.0000     -11.239562      -305.8440
   4   2.0000     -11.238460      -305.8140
   5   2.0000     -11.236824      -305.7695
   6   2.0000     -11.236381      -305.7575
   7   2.0000     -11.228458      -305.5419
   8   2.0000     -11.220013      -305.3121
   9   2.0000      -1.162806       -31.6416
  10   2.0000      -1.070629       -29.1333
  11   2.0000      -1.027789       -27.9676
  12   2.0000      -1.020528       -27.7700
  13   2.0000      -0.949266       -25.8308
  14   2.0000      -0.841861       -22.9082
  15   2.0000      -0.831167       -22.6172
  16   2.0000      -0.730163       -19.8687
  17   2.0000      -0.670930       -18.2569
  18   2.0000      -0.633237       -17.2313
  19   2.0000      -0.630542       -17.1579
  20   2.0000      -0.601972       -16.3805
  21   2.0000      -0.591168       -16.0865
  22   2.0000      -0.589092       -16.0300
  23   2.0000      -0.588010       -16.0006
  24   2.0000      -0.518641       -14.1129
  25   2.0000      -0.513593       -13.9756
  26   2.0000      -0.499893       -13.6028
  27   2.0000      -0.415305       -11.3010
  28   2.0000      -0.376823       -10.2539
  29   2.0000      -0.341803        -9.3009
  30   2.0000      -0.309256        -8.4153
  31   0.0000       0.027638         0.7521
  32   0.0000       0.029206         0.7947
  33   0.0000       0.035171         0.9570
  34   0.0000       0.043601         1.1865
  35   0.0000       0.046011         1.2520

MULLIKEN ATOMIC CHARGES
-----------------------
   0 C :   -0.029454
   1 C :    1.461338
   2 C :    0.019619
   3 C :   -0.589190
   4 C :   -0.580384
   5 C :   -1.338683
   6 C :   -1.404759
   7 C :    1.202542
   8 C :   -0.711405
   9 H :    0.437655
  10 H :    0.510196
  11 H :    0.500741
  12 H :   -0.190722
  13 H :   -0.172386
  14 H :    0.299619
  15 H :    0.285667
  16 H :    0.299604
Sum of atomic charges:    0.0000000

LOEWDIN ATOMIC CHARGES
----------------------
   0 C :    0.059354
   1 C :    0.101192
   2 C :    0.196259
   3 C :    0.197317
   4 C :    0.197313
   5 C :    0.204290
   6 C :    0.204247
   7 C :   -0.207400
   8 C :    0.513574
   9 H :   -0.185254
  10 H :   -0.184857
  11 H :   -0.184871
  12 H :   -0.177355
  13 H :   -0.177495
  14 H :   -0.185322
  15 H :   -0.185669
  16 H :   -0.185322

  Mayer bond orders larger than 0.100000
B(  0-C ,  1-C ) :   3.5932 B(  0-C ,  2-C ) :   0.1332 B(  0-C ,  3-C ) :   0.1416
B(  0-C ,  4-C ) :   0.1687 B(  0-C ,  5-C ) :   0.6251 B(  0-C ,  6-C ) :   0.4988
B(  0-C ,  7-C ) :   0.9663 B(  0-C ,  8-C ) :  -0.1741 B(  0-C ,  9-H ) :  -0.4435
B(  0-C , 13-H ) :  -0.1173 B(  1-C ,  2-C ) :   0.4239 B(  1-C ,  3-C ) :  -0.5434
B(  1-C ,  4-C ) :  -0.5697 B(  1-C ,  5-C ) :  -0.7009 B(  1-C ,  6-C ) :  -0.5880
B(  1-C ,  7-C ) :  -0.3241 B(  1-C ,  8-C ) :   0.8236 B(  1-C ,  9-H ) :   0.3045
B(  1-C , 10-H ) :   0.4009 B(  1-C , 11-H ) :   0.3245 B(  1-C , 12-H ) :  -0.9387
B(  1-C , 13-H ) :  -0.9170 B(  2-C ,  3-C ) :   1.0644 B(  2-C ,  4-C ) :   1.0585
B(  2-C ,  5-C ) :  -0.3252 B(  2-C ,  6-C ) :  -0.3352 B(  2-C ,  7-C ) :  -0.1082
B(  2-C ,  9-H ) :   0.8759 B(  3-C ,  4-C ) :   0.1049 B(  3-C ,  5-C ) :   1.3806
B(  3-C ,  6-C ) :   0.1734 B(  3-C ,  7-C ) :   0.3216 B(  3-C ,  9-H ) :  -0.2059
B(  3-C , 10-H ) :   0.7339 B(  3-C , 12-H ) :  -0.1359 B(  4-C ,  5-C ) :   0.1704
B(  4-C ,  6-C ) :   1.3883 B(  4-C ,  7-C ) :   0.3140 B(  4-C ,  9-H ) :  -0.2128
B(  4-C , 11-H ) :   0.7588 B(  4-C , 13-H ) :  -0.1478 B(  5-C ,  6-C ) :  -0.2119
B(  5-C ,  7-C ) :   0.5152 B(  5-C ,  9-H ) :   0.1398 B(  5-C , 10-H ) :  -0.1114
B(  5-C , 11-H ) :  -0.1619 B(  5-C , 12-H ) :   2.1376 B(  5-C , 13-H ) :   0.4823
B(  6-C ,  7-C ) :   0.5309 B(  6-C ,  9-H ) :   0.1272 B(  6-C , 10-H ) :  -0.1624
B(  6-C , 12-H ) :   0.4871 B(  6-C , 13-H ) :   2.0845 B(  7-C , 10-H ) :  -0.1241
B(  7-C , 11-H ) :  -0.1499 B(  8-C , 14-H ) :   0.9433 B(  8-C , 15-H ) :   0.9622
B(  8-C , 16-H ) :   0.9433 B( 12-H , 13-H ) :   0.3715

MP2 TOTAL ENERGY:     -346.972833066 Eh
FINAL SINGLE POINT ENERGY      -346.972833066096

DIPOLE MOMENT
-------------
                                X             Y             Z
Electronic contribution:      3.51558       0.00208      -0.00002
Nuclear contribution   :     -3.65946      -0.00218       0.00002
                        -----------------------------------------
Total Dipole Moment    :     -0.14387      -0.00009       0.00000
                        -----------------------------------------
Magnitude (a.u.)       :      0.14387
Magnitude (Debye)      :      0.36570

Rotational constants in cm-1:     0.184669     0.027535     0.024069
Rotational constants in MHz :  5536.240898   825.474886   721.579014

                             ****ORCA TERMINATED NORMALLY****
TOTAL RUN TIME: 0 days 0 hours 7 minutes 59 seconds 674 msec
