                         Program Version 5.0.3 -  RELEASE  -
|  1> !ri-mp2 aug-cc-pvtz aug-cc-pvtz/c tightscf
|  2> %pal nprocs 16 end
|  3>
|  4> * xyz 0 1
|  5> O     -0.463972    1.384052   -0.155574
|  6> H      0.450340    1.692749   -0.148928
|  7> O      1.955994   -0.044939    0.007682
|  8> H      2.204193   -0.174878    0.928152
|  9> C      0.719569   -0.720388   -0.243068
| 10> H      0.626152   -0.767914   -1.328484
| 11> H      0.743413   -1.741843    0.148870
| 12> C     -0.461734    0.047680    0.337446
| 13> H     -0.352342    0.067485    1.432972
| 14> C     -1.793602   -0.587521   -0.016562
| 15> H     -1.917072   -0.637100   -1.099209
| 16> H     -1.865467   -1.596382    0.392217
| 17> H     -2.610789    0.006348    0.390648
| 18> *
| 19>
| 20>                          ****END OF INPUT****

CARTESIAN COORDINATES (ANGSTROEM)
---------------------------------
  O     -0.463972    1.384052   -0.155574
  H      0.450340    1.692749   -0.148928
  O      1.955994   -0.044939    0.007682
  H      2.204193   -0.174878    0.928152
  C      0.719569   -0.720388   -0.243068
  H      0.626152   -0.767914   -1.328484
  H      0.743413   -1.741843    0.148870
  C     -0.461734    0.047680    0.337446
  H     -0.352342    0.067485    1.432972
  C     -1.793602   -0.587521   -0.016562
  H     -1.917072   -0.637100   -1.099209
  H     -1.865467   -1.596382    0.392217
  H     -2.610789    0.006348    0.390648

 Total Charge           Charge          ....    0
 Multiplicity           Mult            ....    1
 Number of Electrons    NEL             ....   42
 Basis Dimension        Dim             ....  414

ORBITAL ENERGIES
----------------

  NO   OCC          E(Eh)            E(eV)
   0   2.0000     -20.572311      -559.8010
   1   2.0000     -20.550817      -559.2162
   2   2.0000     -11.282846      -307.0219
   3   2.0000     -11.282055      -307.0003
   4   2.0000     -11.218259      -305.2643
   5   2.0000      -1.378889       -37.5215
   6   2.0000      -1.348055       -36.6824
   7   2.0000      -1.042654       -28.3721
   8   2.0000      -0.931246       -25.3405
   9   2.0000      -0.813016       -22.1233
  10   2.0000      -0.711638       -19.3646
  11   2.0000      -0.687023       -18.6948
  12   2.0000      -0.659362       -17.9422
  13   2.0000      -0.607105       -16.5202
  14   2.0000      -0.563797       -15.3417
  15   2.0000      -0.542513       -14.7625
  16   2.0000      -0.536650       -14.6030
  17   2.0000      -0.520468       -14.1627
  18   2.0000      -0.504483       -13.7277
  19   2.0000      -0.464652       -12.6438
  20   2.0000      -0.429588       -11.6897
  21   0.0000       0.026051         0.7089
  22   0.0000       0.035996         0.9795
  23   0.0000       0.039913         1.0861
  24   0.0000       0.043230         1.1763
  25   0.0000       0.059510         1.6194

MULLIKEN ATOMIC CHARGES
-----------------------
   0 O :   -0.697547
   1 H :    0.192138
   2 O :   -0.613768
   3 H :    0.159683
   4 C :   -0.264553
   5 H :    0.340861
   6 H :    0.332069
   7 C :    0.410237
   8 H :    0.274388
   9 C :   -0.988094
  10 H :    0.283745
  11 H :    0.289290
  12 H :    0.281551
Sum of atomic charges:   -0.0000000

LOEWDIN ATOMIC CHARGES
----------------------
   0 O :    0.824651
   1 H :   -0.520974
   2 O :    0.814023
   3 H :   -0.488125
   4 C :    0.051106
   5 H :   -0.158964
   6 H :   -0.150290
   7 C :   -0.302223
   8 H :   -0.142080
   9 C :    0.578438
  10 H :   -0.166867
  11 H :   -0.169809
  12 H :   -0.168887

  Mayer bond orders larger than 0.100000
B(  0-O ,  1-H ) :   0.9887 B(  0-O ,  7-C ) :   0.5490 B(  2-O ,  3-H ) :   1.0041
B(  2-O ,  4-C ) :   0.7403 B(  4-C ,  5-H ) :   0.8921 B(  4-C ,  6-H ) :   0.9148
B(  4-C ,  7-C ) :   0.9139 B(  7-C ,  8-H ) :   0.9490 B(  7-C ,  9-C ) :   0.7966
B(  9-C , 10-H ) :   0.9450 B(  9-C , 11-H ) :   0.9430 B(  9-C , 12-H ) :   0.9680

MP2 TOTAL ENERGY:     -269.114131214 Eh
FINAL SINGLE POINT ENERGY      -269.114131214376

DIPOLE MOMENT
-------------
                                X             Y             Z
Electronic contribution:      2.94653       2.47938      -0.10139
Nuclear contribution   :     -2.79676      -3.24496       0.74003
                        -----------------------------------------
Total Dipole Moment    :      0.14977      -0.76557       0.63863
                        -----------------------------------------
Magnitude (a.u.)       :      1.00816
Magnitude (Debye)      :      2.56254

Rotational constants in cm-1:     0.284965     0.119486     0.092234
Rotational constants in MHz :  8543.042916  3582.092841  2765.091920

                             ****ORCA TERMINATED NORMALLY****
TOTAL RUN TIME: 0 days 0 hours 2 minutes 17 seconds 45 msec
