                         Program Version 5.0.3 -  RELEASE  -
|  1> !ri-mp2 aug-cc-pvtz aug-cc-pvtz/c tightscf
|  2> %pal nprocs 16 end
|  3>
|  4> * xyz 0 1
|  5> C     -1.178117   -1.374042    0.000000
|  6> C      0.000000    0.710936    0.000000
|  7> C      0.054673   -2.002123    0.000000
|  8> C     -1.206605    0.023456    0.000000
|  9> C      1.184142   -0.028878    0.000000
| 10> N      1.224295   -1.357495    0.000000
| 11> S     -2.784231    0.826539    0.000000
| 12> S      2.727524    0.857050    0.000000
| 13> H     -2.088791   -1.955558    0.000000
| 14> H      0.031617    1.791274    0.000000
| 15> H      0.111277   -3.084243    0.000000
| 16> H     -2.326622    2.090660    0.000000
| 17> H      3.485210   -0.253177    0.000000
| 18> *
| 19>
| 20>                          ****END OF INPUT****

CARTESIAN COORDINATES (ANGSTROEM)
---------------------------------
  C     -1.178117   -1.374042    0.000000
  C      0.000000    0.710936    0.000000
  C      0.054673   -2.002123    0.000000
  C     -1.206605    0.023456    0.000000
  C      1.184142   -0.028878    0.000000
  N      1.224295   -1.357495    0.000000
  S     -2.784231    0.826539    0.000000
  S      2.727524    0.857050    0.000000
  H     -2.088791   -1.955558    0.000000
  H      0.031617    1.791274    0.000000
  H      0.111277   -3.084243    0.000000
  H     -2.326622    2.090660    0.000000
  H      3.485210   -0.253177    0.000000

 Total Charge           Charge          ....    0
 Multiplicity           Mult            ....    1
 Number of Electrons    NEL             ....   74
 Basis Dimension        Dim             ....  491

ORBITAL ENERGIES
----------------

  NO   OCC          E(Eh)            E(eV)
   0   2.0000     -91.988386     -2503.1312
   1   2.0000     -91.972946     -2502.7111
   2   2.0000     -15.572276      -423.7432
   3   2.0000     -11.325158      -308.1732
   4   2.0000     -11.310355      -307.7704
   5   2.0000     -11.290179      -307.2214
   6   2.0000     -11.254169      -306.2415
   7   2.0000     -11.247963      -306.0726
   8   2.0000      -8.989353      -244.6127
   9   2.0000      -8.974366      -244.2049
  10   2.0000      -6.670664      -181.5180
  11   2.0000      -6.669635      -181.4900
  12   2.0000      -6.668644      -181.4630
  13   2.0000      -6.655692      -181.1106
  14   2.0000      -6.654695      -181.0835
  15   2.0000      -6.653736      -181.0574
  16   2.0000      -1.280373       -34.8407
  17   2.0000      -1.132013       -30.8036
  18   2.0000      -1.076598       -29.2957
  19   2.0000      -0.995606       -27.0918
  20   2.0000      -0.972987       -26.4763
  21   2.0000      -0.868800       -23.6412
  22   2.0000      -0.818016       -22.2594
  23   2.0000      -0.702143       -19.1063
  24   2.0000      -0.698027       -18.9943
  25   2.0000      -0.652047       -17.7431
  26   2.0000      -0.598219       -16.2784
  27   2.0000      -0.574916       -15.6443
  28   2.0000      -0.574792       -15.6409
  29   2.0000      -0.548739       -14.9319
  30   2.0000      -0.500300       -13.6138
  31   2.0000      -0.494175       -13.4472
  32   2.0000      -0.466093       -12.6830
  33   2.0000      -0.425958       -11.5909
  34   2.0000      -0.417460       -11.3597
  35   2.0000      -0.349072        -9.4987
  36   2.0000      -0.328371        -8.9354
  37   0.0000       0.028040         0.7630
  38   0.0000       0.032214         0.8766
  39   0.0000       0.038532         1.0485
  40   0.0000       0.050212         1.3663
  41   0.0000       0.052909         1.4397

MULLIKEN ATOMIC CHARGES
-----------------------
   0 C :   -0.436144
   1 C :   -0.781814
   2 C :   -0.654912
   3 C :    0.853354
   4 C :    0.643144
   5 N :   -0.539121
   6 S :   -0.511291
   7 S :   -0.434980
   8 H :    0.447070
   9 H :    0.487467
  10 H :    0.704467
  11 H :    0.106113
  12 H :    0.116648
Sum of atomic charges:    0.0000000

LOEWDIN ATOMIC CHARGES
----------------------
   0 C :    0.110693
   1 C :    0.038278
   2 C :   -0.002431
   3 C :   -0.584087
   4 C :   -0.771554
   5 N :    0.303161
   6 S :    1.345180
   7 S :    1.306812
   8 H :   -0.206252
   9 H :   -0.225042
  10 H :   -0.187893
  11 H :   -0.558860
  12 H :   -0.568005

  Mayer bond orders larger than 0.100000
B(  0-C ,  2-C ) :   1.0028 B(  0-C ,  3-C ) :   1.2372 B(  0-C ,  5-N ) :  -0.1322
B(  0-C ,  8-H ) :   0.8539 B(  1-C ,  3-C ) :   1.2284 B(  1-C ,  4-C ) :   1.1379
B(  1-C ,  6-S ) :   0.1384 B(  1-C ,  9-H ) :   0.7384 B(  2-C ,  4-C ) :   0.1572
B(  2-C ,  5-N ) :   1.2961 B(  2-C , 10-H ) :   0.3155 B(  3-C ,  6-S ) :   0.5973
B(  4-C ,  5-N ) :   0.9994 B(  4-C ,  7-S ) :   0.5963 B(  5-N , 10-H ) :  -0.1432
B(  6-S , 11-H ) :   1.0947 B(  7-S , 12-H ) :   1.1188

MP2 TOTAL ENERGY:    -1043.229577946 Eh
FINAL SINGLE POINT ENERGY     -1043.229577945810

DIPOLE MOMENT
-------------
                                X             Y             Z
Electronic contribution:      0.28282       1.54841      -0.00000
Nuclear contribution   :     -0.75530      -1.42737       0.00000
                        -----------------------------------------
Total Dipole Moment    :     -0.47249       0.12104      -0.00000
                        -----------------------------------------
Magnitude (a.u.)       :      0.48774
Magnitude (Debye)      :      1.23975

Rotational constants in cm-1:     0.099633     0.029001     0.022463
Rotational constants in MHz :  2986.917925   869.423564   673.409457

                             ****ORCA TERMINATED NORMALLY****
TOTAL RUN TIME: 0 days 0 hours 4 minutes 56 seconds 60 msec
