                         Program Version 5.0.3 -  RELEASE  -
|  1> !ri-mp2 aug-cc-pvtz aug-cc-pvtz/c tightscf
|  2> %pal nprocs 16 end
|  3>
|  4> * xyz 0 1
|  5> O      0.219214   -0.692487    0.000002
|  6> O     -1.737049   -1.731787    0.000000
|  7> C     -1.131002   -0.695733    0.000000
|  8> C     -1.795334    0.594519   -0.000001
|  9> C      0.941706    0.562529    0.000002
| 10> C      2.364687    0.276671    0.000000
| 11> C     -2.399277    1.630600   -0.000004
| 12> C      3.545311    0.077874    0.000000
| 13> H      0.670540    1.140839    0.884807
| 14> H      0.670539    1.140839   -0.884803
| 15> H     -2.945518    2.542080   -0.000006
| 16> H      4.590571   -0.108328   -0.000001
| 17> *
| 18>
| 19>                          ****END OF INPUT****

CARTESIAN COORDINATES (ANGSTROEM)
---------------------------------
  O      0.219214   -0.692487    0.000002
  O     -1.737049   -1.731787    0.000000
  C     -1.131002   -0.695733    0.000000
  C     -1.795334    0.594519   -0.000001
  C      0.941706    0.562529    0.000002
  C      2.364687    0.276671    0.000000
  C     -2.399277    1.630600   -0.000004
  C      3.545311    0.077874    0.000000
  H      0.670540    1.140839    0.884807
  H      0.670539    1.140839   -0.884803
  H     -2.945518    2.542080   -0.000006
  H      4.590571   -0.108328   -0.000001

 Total Charge           Charge          ....    0
 Multiplicity           Mult            ....    1
 Number of Electrons    NEL             ....   56
 Basis Dimension        Dim             ....  460

ORBITAL ENERGIES
----------------

  NO   OCC          E(Eh)            E(eV)
   0   2.0000     -20.626394      -561.2727
   1   2.0000     -20.564387      -559.5854
   2   2.0000     -11.421162      -310.7856
   3   2.0000     -11.341722      -308.6240
   4   2.0000     -11.283802      -307.0479
   5   2.0000     -11.274379      -306.7914
   6   2.0000     -11.253219      -306.2156
   7   2.0000     -11.246918      -306.0442
   8   2.0000      -1.479059       -40.2472
   9   2.0000      -1.384998       -37.6877
  10   2.0000      -1.087512       -29.5927
  11   2.0000      -1.079576       -29.3767
  12   2.0000      -0.988256       -26.8918
  13   2.0000      -0.907404       -24.6917
  14   2.0000      -0.781484       -21.2653
  15   2.0000      -0.752446       -20.4751
  16   2.0000      -0.740960       -20.1625
  17   2.0000      -0.704460       -19.1693
  18   2.0000      -0.698958       -19.0196
  19   2.0000      -0.650091       -17.6899
  20   2.0000      -0.600725       -16.3466
  21   2.0000      -0.566679       -15.4201
  22   2.0000      -0.493319       -13.4239
  23   2.0000      -0.488334       -13.2882
  24   2.0000      -0.440905       -11.9976
  25   2.0000      -0.439433       -11.9576
  26   2.0000      -0.418256       -11.3813
  27   2.0000      -0.408425       -11.1138
  28   0.0000       0.020669         0.5624
  29   0.0000       0.027998         0.7619
  30   0.0000       0.040558         1.1036
  31   0.0000       0.041672         1.1340
  32   0.0000       0.063012         1.7147

MULLIKEN ATOMIC CHARGES
-----------------------
   0 O :   -0.272693
   1 O :   -0.745665
   2 C :    0.301744
   3 C :    1.340717
   4 C :   -0.344070
   5 C :    1.167756
   6 C :   -1.442051
   7 C :   -1.719037
   8 H :    0.361383
   9 H :    0.361382
  10 H :    0.522300
  11 H :    0.468233
Sum of atomic charges:    0.0000000

LOEWDIN ATOMIC CHARGES
----------------------
   0 O :    0.559235
   1 O :    0.435974
   2 C :   -0.891805
   3 C :   -0.026432
   4 C :   -0.033891
   5 C :    0.028794
   6 C :    0.431658
   7 C :    0.406667
   8 H :   -0.173548
   9 H :   -0.173549
  10 H :   -0.271278
  11 H :   -0.291826

  Mayer bond orders larger than 0.100000
B(  0-O ,  2-C ) :   1.0401 B(  0-O ,  4-C ) :   0.8139 B(  1-O ,  2-C ) :   1.6283
B(  2-C ,  3-C ) :   0.5173 B(  2-C ,  4-C ) :   0.1395 B(  2-C ,  6-C ) :  -0.2057
B(  3-C ,  6-C ) :   1.1163 B(  4-C ,  5-C ) :   0.9338 B(  4-C ,  7-C ) :   0.2541
B(  4-C ,  8-H ) :   0.8770 B(  4-C ,  9-H ) :   0.8770 B(  5-C ,  7-C ) :   0.1202
B(  5-C , 11-H ) :  -0.1630 B(  6-C , 10-H ) :   0.8297 B(  7-C , 11-H ) :   1.0304

MP2 TOTAL ENERGY:     -380.653362355 Eh
FINAL SINGLE POINT ENERGY      -380.653362354857

DIPOLE MOMENT
-------------
                                X             Y             Z
Electronic contribution:     -2.45257      -2.60282       0.00000
Nuclear contribution   :      2.88208       4.55070      -0.00000
                        -----------------------------------------
Total Dipole Moment    :      0.42951       1.94787      -0.00000
                        -----------------------------------------
Magnitude (a.u.)       :      1.99467
Magnitude (Debye)      :      5.07004

Rotational constants in cm-1:     0.149383     0.038882     0.031031
Rotational constants in MHz :  4478.387388  1165.651576   930.286207

                             ****ORCA TERMINATED NORMALLY****
TOTAL RUN TIME: 0 days 0 hours 3 minutes 17 seconds 777 msec
