                         Program Version 5.0.3 -  RELEASE  -
|  1> !ri-mp2 aug-cc-pvtz aug-cc-pvtz/c tightscf
|  2> %pal nprocs 16 end
|  3>
|  4> * xyz 0 1
|  5> C     1.340358     1.082599       0.000000
|  6> C     2.159435    -0.166489       0.000000
|  7> C     1.340358    -1.239684       0.000000
|  8> C    -1.340358    -1.082599       0.000000
|  9> C    -2.159435     0.166489       0.000000
| 10> C    -1.340358     1.239684       0.000000
| 11> C     0.038329     0.726381       0.000000
| 12> C    -0.038329    -0.726381       0.000000
| 13> H     1.756064     2.079976       0.000000
| 14> H     3.238150    -0.182744       0.000000
| 15> H     1.637830    -2.276002       0.000000
| 16> H    -1.756064    -2.079976       0.000000
| 17> H    -3.238150     0.182744       0.000000
| 18> H    -1.637830     2.276002       0.000000
| 19> *
| 20>
| 21>                          ****END OF INPUT****

CARTESIAN COORDINATES (ANGSTROEM)
---------------------------------
  C      1.340358    1.082599    0.000000
  C      2.159435   -0.166489    0.000000
  C      1.340358   -1.239684    0.000000
  C     -1.340358   -1.082599    0.000000
  C     -2.159435    0.166489    0.000000
  C     -1.340358    1.239684    0.000000
  C      0.038329    0.726381    0.000000
  C     -0.038329   -0.726381    0.000000
  H      1.756064    2.079976    0.000000
  H      3.238150   -0.182744    0.000000
  H      1.637830   -2.276002    0.000000
  H     -1.756064   -2.079976    0.000000
  H     -3.238150    0.182744    0.000000
  H     -1.637830    2.276002    0.000000

 Total Charge           Charge          ....    0
 Multiplicity           Mult            ....    1
 Number of Electrons    NEL             ....   54
 Basis Dimension        Dim             ....  506

ORBITAL ENERGIES
----------------

  NO   OCC          E(Eh)            E(eV)
   0   2.0000     -11.252570      -306.1980
   1   2.0000     -11.252567      -306.1979
   2   2.0000     -11.239309      -305.8372
   3   2.0000     -11.239308      -305.8371
   4   2.0000     -11.235960      -305.7460
   5   2.0000     -11.235960      -305.7460
   6   2.0000     -11.224993      -305.4476
   7   2.0000     -11.224093      -305.4231
   8   2.0000      -1.191278       -32.4163
   9   2.0000      -1.098958       -29.9042
  10   2.0000      -0.993277       -27.0284
  11   2.0000      -0.944209       -25.6932
  12   2.0000      -0.884002       -24.0549
  13   2.0000      -0.773254       -21.0413
  14   2.0000      -0.749496       -20.3948
  15   2.0000      -0.703719       -19.1492
  16   2.0000      -0.685216       -18.6457
  17   2.0000      -0.613193       -16.6858
  18   2.0000      -0.567442       -15.4409
  19   2.0000      -0.562215       -15.2987
  20   2.0000      -0.535989       -14.5850
  21   2.0000      -0.531216       -14.4551
  22   2.0000      -0.505704       -13.7609
  23   2.0000      -0.480684       -13.0801
  24   2.0000      -0.413115       -11.2414
  25   2.0000      -0.333855        -9.0846
  26   2.0000      -0.276988        -7.5372
  27   0.0000       0.024484         0.6663
  28   0.0000       0.030203         0.8219
  29   0.0000       0.031434         0.8554
  30   0.0000       0.034021         0.9258
  31   0.0000       0.045431         1.2362

MULLIKEN ATOMIC CHARGES
-----------------------
   0 C :   -1.084773
   1 C :   -0.434913
   2 C :   -0.945135
   3 C :   -1.084773
   4 C :   -0.434913
   5 C :   -0.945135
   6 C :    1.111697
   7 C :    1.111698
   8 H :    0.308881
   9 H :    0.715439
  10 H :    0.328804
  11 H :    0.308881
  12 H :    0.715438
  13 H :    0.328804
Sum of atomic charges:   -0.0000000

LOEWDIN ATOMIC CHARGES
----------------------
   0 C :    0.271298
   1 C :    0.220667
   2 C :    0.240778
   3 C :    0.271298
   4 C :    0.220667
   5 C :    0.240778
   6 C :   -0.173642
   7 C :   -0.173642
   8 H :   -0.179402
   9 H :   -0.194294
  10 H :   -0.185405
  11 H :   -0.179402
  12 H :   -0.194294
  13 H :   -0.185405

  Mayer bond orders larger than 0.100000
B(  0-C ,  1-C ) :   0.8951 B(  0-C ,  3-C ) :   0.1615 B(  0-C ,  6-C ) :   0.8862
B(  0-C ,  8-H ) :   1.1685 B(  1-C ,  2-C ) :   1.5905 B(  1-C ,  4-C ) :   0.2578
B(  1-C ,  5-C ) :  -0.1672 B(  1-C ,  9-H ) :   0.4267 B(  2-C ,  4-C ) :  -0.1672
B(  2-C ,  5-C ) :   0.2325 B(  2-C ,  6-C ) :  -0.1030 B(  2-C ,  7-C ) :   0.4082
B(  2-C , 10-H ) :   1.1173 B(  3-C ,  4-C ) :   0.8951 B(  3-C ,  7-C ) :   0.8862
B(  3-C , 11-H ) :   1.1685 B(  4-C ,  5-C ) :   1.5905 B(  4-C , 12-H ) :   0.4267
B(  5-C ,  6-C ) :   0.4082 B(  5-C ,  7-C ) :  -0.1030 B(  5-C , 13-H ) :   1.1173
B(  6-C ,  7-C ) :   0.7248 B(  6-C ,  8-H ) :  -0.1667 B(  6-C , 13-H ) :  -0.2082
B(  7-C , 10-H ) :  -0.2082 B(  7-C , 11-H ) :  -0.1667

MP2 TOTAL ENERGY:     -307.712459244 Eh
FINAL SINGLE POINT ENERGY      -307.712459243753

DIPOLE MOMENT
-------------
                                X             Y             Z
Electronic contribution:     -0.00000      -0.00000       0.00000
Nuclear contribution   :     -0.00000       0.00000       0.00000
                        -----------------------------------------
Total Dipole Moment    :     -0.00000      -0.00000       0.00000
                        -----------------------------------------
Magnitude (a.u.)       :      0.00000
Magnitude (Debye)      :      0.00000

Rotational constants in cm-1:     0.175390     0.072456     0.051274
Rotational constants in MHz :  5258.057428  2172.173080  1537.154303

                             ****ORCA TERMINATED NORMALLY****
TOTAL RUN TIME: 0 days 0 hours 6 minutes 32 seconds 91 msec
