                         Program Version 5.0.3 -  RELEASE  -
|  1> !ri-mp2 aug-cc-pvtz aug-cc-pvtz/c tightscf
|  2> %pal nprocs 16 end
|  3>
|  4> * xyz 0 1
|  5> C      0.000000    0.000000    2.029610
|  6> C      0.000000    1.200354   -0.112893
|  7> C      0.000000   -1.200354   -0.112893
|  8> C      0.000000    1.140883   -1.499716
|  9> C      0.000000   -1.140883   -1.499716
| 10> C      0.000000    0.000000    0.598544
| 11> N      0.000000    0.000000    3.181206
| 12> N      0.000000    0.000000   -2.189569
| 13> H      0.000000    2.149584    0.402220
| 14> H      0.000000   -2.149584    0.402220
| 15> H      0.000000    2.054587   -2.081755
| 16> H      0.000000   -2.054587   -2.081755
| 17> *
| 18>
| 19>                          ****END OF INPUT****

CARTESIAN COORDINATES (ANGSTROEM)
---------------------------------
  C      0.000000    0.000000    2.029610
  C      0.000000    1.200354   -0.112893
  C      0.000000   -1.200354   -0.112893
  C      0.000000    1.140883   -1.499716
  C      0.000000   -1.140883   -1.499716
  C      0.000000    0.000000    0.598544
  N      0.000000    0.000000    3.181206
  N      0.000000    0.000000   -2.189569
  H      0.000000    2.149584    0.402220
  H      0.000000   -2.149584    0.402220
  H      0.000000    2.054587   -2.081755
  H      0.000000   -2.054587   -2.081755

 Total Charge           Charge          ....    0
 Multiplicity           Mult            ....    1
 Number of Electrons    NEL             ....   54
 Basis Dimension        Dim             ....  460

ORBITAL ENERGIES
----------------

  NO   OCC          E(Eh)            E(eV)
   0   2.0000     -15.596182      -424.3937
   1   2.0000     -15.590982      -424.2522
   2   2.0000     -11.316836      -307.9468
   3   2.0000     -11.301555      -307.5309
   4   2.0000     -11.301538      -307.5305
   5   2.0000     -11.291494      -307.2572
   6   2.0000     -11.278172      -306.8947
   7   2.0000     -11.278143      -306.8939
   8   2.0000      -1.291303       -35.1381
   9   2.0000      -1.240993       -33.7691
  10   2.0000      -1.137698       -30.9583
  11   2.0000      -1.067387       -29.0451
  12   2.0000      -0.929600       -25.2957
  13   2.0000      -0.892330       -24.2815
  14   2.0000      -0.787962       -21.4415
  15   2.0000      -0.704135       -19.1605
  16   2.0000      -0.692114       -18.8334
  17   2.0000      -0.652635       -17.7591
  18   2.0000      -0.629945       -17.1417
  19   2.0000      -0.584531       -15.9059
  20   2.0000      -0.574554       -15.6344
  21   2.0000      -0.559231       -15.2174
  22   2.0000      -0.513844       -13.9824
  23   2.0000      -0.485237       -13.2040
  24   2.0000      -0.448914       -12.2156
  25   2.0000      -0.401434       -10.9236
  26   2.0000      -0.377402       -10.2696
  27   0.0000       0.024327         0.6620
  28   0.0000       0.029109         0.7921
  29   0.0000       0.039035         1.0622
  30   0.0000       0.041295         1.1237
  31   0.0000       0.047647         1.2965

MULLIKEN ATOMIC CHARGES
-----------------------
   0 C :   -0.067220
   1 C :   -0.823510
   2 C :   -0.823510
   3 C :   -0.349547
   4 C :   -0.349547
   5 C :    2.009812
   6 N :   -0.735575
   7 N :   -0.589851
   8 H :    0.185363
   9 H :    0.185363
  10 H :    0.679112
  11 H :    0.679112
Sum of atomic charges:   -0.0000000

LOEWDIN ATOMIC CHARGES
----------------------
   0 C :   -0.225332
   1 C :    0.214925
   2 C :    0.214925
   3 C :    0.029367
   4 C :    0.029367
   5 C :   -0.203509
   6 N :    0.281042
   7 N :    0.382900
   8 H :   -0.174390
   9 H :   -0.174390
  10 H :   -0.187452
  11 H :   -0.187452

  Mayer bond orders larger than 0.100000
B(  0-C ,  1-C ) :   0.3532 B(  0-C ,  2-C ) :   0.3532 B(  0-C ,  6-N ) :   1.9569
B(  1-C ,  3-C ) :   0.9519 B(  1-C ,  5-C ) :   0.4156 B(  1-C ,  8-H ) :   1.2890
B(  2-C ,  4-C ) :   0.9519 B(  2-C ,  5-C ) :   0.4156 B(  2-C ,  9-H ) :   1.2890
B(  3-C ,  5-C ) :   0.1125 B(  3-C ,  7-N ) :   1.1253 B(  3-C ,  8-H ) :  -0.1147
B(  3-C , 10-H ) :   0.4587 B(  4-C ,  5-C ) :   0.1125 B(  4-C ,  7-N ) :   1.1253
B(  4-C ,  9-H ) :  -0.1147 B(  4-C , 11-H ) :   0.4587 B(  5-C ,  6-N ) :  -0.1881
B(  5-C ,  8-H ) :  -0.2360 B(  5-C ,  9-H ) :  -0.2360 B(  7-N , 10-H ) :  -0.1136
B(  7-N , 11-H ) :  -0.1136

MP2 TOTAL ENERGY:     -339.864330436 Eh
FINAL SINGLE POINT ENERGY      -339.864330435847

DIPOLE MOMENT
-------------
                                X             Y             Z
Electronic contribution:     -0.00000       0.00000       2.36260
Nuclear contribution   :      0.00000       0.00000      -3.26641
                        -----------------------------------------
Total Dipole Moment    :     -0.00000       0.00000      -0.90381
                        -----------------------------------------
Magnitude (a.u.)       :      0.90381
Magnitude (Debye)      :      2.29731

Rotational constants in cm-1:     0.201393     0.051714     0.041148
Rotational constants in MHz :  6037.624867  1550.358396  1233.592917

                             ****ORCA TERMINATED NORMALLY****
TOTAL RUN TIME: 0 days 0 hours 3 minutes 51 seconds 866 msec
