                         Program Version 5.0.3 -  RELEASE  -
|  1> !ri-mp2 aug-cc-pvtz aug-cc-pvtz/c tightscf
|  2> %pal nprocs 16 end
|  3>
|  4> * xyz 0 1
|  5> O      0.000000    1.083262   -3.015657
|  6> N      0.000000    0.000000   -2.452829
|  7> O      0.000000   -1.083262   -3.015657
|  8> C      0.000000    0.000000   -0.973083
|  9> C      0.000000   -1.215143   -0.304010
| 10> C      0.000000   -1.213700    1.080544
| 11> C      0.000000    0.000000    1.777046
| 12> C      0.000000    0.000000    3.207339
| 13> N      0.000000    0.000000    4.359138
| 14> C      0.000000    1.213700    1.080544
| 15> C      0.000000    1.215143   -0.304010
| 16> H      0.000000   -2.135421   -0.866311
| 17> H      0.000000   -2.145531    1.626371
| 18> H      0.000000    2.145531    1.626371
| 19> H      0.000000    2.135421   -0.866311
| 20> *
| 21>
| 22>                          ****END OF INPUT****

CARTESIAN COORDINATES (ANGSTROEM)
---------------------------------
  O      0.000000    1.083262   -3.015657
  N      0.000000    0.000000   -2.452829
  O      0.000000   -1.083262   -3.015657
  C      0.000000    0.000000   -0.973083
  C      0.000000   -1.215143   -0.304010
  C      0.000000   -1.213700    1.080544
  C      0.000000    0.000000    1.777046
  C      0.000000    0.000000    3.207339
  N      0.000000    0.000000    4.359138
  C      0.000000    1.213700    1.080544
  C      0.000000    1.215143   -0.304010
  H      0.000000   -2.135421   -0.866311
  H      0.000000   -2.145531    1.626371
  H      0.000000    2.145531    1.626371
  H      0.000000    2.135421   -0.866311

 Total Charge           Charge          ....    0
 Multiplicity           Mult            ....    1
 Number of Electrons    NEL             ....   76
 Basis Dimension        Dim             ....  598

ORBITAL ENERGIES
----------------

  NO   OCC          E(Eh)            E(eV)
   0   2.0000     -20.622828      -561.1757
   1   2.0000     -20.622775      -561.1742
   2   2.0000     -15.874638      -431.9709
   3   2.0000     -15.597967      -424.4423
   4   2.0000     -11.340776      -308.5982
   5   2.0000     -11.326826      -308.2186
   6   2.0000     -11.300102      -307.4914
   7   2.0000     -11.300046      -307.4899
   8   2.0000     -11.298775      -307.4553
   9   2.0000     -11.298760      -307.4549
  10   2.0000     -11.298506      -307.4480
  11   2.0000      -1.628452       -44.3124
  12   2.0000      -1.421967       -38.6937
  13   2.0000      -1.253680       -34.1144
  14   2.0000      -1.226602       -33.3775
  15   2.0000      -1.130298       -30.7570
  16   2.0000      -1.084490       -29.5105
  17   2.0000      -1.005077       -27.3495
  18   2.0000      -0.899292       -24.4710
  19   2.0000      -0.876351       -23.8467
  20   2.0000      -0.807240       -21.9661
  21   2.0000      -0.788784       -21.4639
  22   2.0000      -0.750700       -20.4276
  23   2.0000      -0.740804       -20.1583
  24   2.0000      -0.695580       -18.9277
  25   2.0000      -0.679683       -18.4951
  26   2.0000      -0.653994       -17.7961
  27   2.0000      -0.626300       -17.0425
  28   2.0000      -0.585002       -15.9187
  29   2.0000      -0.577510       -15.7149
  30   2.0000      -0.565189       -15.3796
  31   2.0000      -0.516118       -14.0443
  32   2.0000      -0.515525       -14.0282
  33   2.0000      -0.511794       -13.9266
  34   2.0000      -0.492607       -13.4045
  35   2.0000      -0.473804       -12.8929
  36   2.0000      -0.397399       -10.8138
  37   2.0000      -0.395695       -10.7674
  38   0.0000       0.003202         0.0871
  39   0.0000       0.021736         0.5915
  40   0.0000       0.027167         0.7393
  41   0.0000       0.040228         1.0946
  42   0.0000       0.048704         1.3253

MULLIKEN ATOMIC CHARGES
-----------------------
   0 O :   -0.667186
   1 N :    0.719514
   2 O :   -0.667186
   3 C :    0.652408
   4 C :   -0.516137
   5 C :   -0.907707
   6 C :    1.838333
   7 C :    0.346272
   8 N :   -0.821710
   9 C :   -0.907701
  10 C :   -0.516122
  11 H :    0.607074
  12 H :    0.116539
  13 H :    0.116536
  14 H :    0.607073
Sum of atomic charges:   -0.0000000

LOEWDIN ATOMIC CHARGES
----------------------
   0 O :    0.400762
   1 N :   -0.700603
   2 O :    0.400762
   3 C :   -0.199111
   4 C :    0.230893
   5 C :    0.232342
   6 C :   -0.178769
   7 C :   -0.225476
   8 N :    0.285036
   9 C :    0.232342
  10 C :    0.230893
  11 H :   -0.189531
  12 H :   -0.165004
  13 H :   -0.165004
  14 H :   -0.189531

  Mayer bond orders larger than 0.100000
B(  0-O ,  1-N ) :   1.0732 B(  0-O ,  2-O ) :   0.1073 B(  0-O ,  3-C ) :   0.3248
B(  0-O , 10-C ) :  -0.1214 B(  1-N ,  2-O ) :   1.0732 B(  1-N ,  3-C ) :   1.2068
B(  1-N ,  4-C ) :  -0.1906 B(  1-N , 10-C ) :  -0.1906 B(  2-O ,  3-C ) :   0.3248
B(  2-O ,  4-C ) :  -0.1214 B(  3-C ,  4-C ) :   0.9786 B(  3-C ,  5-C ) :  -0.2603
B(  3-C ,  7-C ) :   0.1539 B(  3-C ,  9-C ) :  -0.2603 B(  3-C , 10-C ) :   0.9786
B(  4-C ,  5-C ) :   1.4588 B(  4-C ,  6-C ) :   0.2411 B(  4-C , 11-H ) :   0.4993
B(  5-C ,  6-C ) :   0.3661 B(  5-C ,  7-C ) :   0.3950 B(  5-C ,  8-N ) :   0.1004
B(  5-C ,  9-C ) :  -0.2611 B(  5-C , 12-H ) :   1.4314 B(  5-C , 13-H ) :   0.1400
B(  6-C ,  7-C ) :   0.4007 B(  6-C ,  9-C ) :   0.3661 B(  6-C , 10-C ) :   0.2411
B(  6-C , 12-H ) :  -0.2878 B(  6-C , 13-H ) :  -0.2878 B(  7-C ,  8-N ) :   1.7799
B(  7-C ,  9-C ) :   0.3950 B(  8-N ,  9-C ) :   0.1005 B(  9-C , 10-C ) :   1.4587
B(  9-C , 12-H ) :   0.1400 B(  9-C , 13-H ) :   1.4314 B( 10-C , 14-H ) :   0.4993
B( 12-H , 13-H ) :   0.1212

MP2 TOTAL ENERGY:     -528.068625290 Eh
FINAL SINGLE POINT ENERGY      -528.068625290471

DIPOLE MOMENT
-------------
                                X             Y             Z
Electronic contribution:      0.00000       0.00000      -1.28121
Nuclear contribution   :      0.00000      -0.00000       1.38399
                        -----------------------------------------
Total Dipole Moment    :      0.00000       0.00000       0.10279
                        -----------------------------------------
Magnitude (a.u.)       :      0.10279
Magnitude (Debye)      :      0.26127

Rotational constants in cm-1:     0.132865     0.019800     0.017232
Rotational constants in MHz :  3983.199093   593.594327   516.607189

                             ****ORCA TERMINATED NORMALLY****
TOTAL RUN TIME: 0 days 0 hours 8 minutes 40 seconds 66 msec
