                         Program Version 5.0.3 -  RELEASE  -
|  1> !ri-mp2 aug-cc-pvtz aug-cc-pvtz/c tightscf
|  2> %pal nprocs 16 end
|  3>
|  4> * xyz 0 1
|  5> N      0.636602   -1.058123    0.492208
|  6> C     -0.121601    0.212497    0.582235
|  7> C     -1.541645    0.060070    0.027611
|  8> O     -2.347827    0.951873    0.041962
|  9> O     -1.796324   -1.151121   -0.486153
| 10> C      0.698716    1.255847   -0.214727
| 11> C      2.124667    0.698806   -0.171428
| 12> C      1.890352   -0.811433   -0.258644
| 13> H     -0.226886    0.531260    1.620367
| 14> H      0.341413    1.305448   -1.244399
| 15> H      0.600663    2.251274    0.210253
| 16> H      2.751505    1.078563   -0.977576
| 17> H      2.605897    0.951778    0.776149
| 18> H      1.755051   -1.114676   -1.299508
| 19> H      2.701458   -1.409225    0.154057
| 20> H      0.836365   -1.421455    1.412453
| 21> H     -0.971410   -1.666847   -0.334004
| 22> *
| 23>
| 24>                          ****END OF INPUT****

CARTESIAN COORDINATES (ANGSTROEM)
---------------------------------
  N      0.636602   -1.058123    0.492208
  C     -0.121601    0.212497    0.582235
  C     -1.541645    0.060070    0.027611
  O     -2.347827    0.951873    0.041962
  O     -1.796324   -1.151121   -0.486153
  C      0.698716    1.255847   -0.214727
  C      2.124667    0.698806   -0.171428
  C      1.890352   -0.811433   -0.258644
  H     -0.226886    0.531260    1.620367
  H      0.341413    1.305448   -1.244399
  H      0.600663    2.251274    0.210253
  H      2.751505    1.078563   -0.977576
  H      2.605897    0.951778    0.776149
  H      1.755051   -1.114676   -1.299508
  H      2.701458   -1.409225    0.154057
  H      0.836365   -1.421455    1.412453
  H     -0.971410   -1.666847   -0.334004

 Total Charge           Charge          ....    0
 Multiplicity           Mult            ....    1
 Number of Electrons    NEL             ....   62
 Basis Dimension        Dim             ....  575

ORBITAL ENERGIES
----------------

  NO   OCC          E(Eh)            E(eV)
   0   2.0000     -20.592640      -560.3542
   1   2.0000     -20.530941      -558.6753
   2   2.0000     -15.579319      -423.9348
   3   2.0000     -11.370004      -309.3935
   4   2.0000     -11.287179      -307.1397
   5   2.0000     -11.273744      -306.7742
   6   2.0000     -11.245320      -306.0007
   7   2.0000     -11.242265      -305.9176
   8   2.0000      -1.446753       -39.3681
   9   2.0000      -1.351322       -36.7713
  10   2.0000      -1.250283       -34.0219
  11   2.0000      -1.058549       -28.8046
  12   2.0000      -1.021915       -27.8077
  13   2.0000      -0.870708       -23.6932
  14   2.0000      -0.826484       -22.4898
  15   2.0000      -0.794903       -21.6304
  16   2.0000      -0.729821       -19.8594
  17   2.0000      -0.725253       -19.7351
  18   2.0000      -0.653848       -17.7921
  19   2.0000      -0.643430       -17.5086
  20   2.0000      -0.621596       -16.9145
  21   2.0000      -0.599880       -16.3236
  22   2.0000      -0.574780       -15.6406
  23   2.0000      -0.568045       -15.4573
  24   2.0000      -0.529741       -14.4150
  25   2.0000      -0.516372       -14.0512
  26   2.0000      -0.504331       -13.7235
  27   2.0000      -0.498341       -13.5605
  28   2.0000      -0.461284       -12.5522
  29   2.0000      -0.444208       -12.0875
  30   2.0000      -0.404276       -11.0009
  31   0.0000       0.018772         0.5108
  32   0.0000       0.029856         0.8124
  33   0.0000       0.032487         0.8840
  34   0.0000       0.038920         1.0591
  35   0.0000       0.051851         1.4109

MULLIKEN ATOMIC CHARGES
-----------------------
   0 N :   -0.445848
   1 C :    0.272828
   2 C :    0.575308
   3 O :   -0.823052
   4 O :   -0.543525
   5 C :   -0.459361
   6 C :   -0.588399
   7 C :   -0.353732
   8 H :    0.365376
   9 H :    0.228852
  10 H :    0.337960
  11 H :    0.341687
  12 H :    0.210445
  13 H :    0.251513
  14 H :    0.398403
  15 H :   -0.022898
  16 H :    0.254443
Sum of atomic charges:    0.0000000

LOEWDIN ATOMIC CHARGES
----------------------
   0 N :    0.597910
   1 C :   -0.083899
   2 C :   -0.782638
   3 O :    0.429922
   4 O :    0.840975
   5 C :    0.320548
   6 C :    0.311954
   7 C :    0.215054
   8 H :   -0.130622
   9 H :   -0.140796
  10 H :   -0.134973
  11 H :   -0.140605
  12 H :   -0.141932
  13 H :   -0.143310
  14 H :   -0.140856
  15 H :   -0.289166
  16 H :   -0.587568

  Mayer bond orders larger than 0.100000
B(  0-N ,  1-C ) :   0.9051 B(  0-N ,  7-C ) :   0.7787 B(  0-N , 15-H ) :   1.0533
B(  0-N , 16-H ) :   0.1521 B(  1-C ,  2-C ) :   0.6430 B(  1-C ,  5-C ) :   0.9110
B(  1-C ,  8-H ) :   0.8944 B(  2-C ,  3-O ) :   1.3765 B(  2-C ,  4-O ) :   0.8466
B(  2-C ,  5-C ) :   0.1332 B(  4-O , 16-H ) :   0.8324 B(  5-C ,  6-C ) :   0.9156
B(  5-C ,  9-H ) :   0.9998 B(  5-C , 10-H ) :   0.8619 B(  6-C ,  7-C ) :   0.9799
B(  6-C , 11-H ) :   0.8764 B(  6-C , 12-H ) :   1.0022 B(  7-C , 13-H ) :   0.9892
B(  7-C , 14-H ) :   0.8400

MP2 TOTAL ENERGY:     -400.456654261 Eh
FINAL SINGLE POINT ENERGY      -400.456654260908

DIPOLE MOMENT
-------------
                                X             Y             Z
Electronic contribution:     -8.12257      -0.97394       0.23069
Nuclear contribution   :     10.44990       0.50241       0.31724
                        -----------------------------------------
Total Dipole Moment    :      2.32733      -0.47152       0.54794
                        -----------------------------------------
Magnitude (a.u.)       :      2.43702
Magnitude (Debye)      :      6.19440

Rotational constants in cm-1:     0.135287     0.051694     0.041581
Rotational constants in MHz :  4055.791452  1549.743368  1246.565096

                             ****ORCA TERMINATED NORMALLY****
TOTAL RUN TIME: 0 days 0 hours 7 minutes 36 seconds 622 msec
