                         Program Version 5.0.3 -  RELEASE  -
|  1> !ri-mp2 aug-cc-pvtz aug-cc-pvtz/c tightscf
|  2> %pal nprocs 16 end
|  3>
|  4> * xyz 0 1
|  5> O     -2.423172   -0.167625    0.000000
|  6> N     -1.229268    0.011793   -0.000004
|  7> C     -0.078874    0.155417   -0.000002
|  8> C      1.300610    0.480348    0.000003
|  9> C      2.286856   -0.419406    0.000002
| 10> H      1.529592    1.540379    0.000009
| 11> H      2.091078   -1.482044   -0.000004
| 12> H      3.318032   -0.098033    0.000007
| 13> *
| 14>
| 15>                          ****END OF INPUT****

CARTESIAN COORDINATES (ANGSTROEM)
---------------------------------
  O     -2.423172   -0.167625    0.000000
  N     -1.229268    0.011793   -0.000004
  C     -0.078874    0.155417   -0.000002
  C      1.300610    0.480348    0.000003
  C      2.286856   -0.419406    0.000002
  H      1.529592    1.540379    0.000009
  H      2.091078   -1.482044   -0.000004
  H      3.318032   -0.098033    0.000007

 Total Charge           Charge          ....    0
 Multiplicity           Mult            ....    1
 Number of Electrons    NEL             ....   36
 Basis Dimension        Dim             ....  299

ORBITAL ENERGIES
----------------

  NO   OCC          E(Eh)            E(eV)
   0   2.0000     -20.570619      -559.7550
   1   2.0000     -15.740052      -428.3086
   2   2.0000     -11.311742      -307.8081
   3   2.0000     -11.301858      -307.5392
   4   2.0000     -11.282853      -307.0220
   5   2.0000      -1.492928       -40.6246
   6   2.0000      -1.223901       -33.3041
   7   2.0000      -1.104689       -30.0601
   8   2.0000      -0.894662       -24.3450
   9   2.0000      -0.741929       -20.1889
  10   2.0000      -0.715968       -19.4825
  11   2.0000      -0.680864       -18.5273
  12   2.0000      -0.669729       -18.2243
  13   2.0000      -0.643205       -17.5025
  14   2.0000      -0.578773       -15.7492
  15   2.0000      -0.474603       -12.9146
  16   2.0000      -0.392674       -10.6852
  17   2.0000      -0.360295        -9.8041
  18   0.0000       0.019694         0.5359
  19   0.0000       0.032893         0.8951
  20   0.0000       0.041027         1.1164
  21   0.0000       0.056889         1.5480
  22   0.0000       0.076313         2.0766

MULLIKEN ATOMIC CHARGES
-----------------------
   0 O :   -0.753099
   1 N :    0.405034
   2 C :    0.190075
   3 C :    0.197877
   4 C :   -1.122765
   5 H :    0.273341
   6 H :    0.271632
   7 H :    0.537906
Sum of atomic charges:   -0.0000000

LOEWDIN ATOMIC CHARGES
----------------------
   0 O :    0.199987
   1 N :   -0.213383
   2 C :   -0.019700
   3 C :    0.123062
   4 C :    0.538033
   5 H :   -0.208625
   6 H :   -0.207416
   7 H :   -0.211958

  Mayer bond orders larger than 0.100000
B(  0-O ,  1-N ) :   1.0326 B(  0-O ,  2-C ) :   0.3500 B(  1-N ,  2-C ) :   2.2528
B(  1-N ,  3-C ) :  -0.3613 B(  2-C ,  3-C ) :   0.6129 B(  2-C ,  4-C ) :  -0.2137
B(  3-C ,  4-C ) :   1.5343 B(  3-C ,  5-H ) :   1.0139 B(  4-C ,  6-H ) :   1.1099
B(  4-C ,  7-H ) :   0.5887

MP2 TOTAL ENERGY:     -245.545193348 Eh
FINAL SINGLE POINT ENERGY      -245.545193347539

DIPOLE MOMENT
-------------
                                X             Y             Z
Electronic contribution:     -4.63649       0.24274      -0.00001
Nuclear contribution   :      6.74832      -0.04138       0.00001
                        -----------------------------------------
Total Dipole Moment    :      2.11184       0.20136       0.00000
                        -----------------------------------------
Magnitude (a.u.)       :      2.12141
Magnitude (Debye)      :      5.39221

Rotational constants in cm-1:     1.646950     0.078224     0.074677
Rotational constants in MHz : 49374.304000  2345.105002  2238.771276

                             ****ORCA TERMINATED NORMALLY****
TOTAL RUN TIME: 0 days 0 hours 0 minutes 56 seconds 944 msec
