                         Program Version 5.0.3 -  RELEASE  -
|  1> !ri-mp2 aug-cc-pvtz aug-cc-pvtz/c tightscf
|  2> %pal nprocs 16 end
|  3>
|  4> * xyz 0 1
|  5> Cl    -1.342896   -0.692618   -0.000002
|  6> O     -0.259567    1.696079    0.000019
|  7> C     -0.024306    0.532850   -0.000069
|  8> C      1.265435   -0.081591   -0.000088
|  9> C      2.355970   -0.580206    0.000092
| 10> H      3.323175   -1.020441    0.000275
| 11> *
| 12>
| 13>                          ****END OF INPUT****

CARTESIAN COORDINATES (ANGSTROEM)
---------------------------------
  Cl    -1.342896   -0.692618   -0.000002
  O     -0.259567    1.696079    0.000019
  C     -0.024306    0.532850   -0.000069
  C      1.265435   -0.081591   -0.000088
  C      2.355970   -0.580206    0.000092
  H      3.323175   -1.020441    0.000275

 Total Charge           Charge          ....    0
 Multiplicity           Mult            ....    1
 Number of Electrons    NEL             ....   44
 Basis Dimension        Dim             ....  257

ORBITAL ENERGIES
----------------

  NO   OCC          E(Eh)            E(eV)
   0   2.0000    -104.864484     -2853.5077
   1   2.0000     -20.611704      -560.8730
   2   2.0000     -11.442091      -311.3551
   3   2.0000     -11.293649      -307.3158
   4   2.0000     -11.282822      -307.0212
   5   2.0000     -10.588568      -288.1296
   6   2.0000      -8.055199      -219.1931
   7   2.0000      -8.053398      -219.1441
   8   2.0000      -8.053257      -219.1403
   9   2.0000      -1.464412       -39.8487
  10   2.0000      -1.151464       -31.3329
  11   2.0000      -1.084375       -29.5073
  12   2.0000      -0.919338       -25.0165
  13   2.0000      -0.762479       -20.7481
  14   2.0000      -0.723697       -19.6928
  15   2.0000      -0.681111       -18.5340
  16   2.0000      -0.622848       -16.9486
  17   2.0000      -0.499476       -13.5914
  18   2.0000      -0.481905       -13.1133
  19   2.0000      -0.478793       -13.0286
  20   2.0000      -0.448751       -12.2111
  21   2.0000      -0.441409       -12.0113
  22   0.0000       0.022818         0.6209
  23   0.0000       0.044815         1.2195
  24   0.0000       0.059925         1.6306
  25   0.0000       0.067822         1.8455
  26   0.0000       0.079218         2.1556

MULLIKEN ATOMIC CHARGES
-----------------------
   0 Cl:   -0.173947
   1 O :   -0.557570
   2 C :    0.448894
   3 C :    1.075731
   4 C :   -1.335566
   5 H :    0.542459
Sum of atomic charges:   -0.0000000

LOEWDIN ATOMIC CHARGES
----------------------
   0 Cl:    0.844085
   1 O :    0.378523
   2 C :   -1.217431
   3 C :   -0.143876
   4 C :    0.410890
   5 H :   -0.272192

  Mayer bond orders larger than 0.100000
B(  0-Cl,  2-C ) :   1.0802 B(  1-O ,  2-C ) :   1.7090 B(  1-O ,  3-C ) :  -0.1059
B(  1-O ,  4-C ) :   0.1103 B(  2-C ,  3-C ) :   0.7482 B(  2-C ,  4-C ) :  -0.1157
B(  3-C ,  4-C ) :   1.3171 B(  4-C ,  5-H ) :   0.7594

MP2 TOTAL ENERGY:     -649.442081656 Eh
FINAL SINGLE POINT ENERGY      -649.442081656415

DIPOLE MOMENT
-------------
                                X             Y             Z
Electronic contribution:     -3.86070      -0.80279      -0.00021
Nuclear contribution   :      4.89342      -0.00262       0.00026
                        -----------------------------------------
Total Dipole Moment    :      1.03272      -0.80541       0.00005
                        -----------------------------------------
Magnitude (a.u.)       :      1.30965
Magnitude (Debye)      :      3.32887

Rotational constants in cm-1:     0.236199     0.104065     0.072238
Rotational constants in MHz :  7081.078228  3119.793234  2165.648306

                             ****ORCA TERMINATED NORMALLY****
TOTAL RUN TIME: 0 days 0 hours 0 minutes 39 seconds 472 msec
