                         Program Version 5.0.3 -  RELEASE  -
|  1> !ri-mp2 aug-cc-pvtz aug-cc-pvtz/c tightscf
|  2> %pal nprocs 16 end
|  3>
|  4> * xyz 0 1
|  5> C     -0.188443    1.576098   -0.366092
|  6> C      0.153555    0.706793    0.580006
|  7> C     -0.153555   -0.706793    0.580006
|  8> C      0.188443   -1.576098   -0.366092
|  9> F      0.153555    2.842567   -0.356772
| 10> F     -0.892260    1.266786   -1.433390
| 11> F      0.843111    1.168575    1.647552
| 12> F     -0.843111   -1.168575    1.647552
| 13> F      0.892260   -1.266786   -1.433390
| 14> F     -0.153555   -2.842567   -0.356772
| 15> *
| 16>
| 17>                          ****END OF INPUT****

CARTESIAN COORDINATES (ANGSTROEM)
---------------------------------
  C     -0.188443    1.576098   -0.366092
  C      0.153555    0.706793    0.580006
  C     -0.153555   -0.706793    0.580006
  C      0.188443   -1.576098   -0.366092
  F      0.153555    2.842567   -0.356772
  F     -0.892260    1.266786   -1.433390
  F      0.843111    1.168575    1.647552
  F     -0.843111   -1.168575    1.647552
  F      0.892260   -1.266786   -1.433390
  F     -0.153555   -2.842567   -0.356772

 Total Charge           Charge          ....    0
 Multiplicity           Mult            ....    1
 Number of Electrons    NEL             ....   78
 Basis Dimension        Dim             ....  460

ORBITAL ENERGIES
----------------

  NO   OCC          E(Eh)            E(eV)
   0   2.0000     -26.383554      -717.9330
   1   2.0000     -26.383553      -717.9330
   2   2.0000     -26.381229      -717.8697
   3   2.0000     -26.381229      -717.8697
   4   2.0000     -26.344028      -716.8574
   5   2.0000     -26.344027      -716.8574
   6   2.0000     -11.467054      -312.0344
   7   2.0000     -11.467054      -312.0344
   8   2.0000     -11.375054      -309.5310
   9   2.0000     -11.374198      -309.5077
  10   2.0000      -1.739971       -47.3470
  11   2.0000      -1.738571       -47.3089
  12   2.0000      -1.676995       -45.6334
  13   2.0000      -1.675907       -45.6037
  14   2.0000      -1.661783       -45.2194
  15   2.0000      -1.651409       -44.9371
  16   2.0000      -1.157931       -31.5089
  17   2.0000      -1.075136       -29.2559
  18   2.0000      -0.949213       -25.8294
  19   2.0000      -0.902533       -24.5592
  20   2.0000      -0.864623       -23.5276
  21   2.0000      -0.842941       -22.9376
  22   2.0000      -0.835373       -22.7317
  23   2.0000      -0.804172       -21.8826
  24   2.0000      -0.799911       -21.7667
  25   2.0000      -0.790863       -21.5205
  26   2.0000      -0.755405       -20.5556
  27   2.0000      -0.730851       -19.8875
  28   2.0000      -0.729571       -19.8526
  29   2.0000      -0.723225       -19.6800
  30   2.0000      -0.720765       -19.6130
  31   2.0000      -0.713025       -19.4024
  32   2.0000      -0.711243       -19.3539
  33   2.0000      -0.699233       -19.0271
  34   2.0000      -0.699085       -19.0231
  35   2.0000      -0.678956       -18.4753
  36   2.0000      -0.620541       -16.8858
  37   2.0000      -0.451130       -12.2759
  38   2.0000      -0.392989       -10.6938
  39   0.0000       0.047990         1.3059
  40   0.0000       0.052314         1.4235
  41   0.0000       0.060804         1.6546
  42   0.0000       0.066421         1.8074
  43   0.0000       0.084616         2.3025

MULLIKEN ATOMIC CHARGES
-----------------------
   0 C :    0.354686
   1 C :    0.673146
   2 C :    0.673146
   3 C :    0.354686
   4 F :   -0.260898
   5 F :   -0.329414
   6 F :   -0.437520
   7 F :   -0.437520
   8 F :   -0.329414
   9 F :   -0.260898
Sum of atomic charges:   -0.0000000

LOEWDIN ATOMIC CHARGES
----------------------
   0 C :   -0.918521
   1 C :   -0.602520
   2 C :   -0.602520
   3 C :   -0.918521
   4 F :    0.519146
   5 F :    0.518103
   6 F :    0.483792
   7 F :    0.483792
   8 F :    0.518103
   9 F :    0.519146

  Mayer bond orders larger than 0.100000
B(  0-C ,  1-C ) :   1.6406 B(  0-C ,  2-C ) :  -0.1007 B(  0-C ,  4-F ) :   0.8092
B(  0-C ,  5-F ) :   0.9195 B(  1-C ,  2-C ) :   0.7934 B(  1-C ,  3-C ) :  -0.1007
B(  1-C ,  6-F ) :   0.6536 B(  2-C ,  3-C ) :   1.6406 B(  2-C ,  7-F ) :   0.6536
B(  3-C ,  8-F ) :   0.9195 B(  3-C ,  9-F ) :   0.8092

MP2 TOTAL ENERGY:     -750.434461090 Eh
FINAL SINGLE POINT ENERGY      -750.434461090212

DIPOLE MOMENT
-------------
                                X             Y             Z
Electronic contribution:      0.00000       0.00000      -0.65102
Nuclear contribution   :      0.00000       0.00000       0.25466
                        -----------------------------------------
Total Dipole Moment    :      0.00000       0.00000      -0.39636
                        -----------------------------------------
Magnitude (a.u.)       :      0.39636
Magnitude (Debye)      :      1.00747

Rotational constants in cm-1:     0.065641     0.030588     0.024467
Rotational constants in MHz :  1967.868976   917.001331   733.510015

                             ****ORCA TERMINATED NORMALLY****
TOTAL RUN TIME: 0 days 0 hours 2 minutes 43 seconds 741 msec
