                         Program Version 5.0.3 -  RELEASE  -
|  1> !ri-mp2 aug-cc-pvtz aug-cc-pvtz/c tightscf
|  2> %pal nprocs 16 end
|  3>
|  4> * xyz 0 1
|  5> C      0.644121    1.194052   -0.006494
|  6> C      0.662041   -1.191017   -0.006314
|  7> C     -0.747351    1.189109   -0.001233
|  8> C     -0.724096   -1.215100   -0.001196
|  9> C      1.376677    0.009928   -0.007134
| 10> C     -1.435402   -0.018408    0.002343
| 11> C      2.883482    0.016860    0.008658
| 12> O     -2.803606   -0.093184    0.005561
| 13> H      1.164240    2.143785   -0.011774
| 14> H      1.201078   -2.130513   -0.011627
| 15> H     -1.293225    2.125496   -0.002769
| 16> H     -1.266997   -2.150003   -0.002681
| 17> H      3.293415   -0.687622   -0.716746
| 18> H      3.277225    1.005159   -0.226732
| 19> H      3.273067   -0.266943    0.989489
| 20> H     -3.176785    0.793560    0.006570
| 21> *
| 22>
| 23>                          ****END OF INPUT****

CARTESIAN COORDINATES (ANGSTROEM)
---------------------------------
  C      0.644121    1.194052   -0.006494
  C      0.662041   -1.191017   -0.006314
  C     -0.747351    1.189109   -0.001233
  C     -0.724096   -1.215100   -0.001196
  C      1.376677    0.009928   -0.007134
  C     -1.435402   -0.018408    0.002343
  C      2.883482    0.016860    0.008658
  O     -2.803606   -0.093184    0.005561
  H      1.164240    2.143785   -0.011774
  H      1.201078   -2.130513   -0.011627
  H     -1.293225    2.125496   -0.002769
  H     -1.266997   -2.150003   -0.002681
  H      3.293415   -0.687622   -0.716746
  H      3.277225    1.005159   -0.226732
  H      3.273067   -0.266943    0.989489
  H     -3.176785    0.793560    0.006570

 Total Charge           Charge          ....    0
 Multiplicity           Mult            ....    1
 Number of Electrons    NEL             ....   58
 Basis Dimension        Dim             ....  552

ORBITAL ENERGIES
----------------

  NO   OCC          E(Eh)            E(eV)
   0   2.0000     -20.587956      -560.2268
   1   2.0000     -11.297784      -307.4283
   2   2.0000     -11.235741      -305.7400
   3   2.0000     -11.234319      -305.7014
   4   2.0000     -11.232722      -305.6579
   5   2.0000     -11.231459      -305.6235
   6   2.0000     -11.226621      -305.4919
   7   2.0000     -11.221871      -305.3626
   8   2.0000      -1.401549       -38.1381
   9   2.0000      -1.152089       -31.3499
  10   2.0000      -1.038263       -28.2526
  11   2.0000      -1.018475       -27.7141
  12   2.0000      -0.928425       -25.2637
  13   2.0000      -0.845392       -23.0043
  14   2.0000      -0.803733       -21.8707
  15   2.0000      -0.732154       -19.9229
  16   2.0000      -0.671631       -18.2760
  17   2.0000      -0.643506       -17.5107
  18   2.0000      -0.606256       -16.4971
  19   2.0000      -0.590042       -16.0559
  20   2.0000      -0.587520       -15.9872
  21   2.0000      -0.575066       -15.6483
  22   2.0000      -0.570694       -15.5294
  23   2.0000      -0.532060       -14.4781
  24   2.0000      -0.504401       -13.7255
  25   2.0000      -0.486951       -13.2506
  26   2.0000      -0.471440       -12.8285
  27   2.0000      -0.341415        -9.2904
  28   2.0000      -0.306068        -8.3285
  29   0.0000       0.027053         0.7361
  30   0.0000       0.031621         0.8604
  31   0.0000       0.035977         0.9790
  32   0.0000       0.045479         1.2376
  33   0.0000       0.047943         1.3046

MULLIKEN ATOMIC CHARGES
-----------------------
   0 C :   -0.798657
   1 C :   -0.652886
   2 C :   -0.769534
   3 C :   -0.902206
   4 C :    1.320102
   5 C :    0.960955
   6 C :   -0.912666
   7 O :   -0.803836
   8 H :    0.158723
   9 H :    0.288907
  10 H :    0.516668
  11 H :    0.614459
  12 H :    0.262959
  13 H :    0.261820
  14 H :    0.291918
  15 H :    0.163274
Sum of atomic charges:    0.0000000

LOEWDIN ATOMIC CHARGES
----------------------
   0 C :    0.203499
   1 C :    0.205298
   2 C :    0.211518
   3 C :    0.212919
   4 C :   -0.129005
   5 C :   -0.379961
   6 C :    0.571360
   7 O :    0.833209
   8 H :   -0.179691
   9 H :   -0.173993
  10 H :   -0.186268
  11 H :   -0.183060
  12 H :   -0.172768
  13 H :   -0.181276
  14 H :   -0.166921
  15 H :   -0.484860

  Mayer bond orders larger than 0.100000
B(  0-C ,  2-C ) :   1.1881 B(  0-C ,  4-C ) :   0.5374 B(  0-C ,  8-H ) :   1.2877
B(  1-C ,  3-C ) :   1.2579 B(  1-C ,  4-C ) :   0.6631 B(  1-C ,  5-C ) :  -0.2889
B(  1-C ,  6-C ) :   0.1622 B(  1-C ,  9-H ) :   1.0352 B(  2-C ,  3-C ) :   0.3809
B(  2-C ,  4-C ) :   0.1235 B(  2-C ,  5-C ) :   1.0565 B(  2-C , 10-H ) :   0.5711
B(  3-C ,  4-C ) :   0.1888 B(  3-C ,  5-C ) :   1.0537 B(  3-C , 11-H ) :   0.4161
B(  4-C ,  5-C ) :   0.1199 B(  4-C ,  6-C ) :   0.4425 B(  4-C ,  8-H ) :  -0.1079
B(  4-C ,  9-H ) :  -0.1448 B(  5-C ,  7-O ) :   0.5480 B(  6-C , 12-H ) :   1.0208
B(  6-C , 13-H ) :   0.9992 B(  6-C , 14-H ) :   0.9739 B(  7-O , 15-H ) :   1.0554

MP2 TOTAL ENERGY:     -346.105503797 Eh
FINAL SINGLE POINT ENERGY      -346.105503796823

DIPOLE MOMENT
-------------
                                X             Y             Z
Electronic contribution:     -6.24609      -0.32444      -0.01753
Nuclear contribution   :      6.47467       0.83751       0.02399
                        -----------------------------------------
Total Dipole Moment    :      0.22858       0.51307       0.00646
                        -----------------------------------------
Magnitude (a.u.)       :      0.56173
Magnitude (Debye)      :      1.42779

Rotational constants in cm-1:     0.184880     0.048659     0.038797
Rotational constants in MHz :  5542.548324  1458.756747  1163.109589

                             ****ORCA TERMINATED NORMALLY****
TOTAL RUN TIME: 0 days 0 hours 5 minutes 55 seconds 204 msec
