                         Program Version 5.0.3 -  RELEASE  -
|  1> !ri-mp2 aug-cc-pvtz aug-cc-pvtz/c tightscf
|  2> %pal nprocs 16 end
|  3>
|  4> * xyz 0 1
|  5> H     -2.592675   -0.045641   -0.145798
|  6> H     -1.757839   -1.561246   -0.123394
|  7> N     -1.728931   -0.558727   -0.107702
|  8> O     -0.540022    1.352356    0.063774
|  9> C     -0.562261    0.136158    0.032402
| 10> H      0.704554   -1.095974    1.200102
| 11> H      0.596109   -1.605295   -0.469148
| 12> C      0.688051   -0.724248    0.170792
| 13> H      2.841756   -0.595111    0.039596
| 14> H      1.993138    0.372041   -1.170851
| 15> H      2.052216    0.921934    0.496008
| 16> C      1.971783    0.038345   -0.133659
| 17> *
| 18>
| 19>                          ****END OF INPUT****

CARTESIAN COORDINATES (ANGSTROEM)
---------------------------------
  H     -2.592675   -0.045641   -0.145798
  H     -1.757839   -1.561246   -0.123394
  N     -1.728931   -0.558727   -0.107702
  O     -0.540022    1.352356    0.063774
  C     -0.562261    0.136158    0.032402
  H      0.704554   -1.095974    1.200102
  H      0.596109   -1.605295   -0.469148
  C      0.688051   -0.724248    0.170792
  H      2.841756   -0.595111    0.039596
  H      1.993138    0.372041   -1.170851
  H      2.052216    0.921934    0.496008
  C      1.971783    0.038345   -0.133659

 Total Charge           Charge          ....    0
 Multiplicity           Mult            ....    1
 Number of Electrons    NEL             ....   40
 Basis Dimension        Dim             ....  391

ORBITAL ENERGIES
----------------

  NO   OCC          E(Eh)            E(eV)
   0   2.0000     -20.517222      -558.3020
   1   2.0000     -15.583564      -424.0503
   2   2.0000     -11.349798      -308.8437
   3   2.0000     -11.242653      -305.9281
   4   2.0000     -11.216597      -305.2191
   5   2.0000      -1.380041       -37.5528
   6   2.0000      -1.209996       -32.9257
   7   2.0000      -1.050176       -28.5768
   8   2.0000      -0.893395       -24.3105
   9   2.0000      -0.783134       -21.3102
  10   2.0000      -0.719980       -19.5917
  11   2.0000      -0.671765       -18.2797
  12   2.0000      -0.634457       -17.2644
  13   2.0000      -0.601068       -16.3559
  14   2.0000      -0.555279       -15.1099
  15   2.0000      -0.526762       -14.3339
  16   2.0000      -0.516503       -14.0548
  17   2.0000      -0.494092       -13.4449
  18   2.0000      -0.421975       -11.4825
  19   2.0000      -0.414314       -11.2741
  20   0.0000       0.021752         0.5919
  21   0.0000       0.034169         0.9298
  22   0.0000       0.041393         1.1264
  23   0.0000       0.043826         1.1926
  24   0.0000       0.057013         1.5514

MULLIKEN ATOMIC CHARGES
-----------------------
   0 H :    0.147777
   1 H :    0.128355
   2 N :   -0.331431
   3 O :   -0.766224
   4 C :    0.502881
   5 H :    0.263928
   6 H :    0.259395
   7 C :   -0.183162
   8 H :    0.275754
   9 H :    0.268609
  10 H :    0.300433
  11 C :   -0.866315
Sum of atomic charges:    0.0000000

LOEWDIN ATOMIC CHARGES
----------------------
   0 H :   -0.295053
   1 H :   -0.305782
   2 N :    0.848467
   3 O :    0.435948
   4 C :   -0.675320
   5 H :   -0.151022
   6 H :   -0.163593
   7 C :    0.256732
   8 H :   -0.174213
   9 H :   -0.168248
  10 H :   -0.177581
  11 C :    0.569665

  Mayer bond orders larger than 0.100000
B(  0-H ,  2-N ) :   1.0464 B(  1-H ,  2-N ) :   1.0513 B(  2-N ,  4-C ) :   0.9958
B(  3-O ,  4-C ) :   1.4507 B(  4-C ,  7-C ) :   0.6065 B(  5-H ,  7-C ) :   0.9183
B(  6-H ,  7-C ) :   0.9431 B(  7-C , 11-C ) :   0.9204 B(  8-H , 11-C ) :   0.9611
B(  9-H , 11-C ) :   0.9402 B( 10-H , 11-C ) :   0.9340

MP2 TOTAL ENERGY:     -248.079245793 Eh
FINAL SINGLE POINT ENERGY      -248.079245792762

DIPOLE MOMENT
-------------
                                X             Y             Z
Electronic contribution:     -4.16361       2.12544       0.15918
Nuclear contribution   :      3.92454      -3.69089      -0.17792
                        -----------------------------------------
Total Dipole Moment    :     -0.23907      -1.56545      -0.01874
                        -----------------------------------------
Magnitude (a.u.)       :      1.58371
Magnitude (Debye)      :      4.02547

Rotational constants in cm-1:     0.325919     0.125949     0.095090
Rotational constants in MHz :  9770.797415  3775.861300  2850.725148

                             ****ORCA TERMINATED NORMALLY****
TOTAL RUN TIME: 0 days 0 hours 1 minutes 54 seconds 895 msec
