                         Program Version 5.0.3 -  RELEASE  -
|  1> !ri-mp2 aug-cc-pvtz aug-cc-pvtz/c tightscf
|  2> %pal nprocs 16 end
|  3>
|  4> * xyz 0 1
|  5> C      0.656988   -0.482689    0.000000
|  6> C      0.000000    0.643879    0.000000
|  7> C     -0.646073    1.774994    0.000000
|  8> O      0.112787   -1.745853    0.000000
|  9> H      1.737890   -0.517886    0.000000
| 10> H     -0.928536    2.272014    0.922836
| 11> H     -0.928536    2.272014   -0.922836
| 12> H     -0.848607   -1.676418    0.000000
| 13> *
| 14>
| 15>                          ****END OF INPUT****

CARTESIAN COORDINATES (ANGSTROEM)
---------------------------------
  C      0.656988   -0.482689    0.000000
  C      0.000000    0.643879    0.000000
  C     -0.646073    1.774994    0.000000
  O      0.112787   -1.745853    0.000000
  H      1.737890   -0.517886    0.000000
  H     -0.928536    2.272014    0.922836
  H     -0.928536    2.272014   -0.922836
  H     -0.848607   -1.676418    0.000000

 Total Charge           Charge          ....    0
 Multiplicity           Mult            ....    1
 Number of Electrons    NEL             ....   30
 Basis Dimension        Dim             ....  276

ORBITAL ENERGIES
----------------

  NO   OCC          E(Eh)            E(eV)
   0   2.0000     -20.592168      -560.3414
   1   2.0000     -11.304467      -307.6102
   2   2.0000     -11.249770      -306.1218
   3   2.0000     -11.244390      -305.9754
   4   2.0000      -1.399180       -38.0736
   5   2.0000      -1.068969       -29.0881
   6   2.0000      -0.951536       -25.8926
   7   2.0000      -0.788961       -21.4687
   8   2.0000      -0.673807       -18.3352
   9   2.0000      -0.649459       -17.6727
  10   2.0000      -0.617175       -16.7942
  11   2.0000      -0.572920       -15.5900
  12   2.0000      -0.566912       -15.4264
  13   2.0000      -0.391496       -10.6532
  14   2.0000      -0.350930        -9.5493
  15   0.0000       0.028109         0.7649
  16   0.0000       0.039668         1.0794
  17   0.0000       0.042949         1.1687
  18   0.0000       0.044258         1.2043
  19   0.0000       0.081801         2.2259

MULLIKEN ATOMIC CHARGES
-----------------------
   0 C :   -0.543542
   1 C :    0.716126
   2 C :   -1.116702
   3 O :   -0.429603
   4 H :    0.471294
   5 H :    0.356912
   6 H :    0.356912
   7 H :    0.188602
Sum of atomic charges:    0.0000000

LOEWDIN ATOMIC CHARGES
----------------------
   0 C :   -0.107147
   1 C :    0.084534
   2 C :    0.446528
   3 O :    0.781741
   4 H :   -0.224434
   5 H :   -0.243401
   6 H :   -0.243401
   7 H :   -0.494421

  Mayer bond orders larger than 0.100000
B(  0-C ,  1-C ) :   1.3608 B(  0-C ,  2-C ) :  -0.2909 B(  0-C ,  3-O ) :   0.9037
B(  0-C ,  4-H ) :   0.8298 B(  0-C ,  7-H ) :   0.1009 B(  1-C ,  2-C ) :   1.4975
B(  2-C ,  5-H ) :   0.9415 B(  2-C ,  6-H ) :   0.9415 B(  3-O ,  7-H ) :   0.9640

MP2 TOTAL ENERGY:     -191.514556377 Eh
FINAL SINGLE POINT ENERGY      -191.514556376993

DIPOLE MOMENT
-------------
                                X             Y             Z
Electronic contribution:      0.58927      -1.94607      -0.00000
Nuclear contribution   :     -0.97080       2.33372       0.00000
                        -----------------------------------------
Total Dipole Moment    :     -0.38154       0.38765      -0.00000
                        -----------------------------------------
Magnitude (a.u.)       :      0.54391
Magnitude (Debye)      :      1.38252

Rotational constants in cm-1:     1.462736     0.145825     0.136286
Rotational constants in MHz : 43851.709798  4371.712506  4085.751309

                             ****ORCA TERMINATED NORMALLY****
TOTAL RUN TIME: 0 days 0 hours 0 minutes 42 seconds 498 msec
