                         Program Version 5.0.3 -  RELEASE  -
|  1> !ri-mp2 aug-cc-pvtz aug-cc-pvtz/c tightscf
|  2> %pal nprocs 16 end
|  3>
|  4> * xyz 0 1
|  5> C      0.627734    1.332116    0.000000
|  6> C     -0.015015    0.749126    1.262844
|  7> C     -0.015015    0.749126   -1.262844
|  8> C     -0.015015   -0.777813    1.216280
|  9> C     -0.015015   -0.777813   -1.216280
| 10> N     -0.683238   -1.236622    0.000000
| 11> H      0.550093    2.421274    0.000000
| 12> H      1.697146    1.095686    0.000000
| 13> H      0.514966    1.090753    2.154644
| 14> H     -1.048069    1.096853    1.343790
| 15> H     -1.048069    1.096853   -1.343790
| 16> H      0.514966    1.090753   -2.154644
| 17> H      1.028243   -1.134962    1.275130
| 18> H     -0.545722   -1.185262    2.078063
| 19> H     -0.545722   -1.185262   -2.078063
| 20> H      1.028243   -1.134962   -1.275130
| 21> H     -0.769444   -2.243821    0.000000
| 22> *
| 23>
| 24>                          ****END OF INPUT****

CARTESIAN COORDINATES (ANGSTROEM)
---------------------------------
  C      0.627734    1.332116    0.000000
  C     -0.015015    0.749126    1.262844
  C     -0.015015    0.749126   -1.262844
  C     -0.015015   -0.777813    1.216280
  C     -0.015015   -0.777813   -1.216280
  N     -0.683238   -1.236622    0.000000
  H      0.550093    2.421274    0.000000
  H      1.697146    1.095686    0.000000
  H      0.514966    1.090753    2.154644
  H     -1.048069    1.096853    1.343790
  H     -1.048069    1.096853   -1.343790
  H      0.514966    1.090753   -2.154644
  H      1.028243   -1.134962    1.275130
  H     -0.545722   -1.185262    2.078063
  H     -0.545722   -1.185262   -2.078063
  H      1.028243   -1.134962   -1.275130
  H     -0.769444   -2.243821    0.000000

 Total Charge           Charge          ....    0
 Multiplicity           Mult            ....    1
 Number of Electrons    NEL             ....   48
 Basis Dimension        Dim             ....  529

ORBITAL ENERGIES
----------------

  NO   OCC          E(Eh)            E(eV)
   0   2.0000     -15.535165      -422.7333
   1   2.0000     -11.241198      -305.8885
   2   2.0000     -11.241183      -305.8881
   3   2.0000     -11.213815      -305.1434
   4   2.0000     -11.211589      -305.0828
   5   2.0000     -11.211498      -305.0804
   6   2.0000      -1.206504       -32.8306
   7   2.0000      -1.053046       -28.6548
   8   2.0000      -1.009526       -27.4706
   9   2.0000      -0.861545       -23.4438
  10   2.0000      -0.838627       -22.8202
  11   2.0000      -0.751443       -20.4478
  12   2.0000      -0.682159       -18.5625
  13   2.0000      -0.618491       -16.8300
  14   2.0000      -0.609649       -16.5894
  15   2.0000      -0.583077       -15.8663
  16   2.0000      -0.557638       -15.1741
  17   2.0000      -0.543225       -14.7819
  18   2.0000      -0.527777       -14.3615
  19   2.0000      -0.484727       -13.1901
  20   2.0000      -0.463985       -12.6257
  21   2.0000      -0.442054       -12.0289
  22   2.0000      -0.440550       -11.9880
  23   2.0000      -0.362277        -9.8580
  24   0.0000       0.030154         0.8205
  25   0.0000       0.036047         0.9809
  26   0.0000       0.037061         1.0085
  27   0.0000       0.040122         1.0918
  28   0.0000       0.052842         1.4379

MULLIKEN ATOMIC CHARGES
-----------------------
   0 C :   -0.438318
   1 C :   -0.519099
   2 C :   -0.519099
   3 C :   -0.356912
   4 C :   -0.356912
   5 N :   -0.462523
   6 H :    0.282339
   7 H :    0.215082
   8 H :    0.323735
   9 H :    0.207415
  10 H :    0.207415
  11 H :    0.323735
  12 H :    0.193454
  13 H :    0.359444
  14 H :    0.359444
  15 H :    0.193454
  16 H :   -0.012655
Sum of atomic charges:   -0.0000000

LOEWDIN ATOMIC CHARGES
----------------------
   0 C :    0.285331
   1 C :    0.286623
   2 C :    0.286623
   3 C :    0.160996
   4 C :    0.160996
   5 N :    0.566319
   6 H :   -0.144733
   7 H :   -0.145560
   8 H :   -0.145347
   9 H :   -0.144034
  10 H :   -0.144034
  11 H :   -0.145347
  12 H :   -0.137918
  13 H :   -0.146779
  14 H :   -0.146779
  15 H :   -0.137918
  16 H :   -0.308436

  Mayer bond orders larger than 0.100000
B(  0-C ,  1-C ) :   0.8711 B(  0-C ,  2-C ) :   0.8711 B(  0-C ,  6-H ) :   0.9383
B(  0-C ,  7-H ) :   0.9869 B(  1-C ,  3-C ) :   0.9590 B(  1-C ,  8-H ) :   0.8948
B(  1-C ,  9-H ) :   1.0100 B(  2-C ,  4-C ) :   0.9590 B(  2-C , 10-H ) :   1.0100
B(  2-C , 11-H ) :   0.8948 B(  3-C ,  5-N ) :   0.8538 B(  3-C , 12-H ) :   1.0167
B(  3-C , 13-H ) :   0.8965 B(  4-C ,  5-N ) :   0.8538 B(  4-C , 14-H ) :   0.8965
B(  4-C , 15-H ) :   1.0167 B(  5-N , 16-H ) :   1.0564

MP2 TOTAL ENERGY:     -251.372149282 Eh
FINAL SINGLE POINT ENERGY      -251.372149281518

DIPOLE MOMENT
-------------
                                X             Y             Z
Electronic contribution:     -1.12870      -1.22312      -0.00000
Nuclear contribution   :      1.45318       1.05937       0.00000
                        -----------------------------------------
Total Dipole Moment    :      0.32448      -0.16374      -0.00000
                        -----------------------------------------
Magnitude (a.u.)       :      0.36345
Magnitude (Debye)      :      0.92383

Rotational constants in cm-1:     0.150742     0.148224     0.084475
Rotational constants in MHz :  4519.118520  4443.653055  2532.485789

                             ****ORCA TERMINATED NORMALLY****
TOTAL RUN TIME: 0 days 0 hours 4 minutes 57 seconds 764 msec
