                         Program Version 5.0.3 -  RELEASE  -
|  1> !ri-mp2 aug-cc-pvtz aug-cc-pvtz/c tightscf
|  2> %pal nprocs 16 end
|  3>
|  4> * xyz 0 1
|  5> C      0.021569   -1.850874        0.000000
|  6> C     -1.183942   -1.160029        0.000000
|  7> C      1.216077   -1.136120        0.000000
|  8> C     -1.200429    0.230252        0.000000
|  9> C      1.212740    0.251632        0.000000
| 10> C      0.000000    0.935940        0.000000
| 11> O      0.048212    2.303596        0.000000
| 12> H      0.031441   -2.931667        0.000000
| 13> H     -2.120454   -1.701426        0.000000
| 14> H      2.160924   -1.662963        0.000000
| 15> H     -2.142899    0.765406        0.000000
| 16> H      2.134448    0.816335        0.000000
| 17> H     -0.845249    2.660743        0.000000
| 18> *
| 19>
| 20>                          ****END OF INPUT****

CARTESIAN COORDINATES (ANGSTROEM)
---------------------------------
  C      0.021569   -1.850874    0.000000
  C     -1.183942   -1.160029    0.000000
  C      1.216077   -1.136120    0.000000
  C     -1.200429    0.230252    0.000000
  C      1.212740    0.251632    0.000000
  C      0.000000    0.935940    0.000000
  O      0.048212    2.303596    0.000000
  H      0.031441   -2.931667    0.000000
  H     -2.120454   -1.701426    0.000000
  H      2.160924   -1.662963    0.000000
  H     -2.142899    0.765406    0.000000
  H      2.134448    0.816335    0.000000
  H     -0.845249    2.660743    0.000000

 Total Charge           Charge          ....    0
 Multiplicity           Mult            ....    1
 Number of Electrons    NEL             ....   50
 Basis Dimension        Dim             ....  460

ORBITAL ENERGIES
----------------

  NO   OCC          E(Eh)            E(eV)
   0   2.0000     -20.591967      -560.3359
   1   2.0000     -11.304116      -307.6006
   2   2.0000     -11.242339      -305.9196
   3   2.0000     -11.240350      -305.8655
   4   2.0000     -11.234279      -305.7003
   5   2.0000     -11.228324      -305.5382
   6   2.0000     -11.227055      -305.5037
   7   2.0000      -1.406246       -38.2659
   8   2.0000      -1.150413       -31.3043
   9   2.0000      -1.022407       -27.8211
  10   2.0000      -1.007253       -27.4088
  11   2.0000      -0.848533       -23.0898
  12   2.0000      -0.825013       -22.4497
  13   2.0000      -0.735742       -20.0206
  14   2.0000      -0.687070       -18.6961
  15   2.0000      -0.653668       -17.7872
  16   2.0000      -0.611819       -16.6484
  17   2.0000      -0.592945       -16.1348
  18   2.0000      -0.591764       -16.1027
  19   2.0000      -0.569921       -15.5083
  20   2.0000      -0.518200       -14.1009
  21   2.0000      -0.495224       -13.4757
  22   2.0000      -0.485609       -13.2141
  23   2.0000      -0.344338        -9.3699
  24   2.0000      -0.317256        -8.6330
  25   0.0000       0.026680         0.7260
  26   0.0000       0.032905         0.8954
  27   0.0000       0.036197         0.9850
  28   0.0000       0.047472         1.2918
  29   0.0000       0.050340         1.3698

MULLIKEN ATOMIC CHARGES
-----------------------
   0 C :   -0.529552
   1 C :   -0.332368
   2 C :   -0.270216
   3 C :   -0.724932
   4 C :   -0.973208
   5 C :    0.886695
   6 O :   -0.742763
   7 H :    0.537865
   8 H :    0.329389
   9 H :    0.364916
  10 H :    0.634054
  11 H :    0.676782
  12 H :    0.143337
Sum of atomic charges:   -0.0000000

LOEWDIN ATOMIC CHARGES
----------------------
   0 C :    0.184716
   1 C :    0.180804
   2 C :    0.182556
   3 C :    0.205770
   4 C :    0.206945
   5 C :   -0.381243
   6 O :    0.835988
   7 H :   -0.193536
   8 H :   -0.183297
   9 H :   -0.182761
  10 H :   -0.187755
  11 H :   -0.184895
  12 H :   -0.483292

  Mayer bond orders larger than 0.100000
B(  0-C ,  1-C ) :   1.0752 B(  0-C ,  2-C ) :   1.1142 B(  0-C ,  3-C ) :   0.2398
B(  0-C ,  4-C ) :   0.3676 B(  0-C ,  7-H ) :   0.6481 B(  0-C ,  9-H ) :  -0.1048
B(  1-C ,  2-C ) :  -0.1556 B(  1-C ,  3-C ) :   1.1857 B(  1-C ,  5-C ) :  -0.1576
B(  1-C ,  8-H ) :   0.9717 B(  1-C , 10-H ) :   0.1103 B(  2-C ,  4-C ) :   1.1942
B(  2-C ,  5-C ) :  -0.2939 B(  2-C ,  9-H ) :   0.9492 B(  3-C ,  4-C ) :   0.5557
B(  3-C ,  5-C ) :   1.0070 B(  3-C ,  6-O ) :  -0.1629 B(  3-C , 10-H ) :   0.3765
B(  4-C ,  5-C ) :   0.9081 B(  4-C , 10-H ) :  -0.1399 B(  4-C , 11-H ) :   0.2755
B(  5-C ,  6-O ) :   0.7074 B(  6-O , 12-H ) :   1.0585

MP2 TOTAL ENERGY:     -306.876481762 Eh
FINAL SINGLE POINT ENERGY      -306.876481762081

DIPOLE MOMENT
-------------
                                X             Y             Z
Electronic contribution:      0.25250       1.92599      -0.00000
Nuclear contribution   :     -0.77929      -2.01277       0.00000
                        -----------------------------------------
Total Dipole Moment    :     -0.52680      -0.08679      -0.00000
                        -----------------------------------------
Magnitude (a.u.)       :      0.53390
Magnitude (Debye)      :      1.35706

Rotational constants in cm-1:     0.189871     0.087636     0.059961
Rotational constants in MHz :  5692.198243  2627.248847  1797.573938

                             ****ORCA TERMINATED NORMALLY****
TOTAL RUN TIME: 0 days 0 hours 3 minutes 32 seconds 480 msec
