                         Program Version 5.0.3 -  RELEASE  -
|  1> !ri-mp2 aug-cc-pvtz aug-cc-pvtz/c tightscf
|  2> %pal nprocs 16 end
|  3>
|  4> * xyz 0 1
|  5> C     -2.632692    0.270492    0.000000
|  6> C     -1.445615    0.445322    0.000000
|  7> C      2.298303   -0.462071    0.000000
|  8> C      0.000000    0.632435    0.000000
|  9> C      0.789039   -0.688491    0.000000
| 10> H     -3.683318    0.121999    0.000000
| 11> H      2.615695    0.098825    0.881392
| 12> H      2.836529   -1.410299    0.000000
| 13> H      2.615695    0.098825   -0.881392
| 14> H      0.283301    1.225765   -0.874581
| 15> H      0.283301    1.225765    0.874581
| 16> H      0.497294   -1.273503   -0.874226
| 17> H      0.497294   -1.273503    0.874226
| 18> *
| 19>
| 20>                          ****END OF INPUT****

CARTESIAN COORDINATES (ANGSTROEM)
---------------------------------
  C     -2.632692    0.270492    0.000000
  C     -1.445615    0.445322    0.000000
  C      2.298303   -0.462071    0.000000
  C      0.000000    0.632435    0.000000
  C      0.789039   -0.688491    0.000000
  H     -3.683318    0.121999    0.000000
  H      2.615695    0.098825    0.881392
  H      2.836529   -1.410299    0.000000
  H      2.615695    0.098825   -0.881392
  H      0.283301    1.225765   -0.874581
  H      0.283301    1.225765    0.874581
  H      0.497294   -1.273503   -0.874226
  H      0.497294   -1.273503    0.874226

 Total Charge           Charge          ....    0
 Multiplicity           Mult            ....    1
 Number of Electrons    NEL             ....   38
 Basis Dimension        Dim             ....  414

ORBITAL ENERGIES
----------------

  NO   OCC          E(Eh)            E(eV)
   0   2.0000     -11.249697      -306.1198
   1   2.0000     -11.230356      -305.5935
   2   2.0000     -11.230142      -305.5877
   3   2.0000     -11.219071      -305.2865
   4   2.0000     -11.216116      -305.2060
   5   2.0000      -1.091458       -29.7001
   6   2.0000      -1.019110       -27.7314
   7   2.0000      -0.941765       -25.6267
   8   2.0000      -0.823921       -22.4200
   9   2.0000      -0.717010       -19.5108
  10   2.0000      -0.645515       -17.5654
  11   2.0000      -0.640125       -17.4187
  12   2.0000      -0.578697       -15.7471
  13   2.0000      -0.559094       -15.2137
  14   2.0000      -0.514198       -13.9920
  15   2.0000      -0.496074       -13.4989
  16   2.0000      -0.485260       -13.2046
  17   2.0000      -0.382569       -10.4102
  18   2.0000      -0.381918       -10.3925
  19   0.0000       0.030237         0.8228
  20   0.0000       0.033559         0.9132
  21   0.0000       0.039507         1.0750
  22   0.0000       0.041606         1.1321
  23   0.0000       0.049964         1.3596

MULLIKEN ATOMIC CHARGES
-----------------------
   0 C :   -1.746356
   1 C :    1.047566
   2 C :   -0.968918
   3 C :   -0.314107
   4 C :   -0.401067
   5 H :    0.485795
   6 H :    0.284802
   7 H :    0.278042
   8 H :    0.284802
   9 H :    0.258297
  10 H :    0.258297
  11 H :    0.266424
  12 H :    0.266424
Sum of atomic charges:   -0.0000000

LOEWDIN ATOMIC CHARGES
----------------------
   0 C :    0.393641
   1 C :    0.019147
   2 C :    0.578908
   3 C :    0.196147
   4 C :    0.250115
   5 H :   -0.307269
   6 H :   -0.170379
   7 H :   -0.172206
   8 H :   -0.170379
   9 H :   -0.159346
  10 H :   -0.159346
  11 H :   -0.149516
  12 H :   -0.149516

  Mayer bond orders larger than 0.100000
B(  0-C ,  1-C ) :   0.3463 B(  0-C ,  5-H ) :   0.9711 B(  1-C ,  3-C ) :   0.9711
B(  1-C ,  5-H ) :  -0.1391 B(  2-C ,  4-C ) :   0.8892 B(  2-C ,  6-H ) :   0.9362
B(  2-C ,  7-H ) :   0.9674 B(  2-C ,  8-H ) :   0.9362 B(  3-C ,  4-C ) :   0.9796
B(  3-C ,  9-H ) :   0.9460 B(  3-C , 10-H ) :   0.9460 B(  4-C , 11-H ) :   0.9414
B(  4-C , 12-H ) :   0.9414

MP2 TOTAL ENERGY:     -194.847301081 Eh
FINAL SINGLE POINT ENERGY      -194.847301080690

DIPOLE MOMENT
-------------
                                X             Y             Z
Electronic contribution:     -5.88493       1.20348       0.00000
Nuclear contribution   :      6.22927      -1.24268       0.00000
                        -----------------------------------------
Total Dipole Moment    :      0.34434      -0.03919       0.00000
                        -----------------------------------------
Magnitude (a.u.)       :      0.34656
Magnitude (Debye)      :      0.88089

Rotational constants in cm-1:     0.794272     0.074030     0.070346
Rotational constants in MHz : 23811.671020  2219.371699  2108.919706

                             ****ORCA TERMINATED NORMALLY****
TOTAL RUN TIME: 0 days 0 hours 2 minutes 6 seconds 613 msec
