                         Program Version 5.0.3 -  RELEASE  -
|  1> !ri-mp2 aug-cc-pvtz aug-cc-pvtz/c tightscf
|  2> %pal nprocs 16 end
|  3>
|  4> * xyz 0 1
|  5> C      0.000000    1.138944    0.719367
|  6> N      0.000000    0.000000    1.412722
|  7> C      0.000000    1.193219   -0.669712
|  8> C      0.000000   -1.138944    0.719367
|  9> C      0.000000   -1.193219   -0.669712
| 10> C      0.000000    0.000000   -1.378970
| 11> H      0.000000   -2.147907   -1.177548
| 12> H      0.000000    2.053255    1.302467
| 13> H      0.000000    2.147907   -1.177548
| 14> H      0.000000   -2.053255    1.302467
| 15> H      0.000000    0.000000   -2.460925
| 16> *
| 17>
| 18>                          ****END OF INPUT****

CARTESIAN COORDINATES (ANGSTROEM)
---------------------------------
  C      0.000000    1.138944    0.719367
  N      0.000000    0.000000    1.412722
  C      0.000000    1.193219   -0.669712
  C      0.000000   -1.138944    0.719367
  C      0.000000   -1.193219   -0.669712
  C      0.000000    0.000000   -1.378970
  H      0.000000   -2.147907   -1.177548
  H      0.000000    2.053255    1.302467
  H      0.000000    2.147907   -1.177548
  H      0.000000   -2.053255    1.302467
  H      0.000000    0.000000   -2.460925

 Total Charge           Charge          ....    0
 Multiplicity           Mult            ....    1
 Number of Electrons    NEL             ....   42
 Basis Dimension        Dim             ....  391

ORBITAL ENERGIES
----------------

  NO   OCC          E(Eh)            E(eV)
   0   2.0000     -15.565389      -423.5558
   1   2.0000     -11.274333      -306.7902
   2   2.0000     -11.274316      -306.7897
   3   2.0000     -11.259457      -306.3854
   4   2.0000     -11.241648      -305.9008
   5   2.0000     -11.241594      -305.8993
   6   2.0000      -1.260743       -34.3066
   7   2.0000      -1.091258       -29.6946
   8   2.0000      -1.035245       -28.1705
   9   2.0000      -0.859491       -23.3879
  10   2.0000      -0.857672       -23.3384
  11   2.0000      -0.722968       -19.6730
  12   2.0000      -0.662829       -18.0365
  13   2.0000      -0.653856       -17.7923
  14   2.0000      -0.599142       -16.3035
  15   2.0000      -0.577057       -15.7025
  16   2.0000      -0.543715       -14.7952
  17   2.0000      -0.521016       -14.1776
  18   2.0000      -0.418192       -11.3796
  19   2.0000      -0.385286       -10.4842
  20   2.0000      -0.348666        -9.4877
  21   0.0000       0.026158         0.7118
  22   0.0000       0.033293         0.9059
  23   0.0000       0.037766         1.0277
  24   0.0000       0.048817         1.3284
  25   0.0000       0.053336         1.4513

MULLIKEN ATOMIC CHARGES
-----------------------
   0 C :   -0.576602
   1 N :   -0.357148
   2 C :   -0.118308
   3 C :   -0.576602
   4 C :   -0.118308
   5 C :   -0.604115
   6 H :    0.290889
   7 H :    0.616630
   8 H :    0.290889
   9 H :    0.616630
  10 H :    0.536045
Sum of atomic charges:    0.0000000

LOEWDIN ATOMIC CHARGES
----------------------
   0 C :    0.002843
   1 N :    0.364609
   2 C :    0.194260
   3 C :    0.002843
   4 C :    0.194260
   5 C :    0.187544
   6 H :   -0.190882
   7 H :   -0.194261
   8 H :   -0.190882
   9 H :   -0.194261
  10 H :   -0.176075

  Mayer bond orders larger than 0.100000
B(  0-C ,  1-N ) :   1.2529 B(  0-C ,  2-C ) :   0.9166 B(  0-C ,  3-C ) :   0.2392
B(  0-C ,  5-C ) :   0.2534 B(  0-C ,  7-H ) :   0.4906 B(  1-N ,  2-C ) :  -0.1260
B(  1-N ,  3-C ) :   1.2529 B(  1-N ,  4-C ) :  -0.1260 B(  2-C ,  4-C ) :  -0.1083
B(  2-C ,  5-C ) :   1.1449 B(  2-C ,  8-H ) :   1.0421 B(  3-C ,  4-C ) :   0.9166
B(  3-C ,  5-C ) :   0.2534 B(  3-C ,  9-H ) :   0.4906 B(  4-C ,  5-C ) :   1.1449
B(  4-C ,  6-H ) :   1.0421 B(  5-C ,  6-H ) :  -0.1014 B(  5-C ,  8-H ) :  -0.1014
B(  5-C , 10-H ) :   0.7353

MP2 TOTAL ENERGY:     -247.777286149 Eh
FINAL SINGLE POINT ENERGY      -247.777286149096

DIPOLE MOMENT
-------------
                                X             Y             Z
Electronic contribution:      0.00000      -0.00000       1.28886
Nuclear contribution   :      0.00000      -0.00000      -2.19659
                        -----------------------------------------
Total Dipole Moment    :      0.00000      -0.00000      -0.90773
                        -----------------------------------------
Magnitude (a.u.)       :      0.90773
Magnitude (Debye)      :      2.30727

Rotational constants in cm-1:     0.202706     0.195430     0.099501
Rotational constants in MHz :  6076.974175  5858.840487  2982.957037

                             ****ORCA TERMINATED NORMALLY****
TOTAL RUN TIME: 0 days 0 hours 2 minutes 16 seconds 233 msec
