                         Program Version 5.0.3 -  RELEASE  -
|  1> !ri-mp2 aug-cc-pvtz aug-cc-pvtz/c tightscf
|  2> %pal nprocs 16 end
|  3>
|  4> * xyz 0 1
|  5> C      1.133555    1.224172   -0.194407
|  6> C      1.181841   -1.187001   -0.202712
|  7> C     -0.343283    1.191042    0.180257
|  8> C     -0.292244   -1.224360    0.177403
|  9> N      1.789141    0.030617    0.328985
| 10> N     -0.969018   -0.030842   -0.322800
| 11> N     -2.357848   -0.114512   -0.018199
| 12> H      1.212514    1.304089   -1.289776
| 13> H      1.599464    2.108612    0.242171
| 14> H      1.688428   -2.052619    0.225623
| 15> H      1.262640   -1.252758   -1.298708
| 16> H     -0.442955    1.259930    1.277609
| 17> H     -0.857002    2.046876   -0.260956
| 18> H     -0.780392   -2.092624   -0.261687
| 19> H     -0.379815   -1.300473    1.273848
| 20> H      2.781405    0.052276    0.136985
| 21> H     -2.540805    0.215439    0.932435
| 22> H     -2.858621    0.491294   -0.656692
| 23> *
| 24>
| 25>                          ****END OF INPUT****

CARTESIAN COORDINATES (ANGSTROEM)
---------------------------------
  C      1.133555    1.224172   -0.194407
  C      1.181841   -1.187001   -0.202712
  C     -0.343283    1.191042    0.180257
  C     -0.292244   -1.224360    0.177403
  N      1.789141    0.030617    0.328985
  N     -0.969018   -0.030842   -0.322800
  N     -2.357848   -0.114512   -0.018199
  H      1.212514    1.304089   -1.289776
  H      1.599464    2.108612    0.242171
  H      1.688428   -2.052619    0.225623
  H      1.262640   -1.252758   -1.298708
  H     -0.442955    1.259930    1.277609
  H     -0.857002    2.046876   -0.260956
  H     -0.780392   -2.092624   -0.261687
  H     -0.379815   -1.300473    1.273848
  H      2.781405    0.052276    0.136985
  H     -2.540805    0.215439    0.932435
  H     -2.858621    0.491294   -0.656692

 Total Charge           Charge          ....    0
 Multiplicity           Mult            ....    1
 Number of Electrons    NEL             ....   56
 Basis Dimension        Dim             ....  575

ORBITAL ENERGIES
----------------

  NO   OCC          E(Eh)            E(eV)
   0   2.0000     -15.571669      -423.7267
   1   2.0000     -15.566470      -423.5852
   2   2.0000     -15.541663      -422.9102
   3   2.0000     -11.248132      -306.0772
   4   2.0000     -11.246341      -306.0285
   5   2.0000     -11.244325      -305.9736
   6   2.0000     -11.238729      -305.8214
   7   2.0000      -1.288109       -35.0512
   8   2.0000      -1.206797       -32.8386
   9   2.0000      -1.064544       -28.9677
  10   2.0000      -1.025167       -27.8962
  11   2.0000      -0.887377       -24.1468
  12   2.0000      -0.862156       -23.4605
  13   2.0000      -0.764247       -20.7962
  14   2.0000      -0.697789       -18.9878
  15   2.0000      -0.669323       -18.2132
  16   2.0000      -0.638389       -17.3715
  17   2.0000      -0.622934       -16.9509
  18   2.0000      -0.605529       -16.4773
  19   2.0000      -0.587652       -15.9908
  20   2.0000      -0.558536       -15.1985
  21   2.0000      -0.539508       -14.6808
  22   2.0000      -0.494593       -13.4585
  23   2.0000      -0.483686       -13.1618
  24   2.0000      -0.471968       -12.8429
  25   2.0000      -0.404739       -11.0135
  26   2.0000      -0.371729       -10.1153
  27   2.0000      -0.364293        -9.9129
  28   0.0000       0.029015         0.7895
  29   0.0000       0.033709         0.9173
  30   0.0000       0.038515         1.0480
  31   0.0000       0.040063         1.0902
  32   0.0000       0.052953         1.4409

MULLIKEN ATOMIC CHARGES
-----------------------
   0 C :   -0.389091
   1 C :   -0.377681
   2 C :   -0.456777
   3 C :   -0.381351
   4 N :   -0.464807
   5 N :    0.024850
   6 N :   -0.655667
   7 H :    0.214201
   8 H :    0.355654
   9 H :    0.370523
  10 H :    0.217152
  11 H :    0.255215
  12 H :    0.408262
  13 H :    0.412068
  14 H :    0.235552
  15 H :   -0.008305
  16 H :    0.130284
  17 H :    0.109917
Sum of atomic charges:    0.0000000

LOEWDIN ATOMIC CHARGES
----------------------
   0 C :    0.166707
   1 C :    0.166300
   2 C :    0.153812
   3 C :    0.147690
   4 N :    0.563452
   5 N :    0.158734
   6 N :    0.735912
   7 H :   -0.138088
   8 H :   -0.145832
   9 H :   -0.146060
  10 H :   -0.138517
  11 H :   -0.136767
  12 H :   -0.148421
  13 H :   -0.151288
  14 H :   -0.134879
  15 H :   -0.306312
  16 H :   -0.317809
  17 H :   -0.328633

  Mayer bond orders larger than 0.100000
B(  0-C ,  2-C ) :   0.9822 B(  0-C ,  4-N ) :   0.8363 B(  0-C ,  7-H ) :   1.0324
B(  0-C ,  8-H ) :   0.8833 B(  1-C ,  3-C ) :   0.9932 B(  1-C ,  4-N ) :   0.8411
B(  1-C ,  9-H ) :   0.8755 B(  1-C , 10-H ) :   1.0234 B(  2-C ,  5-N ) :   0.8950
B(  2-C , 11-H ) :   0.9802 B(  2-C , 12-H ) :   0.8227 B(  3-C ,  5-N ) :   0.8564
B(  3-C , 13-H ) :   0.8414 B(  3-C , 14-H ) :   1.0137 B(  4-N , 15-H ) :   1.0511
B(  5-N ,  6-N ) :   0.4100 B(  6-N , 16-H ) :   0.9689 B(  6-N , 17-H ) :   0.9900

MP2 TOTAL ENERGY:     -322.631239916 Eh
FINAL SINGLE POINT ENERGY      -322.631239916491

DIPOLE MOMENT
-------------
                                X             Y             Z
Electronic contribution:     -0.41702      -0.30399      -0.35057
Nuclear contribution   :      0.70269       0.81033       0.33353
                        -----------------------------------------
Total Dipole Moment    :      0.28567       0.50634      -0.01705
                        -----------------------------------------
Magnitude (a.u.)       :      0.58162
Magnitude (Debye)      :      1.47836

Rotational constants in cm-1:     0.157150     0.077951     0.056613
Rotational constants in MHz :  4711.251420  2336.924308  1697.208065

                             ****ORCA TERMINATED NORMALLY****
TOTAL RUN TIME: 0 days 0 hours 6 minutes 47 seconds 83 msec
