                         Program Version 5.0.3 -  RELEASE  -
|  1> !ri-mp2 aug-cc-pvtz aug-cc-pvtz/c tightscf
|  2> %pal nprocs 16 end
|  3>
|  4> * xyz 0 1
|  5> C      2.356270   -1.777173    0.000000
|  6> O      3.482232   -1.329055    0.000000
|  7> C      1.122819   -0.978189    0.000000
|  8> C     -0.122816   -1.616318    0.000000
|  9> C     -1.293641   -0.885835    0.000000
| 10> C     -1.239473    0.512535    0.000000
| 11> C      0.000000    1.164562    0.000000
| 12> C      1.165300    0.417042    0.000000
| 13> O     -2.435229    1.147852    0.000000
| 14> C     -2.463378    2.570550    0.000000
| 15> H      2.191197   -2.874062    0.000000
| 16> H     -0.165916   -2.698728    0.000000
| 17> H     -2.261088   -1.367425    0.000000
| 18> H      0.057823    2.241984    0.000000
| 19> H      2.129488    0.906789    0.000000
| 20> H     -1.981978    2.976345    0.892234
| 21> H     -1.981978    2.976345   -0.892234
| 22> H     -3.514049    2.845335    0.000000
| 23> *
| 24>
| 25>                          ****END OF INPUT****

CARTESIAN COORDINATES (ANGSTROEM)
---------------------------------
  C      2.356270   -1.777173    0.000000
  O      3.482232   -1.329055    0.000000
  C      1.122819   -0.978189    0.000000
  C     -0.122816   -1.616318    0.000000
  C     -1.293641   -0.885835    0.000000
  C     -1.239473    0.512535    0.000000
  C      0.000000    1.164562    0.000000
  C      1.165300    0.417042    0.000000
  O     -2.435229    1.147852    0.000000
  C     -2.463378    2.570550    0.000000
  H      2.191197   -2.874062    0.000000
  H     -0.165916   -2.698728    0.000000
  H     -2.261088   -1.367425    0.000000
  H      0.057823    2.241984    0.000000
  H      2.129488    0.906789    0.000000
  H     -1.981978    2.976345    0.892234
  H     -1.981978    2.976345   -0.892234
  H     -3.514049    2.845335    0.000000

 Total Charge           Charge          ....    0
 Multiplicity           Mult            ....    1
 Number of Electrons    NEL             ....   72
 Basis Dimension        Dim             ....  644

ORBITAL ENERGIES
----------------

  NO   OCC          E(Eh)            E(eV)
   0   2.0000     -20.603892      -560.6604
   1   2.0000     -20.546459      -559.0976
   2   2.0000     -11.328592      -308.2667
   3   2.0000     -11.325581      -308.1847
   4   2.0000     -11.298092      -307.4367
   5   2.0000     -11.262060      -306.4562
   6   2.0000     -11.258824      -306.3682
   7   2.0000     -11.245367      -306.0020
   8   2.0000     -11.240928      -305.8812
   9   2.0000     -11.240877      -305.8798
  10   2.0000      -1.429739       -38.9052
  11   2.0000      -1.383293       -37.6413
  12   2.0000      -1.170750       -31.8577
  13   2.0000      -1.050643       -28.5894
  14   2.0000      -1.040767       -28.3207
  15   2.0000      -0.967390       -26.3240
  16   2.0000      -0.880504       -23.9597
  17   2.0000      -0.847251       -23.0549
  18   2.0000      -0.790956       -21.5230
  19   2.0000      -0.736276       -20.0351
  20   2.0000      -0.699371       -19.0308
  21   2.0000      -0.675218       -18.3736
  22   2.0000      -0.671039       -18.2599
  23   2.0000      -0.638809       -17.3829
  24   2.0000      -0.632976       -17.2242
  25   2.0000      -0.608611       -16.5611
  26   2.0000      -0.589368       -16.0375
  27   2.0000      -0.565731       -15.3943
  28   2.0000      -0.556402       -15.1405
  29   2.0000      -0.537012       -14.6129
  30   2.0000      -0.530329       -14.4310
  31   2.0000      -0.496576       -13.5125
  32   2.0000      -0.475293       -12.9334
  33   2.0000      -0.422644       -11.5007
  34   2.0000      -0.360567        -9.8115
  35   2.0000      -0.328599        -8.9416
  36   0.0000       0.023342         0.6352
  37   0.0000       0.029882         0.8131
  38   0.0000       0.035434         0.9642
  39   0.0000       0.042198         1.1483
  40   0.0000       0.043489         1.1834

MULLIKEN ATOMIC CHARGES
-----------------------
   0 C :   -0.296062
   1 O :   -0.851844
   2 C :    1.531077
   3 C :   -0.680077
   4 C :   -0.997198
   5 C :    1.173900
   6 C :   -0.451503
   7 C :   -0.701507
   8 O :   -0.817180
   9 C :   -0.880202
  10 H :    0.519911
  11 H :    0.208774
  12 H :    0.569725
  13 H :    0.444272
  14 H :    0.122321
  15 H :    0.361253
  16 H :    0.361253
  17 H :    0.383086
Sum of atomic charges:    0.0000000

LOEWDIN ATOMIC CHARGES
----------------------
   0 C :   -0.245401
   1 O :    0.428572
   2 C :   -0.154303
   3 C :    0.192222
   4 C :    0.224819
   5 C :   -0.375040
   6 C :    0.226138
   7 C :    0.212670
   8 O :    0.579901
   9 C :    0.356270
  10 H :   -0.186695
  11 H :   -0.174464
  12 H :   -0.182203
  13 H :   -0.205975
  14 H :   -0.171668
  15 H :   -0.172865
  16 H :   -0.172865
  17 H :   -0.179114

  Mayer bond orders larger than 0.100000
B(  0-C ,  1-O ) :   1.3995 B(  0-C ,  2-C ) :   0.3477 B(  0-C ,  7-C ) :   0.1661
B(  0-C , 10-H ) :   0.7433 B(  0-C , 13-H ) :   0.1103 B(  1-O , 10-H ) :  -0.1304
B(  1-O , 14-H ) :   0.1138 B(  2-C ,  3-C ) :   0.5194 B(  2-C ,  4-C ) :   0.1567
B(  2-C ,  5-C ) :   0.1023 B(  2-C ,  6-C ) :   0.1643 B(  2-C ,  7-C ) :   0.3788
B(  2-C , 11-H ) :  -0.1914 B(  2-C , 14-H ) :  -0.1546 B(  3-C ,  4-C ) :   1.3034
B(  3-C ,  5-C ) :  -0.3896 B(  3-C ,  7-C ) :  -0.2277 B(  3-C , 11-H ) :   1.3098
B(  4-C ,  5-C ) :   0.8816 B(  4-C ,  6-C ) :   0.3176 B(  4-C ,  8-O ) :   0.2247
B(  4-C , 12-H ) :   0.5248 B(  5-C ,  6-C ) :   1.2017 B(  5-C ,  7-C ) :  -0.1272
B(  5-C ,  8-O ) :   0.4891 B(  5-C , 13-H ) :   0.1256 B(  6-C ,  7-C ) :   1.0822
B(  6-C ,  8-O ) :  -0.2864 B(  6-C , 13-H ) :   0.7267 B(  6-C , 14-H ) :  -0.1279
B(  7-C , 11-H ) :   0.1131 B(  7-C , 13-H ) :  -0.1214 B(  7-C , 14-H ) :   1.2813
B(  8-O ,  9-C ) :   0.9938 B(  9-C , 15-H ) :   0.8808 B(  9-C , 16-H ) :   0.8808
B(  9-C , 17-H ) :   0.9076

MP2 TOTAL ENERGY:     -459.238046822 Eh
FINAL SINGLE POINT ENERGY      -459.238046822482

DIPOLE MOMENT
-------------
                                X             Y             Z
Electronic contribution:      3.97464      -4.34505      -0.00000
Nuclear contribution   :     -5.47241       4.96959       0.00000
                        -----------------------------------------
Total Dipole Moment    :     -1.49777       0.62454      -0.00000
                        -----------------------------------------
Magnitude (a.u.)       :      1.62277
Magnitude (Debye)      :      4.12474

Rotational constants in cm-1:     0.140226     0.023873     0.020480
Rotational constants in MHz :  4203.857133   715.703442   613.966911

                             ****ORCA TERMINATED NORMALLY****
TOTAL RUN TIME: 0 days 0 hours 10 minutes 44 seconds 550 msec
