                         Program Version 5.0.3 -  RELEASE  -
|  1> !ri-mp2 aug-cc-pvtz aug-cc-pvtz/c tightscf
|  2> %pal nprocs 16 end
|  3>
|  4> * xyz 0 1
|  5> C      0.000000    0.000000    1.983144
|  6> C      0.000000    0.000000   -2.114003
|  7> C      0.000000    1.182119   -1.386720
|  8> C      0.000000   -1.182119   -1.386720
|  9> C      0.000000    0.000000    0.536531
| 10> N      0.000000    0.000000    3.132944
| 11> N      0.000000    1.194621   -0.055327
| 12> N      0.000000   -1.194621   -0.055327
| 13> H      0.000000    0.000000   -3.193985
| 14> H      0.000000    2.147839   -1.877717
| 15> H      0.000000   -2.147839   -1.877717
| 16> *
| 17>
| 18>                          ****END OF INPUT****

CARTESIAN COORDINATES (ANGSTROEM)
---------------------------------
  C      0.000000    0.000000    1.983144
  C      0.000000    0.000000   -2.114003
  C      0.000000    1.182119   -1.386720
  C      0.000000   -1.182119   -1.386720
  C      0.000000    0.000000    0.536531
  N      0.000000    0.000000    3.132944
  N      0.000000    1.194621   -0.055327
  N      0.000000   -1.194621   -0.055327
  H      0.000000    0.000000   -3.193985
  H      0.000000    2.147839   -1.877717
  H      0.000000   -2.147839   -1.877717

 Total Charge           Charge          ....    0
 Multiplicity           Mult            ....    1
 Number of Electrons    NEL             ....   54
 Basis Dimension        Dim             ....  437

ORBITAL ENERGIES
----------------

  NO   OCC          E(Eh)            E(eV)
   0   2.0000     -15.610980      -424.7964
   1   2.0000     -15.610954      -424.7957
   2   2.0000     -15.587413      -424.1551
   3   2.0000     -11.375738      -309.5496
   4   2.0000     -11.327894      -308.2477
   5   2.0000     -11.327880      -308.2473
   6   2.0000     -11.283943      -307.0517
   7   2.0000     -11.280153      -306.9486
   8   2.0000      -1.357084       -36.9281
   9   2.0000      -1.234607       -33.5954
  10   2.0000      -1.231831       -33.5198
  11   2.0000      -1.114741       -30.3337
  12   2.0000      -0.956778       -26.0353
  13   2.0000      -0.931731       -25.3537
  14   2.0000      -0.808947       -22.0126
  15   2.0000      -0.742817       -20.2131
  16   2.0000      -0.704771       -19.1778
  17   2.0000      -0.639191       -17.3933
  18   2.0000      -0.627630       -17.0787
  19   2.0000      -0.624525       -16.9942
  20   2.0000      -0.572795       -15.5866
  21   2.0000      -0.517287       -14.0761
  22   2.0000      -0.499435       -13.5903
  23   2.0000      -0.485432       -13.2093
  24   2.0000      -0.454570       -12.3695
  25   2.0000      -0.448513       -12.2047
  26   2.0000      -0.398137       -10.8339
  27   0.0000       0.016181         0.4403
  28   0.0000       0.028126         0.7653
  29   0.0000       0.039143         1.0651
  30   0.0000       0.047498         1.2925
  31   0.0000       0.055042         1.4978

MULLIKEN ATOMIC CHARGES
-----------------------
   0 C :    0.323783
   1 C :   -0.216578
   2 C :   -0.433190
   3 C :   -0.433190
   4 C :    0.409138
   5 N :   -0.710486
   6 N :   -0.330563
   7 N :   -0.330563
   8 H :    0.364299
   9 H :    0.678675
  10 H :    0.678675
Sum of atomic charges:    0.0000000

LOEWDIN ATOMIC CHARGES
----------------------
   0 C :   -0.241563
   1 C :    0.225026
   2 C :    0.034387
   3 C :    0.034387
   4 C :   -0.562392
   5 N :    0.273216
   6 N :    0.386900
   7 N :    0.386900
   8 H :   -0.185579
   9 H :   -0.175641
  10 H :   -0.175641

  Mayer bond orders larger than 0.100000
B(  0-C ,  4-C ) :   0.8025 B(  0-C ,  5-N ) :   2.0481 B(  1-C ,  2-C ) :   1.0814
B(  1-C ,  3-C ) :   1.0814 B(  1-C ,  6-N ) :  -0.1428 B(  1-C ,  7-N ) :  -0.1428
B(  1-C ,  8-H ) :   0.9042 B(  2-C ,  3-C ) :   0.2311 B(  2-C ,  4-C ) :  -0.1236
B(  2-C ,  6-N ) :   1.2125 B(  2-C ,  7-N ) :   0.1009 B(  2-C ,  9-H ) :   0.4575
B(  3-C ,  4-C ) :  -0.1236 B(  3-C ,  6-N ) :   0.1009 B(  3-C ,  7-N ) :   1.2125
B(  3-C , 10-H ) :   0.4575 B(  4-C ,  6-N ) :   1.0424 B(  4-C ,  7-N ) :   1.0424
B(  6-N ,  9-H ) :  -0.1051 B(  7-N , 10-H ) :  -0.1051

MP2 TOTAL ENERGY:     -355.893975167 Eh
FINAL SINGLE POINT ENERGY      -355.893975167238

DIPOLE MOMENT
-------------
                                X             Y             Z
Electronic contribution:     -0.00000       0.00000       4.02923
Nuclear contribution   :      0.00000       0.00000      -6.68870
                        -----------------------------------------
Total Dipole Moment    :     -0.00000       0.00000      -2.65948
                        -----------------------------------------
Magnitude (a.u.)       :      2.65948
Magnitude (Debye)      :      6.75985

Rotational constants in cm-1:     0.203477     0.055257     0.043456
Rotational constants in MHz :  6100.078565  1656.572499  1302.781614

                             ****ORCA TERMINATED NORMALLY****
TOTAL RUN TIME: 0 days 0 hours 3 minutes 16 seconds 962 msec
