                         Program Version 5.0.3 -  RELEASE  -
|  1> !ri-mp2 aug-cc-pvtz aug-cc-pvtz/c tightscf
|  2> %pal nprocs 16 end
|  3>
|  4> * xyz 0 1
|  5> O      0.000000    0.000000    1.676657
|  6> C      0.000000    0.000000    0.503213
|  7> Cl     0.000000    1.457697   -0.483310
|  8> Cl     0.000000   -1.457697   -0.483310
|  9> *
| 10>
| 11>                          ****END OF INPUT****

CARTESIAN COORDINATES (ANGSTROEM)
---------------------------------
  O      0.000000    0.000000    1.676657
  C      0.000000    0.000000    0.503213
  Cl     0.000000    1.457697   -0.483310
  Cl     0.000000   -1.457697   -0.483310

 Total Charge           Charge          ....    0
 Multiplicity           Mult            ....    1
 Number of Electrons    NEL             ....   48
 Basis Dimension        Dim             ....  192

ORBITAL ENERGIES
----------------

  NO   OCC          E(Eh)            E(eV)
   0   2.0000    -104.890153     -2854.2062
   1   2.0000    -104.890152     -2854.2061
   2   2.0000     -20.627293      -561.2972
   3   2.0000     -11.478332      -312.3413
   4   2.0000     -10.614207      -288.8272
   5   2.0000     -10.614192      -288.8268
   6   2.0000      -8.080950      -219.8938
   7   2.0000      -8.080948      -219.8938
   8   2.0000      -8.078864      -219.8371
   9   2.0000      -8.078860      -219.8370
  10   2.0000      -8.078697      -219.8325
  11   2.0000      -8.078695      -219.8325
  12   2.0000      -1.490761       -40.5657
  13   2.0000      -1.197584       -32.5879
  14   2.0000      -1.137513       -30.9533
  15   2.0000      -0.812411       -22.1068
  16   2.0000      -0.707899       -19.2629
  17   2.0000      -0.702218       -19.1083
  18   2.0000      -0.649379       -17.6705
  19   2.0000      -0.529842       -14.4177
  20   2.0000      -0.500995       -13.6328
  21   2.0000      -0.500077       -13.6078
  22   2.0000      -0.494038       -13.4435
  23   2.0000      -0.477554       -12.9949
  24   0.0000       0.047418         1.2903
  25   0.0000       0.066216         1.8018
  26   0.0000       0.079186         2.1548
  27   0.0000       0.086931         2.3655
  28   0.0000       0.092867         2.5270

MULLIKEN ATOMIC CHARGES
-----------------------
   0 O :   -0.387080
   1 C :    0.443427
   2 Cl:   -0.028173
   3 Cl:   -0.028173
Sum of atomic charges:    0.0000000

LOEWDIN ATOMIC CHARGES
----------------------
   0 O :    0.266728
   1 C :   -1.862102
   2 Cl:    0.797687
   3 Cl:    0.797687

  Mayer bond orders larger than 0.100000
B(  0-O ,  1-C ) :   1.9405 B(  1-C ,  2-Cl) :   1.0262 B(  1-C ,  3-Cl) :   1.0262

MP2 TOTAL ENERGY:    -1032.581792311 Eh
FINAL SINGLE POINT ENERGY     -1032.581792311428

DIPOLE MOMENT
-------------
                                X             Y             Z
Electronic contribution:     -0.00000      -0.00000      -1.85170
Nuclear contribution   :      0.00000       0.00000       1.28440
                        -----------------------------------------
Total Dipole Moment    :     -0.00000      -0.00000      -0.56730
                        -----------------------------------------
Magnitude (a.u.)       :      0.56730
Magnitude (Debye)      :      1.44196

Rotational constants in cm-1:     0.261114     0.111887     0.078325
Rotational constants in MHz :  7827.996994  3354.286062  2348.119886

                             ****ORCA TERMINATED NORMALLY****
TOTAL RUN TIME: 0 days 0 hours 0 minutes 29 seconds 614 msec
