                         Program Version 5.0.3 -  RELEASE  -
|  1> !ri-mp2 aug-cc-pvtz aug-cc-pvtz/c tightscf
|  2> %pal nprocs 16 end
|  3>
|  4> * xyz 0 1
|  5> C      1.288205    0.152169    0.000000
|  6> C      0.000000    0.471192    0.000000
|  7> C     -1.134493   -0.504884    0.000000
|  8> H      2.059749    0.910251    0.000000
|  9> H      1.617497   -0.880355    0.000000
| 10> H     -0.276862    1.521647    0.000000
| 11> H     -1.772629   -0.363826    0.876178
| 12> H     -0.777400   -1.534749    0.000000
| 13> H     -1.772629   -0.363826   -0.876178
| 14> *
| 15>
| 16>                          ****END OF INPUT****

CARTESIAN COORDINATES (ANGSTROEM)
---------------------------------
  C      1.288205    0.152169    0.000000
  C      0.000000    0.471192    0.000000
  C     -1.134493   -0.504884    0.000000
  H      2.059749    0.910251    0.000000
  H      1.617497   -0.880355    0.000000
  H     -0.276862    1.521647    0.000000
  H     -1.772629   -0.363826    0.876178
  H     -0.777400   -1.534749    0.000000
  H     -1.772629   -0.363826   -0.876178

 Total Charge           Charge          ....    0
 Multiplicity           Mult            ....    1
 Number of Electrons    NEL             ....   24
 Basis Dimension        Dim             ....  276

ORBITAL ENERGIES
----------------

  NO   OCC          E(Eh)            E(eV)
   0   2.0000     -11.233352      -305.6751
   1   2.0000     -11.221464      -305.3516
   2   2.0000     -11.216651      -305.2206
   3   2.0000      -1.065567       -28.9956
   4   2.0000      -0.933980       -25.4149
   5   2.0000      -0.757602       -20.6154
   6   2.0000      -0.639699       -17.4071
   7   2.0000      -0.584418       -15.9028
   8   2.0000      -0.567171       -15.4335
   9   2.0000      -0.524284       -14.2665
  10   2.0000      -0.490333       -13.3426
  11   2.0000      -0.360193        -9.8013
  12   0.0000       0.031489         0.8568
  13   0.0000       0.039064         1.0630
  14   0.0000       0.041176         1.1205
  15   0.0000       0.048417         1.3175
  16   0.0000       0.058147         1.5823

MULLIKEN ATOMIC CHARGES
-----------------------
   0 C :   -1.058249
   1 C :   -0.237273
   2 C :   -0.693181
   3 H :    0.520941
   4 H :    0.266545
   5 H :    0.338076
   6 H :    0.289885
   7 H :    0.283371
   8 H :    0.289885
Sum of atomic charges:    0.0000000

LOEWDIN ATOMIC CHARGES
----------------------
   0 C :    0.507530
   1 C :    0.154994
   2 C :    0.539168
   3 H :   -0.233863
   4 H :   -0.227072
   5 H :   -0.196276
   6 H :   -0.179414
   7 H :   -0.185653
   8 H :   -0.179414

  Mayer bond orders larger than 0.100000
B(  0-C ,  1-C ) :   1.5175 B(  0-C ,  3-H ) :   0.6462 B(  0-C ,  4-H ) :   1.0443
B(  1-C ,  2-C ) :   0.8790 B(  1-C ,  5-H ) :   0.8951 B(  2-C ,  6-H ) :   0.9369
B(  2-C ,  7-H ) :   0.9329 B(  2-C ,  8-H ) :   0.9369

MP2 TOTAL ENERGY:     -117.633785841 Eh
FINAL SINGLE POINT ENERGY      -117.633785840504

DIPOLE MOMENT
-------------
                                X             Y             Z
Electronic contribution:      0.82507       0.74162       0.00000
Nuclear contribution   :     -0.98786      -0.76141       0.00000
                        -----------------------------------------
Total Dipole Moment    :     -0.16280      -0.01979       0.00000
                        -----------------------------------------
Magnitude (a.u.)       :      0.16399
Magnitude (Debye)      :      0.41684

Rotational constants in cm-1:     1.576218     0.310497     0.272372
Rotational constants in MHz : 47253.827815  9308.479906  8165.498749

                             ****ORCA TERMINATED NORMALLY****
TOTAL RUN TIME: 0 days 0 hours 0 minutes 42 seconds 420 msec
