                         Program Version 5.0.3 -  RELEASE  -
|  1> !ri-mp2 aug-cc-pvtz aug-cc-pvtz/c tightscf
|  2> %pal nprocs 16 end
|  3> %maxcore 3800
|  4>
|  5> * xyz 0 1
|  6> C      0.386271   -2.839243    0.000000
|  7> C      0.387351   -2.138596    1.200339
|  8> C      0.387351   -2.138596   -1.200339
|  9> C      0.387351   -0.748944    1.197148
| 10> C      0.387351   -0.748944   -1.197148
| 11> C      0.385210   -0.031430    0.000000
| 12> C     -1.108485    3.575531    0.000000
| 13> C      0.345445    1.476802    0.000000
| 14> C     -1.082048    2.048572    0.000000
| 15> H      0.389739   -3.921015    0.000000
| 16> H      0.393022   -2.674365    2.140600
| 17> H      0.393022   -2.674365   -2.140600
| 18> H      0.394621   -0.211935    2.138121
| 19> H      0.394621   -0.211935   -2.138121
| 20> H     -0.604834    3.979341    0.880742
| 21> H     -0.604834    3.979341   -0.880742
| 22> H     -2.131197    3.954700    0.000000
| 23> H      0.878157    1.856658    0.875883
| 24> H      0.878157    1.856658   -0.875883
| 25> H     -1.617623    1.668007   -0.873416
| 26> H     -1.617623    1.668007    0.873416
| 27> *
| 28>
| 29>                          ****END OF INPUT****

CARTESIAN COORDINATES (ANGSTROEM)
---------------------------------
  C      0.386271   -2.839243    0.000000
  C      0.387351   -2.138596    1.200339
  C      0.387351   -2.138596   -1.200339
  C      0.387351   -0.748944    1.197148
  C      0.387351   -0.748944   -1.197148
  C      0.385210   -0.031430    0.000000
  C     -1.108485    3.575531    0.000000
  C      0.345445    1.476802    0.000000
  C     -1.082048    2.048572    0.000000
  H      0.389739   -3.921015    0.000000
  H      0.393022   -2.674365    2.140600
  H      0.393022   -2.674365   -2.140600
  H      0.394621   -0.211935    2.138121
  H      0.394621   -0.211935   -2.138121
  H     -0.604834    3.979341    0.880742
  H     -0.604834    3.979341   -0.880742
  H     -2.131197    3.954700    0.000000
  H      0.878157    1.856658    0.875883
  H      0.878157    1.856658   -0.875883
  H     -1.617623    1.668007   -0.873416
  H     -1.617623    1.668007    0.873416

 Total Charge           Charge          ....    0
 Multiplicity           Mult            ....    1
 Number of Electrons    NEL             ....   66
 Basis Dimension        Dim             ....  690

ORBITAL ENERGIES
----------------

  NO   OCC          E(Eh)            E(eV)
   0   2.0000     -11.236521      -305.7613
   1   2.0000     -11.231198      -305.6164
   2   2.0000     -11.231012      -305.6114
   3   2.0000     -11.227310      -305.5106
   4   2.0000     -11.226883      -305.4990
   5   2.0000     -11.226770      -305.4959
   6   2.0000     -11.224924      -305.4457
   7   2.0000     -11.221140      -305.3427
   8   2.0000     -11.213023      -305.1219
   9   2.0000      -1.154181       -31.4069
  10   2.0000      -1.073993       -29.2248
  11   2.0000      -1.012714       -27.5574
  12   2.0000      -1.011353       -27.5203
  13   2.0000      -0.923037       -25.1171
  14   2.0000      -0.824539       -22.4369
  15   2.0000      -0.822789       -22.3892
  16   2.0000      -0.785198       -21.3663
  17   2.0000      -0.693284       -18.8652
  18   2.0000      -0.646934       -17.6040
  19   2.0000      -0.633599       -17.2411
  20   2.0000      -0.607018       -16.5178
  21   2.0000      -0.589141       -16.0314
  22   2.0000      -0.582034       -15.8379
  23   2.0000      -0.566008       -15.4019
  24   2.0000      -0.529996       -14.4219
  25   2.0000      -0.526274       -14.3206
  26   2.0000      -0.498794       -13.5729
  27   2.0000      -0.488376       -13.2894
  28   2.0000      -0.475361       -12.9352
  29   2.0000      -0.469310       -12.7706
  30   2.0000      -0.466472       -12.6933
  31   2.0000      -0.334059        -9.0902
  32   2.0000      -0.323511        -8.8032
  33   0.0000       0.029619         0.8060
  34   0.0000       0.032569         0.8863
  35   0.0000       0.033916         0.9229
  36   0.0000       0.039322         1.0700
  37   0.0000       0.044953         1.2232

MULLIKEN ATOMIC CHARGES
-----------------------
   0 C :   -0.121483
   1 C :   -0.689060
   2 C :   -0.689054
   3 C :   -0.983263
   4 C :   -0.983262
   5 C :    1.708521
   6 C :   -0.987378
   7 C :   -0.256260
   8 C :   -0.418749
   9 H :    0.382373
  10 H :    0.562441
  11 H :    0.562438
  12 H :    0.060686
  13 H :    0.060685
  14 H :    0.272145
  15 H :    0.272144
  16 H :    0.266661
  17 H :    0.224171
  18 H :    0.224173
  19 H :    0.266034
  20 H :    0.266036
Sum of atomic charges:   -0.0000000

LOEWDIN ATOMIC CHARGES
----------------------
   0 C :    0.190054
   1 C :    0.195624
   2 C :    0.195624
   3 C :    0.216740
   4 C :    0.216740
   5 C :   -0.110710
   6 C :    0.580697
   7 C :    0.267275
   8 C :    0.265860
   9 H :   -0.188673
  10 H :   -0.185233
  11 H :   -0.185233
  12 H :   -0.175931
  13 H :   -0.175931
  14 H :   -0.170788
  15 H :   -0.170788
  16 H :   -0.173042
  17 H :   -0.149665
  18 H :   -0.149665
  19 H :   -0.146477
  20 H :   -0.146477

  Mayer bond orders larger than 0.100000
B(  0-C ,  1-C ) :   1.1083 B(  0-C ,  2-C ) :   1.1083 B(  0-C ,  3-C ) :  -0.2102
B(  0-C ,  4-C ) :  -0.2102 B(  0-C ,  9-H ) :   0.9299 B(  1-C ,  2-C ) :   0.1906
B(  1-C ,  3-C ) :   1.3366 B(  1-C ,  9-H ) :  -0.1655 B(  1-C , 10-H ) :   0.6362
B(  2-C ,  4-C ) :   1.3366 B(  2-C ,  9-H ) :  -0.1655 B(  2-C , 11-H ) :   0.6363
B(  3-C ,  4-C ) :  -0.2207 B(  3-C ,  5-C ) :   0.4479 B(  3-C ,  7-C ) :   0.1077
B(  3-C ,  9-H ) :   0.1196 B(  3-C , 12-H ) :   1.5261 B(  3-C , 13-H ) :   0.1812
B(  4-C ,  5-C ) :   0.4479 B(  4-C ,  7-C ) :   0.1077 B(  4-C ,  9-H ) :   0.1196
B(  4-C , 12-H ) :   0.1812 B(  4-C , 13-H ) :   1.5261 B(  5-C ,  7-C ) :   0.4762
B(  5-C , 12-H ) :  -0.2323 B(  5-C , 13-H ) :  -0.2323 B(  6-C ,  8-C ) :   0.8910
B(  6-C , 14-H ) :   0.9587 B(  6-C , 15-H ) :   0.9587 B(  6-C , 16-H ) :   0.9784
B(  7-C ,  8-C ) :   0.8606 B(  7-C , 12-H ) :  -0.1005 B(  7-C , 13-H ) :  -0.1005
B(  7-C , 17-H ) :   1.0526 B(  7-C , 18-H ) :   1.0526 B(  8-C , 19-H ) :   0.9621
B(  8-C , 20-H ) :   0.9621 B( 12-H , 13-H ) :   0.1113

MP2 TOTAL ENERGY:     -349.425800117 Eh
FINAL SINGLE POINT ENERGY      -349.425800116570

DIPOLE MOMENT
-------------
                                X             Y             Z
Electronic contribution:      2.88746      -9.39569      -0.00000
Nuclear contribution   :     -2.94403       9.55889       0.00000
                        -----------------------------------------
Total Dipole Moment    :     -0.05657       0.16319      -0.00000
                        -----------------------------------------
Magnitude (a.u.)       :      0.17272
Magnitude (Debye)      :      0.43902

Rotational constants in cm-1:     0.147018     0.028391     0.025411
Rotational constants in MHz :  4407.492306   851.129989   761.810186

                             ****ORCA TERMINATED NORMALLY****
TOTAL RUN TIME: 0 days 0 hours 11 minutes 28 seconds 110 msec
