                         Program Version 5.0.3 -  RELEASE  -
|  1> !ri-mp2 aug-cc-pvtz aug-cc-pvtz/c tightscf
|  2> %pal nprocs 16 end
|  3>
|  4> * xyz 0 1
|  5> O      2.762394   -1.105018    0.003022
|  6> C      2.156561    0.114744    0.002536
|  7> O      2.803915    1.137760    0.005269
|  8> C      0.686414    0.034495   -0.001330
|  9> C     -0.049953    1.223608   -0.002784
| 10> C     -1.429416    1.203832   -0.004972
| 11> C     -2.123979   -0.016126   -0.004799
| 12> N     -3.503279   -0.040515   -0.054095
| 13> C     -1.386039   -1.209122   -0.004321
| 14> C     -0.004739   -1.181360   -0.002372
| 15> H      3.714017   -0.931351    0.005078
| 16> H      0.483823    2.163304   -0.001130
| 17> H     -1.984440    2.133422   -0.009930
| 18> H     -3.992208    0.795011    0.217353
| 19> H     -3.962914   -0.892079    0.218605
| 20> H     -1.907089   -2.158183   -0.008827
| 21> H      0.548189   -2.108876   -0.000570
| 22> *
| 23>
| 24>                          ****END OF INPUT****

CARTESIAN COORDINATES (ANGSTROEM)
---------------------------------
  O      2.762394   -1.105018    0.003022
  C      2.156561    0.114744    0.002536
  O      2.803915    1.137760    0.005269
  C      0.686414    0.034495   -0.001330
  C     -0.049953    1.223608   -0.002784
  C     -1.429416    1.203832   -0.004972
  C     -2.123979   -0.016126   -0.004799
  N     -3.503279   -0.040515   -0.054095
  C     -1.386039   -1.209122   -0.004321
  C     -0.004739   -1.181360   -0.002372
  H      3.714017   -0.931351    0.005078
  H      0.483823    2.163304   -0.001130
  H     -1.984440    2.133422   -0.009930
  H     -3.992208    0.795011    0.217353
  H     -3.962914   -0.892079    0.218605
  H     -1.907089   -2.158183   -0.008827
  H      0.548189   -2.108876   -0.000570

 Total Charge           Charge          ....    0
 Multiplicity           Mult            ....    1
 Number of Electrons    NEL             ....   72
 Basis Dimension        Dim             ....  621

ORBITAL ENERGIES
----------------

  NO   OCC          E(Eh)            E(eV)
   0   2.0000     -20.603046      -560.6374
   1   2.0000     -20.535417      -558.7971
   2   2.0000     -15.584327      -424.0711
   3   2.0000     -11.379649      -309.6560
   4   2.0000     -11.303369      -307.5803
   5   2.0000     -11.255250      -306.2709
   6   2.0000     -11.252338      -306.1917
   7   2.0000     -11.236674      -305.7654
   8   2.0000     -11.234558      -305.7079
   9   2.0000     -11.234128      -305.6962
  10   2.0000      -1.453447       -39.5503
  11   2.0000      -1.348416       -36.6923
  12   2.0000      -1.247090       -33.9351
  13   2.0000      -1.150199       -31.2985
  14   2.0000      -1.030649       -28.0454
  15   2.0000      -1.023748       -27.8576
  16   2.0000      -0.885768       -24.1030
  17   2.0000      -0.851730       -23.1768
  18   2.0000      -0.799043       -21.7431
  19   2.0000      -0.729508       -19.8509
  20   2.0000      -0.716721       -19.5030
  21   2.0000      -0.693092       -18.8600
  22   2.0000      -0.687127       -18.6977
  23   2.0000      -0.631832       -17.1930
  24   2.0000      -0.624237       -16.9864
  25   2.0000      -0.607850       -16.5404
  26   2.0000      -0.600009       -16.3271
  27   2.0000      -0.590234       -16.0611
  28   2.0000      -0.554973       -15.1016
  29   2.0000      -0.544350       -14.8125
  30   2.0000      -0.501184       -13.6379
  31   2.0000      -0.485231       -13.2038
  32   2.0000      -0.456861       -12.4318
  33   2.0000      -0.447499       -12.1771
  34   2.0000      -0.353484        -9.6188
  35   2.0000      -0.310869        -8.4592
  36   0.0000       0.020055         0.5457
  37   0.0000       0.031032         0.8444
  38   0.0000       0.035179         0.9573
  39   0.0000       0.044340         1.2065
  40   0.0000       0.050711         1.3799

MULLIKEN ATOMIC CHARGES
-----------------------
   0 O :   -0.467433
   1 C :    0.397371
   2 O :   -0.911890
   3 C :    1.749706
   4 C :   -0.904455
   5 C :   -0.613072
   6 C :    1.311468
   7 N :   -0.790774
   8 C :   -0.856182
   9 C :   -0.631716
  10 H :    0.256014
  11 H :    0.189712
  12 H :    0.466681
  13 H :    0.056948
  14 H :    0.055533
  15 H :    0.433324
  16 H :    0.258764
Sum of atomic charges:    0.0000000

LOEWDIN ATOMIC CHARGES
----------------------
   0 O :    0.828262
   1 C :   -0.813420
   2 O :    0.444900
   3 C :   -0.145690
   4 C :    0.201874
   5 C :    0.235554
   6 C :   -0.234823
   7 N :    0.861447
   8 C :    0.232593
   9 C :    0.201926
  10 H :   -0.478825
  11 H :   -0.177075
  12 H :   -0.183432
  13 H :   -0.301157
  14 H :   -0.301195
  15 H :   -0.184332
  16 H :   -0.186606

  Mayer bond orders larger than 0.100000
B(  0-O ,  1-C ) :   0.9763 B(  0-O , 10-H ) :   0.9339 B(  1-C ,  2-O ) :   1.1777
B(  1-C ,  4-C ) :   0.2775 B(  1-C ,  9-C ) :   0.2855 B(  2-O , 11-H ) :   0.1093
B(  3-C ,  4-C ) :   0.2753 B(  3-C ,  6-C ) :   0.2150 B(  3-C ,  9-C ) :   0.3756
B(  3-C , 11-H ) :  -0.1439 B(  3-C , 16-H ) :  -0.1302 B(  4-C ,  5-C ) :   1.4511
B(  4-C ,  9-C ) :  -0.2326 B(  4-C , 11-H ) :   1.1782 B(  4-C , 12-H ) :  -0.1071
B(  4-C , 16-H ) :   0.1169 B(  5-C ,  6-C ) :   1.0446 B(  5-C ,  7-N ) :  -0.2012
B(  5-C ,  8-C ) :   0.1851 B(  5-C , 12-H ) :   0.6757 B(  6-C ,  7-N ) :   0.5398
B(  6-C ,  8-C ) :   0.9327 B(  6-C ,  9-C ) :  -0.1319 B(  7-N ,  8-C ) :  -0.1158
B(  7-N , 13-H ) :   1.1485 B(  7-N , 14-H ) :   1.1510 B(  8-C ,  9-C ) :   1.3627
B(  8-C , 15-H ) :   0.7332 B(  9-C , 16-H ) :   1.1237

MP2 TOTAL ENERGY:     -475.335309994 Eh
FINAL SINGLE POINT ENERGY      -475.335309994469

DIPOLE MOMENT
-------------
                                X             Y             Z
Electronic contribution:      5.45790       0.36770      -0.10608
Nuclear contribution   :     -6.93513      -0.98452       0.41452
                        -----------------------------------------
Total Dipole Moment    :     -1.47723      -0.61681       0.30844
                        -----------------------------------------
Magnitude (a.u.)       :      1.63028
Magnitude (Debye)      :      4.14383

Rotational constants in cm-1:     0.128627     0.026468     0.021959
Rotational constants in MHz :  3856.131661   793.495688   658.307173

                             ****ORCA TERMINATED NORMALLY****
TOTAL RUN TIME: 0 days 0 hours 9 minutes 17 seconds 726 msec
