                         Program Version 5.0.3 -  RELEASE  -
|  1> !ri-mp2 aug-cc-pvtz aug-cc-pvtz/c tightscf
|  2> %pal nprocs 16 end
|  3>
|  4> * xyz 0 1
|  5> C      0.996293   -0.222905    0.000000
|  6> C     -1.458518    0.470962    0.000000
|  7> C      0.000000    0.905538    0.000000
|  8> O      0.716194   -1.394736    0.000000
|  9> H      2.059410    0.097311    0.000000
| 10> H     -1.685732   -0.133233    0.877361
| 11> H     -1.685732   -0.133233   -0.877361
| 12> H     -2.117948    1.338361    0.000000
| 13> H      0.236898    1.533556   -0.867218
| 14> H      0.236898    1.533556    0.867218
| 15> *
| 16>
| 17>                          ****END OF INPUT****

CARTESIAN COORDINATES (ANGSTROEM)
---------------------------------
  C      0.996293   -0.222905    0.000000
  C     -1.458518    0.470962    0.000000
  C      0.000000    0.905538    0.000000
  O      0.716194   -1.394736    0.000000
  H      2.059410    0.097311    0.000000
  H     -1.685732   -0.133233    0.877361
  H     -1.685732   -0.133233   -0.877361
  H     -2.117948    1.338361    0.000000
  H      0.236898    1.533556   -0.867218
  H      0.236898    1.533556    0.867218

 Total Charge           Charge          ....    0
 Multiplicity           Mult            ....    1
 Number of Electrons    NEL             ....   32
 Basis Dimension        Dim             ....  322

ORBITAL ENERGIES
----------------

  NO   OCC          E(Eh)            E(eV)
   0   2.0000     -20.558105      -559.4145
   1   2.0000     -11.331975      -308.3587
   2   2.0000     -11.246015      -306.0196
   3   2.0000     -11.222718      -305.3857
   4   2.0000      -1.395972       -37.9863
   5   2.0000      -1.062416       -28.9098
   6   2.0000      -0.912628       -24.8339
   7   2.0000      -0.773233       -21.0407
   8   2.0000      -0.681741       -18.5511
   9   2.0000      -0.634236       -17.2585
  10   2.0000      -0.630085       -17.1455
  11   2.0000      -0.544084       -14.8053
  12   2.0000      -0.530823       -14.4444
  13   2.0000      -0.521281       -14.1848
  14   2.0000      -0.492220       -13.3940
  15   2.0000      -0.421250       -11.4628
  16   0.0000       0.026226         0.7137
  17   0.0000       0.035999         0.9796
  18   0.0000       0.039842         1.0842
  19   0.0000       0.046052         1.2531
  20   0.0000       0.058925         1.6034

MULLIKEN ATOMIC CHARGES
-----------------------
   0 C :   -0.092262
   1 C :   -0.817055
   2 C :   -0.305130
   3 O :   -0.690668
   4 H :    0.494422
   5 H :    0.283452
   6 H :    0.283452
   7 H :    0.279340
   8 H :    0.282225
   9 H :    0.282225
Sum of atomic charges:    0.0000000

LOEWDIN ATOMIC CHARGES
----------------------
   0 C :   -0.219584
   1 C :    0.565212
   2 C :    0.234745
   3 O :    0.440253
   4 H :   -0.178678
   5 H :   -0.172453
   6 H :   -0.172453
   7 H :   -0.175112
   8 H :   -0.160965
   9 H :   -0.160965

  Mayer bond orders larger than 0.100000
B(  0-C ,  2-C ) :   0.8292 B(  0-C ,  3-O ) :   1.6323 B(  0-C ,  4-H ) :   0.6915
B(  1-C ,  2-C ) :   0.8834 B(  1-C ,  5-H ) :   0.9325 B(  1-C ,  6-H ) :   0.9325
B(  1-C ,  7-H ) :   0.9598 B(  2-C ,  8-H ) :   0.9318 B(  2-C ,  9-H ) :   0.9318

MP2 TOTAL ENERGY:     -192.779458074 Eh
FINAL SINGLE POINT ENERGY      -192.779458073838

DIPOLE MOMENT
-------------
                                X             Y             Z
Electronic contribution:      3.09799      -3.13360       0.00000
Nuclear contribution   :     -3.04725       4.36078       0.00000
                        -----------------------------------------
Total Dipole Moment    :      0.05074       1.22719       0.00000
                        -----------------------------------------
Magnitude (a.u.)       :      1.22824
Magnitude (Debye)      :      3.12193

Rotational constants in cm-1:     0.564820     0.193804     0.152292
Rotational constants in MHz : 16932.863654  5810.094785  4565.593283

                             ****ORCA TERMINATED NORMALLY****
TOTAL RUN TIME: 0 days 0 hours 1 minutes 16 seconds 865 msec
