                         Program Version 5.0.3 -  RELEASE  -
|  1> !ri-mp2 aug-cc-pvtz aug-cc-pvtz/c tightscf
|  2> %pal nprocs 16 end
|  3> %maxcore 3800
|  4>
|  5> * xyz 0 1
|  6> C      0.000000    0.612118    0.000000
|  7> C      3.008130    3.090722    0.000000
|  8> C     -2.513916   -3.581102    0.000000
|  9> C      1.428318    1.107953    0.000000
| 10> C      1.552590    2.627842    0.000000
| 11> C     -1.172950   -2.848444    0.000000
| 12> C     -1.353001   -1.343669    0.000000
| 13> O     -0.985991    1.306773    0.000000
| 14> O     -0.041603   -0.736721    0.000000
| 15> H      3.073746    4.179115    0.000000
| 16> H      3.541696    2.727258    0.880860
| 17> H      3.541696    2.727258   -0.880860
| 18> H     -3.106341   -3.328029   -0.881190
| 19> H     -2.366530   -4.660890    0.000000
| 20> H     -3.106341   -3.328029    0.881190
| 21> H      1.929119    0.673098    0.869456
| 22> H      1.929119    0.673098   -0.869456
| 23> H      1.031923    3.030231   -0.870409
| 24> H      1.031923    3.030231    0.870409
| 25> H     -0.587970   -3.136322   -0.876168
| 26> H     -0.587970   -3.136322    0.876168
| 27> H     -1.899180   -1.001821   -0.880481
| 28> H     -1.899180   -1.001821    0.880481
| 29> *
| 30>
| 31>                          ****END OF INPUT****

CARTESIAN COORDINATES (ANGSTROEM)
---------------------------------
  C      0.000000    0.612118    0.000000
  C      3.008130    3.090722    0.000000
  C     -2.513916   -3.581102    0.000000
  C      1.428318    1.107953    0.000000
  C      1.552590    2.627842    0.000000
  C     -1.172950   -2.848444    0.000000
  C     -1.353001   -1.343669    0.000000
  O     -0.985991    1.306773    0.000000
  O     -0.041603   -0.736721    0.000000
  H      3.073746    4.179115    0.000000
  H      3.541696    2.727258    0.880860
  H      3.541696    2.727258   -0.880860
  H     -3.106341   -3.328029   -0.881190
  H     -2.366530   -4.660890    0.000000
  H     -3.106341   -3.328029    0.881190
  H      1.929119    0.673098    0.869456
  H      1.929119    0.673098   -0.869456
  H      1.031923    3.030231   -0.870409
  H      1.031923    3.030231    0.870409
  H     -0.587970   -3.136322   -0.876168
  H     -0.587970   -3.136322    0.876168
  H     -1.899180   -1.001821   -0.880481
  H     -1.899180   -1.001821    0.880481

 Total Charge           Charge          ....    0
 Multiplicity           Mult            ....    1
 Number of Electrons    NEL             ....   72
 Basis Dimension        Dim             ....  736

ORBITAL ENERGIES
----------------

  NO   OCC          E(Eh)            E(eV)
   0   2.0000     -20.595676      -560.4368
   1   2.0000     -20.539381      -558.9050
   2   2.0000     -11.373077      -309.4772
   3   2.0000     -11.283739      -307.0461
   4   2.0000     -11.239149      -305.8328
   5   2.0000     -11.228062      -305.5311
   6   2.0000     -11.223175      -305.3981
   7   2.0000     -11.221469      -305.3517
   8   2.0000     -11.216210      -305.2086
   9   2.0000      -1.452835       -39.5337
  10   2.0000      -1.353667       -36.8352
  11   2.0000      -1.083973       -29.4964
  12   2.0000      -1.063995       -28.9528
  13   2.0000      -0.980031       -26.6680
  14   2.0000      -0.929000       -25.2794
  15   2.0000      -0.835407       -22.7326
  16   2.0000      -0.811789       -22.0899
  17   2.0000      -0.765657       -20.8346
  18   2.0000      -0.689790       -18.7701
  19   2.0000      -0.686603       -18.6834
  20   2.0000      -0.666871       -18.1465
  21   2.0000      -0.644621       -17.5410
  22   2.0000      -0.605218       -16.4688
  23   2.0000      -0.597091       -16.2477
  24   2.0000      -0.573074       -15.5941
  25   2.0000      -0.558186       -15.1890
  26   2.0000      -0.543783       -14.7971
  27   2.0000      -0.520737       -14.1700
  28   2.0000      -0.520192       -14.1552
  29   2.0000      -0.499576       -13.5942
  30   2.0000      -0.488910       -13.3039
  31   2.0000      -0.485847       -13.2206
  32   2.0000      -0.485503       -13.2112
  33   2.0000      -0.477396       -12.9906
  34   2.0000      -0.454627       -12.3710
  35   2.0000      -0.439960       -11.9719
  36   0.0000       0.028264         0.7691
  37   0.0000       0.029767         0.8100
  38   0.0000       0.037167         1.0114
  39   0.0000       0.038301         1.0422
  40   0.0000       0.043909         1.1948

MULLIKEN ATOMIC CHARGES
-----------------------
   0 C :    0.222125
   1 C :   -0.939044
   2 C :   -0.936240
   3 C :   -0.024274
   4 C :   -0.361928
   5 C :   -0.495853
   6 C :   -0.089433
   7 O :   -0.828819
   8 O :   -0.307059
   9 H :    0.296639
  10 H :    0.262989
  11 H :    0.262989
  12 H :    0.280776
  13 H :    0.287802
  14 H :    0.280776
  15 H :    0.240970
  16 H :    0.240970
  17 H :    0.235547
  18 H :    0.235547
  19 H :    0.228953
  20 H :    0.228953
  21 H :    0.338807
  22 H :    0.338807
Sum of atomic charges:    0.0000000

LOEWDIN ATOMIC CHARGES
----------------------
   0 C :   -0.799956
   1 C :    0.579613
   2 C :    0.578758
   3 C :    0.266097
   4 C :    0.245693
   5 C :    0.255934
   6 C :    0.044296
   7 O :    0.471304
   8 O :    0.589156
   9 H :   -0.171971
  10 H :   -0.171085
  11 H :   -0.171085
  12 H :   -0.169859
  13 H :   -0.172319
  14 H :   -0.169859
  15 H :   -0.149231
  16 H :   -0.149231
  17 H :   -0.149947
  18 H :   -0.149947
  19 H :   -0.150599
  20 H :   -0.150599
  21 H :   -0.152581
  22 H :   -0.152581

  Mayer bond orders larger than 0.100000
B(  0-C ,  3-C ) :   0.6374 B(  0-C ,  7-O ) :   1.4628 B(  0-C ,  8-O ) :   1.1108
B(  1-C ,  4-C ) :   0.9194 B(  1-C ,  9-H ) :   0.9594 B(  1-C , 10-H ) :   0.9585
B(  1-C , 11-H ) :   0.9585 B(  2-C ,  5-C ) :   0.9207 B(  2-C , 12-H ) :   0.9430
B(  2-C , 13-H ) :   0.9830 B(  2-C , 14-H ) :   0.9430 B(  3-C ,  4-C ) :   0.9314
B(  3-C , 15-H ) :   0.9420 B(  3-C , 16-H ) :   0.9420 B(  4-C , 17-H ) :   0.9501
B(  4-C , 18-H ) :   0.9501 B(  5-C ,  6-C ) :   0.9224 B(  5-C , 19-H ) :   0.9763
B(  5-C , 20-H ) :   0.9763 B(  6-C ,  8-O ) :   0.7684 B(  6-C , 21-H ) :   0.9038
B(  6-C , 22-H ) :   0.9038

MP2 TOTAL ENERGY:     -424.833682991 Eh
FINAL SINGLE POINT ENERGY      -424.833682991088

DIPOLE MOMENT
-------------
                                X             Y             Z
Electronic contribution:     -2.12359       1.99673       0.00000
Nuclear contribution   :      2.60656      -2.64233       0.00000
                        -----------------------------------------
Total Dipole Moment    :      0.48296      -0.64560       0.00000
                        -----------------------------------------
Magnitude (a.u.)       :      0.80626
Magnitude (Debye)      :      2.04935

Rotational constants in cm-1:     0.202414     0.017762     0.016629
Rotational constants in MHz :  6068.227886   532.496059   498.511835

                             ****ORCA TERMINATED NORMALLY****
TOTAL RUN TIME: 0 days 0 hours 11 minutes 45 seconds 892 msec
