                         Program Version 5.0.3 -  RELEASE  -
|  1> !ri-mp2 aug-cc-pvtz aug-cc-pvtz/c tightscf
|  2> %pal nprocs 16 end
|  3>
|  4> * xyz 0 1
|  5> C     0.000000     0.000000    0.584601
|  6> C     0.000000     1.273888   -0.259060
|  7> C     0.000000    -1.273888   -0.259060
|  8> H     0.880629     1.318580   -0.903482
|  9> H    -0.880629     1.318580   -0.903482
| 10> H    -0.880629    -1.318580   -0.903482
| 11> H     0.000000     2.168536    0.365318
| 12> H     0.880629    -1.318580   -0.903482
| 13> H     0.000000    -2.168536    0.365318
| 14> H     0.873365     0.000000    1.242204
| 15> H    -0.873365     0.000000    1.242204
| 16> *
| 17>
| 18>                          ****END OF INPUT****

CARTESIAN COORDINATES (ANGSTROEM)
---------------------------------
  C      0.000000    0.000000    0.584601
  C      0.000000    1.273888   -0.259060
  C      0.000000   -1.273888   -0.259060
  H      0.880629    1.318580   -0.903482
  H     -0.880629    1.318580   -0.903482
  H     -0.880629   -1.318580   -0.903482
  H      0.000000    2.168536    0.365318
  H      0.880629   -1.318580   -0.903482
  H      0.000000   -2.168536    0.365318
  H      0.873365    0.000000    1.242204
  H     -0.873365    0.000000    1.242204

 Total Charge           Charge          ....    0
 Multiplicity           Mult            ....    1
 Number of Electrons    NEL             ....   26
 Basis Dimension        Dim             ....  322

ORBITAL ENERGIES
----------------

  NO   OCC          E(Eh)            E(eV)
   0   2.0000     -11.216942      -305.2285
   1   2.0000     -11.208914      -305.0101
   2   2.0000     -11.208880      -305.0091
   3   2.0000      -1.051714       -28.6186
   4   2.0000      -0.925072       -25.1725
   5   2.0000      -0.799866       -21.7655
   6   2.0000      -0.622737       -16.9455
   7   2.0000      -0.596528       -16.2323
   8   2.0000      -0.549696       -14.9580
   9   2.0000      -0.530367       -14.4320
  10   2.0000      -0.475529       -12.9398
  11   2.0000      -0.474832       -12.9208
  12   2.0000      -0.467358       -12.7175
  13   0.0000       0.032210         0.8765
  14   0.0000       0.039728         1.0811
  15   0.0000       0.041069         1.1175
  16   0.0000       0.042102         1.1456
  17   0.0000       0.062920         1.7121

MULLIKEN ATOMIC CHARGES
-----------------------
   0 C :   -0.394696
   1 C :   -0.912407
   2 C :   -0.912407
   3 H :    0.285091
   4 H :    0.285091
   5 H :    0.285091
   6 H :    0.285893
   7 H :    0.285091
   8 H :    0.285893
   9 H :    0.253680
  10 H :    0.253680
Sum of atomic charges:   -0.0000000

LOEWDIN ATOMIC CHARGES
----------------------
   0 C :    0.231667
   1 C :    0.566120
   2 C :    0.566120
   3 H :   -0.174035
   4 H :   -0.174035
   5 H :   -0.174035
   6 H :   -0.176026
   7 H :   -0.174035
   8 H :   -0.176026
   9 H :   -0.157858
  10 H :   -0.157858

  Mayer bond orders larger than 0.100000
B(  0-C ,  1-C ) :   0.8622 B(  0-C ,  2-C ) :   0.8622 B(  0-C ,  9-H ) :   0.9506
B(  0-C , 10-H ) :   0.9506 B(  1-C ,  3-H ) :   0.9321 B(  1-C ,  4-H ) :   0.9321
B(  1-C ,  6-H ) :   0.9516 B(  2-C ,  5-H ) :   0.9321 B(  2-C ,  7-H ) :   0.9321
B(  2-C ,  8-H ) :   0.9516

MP2 TOTAL ENERGY:     -118.860042322 Eh
FINAL SINGLE POINT ENERGY      -118.860042321634

DIPOLE MOMENT
-------------
                                X             Y             Z
Electronic contribution:     -0.00000      -0.00000       0.47470
Nuclear contribution   :      0.00000      -0.00000      -0.44170
                        -----------------------------------------
Total Dipole Moment    :     -0.00000      -0.00000       0.03300
                        -----------------------------------------
Magnitude (a.u.)       :      0.03300
Magnitude (Debye)      :      0.08388

Rotational constants in cm-1:     0.988767     0.280317     0.248426
Rotational constants in MHz : 29642.476322  8403.684274  7447.620398

                             ****ORCA TERMINATED NORMALLY****
TOTAL RUN TIME: 0 days 0 hours 0 minutes 56 seconds 731 msec
