                         Program Version 5.0.3 -  RELEASE  -
|  1> !ri-mp2 aug-cc-pvtz aug-cc-pvtz/c tightscf
|  2> %pal nprocs 16 end
|  3>
|  4> * xyz 0 1
|  5> C      0.000000    1.130554    0.695666
|  6> N      0.000000    0.000000    1.399240
|  7> C      0.000000    1.130554   -0.695666
|  8> C      0.000000   -1.130554    0.695666
|  9> N      0.000000    0.000000   -1.399240
| 10> C      0.000000   -1.130554   -0.695666
| 11> H      0.000000   -2.060631   -1.251616
| 12> H      0.000000    2.060631   -1.251616
| 13> H      0.000000   -2.060631    1.251616
| 14> H      0.000000    2.060631    1.251616
| 15> *
| 16>
| 17>                          ****END OF INPUT****

CARTESIAN COORDINATES (ANGSTROEM)
---------------------------------
  C      0.000000    1.130554    0.695666
  N      0.000000    0.000000    1.399240
  C      0.000000    1.130554   -0.695666
  C      0.000000   -1.130554    0.695666
  N      0.000000    0.000000   -1.399240
  C      0.000000   -1.130554   -0.695666
  H      0.000000   -2.060631   -1.251616
  H      0.000000    2.060631   -1.251616
  H      0.000000   -2.060631    1.251616
  H      0.000000    2.060631    1.251616

 Total Charge           Charge          ....    0
 Multiplicity           Mult            ....    1
 Number of Electrons    NEL             ....   42
 Basis Dimension        Dim             ....  368

ORBITAL ENERGIES
----------------

  NO   OCC          E(Eh)            E(eV)
   0   2.0000     -15.594021      -424.3349
   1   2.0000     -15.594005      -424.3344
   2   2.0000     -11.285305      -307.0888
   3   2.0000     -11.285263      -307.0876
   4   2.0000     -11.284047      -307.0545
   5   2.0000     -11.284037      -307.0543
   6   2.0000      -1.311876       -35.6980
   7   2.0000      -1.222592       -33.2684
   8   2.0000      -1.056398       -28.7461
   9   2.0000      -0.903323       -24.5807
  10   2.0000      -0.891681       -24.2639
  11   2.0000      -0.729598       -19.8534
  12   2.0000      -0.707662       -19.2565
  13   2.0000      -0.678796       -18.4710
  14   2.0000      -0.612714       -16.6728
  15   2.0000      -0.578178       -15.7330
  16   2.0000      -0.554164       -15.0796
  17   2.0000      -0.500024       -13.6063
  18   2.0000      -0.438744       -11.9388
  19   2.0000      -0.411898       -11.2083
  20   2.0000      -0.360762        -9.8168
  21   0.0000       0.028485         0.7751
  22   0.0000       0.034222         0.9312
  23   0.0000       0.038916         1.0590
  24   0.0000       0.048247         1.3129
  25   0.0000       0.061824         1.6823

MULLIKEN ATOMIC CHARGES
-----------------------
   0 C :   -0.389258
   1 N :   -0.398049
   2 C :   -0.389258
   3 C :   -0.389258
   4 N :   -0.398049
   5 C :   -0.389258
   6 H :    0.588283
   7 H :    0.588283
   8 H :    0.588283
   9 H :    0.588283
Sum of atomic charges:   -0.0000000

LOEWDIN ATOMIC CHARGES
----------------------
   0 C :    0.012533
   1 N :    0.368632
   2 C :    0.012533
   3 C :    0.012533
   4 N :    0.368632
   5 C :    0.012533
   6 H :   -0.196849
   7 H :   -0.196849
   8 H :   -0.196849
   9 H :   -0.196849

  Mayer bond orders larger than 0.100000
B(  0-C ,  1-N ) :   1.0437 B(  0-C ,  2-C ) :   1.2203 B(  0-C ,  3-C ) :  -0.1324
B(  0-C ,  5-C ) :   0.1677 B(  0-C ,  9-H ) :   0.5858 B(  1-N ,  3-C ) :   1.0437
B(  2-C ,  3-C ) :   0.1677 B(  2-C ,  4-N ) :   1.0437 B(  2-C ,  5-C ) :  -0.1324
B(  2-C ,  7-H ) :   0.5858 B(  3-C ,  5-C ) :   1.2203 B(  3-C ,  8-H ) :   0.5858
B(  4-N ,  5-C ) :   1.0437 B(  5-C ,  6-H ) :   0.5858

MP2 TOTAL ENERGY:     -263.806604205 Eh
FINAL SINGLE POINT ENERGY      -263.806604204919

DIPOLE MOMENT
-------------
                                X             Y             Z
Electronic contribution:      0.00000      -0.00000      -0.00000
Nuclear contribution   :      0.00000       0.00000       0.00000
                        -----------------------------------------
Total Dipole Moment    :      0.00000      -0.00000      -0.00000
                        -----------------------------------------
Magnitude (a.u.)       :      0.00000
Magnitude (Debye)      :      0.00000

Rotational constants in cm-1:     0.214670     0.199699     0.103457
Rotational constants in MHz :  6435.640765  5986.837929  3101.566054

                             ****ORCA TERMINATED NORMALLY****
TOTAL RUN TIME: 0 days 0 hours 1 minutes 35 seconds 772 msec
