                         Program Version 5.0.3 -  RELEASE  -
|  1> !ri-mp2 aug-cc-pvtz aug-cc-pvtz/c tightscf
|  2> %pal nprocs 16 end
|  3>
|  4> * xyz 0 1
|  5> C      0.002824    1.104180    1.201145
|  6> C      0.002824    1.104180   -1.201145
|  7> C      0.002824   -0.282935    1.203368
|  8> C      0.002824   -0.282935   -1.203368
|  9> C      0.001749    1.821531    0.000000
| 10> C      0.002775   -0.973267    0.000000
| 11> N      0.059244    3.213615    0.000000
| 12> Cl     0.000656   -2.729245    0.000000
| 13> H      0.008179    1.636737    2.143798
| 14> H      0.008179    1.636737   -2.143798
| 15> H      0.002153   -0.824965    2.137851
| 16> H      0.002153   -0.824965   -2.137851
| 17> H     -0.270719    3.666897    0.836100
| 18> H     -0.270719    3.666897   -0.836100
| 19> *
| 20>
| 21>                          ****END OF INPUT****

CARTESIAN COORDINATES (ANGSTROEM)
---------------------------------
  C      0.002824    1.104180    1.201145
  C      0.002824    1.104180   -1.201145
  C      0.002824   -0.282935    1.203368
  C      0.002824   -0.282935   -1.203368
  C      0.001749    1.821531    0.000000
  C      0.002775   -0.973267    0.000000
  N      0.059244    3.213615    0.000000
  Cl     0.000656   -2.729245    0.000000
  H      0.008179    1.636737    2.143798
  H      0.008179    1.636737   -2.143798
  H      0.002153   -0.824965    2.137851
  H      0.002153   -0.824965   -2.137851
  H     -0.270719    3.666897    0.836100
  H     -0.270719    3.666897   -0.836100

 Total Charge           Charge          ....    0
 Multiplicity           Mult            ....    1
 Number of Electrons    NEL             ....   66
 Basis Dimension        Dim             ....  510

ORBITAL ENERGIES
----------------

  NO   OCC          E(Eh)            E(eV)
   0   2.0000    -104.832512     -2852.6377
   1   2.0000     -15.574744      -423.8103
   2   2.0000     -11.290421      -307.2280
   3   2.0000     -11.287886      -307.1590
   4   2.0000     -11.250291      -306.1360
   5   2.0000     -11.250256      -306.1350
   6   2.0000     -11.237871      -305.7980
   7   2.0000     -11.237852      -305.7975
   8   2.0000     -10.556019      -287.2439
   9   2.0000      -8.022910      -218.3145
  10   2.0000      -8.021103      -218.2653
  11   2.0000      -8.021051      -218.2639
  12   2.0000      -1.237093       -33.6630
  13   2.0000      -1.172587       -31.9077
  14   2.0000      -1.096491       -29.8370
  15   2.0000      -1.030778       -28.0489
  16   2.0000      -0.973704       -26.4958
  17   2.0000      -0.853599       -23.2276
  18   2.0000      -0.814313       -22.1586
  19   2.0000      -0.715231       -19.4624
  20   2.0000      -0.704550       -19.1718
  21   2.0000      -0.650613       -17.7041
  22   2.0000      -0.618166       -16.8211
  23   2.0000      -0.607884       -16.5414
  24   2.0000      -0.598490       -16.2857
  25   2.0000      -0.555223       -15.1084
  26   2.0000      -0.522254       -14.2112
  27   2.0000      -0.511167       -13.9096
  28   2.0000      -0.502749       -13.6805
  29   2.0000      -0.447201       -12.1690
  30   2.0000      -0.433592       -11.7986
  31   2.0000      -0.353033        -9.6065
  32   2.0000      -0.299487        -8.1494
  33   0.0000       0.022548         0.6136
  34   0.0000       0.031538         0.8582
  35   0.0000       0.038643         1.0515
  36   0.0000       0.047553         1.2940
  37   0.0000       0.052272         1.4224

MULLIKEN ATOMIC CHARGES
-----------------------
   0 C :   -0.601011
   1 C :   -0.601011
   2 C :   -0.808054
   3 C :   -0.808054
   4 C :    1.254487
   5 C :    0.757159
   6 N :   -0.790800
   7 Cl:   -0.520999
   8 H :    0.490828
   9 H :    0.490828
  10 H :    0.501109
  11 H :    0.501109
  12 H :    0.067205
  13 H :    0.067205
Sum of atomic charges:    0.0000000

LOEWDIN ATOMIC CHARGES
----------------------
   0 C :    0.210086
   1 C :    0.210086
   2 C :    0.098701
   3 C :    0.098701
   4 C :   -0.247307
   5 C :   -0.768779
   6 N :    0.851300
   7 Cl:    0.931645
   8 H :   -0.183010
   9 H :   -0.183010
  10 H :   -0.199379
  11 H :   -0.199379
  12 H :   -0.309828
  13 H :   -0.309828

  Mayer bond orders larger than 0.100000
B(  0-C ,  1-C ) :   0.2052 B(  0-C ,  2-C ) :   1.2880 B(  0-C ,  4-C ) :   0.9165
B(  0-C ,  6-N ) :  -0.1063 B(  0-C ,  8-H ) :   0.6719 B(  1-C ,  3-C ) :   1.2880
B(  1-C ,  4-C ) :   0.9165 B(  1-C ,  6-N ) :  -0.1063 B(  1-C ,  9-H ) :   0.6719
B(  2-C ,  3-C ) :   0.2174 B(  2-C ,  4-C ) :  -0.1722 B(  2-C ,  5-C ) :   1.1841
B(  2-C , 10-H ) :   0.7409 B(  3-C ,  4-C ) :  -0.1722 B(  3-C ,  5-C ) :   1.1841
B(  3-C , 11-H ) :   0.7409 B(  4-C ,  5-C ) :   0.1196 B(  4-C ,  6-N ) :   0.4958
B(  5-C ,  7-Cl) :   0.5448 B(  6-N , 12-H ) :   1.1175 B(  6-N , 13-H ) :   1.1175

MP2 TOTAL ENERGY:     -746.139227048 Eh
FINAL SINGLE POINT ENERGY      -746.139227047822

DIPOLE MOMENT
-------------
                                X             Y             Z
Electronic contribution:      0.13458     -11.22521       0.00000
Nuclear contribution   :     -0.50657      12.51519       0.00000
                        -----------------------------------------
Total Dipole Moment    :     -0.37199       1.28998       0.00000
                        -----------------------------------------
Magnitude (a.u.)       :      1.34254
Magnitude (Debye)      :      3.41247

Rotational constants in cm-1:     0.188297     0.032173     0.027495
Rotational constants in MHz :  5645.006898   964.523691   824.293987

                             ****ORCA TERMINATED NORMALLY****
TOTAL RUN TIME: 0 days 0 hours 5 minutes 24 seconds 627 msec
