                         Program Version 5.0.3 -  RELEASE  -
|  1> !ri-mp2 aug-cc-pvtz aug-cc-pvtz/c tightscf
|  2> %pal nprocs 16 end
|  3> %maxcore 3800
|  4>
|  5> * xyz 0 1
|  6> C      0.900306   -3.825697    0.000000
|  7> C      0.901539   -3.124972    1.200332
|  8> C      0.901539   -3.124972   -1.200332
|  9> C      0.901539   -1.735317    1.197099
| 10> C      0.901539   -1.735317   -1.197099
| 11> C      0.899114   -1.017757    0.000000
| 12> C     -2.041142    4.699080    0.000000
| 13> C      0.860460    0.490669    0.000000
| 14> C     -2.015889    3.171462    0.000000
| 15> C     -0.566581    1.063132    0.000000
| 16> C     -0.600850    2.591122    0.000000
| 17> H      0.903787   -4.907472    0.000000
| 18> H      0.907522   -3.660707    2.140621
| 19> H      0.907522   -3.660707   -2.140621
| 20> H      0.909093   -1.198296    2.138067
| 21> H      0.909093   -1.198296   -2.138067
| 22> H     -1.536298    5.101628   -0.880619
| 23> H     -3.062669    5.081774    0.000000
| 24> H     -1.536298    5.101628    0.880619
| 25> H      1.394032    0.869083    0.875785
| 26> H      1.394032    0.869083   -0.875785
| 27> H     -2.557854    2.797729    0.873851
| 28> H     -2.557854    2.797729   -0.873851
| 29> H     -1.103777    0.683533    0.873971
| 30> H     -1.103777    0.683533   -0.873971
| 31> H     -0.058001    2.965583    0.874525
| 32> H     -0.058001    2.965583   -0.874525
| 33> *
| 34>
| 35>                          ****END OF INPUT****

CARTESIAN COORDINATES (ANGSTROEM)
---------------------------------
  C      0.900306   -3.825697    0.000000
  C      0.901539   -3.124972    1.200332
  C      0.901539   -3.124972   -1.200332
  C      0.901539   -1.735317    1.197099
  C      0.901539   -1.735317   -1.197099
  C      0.899114   -1.017757    0.000000
  C     -2.041142    4.699080    0.000000
  C      0.860460    0.490669    0.000000
  C     -2.015889    3.171462    0.000000
  C     -0.566581    1.063132    0.000000
  C     -0.600850    2.591122    0.000000
  H      0.903787   -4.907472    0.000000
  H      0.907522   -3.660707    2.140621
  H      0.907522   -3.660707   -2.140621
  H      0.909093   -1.198296    2.138067
  H      0.909093   -1.198296   -2.138067
  H     -1.536298    5.101628   -0.880619
  H     -3.062669    5.081774    0.000000
  H     -1.536298    5.101628    0.880619
  H      1.394032    0.869083    0.875785
  H      1.394032    0.869083   -0.875785
  H     -2.557854    2.797729    0.873851
  H     -2.557854    2.797729   -0.873851
  H     -1.103777    0.683533    0.873971
  H     -1.103777    0.683533   -0.873971
  H     -0.058001    2.965583    0.874525
  H     -0.058001    2.965583   -0.874525

 Total Charge           Charge          ....    0
 Multiplicity           Mult            ....    1
 Number of Electrons    NEL             ....   82
 Basis Dimension        Dim             ....  874

ORBITAL ENERGIES
----------------

  NO   OCC          E(Eh)            E(eV)
   0   2.0000     -11.236248      -305.7538
   1   2.0000     -11.230946      -305.6096
   2   2.0000     -11.230762      -305.6046
   3   2.0000     -11.227025      -305.5029
   4   2.0000     -11.226555      -305.4901
   5   2.0000     -11.226447      -305.4871
   6   2.0000     -11.224540      -305.4353
   7   2.0000     -11.218465      -305.2700
   8   2.0000     -11.217045      -305.2313
   9   2.0000     -11.215909      -305.2004
  10   2.0000     -11.210500      -305.0532
  11   2.0000      -1.153930       -31.4000
  12   2.0000      -1.086704       -29.5707
  13   2.0000      -1.046607       -28.4796
  14   2.0000      -1.011061       -27.5124
  15   2.0000      -0.991810       -26.9885
  16   2.0000      -0.918754       -25.0006
  17   2.0000      -0.837997       -22.8031
  18   2.0000      -0.824247       -22.4289
  19   2.0000      -0.791375       -21.5344
  20   2.0000      -0.785223       -21.3670
  21   2.0000      -0.692174       -18.8350
  22   2.0000      -0.654705       -17.8154
  23   2.0000      -0.632273       -17.2050
  24   2.0000      -0.628240       -17.0953
  25   2.0000      -0.592915       -16.1340
  26   2.0000      -0.586697       -15.9648
  27   2.0000      -0.579759       -15.7760
  28   2.0000      -0.565777       -15.3956
  29   2.0000      -0.560736       -15.2584
  30   2.0000      -0.526289       -14.3211
  31   2.0000      -0.510543       -13.8926
  32   2.0000      -0.502414       -13.6714
  33   2.0000      -0.490369       -13.3436
  34   2.0000      -0.483564       -13.1584
  35   2.0000      -0.473993       -12.8980
  36   2.0000      -0.464357       -12.6358
  37   2.0000      -0.461994       -12.5715
  38   2.0000      -0.449111       -12.2209
  39   2.0000      -0.333787        -9.0828
  40   2.0000      -0.322994        -8.7891
  41   0.0000       0.029073         0.7911
  42   0.0000       0.031058         0.8451
  43   0.0000       0.032951         0.8967
  44   0.0000       0.035585         0.9683
  45   0.0000       0.041204         1.1212

MULLIKEN ATOMIC CHARGES
-----------------------
   0 C :   -0.077489
   1 C :   -0.720337
   2 C :   -0.720321
   3 C :   -0.992054
   4 C :   -0.992049
   5 C :    1.846395
   6 C :   -0.991048
   7 C :   -0.285155
   8 C :   -0.515240
   9 C :   -0.441057
  10 C :   -0.353221
  11 H :    0.383562
  12 H :    0.590983
  13 H :    0.590971
  14 H :   -0.003782
  15 H :   -0.003782
  16 H :    0.264776
  17 H :    0.280560
  18 H :    0.264776
  19 H :    0.199512
  20 H :    0.199520
  21 H :    0.230520
  22 H :    0.230519
  23 H :    0.248681
  24 H :    0.248679
  25 H :    0.258038
  26 H :    0.258041
Sum of atomic charges:    0.0000000

LOEWDIN ATOMIC CHARGES
----------------------
   0 C :    0.190029
   1 C :    0.195601
   2 C :    0.195601
   3 C :    0.217480
   4 C :    0.217480
   5 C :   -0.108361
   6 C :    0.578245
   7 C :    0.277255
   8 C :    0.258169
   9 C :    0.286160
  10 C :    0.271189
  11 H :   -0.188713
  12 H :   -0.185257
  13 H :   -0.185257
  14 H :   -0.175828
  15 H :   -0.175828
  16 H :   -0.171730
  17 H :   -0.174066
  18 H :   -0.171730
  19 H :   -0.147913
  20 H :   -0.147913
  21 H :   -0.147652
  22 H :   -0.147652
  23 H :   -0.138681
  24 H :   -0.138681
  25 H :   -0.140974
  26 H :   -0.140974

  Mayer bond orders larger than 0.100000
B(  0-C ,  1-C ) :   1.1224 B(  0-C ,  2-C ) :   1.1224 B(  0-C ,  3-C ) :  -0.2412
B(  0-C ,  4-C ) :  -0.2412 B(  0-C , 11-H ) :   0.9213 B(  1-C ,  2-C ) :   0.2446
B(  1-C ,  3-C ) :   1.3872 B(  1-C , 11-H ) :  -0.1810 B(  1-C , 12-H ) :   0.5759
B(  2-C ,  4-C ) :   1.3872 B(  2-C , 11-H ) :  -0.1810 B(  2-C , 13-H ) :   0.5760
B(  3-C ,  4-C ) :  -0.3220 B(  3-C ,  5-C ) :   0.3671 B(  3-C ,  7-C ) :   0.1095
B(  3-C , 11-H ) :   0.1248 B(  3-C , 14-H ) :   1.6428 B(  3-C , 15-H ) :   0.2083
B(  4-C ,  5-C ) :   0.3671 B(  4-C ,  7-C ) :   0.1095 B(  4-C , 11-H ) :   0.1248
B(  4-C , 14-H ) :   0.2083 B(  4-C , 15-H ) :   1.6428 B(  5-C ,  7-C ) :   0.5202
B(  5-C , 14-H ) :  -0.3082 B(  5-C , 15-H ) :  -0.3082 B(  6-C ,  8-C ) :   0.9262
B(  6-C , 16-H ) :   0.9664 B(  6-C , 17-H ) :   0.9835 B(  6-C , 18-H ) :   0.9664
B(  7-C ,  9-C ) :   0.8795 B(  7-C , 14-H ) :  -0.1307 B(  7-C , 15-H ) :  -0.1307
B(  7-C , 19-H ) :   1.0713 B(  7-C , 20-H ) :   1.0713 B(  8-C , 10-C ) :   0.8987
B(  8-C , 21-H ) :   0.9753 B(  8-C , 22-H ) :   0.9753 B(  9-C , 10-C ) :   0.9818
B(  9-C , 23-H ) :   0.9664 B(  9-C , 24-H ) :   0.9664 B( 10-C , 25-H ) :   0.9412
B( 10-C , 26-H ) :   0.9412 B( 14-H , 15-H ) :   0.1651

MP2 TOTAL ENERGY:     -427.875992063 Eh
FINAL SINGLE POINT ENERGY      -427.875992063098

DIPOLE MOMENT
-------------
                                X             Y             Z
Electronic contribution:      6.42485     -15.71088      -0.00000
Nuclear contribution   :     -6.49196      15.88481       0.00000
                        -----------------------------------------
Total Dipole Moment    :     -0.06712       0.17392      -0.00000
                        -----------------------------------------
Magnitude (a.u.)       :      0.18643
Magnitude (Debye)      :      0.47386

Rotational constants in cm-1:     0.120067     0.012418     0.011977
Rotational constants in MHz :  3599.532008   372.286641   359.051766

                             ****ORCA TERMINATED NORMALLY****
TOTAL RUN TIME: 0 days 0 hours 21 minutes 53 seconds 384 msec
