                         Program Version 5.0.3 -  RELEASE  -
|  1> !ri-mp2 aug-cc-pvtz aug-cc-pvtz/c tightscf
|  2> %pal nprocs 16 end
|  3>
|  4> * xyz 0 1
|  5> C     -0.000845   -1.808309    0.000000
|  6> C      0.002500   -1.071896    1.177316
|  7> C      0.002500   -1.071896   -1.177316
|  8> C     -0.003688    0.863909    0.000000
|  9> N      0.002500    0.255572    1.197627
| 10> N      0.002500    0.255572   -1.197627
| 11> N     -0.041543    2.223054    0.000000
| 12> H     -0.000837   -2.887318    0.000000
| 13> H      0.007769   -1.564229    2.143784
| 14> H      0.007769   -1.564229   -2.143784
| 15> H      0.119153    2.702771   -0.866351
| 16> H      0.119153    2.702771    0.866351
| 17> *
| 18>
| 19>                          ****END OF INPUT****

CARTESIAN COORDINATES (ANGSTROEM)
---------------------------------
  C     -0.000845   -1.808309    0.000000
  C      0.002500   -1.071896    1.177316
  C      0.002500   -1.071896   -1.177316
  C     -0.003688    0.863909    0.000000
  N      0.002500    0.255572    1.197627
  N      0.002500    0.255572   -1.197627
  N     -0.041543    2.223054    0.000000
  H     -0.000837   -2.887318    0.000000
  H      0.007769   -1.564229    2.143784
  H      0.007769   -1.564229   -2.143784
  H      0.119153    2.702771   -0.866351
  H      0.119153    2.702771    0.866351

 Total Charge           Charge          ....    0
 Multiplicity           Mult            ....    1
 Number of Electrons    NEL             ....   50
 Basis Dimension        Dim             ....  437

ORBITAL ENERGIES
----------------

  NO   OCC          E(Eh)            E(eV)
   0   2.0000     -15.574035      -423.7910
   1   2.0000     -15.556838      -423.3231
   2   2.0000     -15.556816      -423.3225
   3   2.0000     -11.350559      -308.8644
   4   2.0000     -11.294012      -307.3257
   5   2.0000     -11.294003      -307.3255
   6   2.0000     -11.226742      -305.4952
   7   2.0000      -1.327579       -36.1253
   8   2.0000      -1.205210       -32.7954
   9   2.0000      -1.191221       -32.4148
  10   2.0000      -1.044883       -28.4327
  11   2.0000      -0.894993       -24.3540
  12   2.0000      -0.869449       -23.6589
  13   2.0000      -0.739658       -20.1271
  14   2.0000      -0.732373       -19.9289
  15   2.0000      -0.657735       -17.8979
  16   2.0000      -0.652572       -17.7574
  17   2.0000      -0.598844       -16.2954
  18   2.0000      -0.592594       -16.1253
  19   2.0000      -0.582079       -15.8392
  20   2.0000      -0.482280       -13.1235
  21   2.0000      -0.467168       -12.7123
  22   2.0000      -0.424342       -11.5469
  23   2.0000      -0.403880       -10.9901
  24   2.0000      -0.328392        -8.9360
  25   0.0000       0.027847         0.7578
  26   0.0000       0.032552         0.8858
  27   0.0000       0.036411         0.9908
  28   0.0000       0.049868         1.3570
  29   0.0000       0.053613         1.4589

MULLIKEN ATOMIC CHARGES
-----------------------
   0 C :   -0.264098
   1 C :   -0.368683
   2 C :   -0.368683
   3 C :    0.165052
   4 N :   -0.298665
   5 N :   -0.298665
   6 N :   -0.448971
   7 H :    0.312601
   8 H :    0.682425
   9 H :    0.682425
  10 H :    0.102631
  11 H :    0.102631
Sum of atomic charges:    0.0000000

LOEWDIN ATOMIC CHARGES
----------------------
   0 C :    0.193171
   1 C :   -0.004540
   2 C :   -0.004540
   3 C :   -0.633000
   4 N :    0.390513
   5 N :    0.390513
   6 N :    0.843871
   7 H :   -0.206458
   8 H :   -0.181372
   9 H :   -0.181372
  10 H :   -0.303393
  11 H :   -0.303393

  Mayer bond orders larger than 0.100000
B(  0-C ,  1-C ) :   1.0571 B(  0-C ,  2-C ) :   1.0571 B(  0-C ,  4-N ) :  -0.1626
B(  0-C ,  5-N ) :  -0.1626 B(  0-C ,  7-H ) :   0.9646 B(  1-C ,  2-C ) :   0.2588
B(  1-C ,  3-C ) :  -0.1934 B(  1-C ,  4-N ) :   1.2141 B(  1-C ,  5-N ) :   0.1072
B(  1-C ,  8-H ) :   0.4447 B(  2-C ,  3-C ) :  -0.1934 B(  2-C ,  4-N ) :   0.1072
B(  2-C ,  5-N ) :   1.2141 B(  2-C ,  9-H ) :   0.4447 B(  3-C ,  4-N ) :   1.1064
B(  3-C ,  5-N ) :   1.1064 B(  3-C ,  6-N ) :   1.0694 B(  4-N ,  6-N ) :  -0.1765
B(  5-N ,  6-N ) :  -0.1765 B(  6-N , 10-H ) :   1.0936 B(  6-N , 11-H ) :   1.0936

MP2 TOTAL ENERGY:     -319.099604531 Eh
FINAL SINGLE POINT ENERGY      -319.099604530686

DIPOLE MOMENT
-------------
                                X             Y             Z
Electronic contribution:     -0.05635       0.39636      -0.00000
Nuclear contribution   :      0.24960      -0.58668       0.00000
                        -----------------------------------------
Total Dipole Moment    :      0.19325      -0.19032      -0.00000
                        -----------------------------------------
Magnitude (a.u.)       :      0.27123
Magnitude (Debye)      :      0.68942

Rotational constants in cm-1:     0.199960     0.096327     0.065035
Rotational constants in MHz :  5994.655970  2887.811864  1949.691987

                             ****ORCA TERMINATED NORMALLY****
TOTAL RUN TIME: 0 days 0 hours 2 minutes 51 seconds 966 msec
