                         Program Version 5.0.3 -  RELEASE  -
|  1> !ri-mp2 aug-cc-pvtz aug-cc-pvtz/c tightscf
|  2> %pal nprocs 16 end
|  3>
|  4> * xyz 0 1
|  5> S     -1.051061    1.281881   -0.283900
|  6> S     -1.895278   -0.532601    0.338547
|  7> O     -0.614494   -1.427165   -0.363889
|  8> N      0.475661    0.575388    0.138694
|  9> C      0.558745   -0.776721   -0.091504
| 10> C      1.756359    1.099948    0.219774
| 11> C      1.870920   -1.154035   -0.105040
| 12> C      2.624545    0.047815    0.089137
| 13> H      1.921997    2.142592    0.418071
| 14> H      2.246994   -2.155899   -0.208071
| 15> H      3.695337    0.112379    0.181703
| 16> *
| 17>
| 18>                          ****END OF INPUT****

CARTESIAN COORDINATES (ANGSTROEM)
---------------------------------
  S     -1.051061    1.281881   -0.283900
  S     -1.895278   -0.532601    0.338547
  O     -0.614494   -1.427165   -0.363889
  N      0.475661    0.575388    0.138694
  C      0.558745   -0.776721   -0.091504
  C      1.756359    1.099948    0.219774
  C      1.870920   -1.154035   -0.105040
  C      2.624545    0.047815    0.089137
  H      1.921997    2.142592    0.418071
  H      2.246994   -2.155899   -0.208071
  H      3.695337    0.112379    0.181703

 Total Charge           Charge          ....    0
 Multiplicity           Mult            ....    1
 Number of Electrons    NEL             ....   74
 Basis Dimension        Dim             ....  445

ORBITAL ENERGIES
----------------

  NO   OCC          E(Eh)            E(eV)
   0   2.0000     -92.059279     -2505.0603
   1   2.0000     -92.046217     -2504.7049
   2   2.0000     -20.639786      -561.6371
   3   2.0000     -15.640930      -425.6113
   4   2.0000     -11.336813      -308.4904
   5   2.0000     -11.269430      -306.6568
   6   2.0000     -11.233323      -305.6743
   7   2.0000     -11.226208      -305.4807
   8   2.0000      -9.051728      -246.3100
   9   2.0000      -9.040717      -246.0104
  10   2.0000      -6.732136      -183.1907
  11   2.0000      -6.731122      -183.1631
  12   2.0000      -6.729197      -183.1108
  13   2.0000      -6.721293      -182.8957
  14   2.0000      -6.720573      -182.8761
  15   2.0000      -6.718679      -182.8245
  16   2.0000      -1.448868       -39.4257
  17   2.0000      -1.309187       -35.6248
  18   2.0000      -1.114911       -30.3383
  19   2.0000      -1.011737       -27.5308
  20   2.0000      -0.987626       -26.8747
  21   2.0000      -0.888996       -24.1908
  22   2.0000      -0.807245       -21.9663
  23   2.0000      -0.771306       -20.9883
  24   2.0000      -0.712815       -19.3967
  25   2.0000      -0.663061       -18.0428
  26   2.0000      -0.638752       -17.3813
  27   2.0000      -0.610565       -16.6143
  28   2.0000      -0.593146       -16.1403
  29   2.0000      -0.565543       -15.3892
  30   2.0000      -0.563212       -15.3258
  31   2.0000      -0.538306       -14.6480
  32   2.0000      -0.485561       -13.2128
  33   2.0000      -0.459976       -12.5166
  34   2.0000      -0.384043       -10.4503
  35   2.0000      -0.342219        -9.3123
  36   2.0000      -0.304718        -8.2918
  37   0.0000       0.030318         0.8250
  38   0.0000       0.035251         0.9592
  39   0.0000       0.041015         1.1161
  40   0.0000       0.045689         1.2433
  41   0.0000       0.052404         1.4260

MULLIKEN ATOMIC CHARGES
-----------------------
   0 S :   -0.090930
   1 S :    0.155162
   2 O :   -0.573603
   3 N :    0.321499
   4 C :    0.443067
   5 C :   -0.705809
   6 C :   -0.634113
   7 C :   -0.533911
   8 H :    0.686930
   9 H :    0.426073
  10 H :    0.505636
Sum of atomic charges:   -0.0000000

LOEWDIN ATOMIC CHARGES
----------------------
   0 S :    0.667115
   1 S :    0.501683
   2 O :    0.109798
   3 N :   -0.278463
   4 C :   -0.774951
   5 C :    0.029303
   6 C :    0.185480
   7 C :    0.157033
   8 H :   -0.198776
   9 H :   -0.201381
  10 H :   -0.196841

  Mayer bond orders larger than 0.100000
B(  0-S ,  1-S ) :   1.1140 B(  0-S ,  3-N ) :   0.8684 B(  1-S ,  2-O ) :   0.8710
B(  1-S ,  3-N ) :  -0.1533 B(  2-O ,  4-C ) :   0.7412 B(  3-N ,  4-C ) :   1.0307
B(  3-N ,  5-C ) :   0.9775 B(  3-N ,  6-C ) :  -0.1372 B(  3-N ,  7-C ) :  -0.2300
B(  4-C ,  6-C ) :   1.2478 B(  5-C ,  6-C ) :   0.1270 B(  5-C ,  7-C ) :   1.2569
B(  5-C ,  8-H ) :   0.4410 B(  6-C ,  7-C ) :   1.3394 B(  6-C ,  9-H ) :   0.9338
B(  7-C , 10-H ) :   0.8059

MP2 TOTAL ENERGY:    -1079.059910552 Eh
FINAL SINGLE POINT ENERGY     -1079.059910552474

DIPOLE MOMENT
-------------
                                X             Y             Z
Electronic contribution:     -7.66352       0.40125      -0.19130
Nuclear contribution   :      7.60803       0.05440       0.36861
                        -----------------------------------------
Total Dipole Moment    :     -0.05549       0.45565       0.17731
                        -----------------------------------------
Magnitude (a.u.)       :      0.49207
Magnitude (Debye)      :      1.25074

Rotational constants in cm-1:     0.108110     0.047179     0.034148
Rotational constants in MHz :  3241.053804  1414.399802  1023.738612

                             ****ORCA TERMINATED NORMALLY****
TOTAL RUN TIME: 0 days 0 hours 3 minutes 47 seconds 877 msec
