                         Program Version 5.0.3 -  RELEASE  -
|  1> !ri-mp2 aug-cc-pvtz aug-cc-pvtz/c tightscf
|  2> %pal nprocs 16 end
|  3>
|  4> * xyz 0 1
|  5> C     -1.381391   -1.674027    0.000000
|  6> C      1.469740    2.485294    0.000000
|  7> C     -0.027455   -1.130038    0.000000
|  8> C      1.425482    0.958648    0.000000
|  9> C      0.000000    0.407830    0.000000
| 10> N     -2.455764   -2.084510    0.000000
| 11> H      0.971625    2.894129    0.880933
| 12> H      2.497069    2.850311    0.000000
| 13> H      0.971625    2.894129   -0.880933
| 14> H      0.496473   -1.517892   -0.876678
| 15> H      0.496473   -1.517892    0.876678
| 16> H      1.960400    0.577288   -0.874787
| 17> H      1.960400    0.577288    0.874787
| 18> H     -0.540986    0.773987   -0.875086
| 19> H     -0.540986    0.773987    0.875086
| 20> *
| 21>
| 22>                          ****END OF INPUT****

CARTESIAN COORDINATES (ANGSTROEM)
---------------------------------
  C     -1.381391   -1.674027    0.000000
  C      1.469740    2.485294    0.000000
  C     -0.027455   -1.130038    0.000000
  C      1.425482    0.958648    0.000000
  C      0.000000    0.407830    0.000000
  N     -2.455764   -2.084510    0.000000
  H      0.971625    2.894129    0.880933
  H      2.497069    2.850311    0.000000
  H      0.971625    2.894129   -0.880933
  H      0.496473   -1.517892   -0.876678
  H      0.496473   -1.517892    0.876678
  H      1.960400    0.577288   -0.874787
  H      1.960400    0.577288    0.874787
  H     -0.540986    0.773987   -0.875086
  H     -0.540986    0.773987    0.875086

 Total Charge           Charge          ....    0
 Multiplicity           Mult            ....    1
 Number of Electrons    NEL             ....   46
 Basis Dimension        Dim             ....  483

ORBITAL ENERGIES
----------------

  NO   OCC          E(Eh)            E(eV)
   0   2.0000     -15.564316      -423.5266
   1   2.0000     -11.281069      -306.9735
   2   2.0000     -11.269326      -306.6539
   3   2.0000     -11.249459      -306.1133
   4   2.0000     -11.239853      -305.8520
   5   2.0000     -11.226567      -305.4904
   6   2.0000      -1.219015       -33.1711
   7   2.0000      -1.108790       -30.1717
   8   2.0000      -1.030230       -28.0340
   9   2.0000      -0.913164       -24.8485
  10   2.0000      -0.820791       -22.3349
  11   2.0000      -0.696034       -18.9401
  12   2.0000      -0.677139       -18.4259
  13   2.0000      -0.614863       -16.7313
  14   2.0000      -0.612915       -16.6783
  15   2.0000      -0.564016       -15.3476
  16   2.0000      -0.551962       -15.0196
  17   2.0000      -0.536924       -14.6104
  18   2.0000      -0.512552       -13.9472
  19   2.0000      -0.495228       -13.4758
  20   2.0000      -0.489961       -13.3325
  21   2.0000      -0.456210       -12.4141
  22   2.0000      -0.451330       -12.2813
  23   0.0000       0.023672         0.6442
  24   0.0000       0.032207         0.8764
  25   0.0000       0.034328         0.9341
  26   0.0000       0.038331         1.0430
  27   0.0000       0.052594         1.4312

MULLIKEN ATOMIC CHARGES
-----------------------
   0 C :    0.152383
   1 C :   -0.974575
   2 C :   -0.125780
   3 C :   -0.445924
   4 C :   -0.367408
   5 N :   -0.663417
   6 H :    0.273807
   7 H :    0.274013
   8 H :    0.273807
   9 H :    0.277876
  10 H :    0.277876
  11 H :    0.264402
  12 H :    0.264402
  13 H :    0.259270
  14 H :    0.259270
Sum of atomic charges:    0.0000000

LOEWDIN ATOMIC CHARGES
----------------------
   0 C :   -0.207347
   1 C :    0.585267
   2 C :    0.233235
   3 C :    0.258977
   4 C :    0.267442
   5 N :    0.255040
   6 H :   -0.168763
   7 H :   -0.171126
   8 H :   -0.168763
   9 H :   -0.155255
  10 H :   -0.155255
  11 H :   -0.146157
  12 H :   -0.146157
  13 H :   -0.140569
  14 H :   -0.140569

  Mayer bond orders larger than 0.100000
B(  0-C ,  2-C ) :   0.9049 B(  0-C ,  4-C ) :   0.1198 B(  0-C ,  5-N ) :   2.0591
B(  1-C ,  3-C ) :   0.8975 B(  1-C ,  6-H ) :   0.9549 B(  1-C ,  7-H ) :   0.9849
B(  1-C ,  8-H ) :   0.9549 B(  2-C ,  4-C ) :   0.9085 B(  2-C ,  9-H ) :   0.9332
B(  2-C , 10-H ) :   0.9332 B(  3-C ,  4-C ) :   0.8800 B(  3-C , 11-H ) :   0.9393
B(  3-C , 12-H ) :   0.9393 B(  4-C , 13-H ) :   0.9368 B(  4-C , 14-H ) :   0.9368

MP2 TOTAL ENERGY:     -250.172172275 Eh
FINAL SINGLE POINT ENERGY      -250.172172275203

DIPOLE MOMENT
-------------
                                X             Y             Z
Electronic contribution:     -6.95680      -7.81038       0.00000
Nuclear contribution   :      8.58123       8.61804       0.00000
                        -----------------------------------------
Total Dipole Moment    :      1.62443       0.80766       0.00000
                        -----------------------------------------
Magnitude (a.u.)       :      1.81414
Magnitude (Debye)      :      4.61117

Rotational constants in cm-1:     0.511851     0.044211     0.041952
Rotational constants in MHz : 15344.894692  1325.412457  1257.683732

                             ****ORCA TERMINATED NORMALLY****
TOTAL RUN TIME: 0 days 0 hours 3 minutes 16 seconds 840 msec
