                         Program Version 5.0.3 -  RELEASE  -
|  1> !ri-mp2 aug-cc-pvtz aug-cc-pvtz/c tightscf
|  2> %pal nprocs 16 end
|  3>
|  4> * xyz 0 1
|  5> O     -0.000002    1.727755    0.000063
|  6> C      0.000000    0.513409   -0.000056
|  7> C     -1.221816   -0.263144   -0.000092
|  8> C      1.221818   -0.263140   -0.000093
|  9> C     -2.237923   -0.902147    0.000052
| 10> C      2.237924   -0.902146    0.000041
| 11> H     -3.142391   -1.459515    0.000203
| 12> H      3.142392   -1.459515    0.000184
| 13> *
| 14>
| 15>                          ****END OF INPUT****

CARTESIAN COORDINATES (ANGSTROEM)
---------------------------------
  O     -0.000002    1.727755    0.000063
  C      0.000000    0.513409   -0.000056
  C     -1.221816   -0.263144   -0.000092
  C      1.221818   -0.263140   -0.000093
  C     -2.237923   -0.902147    0.000052
  C      2.237924   -0.902146    0.000041
  H     -3.142391   -1.459515    0.000203
  H      3.142392   -1.459515    0.000184

 Total Charge           Charge          ....    0
 Multiplicity           Mult            ....    1
 Number of Electrons    NEL             ....   40
 Basis Dimension        Dim             ....  322

ORBITAL ENERGIES
----------------

  NO   OCC          E(Eh)            E(eV)
   0   2.0000     -20.585414      -560.1576
   1   2.0000     -11.397145      -310.1321
   2   2.0000     -11.275131      -306.8119
   3   2.0000     -11.275129      -306.8119
   4   2.0000     -11.265363      -306.5461
   5   2.0000     -11.265349      -306.5457
   6   2.0000      -1.423118       -38.7250
   7   2.0000      -1.095600       -29.8128
   8   2.0000      -1.059993       -28.8439
   9   2.0000      -0.944847       -25.7106
  10   2.0000      -0.807467       -21.9723
  11   2.0000      -0.743742       -20.2383
  12   2.0000      -0.724239       -19.7075
  13   2.0000      -0.678571       -18.4649
  14   2.0000      -0.588756       -16.0209
  15   2.0000      -0.487355       -13.2616
  16   2.0000      -0.452737       -12.3196
  17   2.0000      -0.431004       -11.7282
  18   2.0000      -0.428624       -11.6634
  19   2.0000      -0.419831       -11.4242
  20   0.0000       0.024729         0.6729
  21   0.0000       0.026187         0.7126
  22   0.0000       0.035757         0.9730
  23   0.0000       0.066016         1.7964
  24   0.0000       0.071657         1.9499

MULLIKEN ATOMIC CHARGES
-----------------------
   0 O :   -0.675608
   1 C :    0.637255
   2 C :    0.825601
   3 C :    0.825597
   4 C :   -1.318871
   5 C :   -1.318864
   6 H :    0.512445
   7 H :    0.512445
Sum of atomic charges:   -0.0000000

LOEWDIN ATOMIC CHARGES
----------------------
   0 O :    0.452963
   1 C :   -0.700001
   2 C :   -0.021467
   3 C :   -0.021467
   4 C :    0.422640
   5 C :    0.422640
   6 H :   -0.277654
   7 H :   -0.277654

  Mayer bond orders larger than 0.100000
B(  0-O ,  1-C ) :   1.4282 B(  1-C ,  2-C ) :   1.0800 B(  1-C ,  3-C ) :   1.0800
B(  1-C ,  4-C ) :  -0.3382 B(  1-C ,  5-C ) :  -0.3381 B(  2-C ,  4-C ) :   1.3521
B(  2-C ,  6-H ) :  -0.1178 B(  3-C ,  5-C ) :   1.3521 B(  3-C ,  7-H ) :  -0.1178
B(  4-C ,  5-C ) :   0.2382 B(  4-C ,  6-H ) :   0.9246 B(  5-C ,  7-H ) :   0.9246

MP2 TOTAL ENERGY:     -266.295241528 Eh
FINAL SINGLE POINT ENERGY      -266.295241528343

DIPOLE MOMENT
-------------
                                X             Y             Z
Electronic contribution:      0.00000       1.36905      -0.00029
Nuclear contribution   :      0.00000      -2.78263       0.00037
                        -----------------------------------------
Total Dipole Moment    :      0.00000      -1.41359       0.00009
                        -----------------------------------------
Magnitude (a.u.)       :      1.41359
Magnitude (Debye)      :      3.59305

Rotational constants in cm-1:     0.220858     0.095740     0.066788
Rotational constants in MHz :  6621.159046  2870.208993  2002.251965

                             ****ORCA TERMINATED NORMALLY****
TOTAL RUN TIME: 0 days 0 hours 1 minutes 17 seconds 128 msec
