                         Program Version 5.0.3 -  RELEASE  -
|  1> !ri-mp2 aug-cc-pvtz aug-cc-pvtz/c tightscf
|  2> %pal nprocs 16 end
|  3>
|  4> * xyz 0 1
|  5> C     -2.302046    0.304648    0.048681
|  6> C     -1.844743   -1.009740    0.055890
|  7> C     -1.374107    1.337593   -0.016270
|  8> C     -0.487064   -1.284841   -0.001073
|  9> C     -0.010704    1.076510   -0.076066
| 10> C      0.447055   -0.243648   -0.073095
| 11> N      2.746630    0.431456    0.133713
| 12> N      1.804819   -0.563693   -0.195804
| 13> H     -3.360760    0.517610    0.095676
| 14> H     -2.549315   -1.829261    0.110144
| 15> H     -1.711935    2.365825   -0.020205
| 16> H     -0.143401   -2.312664    0.003216
| 17> H      0.705591    1.881657   -0.126272
| 18> H      3.542157    0.355481   -0.484296
| 19> H      3.057771    0.357060    1.097408
| 20> H      2.029412   -1.493179    0.130559
| 21> *
| 22>
| 23>                          ****END OF INPUT****

CARTESIAN COORDINATES (ANGSTROEM)
---------------------------------
  C     -2.302046    0.304648    0.048681
  C     -1.844743   -1.009740    0.055890
  C     -1.374107    1.337593   -0.016270
  C     -0.487064   -1.284841   -0.001073
  C     -0.010704    1.076510   -0.076066
  C      0.447055   -0.243648   -0.073095
  N      2.746630    0.431456    0.133713
  N      1.804819   -0.563693   -0.195804
  H     -3.360760    0.517610    0.095676
  H     -2.549315   -1.829261    0.110144
  H     -1.711935    2.365825   -0.020205
  H     -0.143401   -2.312664    0.003216
  H      0.705591    1.881657   -0.126272
  H      3.542157    0.355481   -0.484296
  H      3.057771    0.357060    1.097408
  H      2.029412   -1.493179    0.130559

 Total Charge           Charge          ....    0
 Multiplicity           Mult            ....    1
 Number of Electrons    NEL             ....   58
 Basis Dimension        Dim             ....  552

ORBITAL ENERGIES
----------------

  NO   OCC          E(Eh)            E(eV)
   0   2.0000     -15.592664      -424.2980
   1   2.0000     -15.585729      -424.1092
   2   2.0000     -11.271640      -306.7169
   3   2.0000     -11.229886      -305.5807
   4   2.0000     -11.227743      -305.5224
   5   2.0000     -11.220560      -305.3270
   6   2.0000     -11.214053      -305.1499
   7   2.0000     -11.213635      -305.1385
   8   2.0000      -1.299245       -35.3543
   9   2.0000      -1.147448       -31.2236
  10   2.0000      -1.070962       -29.1424
  11   2.0000      -1.007296       -27.4099
  12   2.0000      -0.963614       -26.2213
  13   2.0000      -0.827475       -22.5167
  14   2.0000      -0.802814       -21.8457
  15   2.0000      -0.711785       -19.3687
  16   2.0000      -0.698034       -18.9945
  17   2.0000      -0.680608       -18.5203
  18   2.0000      -0.648279       -17.6406
  19   2.0000      -0.599111       -16.3026
  20   2.0000      -0.594506       -16.1773
  21   2.0000      -0.577004       -15.7011
  22   2.0000      -0.521317       -14.1858
  23   2.0000      -0.502945       -13.6858
  24   2.0000      -0.485300       -13.2057
  25   2.0000      -0.437218       -11.8973
  26   2.0000      -0.428936       -11.6719
  27   2.0000      -0.331740        -9.0271
  28   2.0000      -0.290111        -7.8943
  29   0.0000       0.023893         0.6502
  30   0.0000       0.034596         0.9414
  31   0.0000       0.036193         0.9849
  32   0.0000       0.046479         1.2648
  33   0.0000       0.046683         1.2703

MULLIKEN ATOMIC CHARGES
-----------------------
   0 C :   -0.474677
   1 C :   -0.387151
   2 C :   -0.464953
   3 C :   -0.835738
   4 C :   -0.758924
   5 C :    1.039857
   6 N :   -0.407652
   7 N :   -0.380331
   8 H :    0.513765
   9 H :    0.303422
  10 H :    0.294847
  11 H :    0.607337
  12 H :    0.682716
  13 H :    0.127321
  14 H :    0.138148
  15 H :    0.002013
Sum of atomic charges:   -0.0000000

LOEWDIN ATOMIC CHARGES
----------------------
   0 C :    0.181436
   1 C :    0.178836
   2 C :    0.181523
   3 C :    0.207084
   4 C :    0.212147
   5 C :   -0.240798
   6 N :    0.740779
   7 N :    0.434753
   8 H :   -0.196612
   9 H :   -0.184860
  10 H :   -0.184616
  11 H :   -0.186587
  12 H :   -0.205744
  13 H :   -0.323238
  14 H :   -0.308020
  15 H :   -0.306083

  Mayer bond orders larger than 0.100000
B(  0-C ,  1-C ) :   1.0610 B(  0-C ,  2-C ) :   1.1106 B(  0-C ,  3-C ) :   0.2755
B(  0-C ,  4-C ) :   0.2909 B(  0-C ,  8-H ) :   0.7113 B(  0-C ,  9-H ) :  -0.1058
B(  1-C ,  2-C ) :  -0.1397 B(  1-C ,  3-C ) :   1.1981 B(  1-C ,  5-C ) :  -0.1754
B(  1-C ,  9-H ) :   1.0455 B(  2-C ,  4-C ) :   1.1516 B(  2-C ,  5-C ) :  -0.2872
B(  2-C , 10-H ) :   1.0835 B(  3-C ,  4-C ) :   0.5599 B(  3-C ,  5-C ) :   0.7443
B(  3-C , 11-H ) :   0.3675 B(  3-C , 12-H ) :  -0.1397 B(  4-C ,  5-C ) :   0.7141
B(  4-C ,  7-N ) :  -0.1271 B(  4-C , 11-H ) :  -0.1106 B(  4-C , 12-H ) :   0.3174
B(  5-C ,  6-N ) :   0.1311 B(  5-C ,  7-N ) :   0.8806 B(  5-C , 12-H ) :   0.1797
B(  6-N ,  7-N ) :   0.7524 B(  6-N , 12-H ) :  -0.1381 B(  6-N , 13-H ) :   1.0078
B(  6-N , 14-H ) :   0.9894 B(  7-N , 15-H ) :   1.1057

MP2 TOTAL ENERGY:     -342.238579621 Eh
FINAL SINGLE POINT ENERGY      -342.238579620813

DIPOLE MOMENT
-------------
                                X             Y             Z
Electronic contribution:     -0.81309      -0.29022      -0.42482
Nuclear contribution   :      1.60781      -0.15940       0.81171
                        -----------------------------------------
Total Dipole Moment    :      0.79472      -0.44961       0.38689
                        -----------------------------------------
Magnitude (a.u.)       :      0.99167
Magnitude (Debye)      :      2.52063

Rotational constants in cm-1:     0.169250     0.050494     0.039342
Rotational constants in MHz :  5073.990679  1513.786211  1179.451737

                             ****ORCA TERMINATED NORMALLY****
TOTAL RUN TIME: 0 days 0 hours 5 minutes 47 seconds 672 msec
