                         Program Version 5.0.3 -  RELEASE  -
|  1> !ri-mp2 aug-cc-pvtz aug-cc-pvtz/c tightscf
|  2> %pal nprocs 16 end
|  3>
|  4> * xyz 0 1
|  5> C      0.000000    0.710696   -0.980035
|  6> C      0.000000   -0.710696   -0.980035
|  7> C      0.000000    1.121982    0.330484
|  8> C      0.000000   -1.121982    0.330484
|  9> N      0.000000    0.000000    1.118833
| 10> H      0.000000    1.356378   -1.841340
| 11> H      0.000000   -1.356378   -1.841340
| 12> H      0.000000    2.107246    0.761724
| 13> H      0.000000   -2.107246    0.761724
| 14> H      0.000000    0.000000    2.121999
| 15> *
| 16>
| 17>                          ****END OF INPUT****

CARTESIAN COORDINATES (ANGSTROEM)
---------------------------------
  C      0.000000    0.710696   -0.980035
  C      0.000000   -0.710696   -0.980035
  C      0.000000    1.121982    0.330484
  C      0.000000   -1.121982    0.330484
  N      0.000000    0.000000    1.118833
  H      0.000000    1.356378   -1.841340
  H      0.000000   -1.356378   -1.841340
  H      0.000000    2.107246    0.761724
  H      0.000000   -2.107246    0.761724
  H      0.000000    0.000000    2.121999

 Total Charge           Charge          ....    0
 Multiplicity           Mult            ....    1
 Number of Electrons    NEL             ....   36
 Basis Dimension        Dim             ....  345

ORBITAL ENERGIES
----------------

  NO   OCC          E(Eh)            E(eV)
   0   2.0000     -15.605858      -424.6570
   1   2.0000     -11.251829      -306.1778
   2   2.0000     -11.251786      -306.1767
   3   2.0000     -11.209129      -305.0159
   4   2.0000     -11.208081      -304.9874
   5   2.0000      -1.291452       -35.1422
   6   2.0000      -1.042569       -28.3697
   7   2.0000      -0.977655       -26.6033
   8   2.0000      -0.793211       -21.5844
   9   2.0000      -0.767380       -20.8815
  10   2.0000      -0.736979       -20.0542
  11   2.0000      -0.592933       -16.1345
  12   2.0000      -0.582850       -15.8602
  13   2.0000      -0.567775       -15.4499
  14   2.0000      -0.548131       -14.9154
  15   2.0000      -0.528235       -14.3740
  16   2.0000      -0.347394        -9.4531
  17   2.0000      -0.298596        -8.1252
  18   0.0000       0.025822         0.7026
  19   0.0000       0.036063         0.9813
  20   0.0000       0.038085         1.0363
  21   0.0000       0.050580         1.3764
  22   0.0000       0.054668         1.4876

MULLIKEN ATOMIC CHARGES
-----------------------
   0 C :   -0.460373
   1 C :   -0.460373
   2 C :   -0.765744
   3 C :   -0.765744
   4 N :    0.145431
   5 H :    0.459614
   6 H :    0.459614
   7 H :    0.650360
   8 H :    0.650360
   9 H :    0.086854
Sum of atomic charges:    0.0000000

LOEWDIN ATOMIC CHARGES
----------------------
   0 C :    0.165601
   1 C :    0.165601
   2 C :    0.105973
   3 C :    0.105973
   4 N :    0.484459
   5 H :   -0.202509
   6 H :   -0.202509
   7 H :   -0.182784
   8 H :   -0.182784
   9 H :   -0.257022

  Mayer bond orders larger than 0.100000
B(  0-C ,  1-C ) :   1.2794 B(  0-C ,  2-C ) :   1.1385 B(  0-C ,  4-N ) :  -0.1414
B(  0-C ,  5-H ) :   0.8785 B(  1-C ,  3-C ) :   1.1385 B(  1-C ,  4-N ) :  -0.1414
B(  1-C ,  6-H ) :   0.8785 B(  2-C ,  4-N ) :   1.0341 B(  2-C ,  7-H ) :   0.5078
B(  3-C ,  4-N ) :   1.0341 B(  3-C ,  8-H ) :   0.5078 B(  4-N ,  9-H ) :   1.1009

MP2 TOTAL ENERGY:     -209.748138226 Eh
FINAL SINGLE POINT ENERGY      -209.748138225756

DIPOLE MOMENT
-------------
                                X             Y             Z
Electronic contribution:      0.00000      -0.00000       0.75985
Nuclear contribution   :      0.00000       0.00000      -0.03090
                        -----------------------------------------
Total Dipole Moment    :      0.00000      -0.00000       0.72895
                        -----------------------------------------
Magnitude (a.u.)       :      0.72895
Magnitude (Debye)      :      1.85284

Rotational constants in cm-1:     0.306312     0.302250     0.152134
Rotational constants in MHz :  9183.013936  9061.239325  4560.860113

                             ****ORCA TERMINATED NORMALLY****
TOTAL RUN TIME: 0 days 0 hours 1 minutes 36 seconds 594 msec
