                         Program Version 5.0.3 -  RELEASE  -
|  1> !ri-mp2 aug-cc-pvtz aug-cc-pvtz/c tightscf
|  2> %pal nprocs 16 end
|  3>
|  4> * xyz 0 1
|  5> C     -1.003940   -0.403757    0.000000
|  6> C     -3.525526   -0.680888    0.000000
|  7> C      3.764809    0.667909    0.000000
|  8> C     -2.349682    0.286562    0.000000
|  9> C      2.310162    1.136229    0.000000
| 10> C      1.344509   -0.032085    0.000000
| 11> O     -0.826705   -1.596688    0.000000
| 12> O      0.000000    0.497494    0.000000
| 13> H     -3.504242   -1.325262    0.877722
| 14> H     -4.466982   -0.131692    0.000000
| 15> H     -3.504242   -1.325262   -0.877722
| 16> H      3.988516    0.063792   -0.881154
| 17> H      4.446920    1.517824    0.000000
| 18> H      3.988516    0.063792    0.881154
| 19> H     -2.378363    0.948115    0.869070
| 20> H     -2.378363    0.948115   -0.869070
| 21> H      2.115703    1.758242   -0.876284
| 22> H      2.115703    1.758242    0.876284
| 23> H      1.474239   -0.663085   -0.880525
| 24> H      1.474239   -0.663085    0.880525
| 25> *
| 26>
| 27>                          ****END OF INPUT****

CARTESIAN COORDINATES (ANGSTROEM)
---------------------------------
  C     -1.003940   -0.403757    0.000000
  C     -3.525526   -0.680888    0.000000
  C      3.764809    0.667909    0.000000
  C     -2.349682    0.286562    0.000000
  C      2.310162    1.136229    0.000000
  C      1.344509   -0.032085    0.000000
  O     -0.826705   -1.596688    0.000000
  O      0.000000    0.497494    0.000000
  H     -3.504242   -1.325262    0.877722
  H     -4.466982   -0.131692    0.000000
  H     -3.504242   -1.325262   -0.877722
  H      3.988516    0.063792   -0.881154
  H      4.446920    1.517824    0.000000
  H      3.988516    0.063792    0.881154
  H     -2.378363    0.948115    0.869070
  H     -2.378363    0.948115   -0.869070
  H      2.115703    1.758242   -0.876284
  H      2.115703    1.758242    0.876284
  H      1.474239   -0.663085   -0.880525
  H      1.474239   -0.663085    0.880525

 Total Charge           Charge          ....    0
 Multiplicity           Mult            ....    1
 Number of Electrons    NEL             ....   64
 Basis Dimension        Dim             ....  644

ORBITAL ENERGIES
----------------

  NO   OCC          E(Eh)            E(eV)
   0   2.0000     -20.596208      -560.4513
   1   2.0000     -20.539916      -558.9195
   2   2.0000     -11.373262      -309.4822
   3   2.0000     -11.284091      -307.0557
   4   2.0000     -11.242028      -305.9111
   5   2.0000     -11.228355      -305.5391
   6   2.0000     -11.221683      -305.3575
   7   2.0000     -11.218187      -305.2624
   8   2.0000      -1.453382       -39.5485
   9   2.0000      -1.354235       -36.8506
  10   2.0000      -1.077709       -29.3260
  11   2.0000      -1.050956       -28.5980
  12   2.0000      -0.951772       -25.8990
  13   2.0000      -0.881873       -23.9970
  14   2.0000      -0.817022       -22.2323
  15   2.0000      -0.767163       -20.8756
  16   2.0000      -0.692619       -18.8471
  17   2.0000      -0.686495       -18.6805
  18   2.0000      -0.665035       -18.0965
  19   2.0000      -0.635085       -17.2815
  20   2.0000      -0.599335       -16.3087
  21   2.0000      -0.594440       -16.1755
  22   2.0000      -0.555120       -15.1056
  23   2.0000      -0.536552       -14.6003
  24   2.0000      -0.528783       -14.3889
  25   2.0000      -0.519177       -14.1275
  26   2.0000      -0.510362       -13.8877
  27   2.0000      -0.497026       -13.5248
  28   2.0000      -0.488830       -13.3017
  29   2.0000      -0.484824       -13.1927
  30   2.0000      -0.455675       -12.3995
  31   2.0000      -0.441144       -12.0041
  32   0.0000       0.028173         0.7666
  33   0.0000       0.029981         0.8158
  34   0.0000       0.037840         1.0297
  35   0.0000       0.039436         1.0731
  36   0.0000       0.045892         1.2488

MULLIKEN ATOMIC CHARGES
-----------------------
   0 C :    0.381436
   1 C :   -0.856366
   2 C :   -0.929328
   3 C :   -0.242919
   4 C :   -0.501492
   5 C :   -0.109123
   6 O :   -0.779919
   7 O :   -0.286817
   8 H :    0.280560
   9 H :    0.281073
  10 H :    0.280560
  11 H :    0.280680
  12 H :    0.286296
  13 H :    0.280680
  14 H :    0.242372
  15 H :    0.242372
  16 H :    0.236583
  17 H :    0.236583
  18 H :    0.338385
  19 H :    0.338385
Sum of atomic charges:   -0.0000000

LOEWDIN ATOMIC CHARGES
----------------------
   0 C :   -0.809127
   1 C :    0.568457
   2 C :    0.578783
   3 C :    0.253931
   4 C :    0.256297
   5 C :    0.044040
   6 O :    0.468257
   7 O :    0.587657
   8 H :   -0.171929
   9 H :   -0.173648
  10 H :   -0.171929
  11 H :   -0.169866
  12 H :   -0.172238
  13 H :   -0.169866
  14 H :   -0.156120
  15 H :   -0.156120
  16 H :   -0.150627
  17 H :   -0.150627
  18 H :   -0.152664
  19 H :   -0.152664

  Mayer bond orders larger than 0.100000
B(  0-C ,  3-C ) :   0.6866 B(  0-C ,  6-O ) :   1.5302 B(  0-C ,  7-O ) :   1.0711
B(  1-C ,  3-C ) :   0.9212 B(  1-C ,  8-H ) :   0.9363 B(  1-C ,  9-H ) :   0.9921
B(  1-C , 10-H ) :   0.9363 B(  2-C ,  4-C ) :   0.9204 B(  2-C , 11-H ) :   0.9416
B(  2-C , 12-H ) :   0.9827 B(  2-C , 13-H ) :   0.9416 B(  3-C , 14-H ) :   0.9701
B(  3-C , 15-H ) :   0.9701 B(  4-C ,  5-C ) :   0.9132 B(  4-C , 16-H ) :   0.9708
B(  4-C , 17-H ) :   0.9708 B(  5-C ,  7-O ) :   0.7796 B(  5-C , 18-H ) :   0.9086
B(  5-C , 19-H ) :   0.9086

MP2 TOTAL ENERGY:     -385.608956335 Eh
FINAL SINGLE POINT ENERGY      -385.608956334600

DIPOLE MOMENT
-------------
                                X             Y             Z
Electronic contribution:     -3.31815      -2.20081       0.00000
Nuclear contribution   :      3.47533       3.03431       0.00000
                        -----------------------------------------
Total Dipole Moment    :      0.15717       0.83350       0.00000
                        -----------------------------------------
Magnitude (a.u.)       :      0.84819
Magnitude (Debye)      :      2.15592

Rotational constants in cm-1:     0.247795     0.025830     0.023906
Rotational constants in MHz :  7428.718624   774.360411   716.680170

                             ****ORCA TERMINATED NORMALLY****
TOTAL RUN TIME: 0 days 0 hours 8 minutes 45 seconds 248 msec
