                         Program Version 5.0.3 -  RELEASE  -
|  1> !ri-mp2 aug-cc-pvtz aug-cc-pvtz/c tightscf
|  2> %pal nprocs 16 end
|  3>
|  4> * xyz 0 1
|  5> C      0.000000    0.000000    1.417677
|  6> C      0.000000    0.000000    0.218758
|  7> C      0.000000    0.000000   -1.236142
|  8> H      0.000000    0.000000    2.478402
|  9> H      0.000000    1.018882   -1.626721
| 10> H      0.882377   -0.509441   -1.626721
| 11> H     -0.882377   -0.509441   -1.626721
| 12> *
| 13>
| 14>                          ****END OF INPUT****

CARTESIAN COORDINATES (ANGSTROEM)
---------------------------------
  C      0.000000    0.000000    1.417677
  C      0.000000    0.000000    0.218758
  C      0.000000    0.000000   -1.236142
  H      0.000000    0.000000    2.478402
  H      0.000000    1.018882   -1.626721
  H      0.882377   -0.509441   -1.626721
  H     -0.882377   -0.509441   -1.626721

 Total Charge           Charge          ....    0
 Multiplicity           Mult            ....    1
 Number of Electrons    NEL             ....   22
 Basis Dimension        Dim             ....  230

ORBITAL ENERGIES
----------------

  NO   OCC          E(Eh)            E(eV)
   0   2.0000     -11.250047      -306.1293
   1   2.0000     -11.234166      -305.6972
   2   2.0000     -11.217710      -305.2494
   3   2.0000      -1.059122       -28.8202
   4   2.0000      -0.959281       -26.1034
   5   2.0000      -0.718826       -19.5603
   6   2.0000      -0.624531       -16.9943
   7   2.0000      -0.592109       -16.1121
   8   2.0000      -0.592109       -16.1121
   9   2.0000      -0.385770       -10.4973
  10   2.0000      -0.385770       -10.4973
  11   0.0000       0.029102         0.7919
  12   0.0000       0.034355         0.9349
  13   0.0000       0.048298         1.3142
  14   0.0000       0.048298         1.3142
  15   0.0000       0.077279         2.1029

MULLIKEN ATOMIC CHARGES
-----------------------
   0 C :   -1.438393
   1 C :    0.826205
   2 C :   -0.860786
   3 H :    0.539785
   4 H :    0.311063
   5 H :    0.311063
   6 H :    0.311063
Sum of atomic charges:    0.0000000

LOEWDIN ATOMIC CHARGES
----------------------
   0 C :    0.373232
   1 C :   -0.003950
   2 C :    0.501095
   3 H :   -0.310641
   4 H :   -0.186578
   5 H :   -0.186579
   6 H :   -0.186579

  Mayer bond orders larger than 0.100000
B(  0-C ,  1-C ) :   1.1247 B(  0-C ,  3-H ) :   0.7742 B(  1-C ,  2-C ) :   1.0972
B(  2-C ,  4-H ) :   0.9161 B(  2-C ,  5-H ) :   0.9161 B(  2-C ,  6-H ) :   0.9161

MP2 TOTAL ENERGY:     -116.397430907 Eh
FINAL SINGLE POINT ENERGY      -116.397430907389

DIPOLE MOMENT
-------------
                                X             Y             Z
Electronic contribution:      0.00000      -0.00000       2.16598
Nuclear contribution   :      0.00000       0.00000      -2.47685
                        -----------------------------------------
Total Dipole Moment    :      0.00000      -0.00000      -0.31087
                        -----------------------------------------
Magnitude (a.u.)       :      0.31087
Magnitude (Debye)      :      0.79017

Rotational constants in cm-1:     5.369918     0.287236     0.287236
Rotational constants in MHz : 160986.100087  8611.117914  8611.117551

                             ****ORCA TERMINATED NORMALLY****
TOTAL RUN TIME: 0 days 0 hours 0 minutes 33 seconds 252 msec
