                         Program Version 5.0.3 -  RELEASE  -
|  1> !ri-mp2 aug-cc-pvtz aug-cc-pvtz/c tightscf
|  2> %pal nprocs 16 end
|  3>
|  4> * xyz 0 1
|  5> C      2.487747    0.326580    0.218061
|  6> C      2.045807   -0.986436    0.330087
|  7> C      1.598711    1.325573   -0.163943
|  8> C      0.718272   -1.302587    0.064989
|  9> C      0.269988    1.021727   -0.434324
| 10> C     -0.152532   -0.293089   -0.311684
| 11> C     -2.512580   -0.121577    0.007190
| 12> O     -2.466293    0.684083    0.887913
| 13> O     -1.461326   -0.671192   -0.645444
| 14> H      3.520254    0.570857    0.425766
| 15> H      2.732232   -1.768633    0.623796
| 16> H      1.937995    2.348421   -0.253363
| 17> H      0.355162   -2.317509    0.142752
| 18> H     -0.426389    1.792073   -0.729422
| 19> H     -3.430787   -0.549489   -0.411541
| 20> *
| 21>
| 22>                          ****END OF INPUT****

CARTESIAN COORDINATES (ANGSTROEM)
---------------------------------
  C      2.487747    0.326580    0.218061
  C      2.045807   -0.986436    0.330087
  C      1.598711    1.325573   -0.163943
  C      0.718272   -1.302587    0.064989
  C      0.269988    1.021727   -0.434324
  C     -0.152532   -0.293089   -0.311684
  C     -2.512580   -0.121577    0.007190
  O     -2.466293    0.684083    0.887913
  O     -1.461326   -0.671192   -0.645444
  H      3.520254    0.570857    0.425766
  H      2.732232   -1.768633    0.623796
  H      1.937995    2.348421   -0.253363
  H      0.355162   -2.317509    0.142752
  H     -0.426389    1.792073   -0.729422
  H     -3.430787   -0.549489   -0.411541

 Total Charge           Charge          ....    0
 Multiplicity           Mult            ....    1
 Number of Electrons    NEL             ....   64
 Basis Dimension        Dim             ....  552

ORBITAL ENERGIES
----------------

  NO   OCC          E(Eh)            E(eV)
   0   2.0000     -20.627012      -561.2895
   1   2.0000     -20.566480      -559.6424
   2   2.0000     -11.395148      -310.0777
   3   2.0000     -11.310542      -307.7755
   4   2.0000     -11.246605      -306.0357
   5   2.0000     -11.246272      -306.0266
   6   2.0000     -11.244234      -305.9712
   7   2.0000     -11.244104      -305.9676
   8   2.0000     -11.240541      -305.8707
   9   2.0000      -1.479253       -40.2525
  10   2.0000      -1.387336       -37.7513
  11   2.0000      -1.164700       -31.6931
  12   2.0000      -1.033703       -28.1285
  13   2.0000      -1.030949       -28.0535
  14   2.0000      -0.903217       -24.5778
  15   2.0000      -0.850127       -23.1331
  16   2.0000      -0.801343       -21.8056
  17   2.0000      -0.737115       -20.0579
  18   2.0000      -0.715658       -19.4740
  19   2.0000      -0.687691       -18.7130
  20   2.0000      -0.673264       -18.3205
  21   2.0000      -0.634641       -17.2695
  22   2.0000      -0.610921       -16.6240
  23   2.0000      -0.600428       -16.3385
  24   2.0000      -0.587112       -15.9761
  25   2.0000      -0.528265       -14.3748
  26   2.0000      -0.524926       -14.2840
  27   2.0000      -0.509307       -13.8590
  28   2.0000      -0.482903       -13.1404
  29   2.0000      -0.471514       -12.8305
  30   2.0000      -0.349293        -9.5047
  31   2.0000      -0.341650        -9.2968
  32   0.0000       0.027912         0.7595
  33   0.0000       0.031724         0.8633
  34   0.0000       0.034172         0.9299
  35   0.0000       0.044635         1.2146
  36   0.0000       0.048108         1.3091

MULLIKEN ATOMIC CHARGES
-----------------------
   0 C :   -0.465599
   1 C :   -0.426643
   2 C :   -0.424325
   3 C :   -1.020501
   4 C :   -0.575992
   5 C :    1.238497
   6 C :   -0.147456
   7 O :   -0.611468
   8 O :   -0.601013
   9 H :    0.483724
  10 H :    0.388544
  11 H :    0.381912
  12 H :    0.585084
  13 H :    0.582776
  14 H :    0.612460
Sum of atomic charges:    0.0000000

LOEWDIN ATOMIC CHARGES
----------------------
   0 C :    0.195722
   1 C :    0.194277
   2 C :    0.198537
   3 C :    0.208401
   4 C :    0.204329
   5 C :   -0.385863
   6 C :   -0.487796
   7 O :    0.428704
   8 O :    0.553421
   9 H :   -0.186477
  10 H :   -0.182893
  11 H :   -0.181636
  12 H :   -0.179528
  13 H :   -0.180962
  14 H :   -0.198237

  Mayer bond orders larger than 0.100000
B(  0-C ,  1-C ) :   1.2141 B(  0-C ,  2-C ) :   1.1461 B(  0-C ,  3-C ) :   0.2568
B(  0-C ,  9-H ) :   0.7693 B(  0-C , 10-H ) :  -0.1249 B(  1-C ,  2-C ) :  -0.1328
B(  1-C ,  3-C ) :   1.2633 B(  1-C ,  5-C ) :  -0.2352 B(  1-C , 10-H ) :   0.9138
B(  2-C ,  4-C ) :   1.2429 B(  2-C ,  5-C ) :  -0.1808 B(  2-C , 11-H ) :   0.9312
B(  3-C ,  4-C ) :   0.4357 B(  3-C ,  5-C ) :   0.8027 B(  3-C , 12-H ) :   0.4454
B(  4-C ,  5-C ) :   1.0917 B(  4-C , 13-H ) :   0.4903 B(  5-C ,  6-C ) :  -0.1235
B(  5-C ,  8-O ) :   0.3784 B(  6-C ,  7-O ) :   1.8304 B(  6-C ,  8-O ) :   1.3471
B(  6-C , 14-H ) :   0.5772

MP2 TOTAL ENERGY:     -420.031342741 Eh
FINAL SINGLE POINT ENERGY      -420.031342741040

DIPOLE MOMENT
-------------
                                X             Y             Z
Electronic contribution:     -4.22403      -0.46824      -0.29196
Nuclear contribution   :      4.55357       0.07473      -0.19506
                        -----------------------------------------
Total Dipole Moment    :      0.32954      -0.39352      -0.48702
                        -----------------------------------------
Magnitude (a.u.)       :      0.70756
Magnitude (Debye)      :      1.79848

Rotational constants in cm-1:     0.132572     0.039022     0.033262
Rotational constants in MHz :  3974.415651  1169.844124   997.168164

                             ****ORCA TERMINATED NORMALLY****
TOTAL RUN TIME: 0 days 0 hours 6 minutes 32 seconds 664 msec
