                         Program Version 5.0.3 -  RELEASE  -
|  1> !ri-mp2 aug-cc-pvtz aug-cc-pvtz/c tightscf
|  2> %pal nprocs 16 end
|  3>
|  4> * xyz 0 1
|  5> C     0.000000     2.488837    0.088743
|  6> C     0.000000    -2.488837    0.088743
|  7> C     0.000000     1.264960   -0.705030
|  8> C     0.000000    -1.264960   -0.705030
|  9> C     0.000000     0.000000    0.168023
| 10> N     0.000000     3.444883    0.727024
| 11> N     0.000000    -3.444883    0.727024
| 12> H    -0.877475     1.279493   -1.355740
| 13> H     0.877475     1.279493   -1.355740
| 14> H     0.877475    -1.279493   -1.355740
| 15> H    -0.877475    -1.279493   -1.355740
| 16> H    -0.875721     0.000000    0.815966
| 17> H     0.875721     0.000000    0.815966
| 18> *
| 19>
| 20>                          ****END OF INPUT****

CARTESIAN COORDINATES (ANGSTROEM)
---------------------------------
  C      0.000000    2.488837    0.088743
  C      0.000000   -2.488837    0.088743
  C      0.000000    1.264960   -0.705030
  C      0.000000   -1.264960   -0.705030
  C      0.000000    0.000000    0.168023
  N      0.000000    3.444883    0.727024
  N      0.000000   -3.444883    0.727024
  H     -0.877475    1.279493   -1.355740
  H      0.877475    1.279493   -1.355740
  H      0.877475   -1.279493   -1.355740
  H     -0.877475   -1.279493   -1.355740
  H     -0.875721    0.000000    0.815966
  H      0.875721    0.000000    0.815966

 Total Charge           Charge          ....    0
 Multiplicity           Mult            ....    1
 Number of Electrons    NEL             ....   50
 Basis Dimension        Dim             ....  460

ORBITAL ENERGIES
----------------

  NO   OCC          E(Eh)            E(eV)
   0   2.0000     -15.582510      -424.0217
   1   2.0000     -15.582510      -424.0217
   2   2.0000     -11.306976      -307.6785
   3   2.0000     -11.306975      -307.6784
   4   2.0000     -11.286640      -307.1251
   5   2.0000     -11.286412      -307.1189
   6   2.0000     -11.286410      -307.1188
   7   2.0000      -1.237964       -33.6867
   8   2.0000      -1.235629       -33.6232
   9   2.0000      -1.139733       -31.0137
  10   2.0000      -1.045863       -28.4594
  11   2.0000      -0.902007       -24.5449
  12   2.0000      -0.750458       -20.4210
  13   2.0000      -0.709696       -19.3118
  14   2.0000      -0.688157       -18.7257
  15   2.0000      -0.636620       -17.3233
  16   2.0000      -0.618902       -16.8412
  17   2.0000      -0.577643       -15.7185
  18   2.0000      -0.564110       -15.3502
  19   2.0000      -0.561363       -15.2755
  20   2.0000      -0.551997       -15.0206
  21   2.0000      -0.482964       -13.1421
  22   2.0000      -0.475974       -12.9519
  23   2.0000      -0.472826       -12.8663
  24   2.0000      -0.466431       -12.6922
  25   0.0000       0.015454         0.4205
  26   0.0000       0.028731         0.7818
  27   0.0000       0.037382         1.0172
  28   0.0000       0.038153         1.0382
  29   0.0000       0.055092         1.4991

MULLIKEN ATOMIC CHARGES
-----------------------
   0 C :    0.148959
   1 C :    0.148959
   2 C :   -0.113351
   3 C :   -0.113351
   4 C :   -0.446862
   5 N :   -0.649394
   6 N :   -0.649394
   7 H :    0.291585
   8 H :    0.291585
   9 H :    0.291585
  10 H :    0.291585
  11 H :    0.254046
  12 H :    0.254046
Sum of atomic charges:    0.0000000

LOEWDIN ATOMIC CHARGES
----------------------
   0 C :   -0.200166
   1 C :   -0.200166
   2 C :    0.238380
   3 C :    0.238380
   4 C :    0.276118
   5 N :    0.265409
   6 N :    0.265409
   7 H :   -0.152250
   8 H :   -0.152250
   9 H :   -0.152250
  10 H :   -0.152250
  11 H :   -0.137182
  12 H :   -0.137182

  Mayer bond orders larger than 0.100000
B(  0-C ,  2-C ) :   0.9237 B(  0-C ,  4-C ) :   0.1202 B(  0-C ,  5-N ) :   2.0655
B(  1-C ,  3-C ) :   0.9237 B(  1-C ,  4-C ) :   0.1202 B(  1-C ,  6-N ) :   2.0655
B(  2-C ,  4-C ) :   0.8909 B(  2-C ,  7-H ) :   0.9242 B(  2-C ,  8-H ) :   0.9242
B(  3-C ,  4-C ) :   0.8909 B(  3-C ,  9-H ) :   0.9242 B(  3-C , 10-H ) :   0.9242
B(  4-C , 11-H ) :   0.9457 B(  4-C , 12-H ) :   0.9457

MP2 TOTAL ENERGY:     -303.029806034 Eh
FINAL SINGLE POINT ENERGY      -303.029806034479

DIPOLE MOMENT
-------------
                                X             Y             Z
Electronic contribution:     -0.00000      -0.00000       2.10864
Nuclear contribution   :      0.00000       0.00000      -3.77392
                        -----------------------------------------
Total Dipole Moment    :     -0.00000      -0.00000      -1.66528
                        -----------------------------------------
Magnitude (a.u.)       :      1.66528
Magnitude (Debye)      :      4.23281

Rotational constants in cm-1:     0.415934     0.031751     0.029987
Rotational constants in MHz : 12469.394487   951.862507   898.986197

                             ****ORCA TERMINATED NORMALLY****
TOTAL RUN TIME: 0 days 0 hours 3 minutes 0 seconds 297 msec
