                         Program Version 5.0.3 -  RELEASE  -
|  1> !ri-mp2 aug-cc-pvtz aug-cc-pvtz/c tightscf
|  2> %pal nprocs 16 end
|  3>
|  4> * xyz 0 1
|  5> C      1.070710   -0.368234    0.146305
|  6> C     -1.282848    0.323971   -0.320122
|  7> C      0.020532    0.716170    0.346563
|  8> O      2.179848   -0.153436   -0.260150
|  9> O     -1.960910   -0.597247    0.054811
| 10> H      0.734564   -1.388064    0.407927
| 11> H     -1.572330    0.919367   -1.206311
| 12> H      0.403972    1.666523   -0.018102
| 13> H     -0.168069    0.776197    1.422723
| 14> *
| 15>
| 16>                          ****END OF INPUT****

CARTESIAN COORDINATES (ANGSTROEM)
---------------------------------
  C      1.070710   -0.368234    0.146305
  C     -1.282848    0.323971   -0.320122
  C      0.020532    0.716170    0.346563
  O      2.179848   -0.153436   -0.260150
  O     -1.960910   -0.597247    0.054811
  H      0.734564   -1.388064    0.407927
  H     -1.572330    0.919367   -1.206311
  H      0.403972    1.666523   -0.018102
  H     -0.168069    0.776197    1.422723

 Total Charge           Charge          ....    0
 Multiplicity           Mult            ....    1
 Number of Electrons    NEL             ....   38
 Basis Dimension        Dim             ....  322

ORBITAL ENERGIES
----------------

  NO   OCC          E(Eh)            E(eV)
   0   2.0000     -20.584684      -560.1377
   1   2.0000     -20.579278      -559.9906
   2   2.0000     -11.360094      -309.1239
   3   2.0000     -11.355027      -308.9860
   4   2.0000     -11.270411      -306.6835
   5   2.0000      -1.423978       -38.7484
   6   2.0000      -1.417064       -38.5603
   7   2.0000      -1.071330       -29.1524
   8   2.0000      -0.865261       -23.5450
   9   2.0000      -0.800123       -21.7725
  10   2.0000      -0.717887       -19.5347
  11   2.0000      -0.675486       -18.3809
  12   2.0000      -0.654312       -17.8047
  13   2.0000      -0.651894       -17.7389
  14   2.0000      -0.590909       -16.0794
  15   2.0000      -0.543727       -14.7956
  16   2.0000      -0.533461       -14.5162
  17   2.0000      -0.459710       -12.5093
  18   2.0000      -0.431133       -11.7317
  19   0.0000       0.026629         0.7246
  20   0.0000       0.034815         0.9474
  21   0.0000       0.041078         1.1178
  22   0.0000       0.048408         1.3172
  23   0.0000       0.068090         1.8528

MULLIKEN ATOMIC CHARGES
-----------------------
   0 C :   -0.066933
   1 C :   -0.096099
   2 C :   -0.087881
   3 O :   -0.683348
   4 O :   -0.703315
   5 H :    0.529675
   6 H :    0.562858
   7 H :    0.248369
   8 H :    0.296673
Sum of atomic charges:   -0.0000000

LOEWDIN ATOMIC CHARGES
----------------------
   0 C :   -0.215947
   1 C :   -0.223719
   2 C :    0.256984
   3 O :    0.441914
   4 O :    0.444391
   5 H :   -0.178684
   6 H :   -0.176295
   7 H :   -0.181170
   8 H :   -0.167474

  Mayer bond orders larger than 0.100000
B(  0-C ,  1-C ) :   0.1125 B(  0-C ,  2-C ) :   0.8506 B(  0-C ,  3-O ) :   1.6353
B(  0-C ,  5-H ) :   0.6482 B(  1-C ,  2-C ) :   0.7867 B(  1-C ,  4-O ) :   1.6420
B(  1-C ,  6-H ) :   0.6151 B(  2-C ,  7-H ) :   0.9320 B(  2-C ,  8-H ) :   0.8925

MP2 TOTAL ENERGY:     -266.691959807 Eh
FINAL SINGLE POINT ENERGY      -266.691959807496

DIPOLE MOMENT
-------------
                                X             Y             Z
Electronic contribution:      0.21910      -1.17723      -0.45014
Nuclear contribution   :     -0.59263       1.94323       0.59717
                        -----------------------------------------
Total Dipole Moment    :     -0.37353       0.76600       0.14703
                        -----------------------------------------
Magnitude (a.u.)       :      0.86482
Magnitude (Debye)      :      2.19819

Rotational constants in cm-1:     0.581957     0.092606     0.086168
Rotational constants in MHz : 17446.623915  2776.266398  2583.244406

                             ****ORCA TERMINATED NORMALLY****
TOTAL RUN TIME: 0 days 0 hours 1 minutes 19 seconds 193 msec
