                         Program Version 5.0.3 -  RELEASE  -
|  1> !ri-mp2 aug-cc-pvtz aug-cc-pvtz/c tightscf
|  2> %pal nprocs 16 end
|  3> %maxcore 3800
|  4>
|  5> * xyz 0 1
|  6> C      0.000000    0.000000    0.338951
|  7> C     -0.058312    1.310999   -0.518663
|  8> C      0.058312   -1.310999   -0.518663
|  9> C      0.291389    2.615577    0.272146
| 10> C     -0.291389   -2.615577    0.272146
| 11> F      1.094395    0.038571    1.125903
| 12> F     -1.094395   -0.038571    1.125903
| 13> F      0.809009    1.215438   -1.547143
| 14> F     -1.303708    1.452288   -1.008386
| 15> F     -0.809009   -1.215438   -1.547143
| 16> F      1.303708   -1.452288   -1.008386
| 17> F      0.000000    3.669670   -0.493082
| 18> F      0.000000   -3.669670   -0.493082
| 19> F     -0.424553    2.689340    1.397413
| 20> F      1.587918    2.657401    0.576655
| 21> F      0.424553   -2.689340    1.397413
| 22> F     -1.587918   -2.657401    0.576655
| 23> *
| 24>
| 25>                          ****END OF INPUT****

CARTESIAN COORDINATES (ANGSTROEM)
---------------------------------
  C      0.000000    0.000000    0.338951
  C     -0.058312    1.310999   -0.518663
  C      0.058312   -1.310999   -0.518663
  C      0.291389    2.615577    0.272146
  C     -0.291389   -2.615577    0.272146
  F      1.094395    0.038571    1.125903
  F     -1.094395   -0.038571    1.125903
  F      0.809009    1.215438   -1.547143
  F     -1.303708    1.452288   -1.008386
  F     -0.809009   -1.215438   -1.547143
  F      1.303708   -1.452288   -1.008386
  F      0.000000    3.669670   -0.493082
  F      0.000000   -3.669670   -0.493082
  F     -0.424553    2.689340    1.397413
  F      1.587918    2.657401    0.576655
  F      0.424553   -2.689340    1.397413
  F     -1.587918   -2.657401    0.576655

 Total Charge           Charge          ....    0
 Multiplicity           Mult            ....    1
 Number of Electrons    NEL             ....  138
 Basis Dimension        Dim             ....  782

ORBITAL ENERGIES
----------------

  NO   OCC          E(Eh)            E(eV)
   0   2.0000     -26.382725      -717.9104
   1   2.0000     -26.382706      -717.9099
   2   2.0000     -26.381589      -717.8795
   3   2.0000     -26.381589      -717.8795
   4   2.0000     -26.381291      -717.8714
   5   2.0000     -26.381290      -717.8714
   6   2.0000     -26.379901      -717.8336
   7   2.0000     -26.379901      -717.8336
   8   2.0000     -26.379058      -717.8107
   9   2.0000     -26.379058      -717.8107
  10   2.0000     -26.378554      -717.7970
  11   2.0000     -26.378554      -717.7969
  12   2.0000     -11.561141      -314.5946
  13   2.0000     -11.561141      -314.5946
  14   2.0000     -11.508272      -313.1560
  15   2.0000     -11.504967      -313.0661
  16   2.0000     -11.504911      -313.0646
  17   2.0000      -1.777301       -48.3628
  18   2.0000      -1.775194       -48.3055
  19   2.0000      -1.747877       -47.5622
  20   2.0000      -1.730286       -47.0835
  21   2.0000      -1.728647       -47.0389
  22   2.0000      -1.685486       -45.8644
  23   2.0000      -1.680609       -45.7317
  24   2.0000      -1.676475       -45.6192
  25   2.0000      -1.675957       -45.6051
  26   2.0000      -1.674126       -45.5553
  27   2.0000      -1.668446       -45.4007
  28   2.0000      -1.667883       -45.3854
  29   2.0000      -1.148903       -31.2633
  30   2.0000      -1.106883       -30.1198
  31   2.0000      -1.040616       -28.3166
  32   2.0000      -0.976504       -26.5720
  33   2.0000      -0.946477       -25.7549
  34   2.0000      -0.902124       -24.5480
  35   2.0000      -0.892087       -24.2749
  36   2.0000      -0.881727       -23.9930
  37   2.0000      -0.873942       -23.7812
  38   2.0000      -0.871197       -23.7065
  39   2.0000      -0.868834       -23.6422
  40   2.0000      -0.850860       -23.1531
  41   2.0000      -0.850224       -23.1358
  42   2.0000      -0.843496       -22.9527
  43   2.0000      -0.823643       -22.4125
  44   2.0000      -0.804693       -21.8968
  45   2.0000      -0.770380       -20.9631
  46   2.0000      -0.765732       -20.8366
  47   2.0000      -0.760498       -20.6942
  48   2.0000      -0.753841       -20.5131
  49   2.0000      -0.749460       -20.3938
  50   2.0000      -0.746077       -20.3018
  51   2.0000      -0.743441       -20.2301
  52   2.0000      -0.741996       -20.1907
  53   2.0000      -0.735224       -20.0065
  54   2.0000      -0.731710       -19.9108
  55   2.0000      -0.725394       -19.7390
  56   2.0000      -0.711314       -19.3558
  57   2.0000      -0.703969       -19.1560
  58   2.0000      -0.701369       -19.0852
  59   2.0000      -0.698580       -19.0093
  60   2.0000      -0.695960       -18.9380
  61   2.0000      -0.693733       -18.8774
  62   2.0000      -0.690922       -18.8009
  63   2.0000      -0.685930       -18.6651
  64   2.0000      -0.685629       -18.6569
  65   2.0000      -0.658571       -17.9206
  66   2.0000      -0.643743       -17.5171
  67   2.0000      -0.608849       -16.5676
  68   2.0000      -0.546813       -14.8795
  69   0.0000       0.052108         1.4179
  70   0.0000       0.055208         1.5023
  71   0.0000       0.057199         1.5565
  72   0.0000       0.066479         1.8090
  73   0.0000       0.076909         2.0928

MULLIKEN ATOMIC CHARGES
-----------------------
   0 C :    1.100687
   1 C :    0.975935
   2 C :    0.975935
   3 C :    1.140454
   4 C :    1.140454
   5 F :   -0.506705
   6 F :   -0.506705
   7 F :   -0.485407
   8 F :   -0.495603
   9 F :   -0.485407
  10 F :   -0.495603
  11 F :   -0.378142
  12 F :   -0.378142
  13 F :   -0.406002
  14 F :   -0.394874
  15 F :   -0.406002
  16 F :   -0.394874
Sum of atomic charges:   -0.0000000

LOEWDIN ATOMIC CHARGES
----------------------
   0 C :   -1.108255
   1 C :   -1.116961
   2 C :   -1.116961
   3 C :   -1.517078
   4 C :   -1.517078
   5 F :    0.541648
   6 F :    0.541648
   7 F :    0.538864
   8 F :    0.538571
   9 F :    0.538864
  10 F :    0.538571
  11 F :    0.522294
  12 F :    0.522294
  13 F :    0.523192
  14 F :    0.523598
  15 F :    0.523192
  16 F :    0.523598

  Mayer bond orders larger than 0.100000
B(  0-C ,  1-C ) :   0.9981 B(  0-C ,  2-C ) :   0.9981 B(  0-C ,  5-F ) :   0.4513
B(  0-C ,  6-F ) :   0.4513 B(  0-C ,  7-F ) :   0.1932 B(  0-C ,  8-F ) :   0.1568
B(  0-C ,  9-F ) :   0.1932 B(  0-C , 10-F ) :   0.1568 B(  1-C ,  3-C ) :   1.0096
B(  1-C ,  5-F ) :   0.1632 B(  1-C ,  6-F ) :   0.1339 B(  1-C ,  7-F ) :   0.5106
B(  1-C ,  8-F ) :   0.4893 B(  1-C , 13-F ) :   0.1467 B(  2-C ,  4-C ) :   1.0096
B(  2-C ,  5-F ) :   0.1339 B(  2-C ,  6-F ) :   0.1632 B(  2-C ,  9-F ) :   0.5106
B(  2-C , 10-F ) :   0.4893 B(  2-C , 15-F ) :   0.1467 B(  3-C ,  7-F ) :   0.1162
B(  3-C ,  8-F ) :   0.1269 B(  3-C , 11-F ) :   0.8079 B(  3-C , 13-F ) :   0.7938
B(  3-C , 14-F ) :   0.8031 B(  4-C ,  9-F ) :   0.1162 B(  4-C , 10-F ) :   0.1269
B(  4-C , 12-F ) :   0.8079 B(  4-C , 15-F ) :   0.7938 B(  4-C , 16-F ) :   0.8031

MP2 TOTAL ENERGY:    -1387.000899413 Eh
FINAL SINGLE POINT ENERGY     -1387.000899412987

DIPOLE MOMENT
-------------
                                X             Y             Z
Electronic contribution:      0.00000       0.00000       0.13781
Nuclear contribution   :     -0.00000       0.00000      -0.09128
                        -----------------------------------------
Total Dipole Moment    :      0.00000       0.00000       0.04652
                        -----------------------------------------
Magnitude (a.u.)       :      0.04652
Magnitude (Debye)      :      0.11825

Rotational constants in cm-1:     0.032764     0.010301     0.009982
Rotational constants in MHz :   982.236961   308.819943   299.244473

                             ****ORCA TERMINATED NORMALLY****
TOTAL RUN TIME: 0 days 0 hours 12 minutes 56 seconds 343 msec
