                         Program Version 5.0.3 -  RELEASE  -
|  1> !ri-mp2 aug-cc-pvtz aug-cc-pvtz/c tightscf
|  2> %pal nprocs 16 end
|  3>
|  4> * xyz 0 1
|  5> C     -1.181319   -1.083539        0.000000
|  6> C      0.000000    1.010809        0.000000
|  7> C      0.048798   -1.709300        0.000000
|  8> C     -1.198215    0.314134        0.000000
|  9> C      1.176033    0.261682        0.000000
| 10> N      1.220451   -1.060717        0.000000
| 11> O     -2.406742    0.931648        0.000000
| 12> O      2.354509    0.926245        0.000000
| 13> H     -2.104345   -1.642803        0.000000
| 14> H      0.041008    2.091380        0.000000
| 15> H      0.107341   -2.790875        0.000000
| 16> H     -2.290414    1.887774        0.000000
| 17> H      3.049335    0.253679        0.000000
| 18> *
| 19>
| 20>                          ****END OF INPUT****

CARTESIAN COORDINATES (ANGSTROEM)
---------------------------------
  C     -1.181319   -1.083539    0.000000
  C      0.000000    1.010809    0.000000
  C      0.048798   -1.709300    0.000000
  C     -1.198215    0.314134    0.000000
  C      1.176033    0.261682    0.000000
  N      1.220451   -1.060717    0.000000
  O     -2.406742    0.931648    0.000000
  O      2.354509    0.926245    0.000000
  H     -2.104345   -1.642803    0.000000
  H      0.041008    2.091380    0.000000
  H      0.107341   -2.790875    0.000000
  H     -2.290414    1.887774    0.000000
  H      3.049335    0.253679    0.000000

 Total Charge           Charge          ....    0
 Multiplicity           Mult            ....    1
 Number of Electrons    NEL             ....   58
 Basis Dimension        Dim             ....  483

ORBITAL ENERGIES
----------------

  NO   OCC          E(Eh)            E(eV)
   0   2.0000     -20.613175      -560.9130
   1   2.0000     -20.599035      -560.5282
   2   2.0000     -15.557667      -423.3456
   3   2.0000     -11.348088      -308.7972
   4   2.0000     -11.333874      -308.4104
   5   2.0000     -11.286765      -307.1285
   6   2.0000     -11.236098      -305.7498
   7   2.0000     -11.229120      -305.5599
   8   2.0000      -1.431242       -38.9461
   9   2.0000      -1.426850       -38.8266
  10   2.0000      -1.255703       -34.1694
  11   2.0000      -1.085836       -29.5471
  12   2.0000      -1.034205       -28.1422
  13   2.0000      -0.888390       -24.1743
  14   2.0000      -0.859556       -23.3897
  15   2.0000      -0.783936       -21.3320
  16   2.0000      -0.717812       -19.5326
  17   2.0000      -0.692304       -18.8385
  18   2.0000      -0.665295       -18.1036
  19   2.0000      -0.626303       -17.0426
  20   2.0000      -0.626122       -17.0376
  21   2.0000      -0.606010       -16.4904
  22   2.0000      -0.595995       -16.2178
  23   2.0000      -0.571712       -15.5571
  24   2.0000      -0.533785       -14.5250
  25   2.0000      -0.501822       -13.6553
  26   2.0000      -0.436819       -11.8864
  27   2.0000      -0.368999       -10.0410
  28   2.0000      -0.338764        -9.2182
  29   0.0000       0.024706         0.6723
  30   0.0000       0.033128         0.9015
  31   0.0000       0.037254         1.0137
  32   0.0000       0.049776         1.3545
  33   0.0000       0.054026         1.4701

MULLIKEN ATOMIC CHARGES
-----------------------
   0 C :   -0.380192
   1 C :   -0.556174
   2 C :   -0.669339
   3 C :    0.845906
   4 C :    0.401804
   5 N :   -0.396056
   6 O :   -0.669780
   7 O :   -0.566490
   8 H :    0.415486
   9 H :    0.449838
  10 H :    0.703628
  11 H :    0.195335
  12 H :    0.226035
Sum of atomic charges:   -0.0000000

LOEWDIN ATOMIC CHARGES
----------------------
   0 C :    0.207762
   1 C :    0.227687
   2 C :    0.000797
   3 C :   -0.396180
   4 C :   -0.592875
   5 N :    0.384672
   6 O :    0.853860
   7 O :    0.836231
   8 H :   -0.193754
   9 H :   -0.188956
  10 H :   -0.186424
  11 H :   -0.468434
  12 H :   -0.484387

  Mayer bond orders larger than 0.100000
B(  0-C ,  1-C ) :   0.1024 B(  0-C ,  2-C ) :   1.1223 B(  0-C ,  3-C ) :   0.9800
B(  0-C ,  5-N ) :  -0.1386 B(  0-C ,  8-H ) :   0.8473 B(  1-C ,  3-C ) :   1.1462
B(  1-C ,  4-C ) :   0.9977 B(  1-C ,  9-H ) :   0.7852 B(  2-C ,  4-C ) :   0.1627
B(  2-C ,  5-N ) :   1.1671 B(  2-C , 10-H ) :   0.3104 B(  3-C ,  6-O ) :   0.7561
B(  4-C ,  5-N ) :   1.0741 B(  4-C ,  7-O ) :   0.6802 B(  5-N ,  7-O ) :  -0.1577
B(  5-N , 10-H ) :  -0.1199 B(  6-O , 11-H ) :   1.0075 B(  7-O , 12-H ) :   0.9554

MP2 TOTAL ENERGY:     -398.057725729 Eh
FINAL SINGLE POINT ENERGY      -398.057725729111

DIPOLE MOMENT
-------------
                                X             Y             Z
Electronic contribution:      0.87604       0.51286      -0.00000
Nuclear contribution   :     -1.16746      -0.17431       0.00000
                        -----------------------------------------
Total Dipole Moment    :     -0.29141       0.33855      -0.00000
                        -----------------------------------------
Magnitude (a.u.)       :      0.44670
Magnitude (Debye)      :      1.13541

Rotational constants in cm-1:     0.134594     0.061923     0.042411
Rotational constants in MHz :  4035.028417  1856.394633  1271.442406

                             ****ORCA TERMINATED NORMALLY****
TOTAL RUN TIME: 0 days 0 hours 3 minutes 57 seconds 314 msec
