                         Program Version 5.0.3 -  RELEASE  -
|  1> !ri-mp2 aug-cc-pvtz aug-cc-pvtz/c tightscf
|  2> %pal nprocs 16 end
|  3> %maxcore 3800
|  4>
|  5> * xyz 0 1
|  6> C     -2.668057   -0.516202   -0.151817
|  7> C     -2.379219    0.990207    0.083732
|  8> C     -1.340914   -1.229360    0.139892
|  9> C     -0.838544    1.117468    0.194491
| 10> C     -0.268079   -0.224742   -0.304017
| 11> C      3.632805   -0.000756    0.134440
| 12> C      1.143001   -0.554336    0.179922
| 13> C      2.231894    0.390324   -0.333620
| 14> H     -3.488035   -0.885577    0.464020
| 15> H     -2.953947   -0.684716   -1.191912
| 16> H     -2.769755    1.593120   -0.736241
| 17> H     -2.864319    1.350360    0.991058
| 18> H     -1.236812   -1.414843    1.213997
| 19> H     -1.254830   -2.193162   -0.364168
| 20> H     -0.452275    1.972210   -0.360265
| 21> H     -0.546339    1.259696    1.238803
| 22> H     -0.259603   -0.208411   -1.401207
| 23> H      3.700615    0.007006    1.224348
| 24> H      3.895190   -1.005453   -0.203653
| 25> H      4.388824    0.686078   -0.248814
| 26> H      1.393620   -1.576741   -0.122604
| 27> H      1.150697   -0.552656    1.276131
| 28> H      2.014697    1.411417   -0.009971
| 29> H      2.204946    0.406052   -1.427659
| 30> *
| 31>
| 32>                          ****END OF INPUT****

CARTESIAN COORDINATES (ANGSTROEM)
---------------------------------
  C     -2.668057   -0.516202   -0.151817
  C     -2.379219    0.990207    0.083732
  C     -1.340914   -1.229360    0.139892
  C     -0.838544    1.117468    0.194491
  C     -0.268079   -0.224742   -0.304017
  C      3.632805   -0.000756    0.134440
  C      1.143001   -0.554336    0.179922
  C      2.231894    0.390324   -0.333620
  H     -3.488035   -0.885577    0.464020
  H     -2.953947   -0.684716   -1.191912
  H     -2.769755    1.593120   -0.736241
  H     -2.864319    1.350360    0.991058
  H     -1.236812   -1.414843    1.213997
  H     -1.254830   -2.193162   -0.364168
  H     -0.452275    1.972210   -0.360265
  H     -0.546339    1.259696    1.238803
  H     -0.259603   -0.208411   -1.401207
  H      3.700615    0.007006    1.224348
  H      3.895190   -1.005453   -0.203653
  H      4.388824    0.686078   -0.248814
  H      1.393620   -1.576741   -0.122604
  H      1.150697   -0.552656    1.276131
  H      2.014697    1.411417   -0.009971
  H      2.204946    0.406052   -1.427659

 Total Charge           Charge          ....    0
 Multiplicity           Mult            ....    1
 Number of Electrons    NEL             ....   64
 Basis Dimension        Dim             ....  736

ORBITAL ENERGIES
----------------

  NO   OCC          E(Eh)            E(eV)
   0   2.0000     -11.215280      -305.1833
   1   2.0000     -11.213683      -305.1398
   2   2.0000     -11.211122      -305.0701
   3   2.0000     -11.210914      -305.0645
   4   2.0000     -11.210464      -305.0522
   5   2.0000     -11.209290      -305.0203
   6   2.0000     -11.208820      -305.0075
   7   2.0000     -11.208151      -304.9893
   8   2.0000      -1.122036       -30.5321
   9   2.0000      -1.054461       -28.6933
  10   2.0000      -0.976999       -26.5855
  11   2.0000      -0.955870       -26.0105
  12   2.0000      -0.890646       -24.2357
  13   2.0000      -0.804044       -21.8791
  14   2.0000      -0.770407       -20.9638
  15   2.0000      -0.753586       -20.5061
  16   2.0000      -0.652481       -17.7549
  17   2.0000      -0.629701       -17.1350
  18   2.0000      -0.622216       -16.9314
  19   2.0000      -0.580561       -15.7979
  20   2.0000      -0.568787       -15.4775
  21   2.0000      -0.553133       -15.0515
  22   2.0000      -0.529543       -14.4096
  23   2.0000      -0.520869       -14.1736
  24   2.0000      -0.485921       -13.2226
  25   2.0000      -0.471885       -12.8407
  26   2.0000      -0.469018       -12.7626
  27   2.0000      -0.461975       -12.5710
  28   2.0000      -0.451268       -12.2796
  29   2.0000      -0.445303       -12.1173
  30   2.0000      -0.440854       -11.9962
  31   2.0000      -0.430844       -11.7239
  32   0.0000       0.030882         0.8403
  33   0.0000       0.033171         0.9026
  34   0.0000       0.035239         0.9589
  35   0.0000       0.036636         0.9969
  36   0.0000       0.047987         1.3058

MULLIKEN ATOMIC CHARGES
-----------------------
   0 C :   -0.540492
   1 C :   -0.692690
   2 C :   -0.957409
   3 C :   -0.684999
   4 C :    0.549179
   5 C :   -1.012450
   6 C :   -0.308639
   7 C :   -0.536399
   8 H :    0.370864
   9 H :    0.131583
  10 H :    0.243714
  11 H :    0.240994
  12 H :    0.109513
  13 H :    0.329623
  14 H :    0.333130
  15 H :    0.170701
  16 H :    0.451148
  17 H :    0.262127
  18 H :    0.251479
  19 H :    0.281842
  20 H :    0.347147
  21 H :    0.202539
  22 H :    0.252812
  23 H :    0.204683
Sum of atomic charges:   -0.0000000

LOEWDIN ATOMIC CHARGES
----------------------
   0 C :    0.314143
   1 C :    0.328591
   2 C :    0.302694
   3 C :    0.315549
   4 C :   -0.014409
   5 C :    0.580660
   6 C :    0.285647
   7 C :    0.261814
   8 H :   -0.149501
   9 H :   -0.150588
  10 H :   -0.153489
  11 H :   -0.153517
  12 H :   -0.136511
  13 H :   -0.135879
  14 H :   -0.144097
  15 H :   -0.142466
  16 H :   -0.119778
  17 H :   -0.170454
  18 H :   -0.171691
  19 H :   -0.173757
  20 H :   -0.137212
  21 H :   -0.139678
  22 H :   -0.152061
  23 H :   -0.144011

  Mayer bond orders larger than 0.100000
B(  0-C ,  1-C ) :   0.9626 B(  0-C ,  2-C ) :   1.1080 B(  0-C ,  4-C ) :  -0.1760
B(  0-C ,  8-H ) :   0.8555 B(  0-C ,  9-H ) :   1.0928 B(  1-C ,  2-C ) :   0.1354
B(  1-C ,  3-C ) :   1.0508 B(  1-C , 10-H ) :   0.9889 B(  1-C , 11-H ) :   0.9919
B(  2-C ,  3-C ) :   0.2716 B(  2-C ,  4-C ) :   0.7184 B(  2-C , 12-H ) :   1.1248
B(  2-C , 13-H ) :   0.9120 B(  2-C , 16-H ) :  -0.1182 B(  3-C ,  4-C ) :   0.7166
B(  3-C , 14-H ) :   0.8764 B(  3-C , 15-H ) :   1.0707 B(  4-C ,  6-C ) :   0.7354
B(  4-C , 16-H ) :   0.8640 B(  5-C ,  7-C ) :   0.9162 B(  5-C , 17-H ) :   0.9708
B(  5-C , 18-H ) :   0.9872 B(  5-C , 19-H ) :   0.9890 B(  6-C ,  7-C ) :   0.9064
B(  6-C , 20-H ) :   0.8702 B(  6-C , 21-H ) :   1.0405 B(  6-C , 23-H ) :   0.1007
B(  7-C , 22-H ) :   0.9520 B(  7-C , 23-H ) :   1.0006

MP2 TOTAL ENERGY:     -313.789122203 Eh
FINAL SINGLE POINT ENERGY      -313.789122202616

DIPOLE MOMENT
-------------
                                X             Y             Z
Electronic contribution:     -3.14097      -0.16488      -0.40134
Nuclear contribution   :      3.13053       0.17607       0.36618
                        -----------------------------------------
Total Dipole Moment    :     -0.01044       0.01120      -0.03517
                        -----------------------------------------
Magnitude (a.u.)       :      0.03835
Magnitude (Debye)      :      0.09749

Rotational constants in cm-1:     0.174300     0.031345     0.028155
Rotational constants in MHz :  5225.368671   939.698244   844.057146

                             ****ORCA TERMINATED NORMALLY****
TOTAL RUN TIME: 0 days 0 hours 13 minutes 35 seconds 288 msec
