                         Program Version 5.0.3 -  RELEASE  -
|  1> !ri-mp2 aug-cc-pvtz aug-cc-pvtz/c tightscf
|  2> %pal nprocs 16 end
|  3>
|  4> * xyz 0 1
|  5> C      0.000000    0.000000    1.114207
|  6> C      0.000000    1.205172    0.423331
|  7> C      0.000000    1.190132   -0.964430
|  8> C      0.000000    0.000000   -1.669598
|  9> C      0.000000   -1.190132   -0.964430
| 10> C      0.000000   -1.205172    0.423331
| 11> F      0.000000    0.000000    2.445370
| 12> F      0.000000    2.356848    1.095325
| 13> F      0.000000    2.356407   -1.619428
| 14> H      0.000000    0.000000   -2.748927
| 15> F      0.000000   -2.356407   -1.619428
| 16> F      0.000000   -2.356848    1.095325
| 17> *
| 18>
| 19>                          ****END OF INPUT****

CARTESIAN COORDINATES (ANGSTROEM)
---------------------------------
  C      0.000000    0.000000    1.114207
  C      0.000000    1.205172    0.423331
  C      0.000000    1.190132   -0.964430
  C      0.000000    0.000000   -1.669598
  C      0.000000   -1.190132   -0.964430
  C      0.000000   -1.205172    0.423331
  F      0.000000    0.000000    2.445370
  F      0.000000    2.356848    1.095325
  F      0.000000    2.356407   -1.619428
  H      0.000000    0.000000   -2.748927
  F      0.000000   -2.356407   -1.619428
  F      0.000000   -2.356848    1.095325

 Total Charge           Charge          ....    0
 Multiplicity           Mult            ....    1
 Number of Electrons    NEL             ....   82
 Basis Dimension        Dim             ....  529

ORBITAL ENERGIES
----------------

  NO   OCC          E(Eh)            E(eV)
   0   2.0000     -26.356978      -717.2098
   1   2.0000     -26.351584      -717.0630
   2   2.0000     -26.351584      -717.0630
   3   2.0000     -26.350646      -717.0375
   4   2.0000     -26.350646      -717.0375
   5   2.0000     -11.384774      -309.7954
   6   2.0000     -11.379121      -309.6416
   7   2.0000     -11.379116      -309.6415
   8   2.0000     -11.374147      -309.5063
   9   2.0000     -11.374069      -309.5041
  10   2.0000     -11.290064      -307.2183
  11   2.0000      -1.684368       -45.8340
  12   2.0000      -1.675853       -45.6023
  13   2.0000      -1.671026       -45.4709
  14   2.0000      -1.662095       -45.2279
  15   2.0000      -1.659092       -45.1462
  16   2.0000      -1.221449       -33.2373
  17   2.0000      -1.083253       -29.4768
  18   2.0000      -1.074613       -29.2417
  19   2.0000      -0.931509       -25.3477
  20   2.0000      -0.919999       -25.0344
  21   2.0000      -0.834439       -22.7062
  22   2.0000      -0.825288       -22.4572
  23   2.0000      -0.809837       -22.0368
  24   2.0000      -0.766631       -20.8611
  25   2.0000      -0.765002       -20.8167
  26   2.0000      -0.764675       -20.8079
  27   2.0000      -0.746732       -20.3196
  28   2.0000      -0.742388       -20.2014
  29   2.0000      -0.733311       -19.9544
  30   2.0000      -0.718334       -19.5469
  31   2.0000      -0.714803       -19.4508
  32   2.0000      -0.698152       -18.9977
  33   2.0000      -0.695638       -18.9293
  34   2.0000      -0.693424       -18.8690
  35   2.0000      -0.638281       -17.3685
  36   2.0000      -0.602379       -16.3916
  37   2.0000      -0.600170       -16.3315
  38   2.0000      -0.540228       -14.7004
  39   2.0000      -0.388809       -10.5800
  40   2.0000      -0.377438       -10.2706
  41   0.0000       0.025984         0.7071
  42   0.0000       0.051730         1.4076
  43   0.0000       0.056826         1.5463
  44   0.0000       0.072837         1.9820
  45   0.0000       0.073413         1.9977

MULLIKEN ATOMIC CHARGES
-----------------------
   0 C :    0.520805
   1 C :    0.397524
   2 C :    0.658725
   3 C :   -0.952339
   4 C :    0.658722
   5 C :    0.397516
   6 F :   -0.429847
   7 F :   -0.431839
   8 F :   -0.444763
   9 H :    0.502099
  10 F :   -0.444762
  11 F :   -0.431840
Sum of atomic charges:   -0.0000000

LOEWDIN ATOMIC CHARGES
----------------------
   0 C :   -0.532069
   1 C :   -0.526967
   2 C :   -0.531339
   3 C :    0.190108
   4 C :   -0.531339
   5 C :   -0.526967
   6 F :    0.535253
   7 F :    0.526257
   8 F :    0.522766
   9 H :   -0.174724
  10 F :    0.522766
  11 F :    0.526257

  Mayer bond orders larger than 0.100000
B(  0-C ,  1-C ) :   1.2079 B(  0-C ,  2-C ) :  -0.1214 B(  0-C ,  4-C ) :  -0.1214
B(  0-C ,  5-C ) :   1.2079 B(  0-C ,  6-F ) :   0.4838 B(  0-C ,  7-F ) :   0.1252
B(  0-C , 11-F ) :   0.1252 B(  1-C ,  2-C ) :   1.2307 B(  1-C ,  6-F ) :   0.1208
B(  1-C ,  7-F ) :   0.3542 B(  2-C ,  3-C ) :   1.2180 B(  2-C ,  4-C ) :  -0.1552
B(  2-C ,  7-F ) :   0.1125 B(  2-C ,  8-F ) :   0.4379 B(  3-C ,  4-C ) :   1.2180
B(  3-C ,  8-F ) :   0.1545 B(  3-C ,  9-H ) :   0.5339 B(  3-C , 10-F ) :   0.1546
B(  4-C ,  5-C ) :   1.2307 B(  4-C , 10-F ) :   0.4379 B(  4-C , 11-F ) :   0.1125
B(  5-C ,  6-F ) :   0.1208 B(  5-C , 11-F ) :   0.3542 B(  6-F ,  7-F ) :   0.1216
B(  6-F , 11-F ) :   0.1216

MP2 TOTAL ENERGY:     -727.398271409 Eh
FINAL SINGLE POINT ENERGY      -727.398271408855

DIPOLE MOMENT
-------------
                                X             Y             Z
Electronic contribution:     -0.00000       0.00000       3.13031
Nuclear contribution   :      0.00000      -0.00000      -3.78330
                        -----------------------------------------
Total Dipole Moment    :     -0.00000       0.00000      -0.65299
                        -----------------------------------------
Magnitude (a.u.)       :      0.65299
Magnitude (Debye)      :      1.65976

Rotational constants in cm-1:     0.049379     0.034337     0.020253
Rotational constants in MHz :  1480.340020  1029.387036   607.174721

                             ****ORCA TERMINATED NORMALLY****
TOTAL RUN TIME: 0 days 0 hours 5 minutes 35 seconds 454 msec
