                         Program Version 5.0.3 -  RELEASE  -
|  1> !ri-mp2 aug-cc-pvtz aug-cc-pvtz/c tightscf
|  2> %pal nprocs 16 end
|  3>
|  4> * xyz 0 1
|  5> N     -1.521190   -0.514806   -0.120022
|  6> C     -0.579874    0.602125    0.038950
|  7> C      0.805281    0.144140   -0.003594
|  8> C      1.943561   -0.232193   -0.014649
|  9> H     -1.375309   -1.207070    0.604410
| 10> H     -2.473718   -0.181419   -0.036708
| 11> H     -0.745639    1.300834   -0.784742
| 12> H     -0.721665    1.172303    0.967186
| 13> H      2.950856   -0.565445   -0.034238
| 14> *
| 15>
| 16>                          ****END OF INPUT****

CARTESIAN COORDINATES (ANGSTROEM)
---------------------------------
  N     -1.521190   -0.514806   -0.120022
  C     -0.579874    0.602125    0.038950
  C      0.805281    0.144140   -0.003594
  C      1.943561   -0.232193   -0.014649
  H     -1.375309   -1.207070    0.604410
  H     -2.473718   -0.181419   -0.036708
  H     -0.745639    1.300834   -0.784742
  H     -0.721665    1.172303    0.967186
  H      2.950856   -0.565445   -0.034238

 Total Charge           Charge          ....    0
 Multiplicity           Mult            ....    1
 Number of Electrons    NEL             ....   30
 Basis Dimension        Dim             ....  299

ORBITAL ENERGIES
----------------

  NO   OCC          E(Eh)            E(eV)
   0   2.0000     -15.553482      -423.2317
   1   2.0000     -11.283484      -307.0392
   2   2.0000     -11.233341      -305.6747
   3   2.0000     -11.222648      -305.3838
   4   2.0000      -1.193263       -32.4703
   5   2.0000      -1.036791       -28.2125
   6   2.0000      -0.927580       -25.2407
   7   2.0000      -0.726518       -19.7696
   8   2.0000      -0.682811       -18.5802
   9   2.0000      -0.637143       -17.3375
  10   2.0000      -0.604141       -16.4395
  11   2.0000      -0.566782       -15.4229
  12   2.0000      -0.415782       -11.3140
  13   2.0000      -0.394289       -10.7292
  14   2.0000      -0.382212       -10.4005
  15   0.0000       0.027465         0.7474
  16   0.0000       0.034083         0.9274
  17   0.0000       0.043301         1.1783
  18   0.0000       0.045951         1.2504
  19   0.0000       0.058105         1.5811

MULLIKEN ATOMIC CHARGES
-----------------------
   0 N :   -0.534945
   1 C :   -0.097636
   2 C :    0.846646
   3 C :   -1.629432
   4 H :    0.134666
   5 H :    0.099333
   6 H :    0.328494
   7 H :    0.300952
   8 H :    0.551921
Sum of atomic charges:   -0.0000000

LOEWDIN ATOMIC CHARGES
----------------------
   0 N :    0.827515
   1 C :    0.070729
   2 C :    0.013342
   3 C :    0.389800
   4 H :   -0.332211
   5 H :   -0.329220
   6 H :   -0.170348
   7 H :   -0.164868
   8 H :   -0.304740

  Mayer bond orders larger than 0.100000
B(  0-N ,  1-C ) :   0.8175 B(  0-N ,  4-H ) :   0.9766 B(  0-N ,  5-H ) :   1.0312
B(  1-C ,  2-C ) :   0.9963 B(  1-C ,  6-H ) :   0.8957 B(  1-C ,  7-H ) :   0.9222
B(  2-C ,  3-C ) :   0.7788 B(  3-C ,  8-H ) :   0.7373

MP2 TOTAL ENERGY:     -171.652106408 Eh
FINAL SINGLE POINT ENERGY      -171.652106408180

DIPOLE MOMENT
-------------
                                X             Y             Z
Electronic contribution:      2.10394      -0.26347      -0.25201
Nuclear contribution   :     -2.42881       0.52801       0.73159
                        -----------------------------------------
Total Dipole Moment    :     -0.32488       0.26455       0.47958
                        -----------------------------------------
Magnitude (a.u.)       :      0.63681
Magnitude (Debye)      :      1.61865

Rotational constants in cm-1:     1.054091     0.153827     0.138909
Rotational constants in MHz : 31600.842316  4611.614958  4164.372862

                             ****ORCA TERMINATED NORMALLY****
TOTAL RUN TIME: 0 days 0 hours 0 minutes 54 seconds 80 msec
