                         Program Version 5.0.3 -  RELEASE  -
|  1> !ri-mp2 aug-cc-pvtz aug-cc-pvtz/c tightscf
|  2> %pal nprocs 16 end
|  3>
|  4> * xyz 0 1
|  5> C      0.669588    1.190338   -0.009937
|  6> C      0.669666   -1.190178   -0.009924
|  7> C     -0.718186    1.198300    0.003054
|  8> C     -0.717909   -1.198256    0.003081
|  9> C      1.396835    0.000223   -0.013482
| 10> C     -1.437175    0.000049    0.010600
| 11> C      2.903547   -0.000073    0.006732
| 12> N     -2.833422   -0.000219    0.080437
| 13> H      1.197270    2.136416   -0.020466
| 14> H      1.197417   -2.136238   -0.020449
| 15> H     -1.250749    2.141644    0.007895
| 16> H     -1.250429   -2.141628    0.007947
| 17> H      3.308495   -0.870548   -0.510365
| 18> H      3.307829    0.891793   -0.472804
| 19> H      3.289746   -0.021962    1.029503
| 20> H     -3.281770   -0.834223   -0.262806
| 21> H     -3.282044    0.833864   -0.262259
| 22> *
| 23>
| 24>                          ****END OF INPUT****

CARTESIAN COORDINATES (ANGSTROEM)
---------------------------------
  C      0.669588    1.190338   -0.009937
  C      0.669666   -1.190178   -0.009924
  C     -0.718186    1.198300    0.003054
  C     -0.717909   -1.198256    0.003081
  C      1.396835    0.000223   -0.013482
  C     -1.437175    0.000049    0.010600
  C      2.903547   -0.000073    0.006732
  N     -2.833422   -0.000219    0.080437
  H      1.197270    2.136416   -0.020466
  H      1.197417   -2.136238   -0.020449
  H     -1.250749    2.141644    0.007895
  H     -1.250429   -2.141628    0.007947
  H      3.308495   -0.870548   -0.510365
  H      3.307829    0.891793   -0.472804
  H      3.289746   -0.021962    1.029503
  H     -3.281770   -0.834223   -0.262806
  H     -3.282044    0.833864   -0.262259

 Total Charge           Charge          ....    0
 Multiplicity           Mult            ....    1
 Number of Electrons    NEL             ....   58
 Basis Dimension        Dim             ....  575

ORBITAL ENERGIES
----------------

  NO   OCC          E(Eh)            E(eV)
   0   2.0000     -15.561474      -423.4492
   1   2.0000     -11.271767      -306.7204
   2   2.0000     -11.227709      -305.5215
   3   2.0000     -11.227531      -305.5167
   4   2.0000     -11.223605      -305.4098
   5   2.0000     -11.220428      -305.3234
   6   2.0000     -11.220334      -305.3208
   7   2.0000     -11.216437      -305.2148
   8   2.0000      -1.220725       -33.2176
   9   2.0000      -1.131452       -30.7884
  10   2.0000      -1.020443       -27.7677
  11   2.0000      -1.008951       -27.4549
  12   2.0000      -0.916228       -24.9318
  13   2.0000      -0.831670       -22.6309
  14   2.0000      -0.791657       -21.5421
  15   2.0000      -0.695959       -18.9380
  16   2.0000      -0.687510       -18.7081
  17   2.0000      -0.634488       -17.2653
  18   2.0000      -0.604400       -16.4466
  19   2.0000      -0.587144       -15.9770
  20   2.0000      -0.577756       -15.7215
  21   2.0000      -0.568687       -15.4748
  22   2.0000      -0.530719       -14.4416
  23   2.0000      -0.525110       -14.2890
  24   2.0000      -0.495206       -13.4752
  25   2.0000      -0.479580       -13.0500
  26   2.0000      -0.437019       -11.8919
  27   2.0000      -0.334271        -9.0960
  28   2.0000      -0.285105        -7.7581
  29   0.0000       0.026705         0.7267
  30   0.0000       0.033448         0.9102
  31   0.0000       0.034197         0.9306
  32   0.0000       0.045770         1.2455
  33   0.0000       0.046940         1.2773

MULLIKEN ATOMIC CHARGES
-----------------------
   0 C :   -0.799513
   1 C :   -0.806070
   2 C :   -0.808758
   3 C :   -0.816007
   4 C :    1.300034
   5 C :    1.329736
   6 C :   -0.904150
   7 N :   -0.799429
   8 H :    0.183900
   9 H :    0.191870
  10 H :    0.486396
  11 H :    0.483514
  12 H :    0.269582
  13 H :    0.268086
  14 H :    0.302856
  15 H :    0.059204
  16 H :    0.058748
Sum of atomic charges:    0.0000000

LOEWDIN ATOMIC CHARGES
----------------------
   0 C :    0.203368
   1 C :    0.203390
   2 C :    0.217896
   3 C :    0.217886
   4 C :   -0.130389
   5 C :   -0.249684
   6 C :    0.567844
   7 N :    0.846304
   8 H :   -0.177611
   9 H :   -0.177184
  10 H :   -0.184643
  11 H :   -0.184622
  12 H :   -0.178136
  13 H :   -0.178808
  14 H :   -0.167068
  15 H :   -0.314281
  16 H :   -0.314264

  Mayer bond orders larger than 0.100000
B(  0-C ,  2-C ) :   1.2435 B(  0-C ,  4-C ) :   0.6081 B(  0-C ,  5-C ) :  -0.1958
B(  0-C ,  6-C ) :   0.1060 B(  0-C ,  8-H ) :   1.2493 B(  1-C ,  3-C ) :   1.2472
B(  1-C ,  4-C ) :   0.6062 B(  1-C ,  5-C ) :  -0.1969 B(  1-C ,  6-C ) :   0.1201
B(  1-C ,  9-H ) :   1.2343 B(  2-C ,  3-C ) :   0.3011 B(  2-C ,  4-C ) :   0.1181
B(  2-C ,  5-C ) :   0.9384 B(  2-C , 10-H ) :   0.6250 B(  3-C ,  4-C ) :   0.1153
B(  3-C ,  5-C ) :   0.9418 B(  3-C , 11-H ) :   0.6305 B(  4-C ,  5-C ) :   0.1832
B(  4-C ,  6-C ) :   0.4345 B(  4-C ,  8-H ) :  -0.1230 B(  4-C ,  9-H ) :  -0.1231
B(  5-C ,  7-N ) :   0.3986 B(  6-C , 12-H ) :   1.0020 B(  6-C , 13-H ) :   1.0015
B(  6-C , 14-H ) :   0.9478 B(  7-N , 15-H ) :   1.1209 B(  7-N , 16-H ) :   1.1211

MP2 TOTAL ENERGY:     -326.244565766 Eh
FINAL SINGLE POINT ENERGY      -326.244565766064

DIPOLE MOMENT
-------------
                                X             Y             Z
Electronic contribution:     -3.54923      -0.00021       0.13688
Nuclear contribution   :      3.27237      -0.00090      -0.51166
                        -----------------------------------------
Total Dipole Moment    :     -0.27685      -0.00111      -0.37478
                        -----------------------------------------
Magnitude (a.u.)       :      0.46595
Magnitude (Debye)      :      1.18434

Rotational constants in cm-1:     0.183789     0.048506     0.038691
Rotational constants in MHz :  5509.860351  1454.172697  1159.936061

                             ****ORCA TERMINATED NORMALLY****
TOTAL RUN TIME: 0 days 0 hours 6 minutes 48 seconds 662 msec
