                         Program Version 5.0.3 -  RELEASE  -
|  1> !ri-mp2 aug-cc-pvtz aug-cc-pvtz/c tightscf
|  2> %pal nprocs 16 end
|  3>
|  4> * xyz 0 1
|  5> O     -1.069401   -1.177081   -0.114653
|  6> O     -1.069399    1.177108   -0.114381
|  7> C     -0.471048   -0.000047    0.382369
|  8> C      0.979054   -0.000017    0.143241
|  9> C      2.155246    0.000008   -0.089537
| 10> H     -0.691133   -1.390931   -0.974818
| 11> H     -0.691105    1.391185   -0.974478
| 12> H     -0.685912   -0.000169    1.449763
| 13> H      3.199039    0.000030   -0.284622
| 14> *
| 15>
| 16>                          ****END OF INPUT****

CARTESIAN COORDINATES (ANGSTROEM)
---------------------------------
  O     -1.069401   -1.177081   -0.114653
  O     -1.069399    1.177108   -0.114381
  C     -0.471048   -0.000047    0.382369
  C      0.979054   -0.000017    0.143241
  C      2.155246    0.000008   -0.089537
  H     -0.691133   -1.390931   -0.974818
  H     -0.691105    1.391185   -0.974478
  H     -0.685912   -0.000169    1.449763
  H      3.199039    0.000030   -0.284622

 Total Charge           Charge          ....    0
 Multiplicity           Mult            ....    1
 Number of Electrons    NEL             ....   38
 Basis Dimension        Dim             ....  322

ORBITAL ENERGIES
----------------

  NO   OCC          E(Eh)            E(eV)
   0   2.0000     -20.581099      -560.0402
   1   2.0000     -20.581080      -560.0397
   2   2.0000     -11.374794      -309.5239
   3   2.0000     -11.254537      -306.2515
   4   2.0000     -11.250604      -306.1445
   5   2.0000      -1.424545       -38.7638
   6   2.0000      -1.351345       -36.7720
   7   2.0000      -1.061895       -28.8956
   8   2.0000      -0.944528       -25.7019
   9   2.0000      -0.788682       -21.4611
  10   2.0000      -0.722004       -19.6467
  11   2.0000      -0.717653       -19.5283
  12   2.0000      -0.674269       -18.3478
  13   2.0000      -0.593285       -16.1441
  14   2.0000      -0.543870       -14.7995
  15   2.0000      -0.513705       -13.9786
  16   2.0000      -0.494532       -13.4569
  17   2.0000      -0.419275       -11.4090
  18   2.0000      -0.418616       -11.3911
  19   0.0000       0.023991         0.6528
  20   0.0000       0.034888         0.9494
  21   0.0000       0.043102         1.1729
  22   0.0000       0.048267         1.3134
  23   0.0000       0.080271         2.1843

MULLIKEN ATOMIC CHARGES
-----------------------
   0 O :   -0.545369
   1 O :   -0.545369
   2 C :    0.593146
   3 C :    0.745271
   4 C :   -1.604632
   5 H :    0.193333
   6 H :    0.193335
   7 H :    0.429588
   8 H :    0.540697
Sum of atomic charges:    0.0000000

LOEWDIN ATOMIC CHARGES
----------------------
   0 O :    0.812636
   1 O :    0.812635
   2 C :   -0.581083
   3 C :    0.020092
   4 C :    0.403280
   5 H :   -0.496471
   6 H :   -0.496474
   7 H :   -0.181319
   8 H :   -0.293295

  Mayer bond orders larger than 0.100000
B(  0-O ,  2-C ) :   0.8369 B(  0-O ,  5-H ) :   0.9698 B(  1-O ,  2-C ) :   0.8369
B(  1-O ,  6-H ) :   0.9698 B(  2-C ,  3-C ) :   0.9523 B(  2-C ,  7-H ) :   0.8527
B(  3-C ,  4-C ) :   0.7940 B(  4-C ,  8-H ) :   0.8243

MP2 TOTAL ENERGY:     -266.649204619 Eh
FINAL SINGLE POINT ENERGY      -266.649204619410

DIPOLE MOMENT
-------------
                                X             Y             Z
Electronic contribution:     -0.13018      -0.00003       0.14405
Nuclear contribution   :      1.08657       0.00011      -0.78016
                        -----------------------------------------
Total Dipole Moment    :      0.95640       0.00008      -0.63611
                        -----------------------------------------
Magnitude (a.u.)       :      1.14862
Magnitude (Debye)      :      2.91955

Rotational constants in cm-1:     0.307294     0.134942     0.101223
Rotational constants in MHz :  9212.453849  4045.449334  3034.601794

                             ****ORCA TERMINATED NORMALLY****
TOTAL RUN TIME: 0 days 0 hours 1 minutes 3 seconds 979 msec
