                         Program Version 5.0.3 -  RELEASE  -
|  1> !ri-mp2 aug-cc-pvtz aug-cc-pvtz/c tightscf
|  2> %pal nprocs 16 end
|  3>
|  4> * xyz 0 1
|  5> C      0.000000    1.096648        0.000000
|  6> C      1.231022    0.361916        0.000000
|  7> C     -1.183818    0.424873        0.000000
|  8> O      1.286331   -0.874778        0.000000
|  9> O     -1.283038   -0.888616        0.000000
| 10> H     -0.346283   -1.239665        0.000000
| 11> H      0.009428    2.175177        0.000000
| 12> H      2.168876    0.938076        0.000000
| 13> H     -2.141591    0.932940        0.000000
| 14> *
| 15>
| 16>                          ****END OF INPUT****

CARTESIAN COORDINATES (ANGSTROEM)
---------------------------------
  C      0.000000    1.096648    0.000000
  C      1.231022    0.361916    0.000000
  C     -1.183818    0.424873    0.000000
  O      1.286331   -0.874778    0.000000
  O     -1.283038   -0.888616    0.000000
  H     -0.346283   -1.239665    0.000000
  H      0.009428    2.175177    0.000000
  H      2.168876    0.938076    0.000000
  H     -2.141591    0.932940    0.000000

 Total Charge           Charge          ....    0
 Multiplicity           Mult            ....    1
 Number of Electrons    NEL             ....   38
 Basis Dimension        Dim             ....  322

ORBITAL ENERGIES
----------------

  NO   OCC          E(Eh)            E(eV)
   0   2.0000     -20.606114      -560.7209
   1   2.0000     -20.559489      -559.4521
   2   2.0000     -11.347989      -308.7945
   3   2.0000     -11.345121      -308.7164
   4   2.0000     -11.231862      -305.6345
   5   2.0000      -1.440051       -39.1858
   6   2.0000      -1.386621       -37.7319
   7   2.0000      -1.069564       -29.1043
   8   2.0000      -0.904809       -24.6211
   9   2.0000      -0.827096       -22.5064
  10   2.0000      -0.721383       -19.6298
  11   2.0000      -0.675975       -18.3942
  12   2.0000      -0.648143       -17.6369
  13   2.0000      -0.619767       -16.8647
  14   2.0000      -0.606362       -16.5000
  15   2.0000      -0.561625       -15.2826
  16   2.0000      -0.539970       -14.6933
  17   2.0000      -0.437548       -11.9063
  18   2.0000      -0.366965        -9.9856
  19   0.0000       0.024672         0.6714
  20   0.0000       0.033572         0.9135
  21   0.0000       0.045309         1.2329
  22   0.0000       0.056350         1.5333
  23   0.0000       0.063036         1.7153

MULLIKEN ATOMIC CHARGES
-----------------------
   0 C :   -0.229467
   1 C :   -0.162327
   2 C :   -0.239311
   3 O :   -0.726418
   4 O :   -0.585767
   5 H :    0.303695
   6 H :    0.315081
   7 H :    0.629282
   8 H :    0.695232
Sum of atomic charges:    0.0000000

LOEWDIN ATOMIC CHARGES
----------------------
   0 C :    0.177646
   1 C :   -0.213489
   2 C :   -0.035969
   3 O :    0.504342
   4 O :    0.841774
   5 H :   -0.689224
   6 H :   -0.233000
   7 H :   -0.180579
   8 H :   -0.171500

  Mayer bond orders larger than 0.100000
B(  0-C ,  1-C ) :   0.9109 B(  0-C ,  2-C ) :   1.3054 B(  0-C ,  4-O ) :  -0.1223
B(  0-C ,  6-H ) :   0.9569 B(  1-C ,  2-C ) :   0.1347 B(  1-C ,  3-O ) :   1.6301
B(  1-C ,  7-H ) :   0.5385 B(  2-C ,  4-O ) :   1.1566 B(  2-C ,  8-H ) :   0.4464
B(  3-O ,  5-H ) :   0.1204 B(  3-O ,  7-H ) :  -0.1301 B(  4-O ,  5-H ) :   0.7937
B(  4-O ,  8-H ) :  -0.1231

MP2 TOTAL ENERGY:     -266.703727722 Eh
FINAL SINGLE POINT ENERGY      -266.703727721887

DIPOLE MOMENT
-------------
                                X             Y             Z
Electronic contribution:      0.06734      -1.54088       0.00000
Nuclear contribution   :     -0.30653       2.75188       0.00000
                        -----------------------------------------
Total Dipole Moment    :     -0.23919       1.21100       0.00000
                        -----------------------------------------
Magnitude (a.u.)       :      1.23440
Magnitude (Debye)      :      3.13759

Rotational constants in cm-1:     0.330286     0.173203     0.113620
Rotational constants in MHz :  9901.725413  5192.503665  3406.251835

                             ****ORCA TERMINATED NORMALLY****
TOTAL RUN TIME: 0 days 0 hours 1 minutes 18 seconds 81 msec
