                         Program Version 5.0.3 -  RELEASE  -
|  1> !ri-mp2 aug-cc-pvtz aug-cc-pvtz/c tightscf
|  2> %pal nprocs 16 end
|  3> %maxcore 3800
|  4>
|  5> * xyz 0 1
|  6> C     -0.588673    0.514586   -0.092762
|  7> C      0.588673   -0.514586   -0.092763
|  8> C     -2.009338   -0.118245    0.074227
|  9> C      2.009338    0.118245    0.074228
| 10> F     -0.415550    1.394344    0.915469
| 11> F     -0.572838    1.184057   -1.260942
| 12> F      0.415550   -1.394345    0.915467
| 13> F      0.572838   -1.184055   -1.260944
| 14> F     -2.925528    0.830845   -0.129852
| 15> F      2.925528   -0.830845   -0.129853
| 16> F     -2.197432   -1.096346   -0.814973
| 17> F     -2.171696   -0.609091    1.302656
| 18> F      2.197432    1.096347   -0.814971
| 19> F      2.171696    0.609089    1.302657
| 20> *
| 21>
| 22>                          ****END OF INPUT****

CARTESIAN COORDINATES (ANGSTROEM)
---------------------------------
  C     -0.588673    0.514586   -0.092762
  C      0.588673   -0.514586   -0.092763
  C     -2.009338   -0.118245    0.074227
  C      2.009338    0.118245    0.074228
  F     -0.415550    1.394344    0.915469
  F     -0.572838    1.184057   -1.260942
  F      0.415550   -1.394345    0.915467
  F      0.572838   -1.184055   -1.260944
  F     -2.925528    0.830845   -0.129852
  F      2.925528   -0.830845   -0.129853
  F     -2.197432   -1.096346   -0.814973
  F     -2.171696   -0.609091    1.302656
  F      2.197432    1.096347   -0.814971
  F      2.171696    0.609089    1.302657

 Total Charge           Charge          ....    0
 Multiplicity           Mult            ....    1
 Number of Electrons    NEL             ....  114
 Basis Dimension        Dim             ....  644

ORBITAL ENERGIES
----------------

  NO   OCC          E(Eh)            E(eV)
   0   2.0000     -26.381518      -717.8776
   1   2.0000     -26.381518      -717.8776
   2   2.0000     -26.381512      -717.8774
   3   2.0000     -26.381512      -717.8774
   4   2.0000     -26.380035      -717.8372
   5   2.0000     -26.380035      -717.8372
   6   2.0000     -26.379451      -717.8214
   7   2.0000     -26.379448      -717.8213
   8   2.0000     -26.378654      -717.7997
   9   2.0000     -26.378654      -717.7997
  10   2.0000     -11.561259      -314.5978
  11   2.0000     -11.561257      -314.5978
  12   2.0000     -11.505029      -313.0677
  13   2.0000     -11.504484      -313.0529
  14   2.0000      -1.778142       -48.3857
  15   2.0000      -1.773878       -48.2697
  16   2.0000      -1.739601       -47.3369
  17   2.0000      -1.727841       -47.0169
  18   2.0000      -1.684656       -45.8418
  19   2.0000      -1.678910       -45.6855
  20   2.0000      -1.676456       -45.6187
  21   2.0000      -1.675582       -45.5949
  22   2.0000      -1.670789       -45.4645
  23   2.0000      -1.667256       -45.3683
  24   2.0000      -1.141932       -31.0735
  25   2.0000      -1.079494       -29.3745
  26   2.0000      -0.995900       -27.0998
  27   2.0000      -0.952120       -25.9085
  28   2.0000      -0.897470       -24.4214
  29   2.0000      -0.896952       -24.4073
  30   2.0000      -0.875468       -23.8227
  31   2.0000      -0.869066       -23.6485
  32   2.0000      -0.868730       -23.6394
  33   2.0000      -0.861842       -23.4519
  34   2.0000      -0.846215       -23.0267
  35   2.0000      -0.837241       -22.7825
  36   2.0000      -0.808394       -21.9975
  37   2.0000      -0.766590       -20.8600
  38   2.0000      -0.762559       -20.7503
  39   2.0000      -0.754287       -20.5252
  40   2.0000      -0.752046       -20.4642
  41   2.0000      -0.749668       -20.3995
  42   2.0000      -0.743573       -20.2337
  43   2.0000      -0.739405       -20.1202
  44   2.0000      -0.732028       -19.9195
  45   2.0000      -0.728336       -19.8190
  46   2.0000      -0.711292       -19.3552
  47   2.0000      -0.704228       -19.1630
  48   2.0000      -0.699546       -19.0356
  49   2.0000      -0.697499       -18.9799
  50   2.0000      -0.695090       -18.9143
  51   2.0000      -0.690879       -18.7998
  52   2.0000      -0.687503       -18.7079
  53   2.0000      -0.684654       -18.6304
  54   2.0000      -0.655056       -17.8250
  55   2.0000      -0.626104       -17.0372
  56   2.0000      -0.557823       -15.1791
  57   0.0000       0.054278         1.4770
  58   0.0000       0.056838         1.5466
  59   0.0000       0.060479         1.6457
  60   0.0000       0.069340         1.8868
  61   0.0000       0.078739         2.1426

MULLIKEN ATOMIC CHARGES
-----------------------
   0 C :    0.976242
   1 C :    0.976242
   2 C :    1.147879
   3 C :    1.147879
   4 F :   -0.471197
   5 F :   -0.486203
   6 F :   -0.471197
   7 F :   -0.486203
   8 F :   -0.375497
   9 F :   -0.375497
  10 F :   -0.399210
  11 F :   -0.392015
  12 F :   -0.399210
  13 F :   -0.392014
Sum of atomic charges:    0.0000000

LOEWDIN ATOMIC CHARGES
----------------------
   0 C :   -1.121950
   1 C :   -1.121950
   2 C :   -1.517963
   3 C :   -1.517964
   4 F :    0.535474
   5 F :    0.536425
   6 F :    0.535474
   7 F :    0.536425
   8 F :    0.521817
   9 F :    0.521816
  10 F :    0.523215
  11 F :    0.522982
  12 F :    0.523215
  13 F :    0.522983

  Mayer bond orders larger than 0.100000
B(  0-C ,  1-C ) :   0.9673 B(  0-C ,  2-C ) :   0.9950 B(  0-C ,  4-F ) :   0.5429
B(  0-C ,  5-F ) :   0.5396 B(  0-C ,  6-F ) :   0.1461 B(  0-C ,  7-F ) :   0.1324
B(  0-C , 10-F ) :   0.1149 B(  1-C ,  3-C ) :   0.9950 B(  1-C ,  4-F ) :   0.1461
B(  1-C ,  5-F ) :   0.1324 B(  1-C ,  6-F ) :   0.5429 B(  1-C ,  7-F ) :   0.5396
B(  1-C , 12-F ) :   0.1149 B(  2-C ,  4-F ) :   0.1097 B(  2-C ,  5-F ) :   0.1149
B(  2-C ,  8-F ) :   0.8179 B(  2-C , 10-F ) :   0.7943 B(  2-C , 11-F ) :   0.7998
B(  3-C ,  6-F ) :   0.1097 B(  3-C ,  7-F ) :   0.1149 B(  3-C ,  9-F ) :   0.8179
B(  3-C , 12-F ) :   0.7943 B(  3-C , 13-F ) :   0.7998

MP2 TOTAL ENERGY:    -1149.500141791 Eh
FINAL SINGLE POINT ENERGY     -1149.500141790902

DIPOLE MOMENT
-------------
                                X             Y             Z
Electronic contribution:      0.00000       0.00000       0.03883
Nuclear contribution   :      0.00000      -0.00000      -0.02195
                        -----------------------------------------
Total Dipole Moment    :      0.00000       0.00000       0.01688
                        -----------------------------------------
Magnitude (a.u.)       :      0.01688
Magnitude (Debye)      :      0.04290

Rotational constants in cm-1:     0.041853     0.016940     0.016334
Rotational constants in MHz :  1254.721900   507.838845   489.688615

                             ****ORCA TERMINATED NORMALLY****
TOTAL RUN TIME: 0 days 0 hours 7 minutes 50 seconds 29 msec
