                         Program Version 5.0.3 -  RELEASE  -
|  1> !ri-mp2 aug-cc-pvtz aug-cc-pvtz/c tightscf
|  2> %pal nprocs 16 end
|  3>
|  4> * xyz 0 1
|  5> C      0.098831    1.023382    0.776623
|  6> C      0.098831    1.023382   -0.776623
|  7> C      0.098831   -0.465440    1.163404
|  8> C      0.098831   -0.465440   -1.163404
|  9> N     -0.516767   -1.106166    0.000000
| 10> H      0.959997    1.544372    1.192744
| 11> H     -0.795896    1.513765    1.157193
| 12> H     -0.795896    1.513765   -1.157193
| 13> H      0.959997    1.544372   -1.192744
| 14> H      1.132013   -0.807155    1.332694
| 15> H     -0.473545   -0.671624    2.067900
| 16> H     -0.473545   -0.671624   -2.067900
| 17> H      1.132013   -0.807155   -1.332694
| 18> H     -0.399708   -2.110863    0.000000
| 19> *
| 20>
| 21>                          ****END OF INPUT****

CARTESIAN COORDINATES (ANGSTROEM)
---------------------------------
  C      0.098831    1.023382    0.776623
  C      0.098831    1.023382   -0.776623
  C      0.098831   -0.465440    1.163404
  C      0.098831   -0.465440   -1.163404
  N     -0.516767   -1.106166    0.000000
  H      0.959997    1.544372    1.192744
  H     -0.795896    1.513765    1.157193
  H     -0.795896    1.513765   -1.157193
  H      0.959997    1.544372   -1.192744
  H      1.132013   -0.807155    1.332694
  H     -0.473545   -0.671624    2.067900
  H     -0.473545   -0.671624   -2.067900
  H      1.132013   -0.807155   -1.332694
  H     -0.399708   -2.110863    0.000000

 Total Charge           Charge          ....    0
 Multiplicity           Mult            ....    1
 Number of Electrons    NEL             ....   40
 Basis Dimension        Dim             ....  437

ORBITAL ENERGIES
----------------

  NO   OCC          E(Eh)            E(eV)
   0   2.0000     -15.535672      -422.7471
   1   2.0000     -11.241287      -305.8910
   2   2.0000     -11.241268      -305.8905
   3   2.0000     -11.215020      -305.1762
   4   2.0000     -11.214469      -305.1612
   5   2.0000      -1.214747       -33.0550
   6   2.0000      -1.019364       -27.7383
   7   2.0000      -0.971074       -26.4243
   8   2.0000      -0.804893       -21.9023
   9   2.0000      -0.781201       -21.2576
  10   2.0000      -0.686115       -18.6701
  11   2.0000      -0.654909       -17.8210
  12   2.0000      -0.586922       -15.9710
  13   2.0000      -0.554566       -15.0905
  14   2.0000      -0.511907       -13.9297
  15   2.0000      -0.511461       -13.9176
  16   2.0000      -0.478765       -13.0279
  17   2.0000      -0.470985       -12.8161
  18   2.0000      -0.455401       -12.3921
  19   2.0000      -0.365303        -9.9404
  20   0.0000       0.030302         0.8245
  21   0.0000       0.039492         1.0746
  22   0.0000       0.039811         1.0833
  23   0.0000       0.040999         1.1156
  24   0.0000       0.055216         1.5025

MULLIKEN ATOMIC CHARGES
-----------------------
   0 C :   -0.569785
   1 C :   -0.569785
   2 C :   -0.348661
   3 C :   -0.348661
   4 N :   -0.484939
   5 H :    0.323726
   6 H :    0.231889
   7 H :    0.231889
   8 H :    0.323726
   9 H :    0.212378
  10 H :    0.383182
  11 H :    0.383182
  12 H :    0.212378
  13 H :    0.019482
Sum of atomic charges:   -0.0000000

LOEWDIN ATOMIC CHARGES
----------------------
   0 C :    0.311322
   1 C :    0.311322
   2 C :    0.168259
   3 C :    0.168259
   4 N :    0.556820
   5 H :   -0.155158
   6 H :   -0.155300
   7 H :   -0.155300
   8 H :   -0.155158
   9 H :   -0.143124
  10 H :   -0.150456
  11 H :   -0.150456
  12 H :   -0.143124
  13 H :   -0.307905

  Mayer bond orders larger than 0.100000
B(  0-C ,  1-C ) :   0.9971 B(  0-C ,  2-C ) :   0.9843 B(  0-C ,  5-H ) :   0.8819
B(  0-C ,  6-H ) :   0.9900 B(  1-C ,  3-C ) :   0.9843 B(  1-C ,  7-H ) :   0.9900
B(  1-C ,  8-H ) :   0.8819 B(  2-C ,  4-N ) :   0.7949 B(  2-C ,  9-H ) :   1.0275
B(  2-C , 10-H ) :   0.8609 B(  3-C ,  4-N ) :   0.7949 B(  3-C , 11-H ) :   0.8609
B(  3-C , 12-H ) :   1.0275 B(  4-N , 13-H ) :   1.0495

MP2 TOTAL ENERGY:     -212.137730522 Eh
FINAL SINGLE POINT ENERGY      -212.137730522234

DIPOLE MOMENT
-------------
                                X             Y             Z
Electronic contribution:     -0.90242      -1.17407      -0.00000
Nuclear contribution   :      1.31227       1.09993      -0.00000
                        -----------------------------------------
Total Dipole Moment    :      0.40985      -0.07415      -0.00000
                        -----------------------------------------
Magnitude (a.u.)       :      0.41650
Magnitude (Debye)      :      1.05865

Rotational constants in cm-1:     0.228933     0.227350     0.129618
Rotational constants in MHz :  6863.244699  6815.777351  3885.850447

                             ****ORCA TERMINATED NORMALLY****
TOTAL RUN TIME: 0 days 0 hours 2 minutes 39 seconds 459 msec
