                         Program Version 5.0.3 -  RELEASE  -
|  1> !ri-mp2 aug-cc-pvtz aug-cc-pvtz/c tightscf
|  2> %pal nprocs 16 end
|  3>
|  4> * xyz 0 1
|  5> C      0.000000    0.000000    0.592096
|  6> C      0.000000    0.000000    2.018067
|  7> C      0.000000    1.207433   -0.119647
|  8> C      0.000000   -1.207433   -0.119647
|  9> C      0.000000    1.203152   -1.506425
| 10> C      0.000000   -1.203152   -1.506425
| 11> C      0.000000    0.000000   -2.204188
| 12> C      0.000000    0.000000    3.219986
| 13> H      0.000000    0.000000    4.280998
| 14> H      0.000000    2.140945    0.425266
| 15> H      0.000000   -2.140945    0.425266
| 16> H      0.000000    2.141685   -2.044307
| 17> H      0.000000   -2.141685   -2.044307
| 18> H      0.000000    0.000000   -3.285824
| 19> *
| 20>
| 21>                          ****END OF INPUT****

CARTESIAN COORDINATES (ANGSTROEM)
---------------------------------
  C      0.000000    0.000000    0.592096
  C      0.000000    0.000000    2.018067
  C      0.000000    1.207433   -0.119647
  C      0.000000   -1.207433   -0.119647
  C      0.000000    1.203152   -1.506425
  C      0.000000   -1.203152   -1.506425
  C      0.000000    0.000000   -2.204188
  C      0.000000    0.000000    3.219986
  H      0.000000    0.000000    4.280998
  H      0.000000    2.140945    0.425266
  H      0.000000   -2.140945    0.425266
  H      0.000000    2.141685   -2.044307
  H      0.000000   -2.141685   -2.044307
  H      0.000000    0.000000   -3.285824

 Total Charge           Charge          ....    0
 Multiplicity           Mult            ....    1
 Number of Electrons    NEL             ....   54
 Basis Dimension        Dim             ....  506

ORBITAL ENERGIES
----------------

  NO   OCC          E(Eh)            E(eV)
   0   2.0000     -11.265607      -306.5528
   1   2.0000     -11.246970      -306.0456
   2   2.0000     -11.246925      -306.0444
   3   2.0000     -11.245075      -305.9941
   4   2.0000     -11.242383      -305.9208
   5   2.0000     -11.242097      -305.9130
   6   2.0000     -11.239049      -305.8301
   7   2.0000     -11.229014      -305.5570
   8   2.0000      -1.169894       -31.8344
   9   2.0000      -1.068290       -29.0697
  10   2.0000      -1.027114       -27.9492
  11   2.0000      -0.998676       -27.1754
  12   2.0000      -0.856224       -23.2990
  13   2.0000      -0.837812       -22.7980
  14   2.0000      -0.748780       -20.3753
  15   2.0000      -0.705411       -19.1952
  16   2.0000      -0.666836       -18.1455
  17   2.0000      -0.639580       -17.4038
  18   2.0000      -0.611303       -16.6344
  19   2.0000      -0.597587       -16.2612
  20   2.0000      -0.527219       -14.3463
  21   2.0000      -0.519970       -14.1491
  22   2.0000      -0.506947       -13.7947
  23   2.0000      -0.431234       -11.7345
  24   2.0000      -0.398848       -10.8532
  25   2.0000      -0.347670        -9.4606
  26   2.0000      -0.321727        -8.7546
  27   0.0000       0.027774         0.7558
  28   0.0000       0.031117         0.8467
  29   0.0000       0.034564         0.9405
  30   0.0000       0.042894         1.1672
  31   0.0000       0.050086         1.3629

MULLIKEN ATOMIC CHARGES
-----------------------
   0 C :    1.436519
   1 C :    1.473978
   2 C :   -1.320539
   3 C :   -1.320538
   4 C :   -0.513417
   5 C :   -0.513414
   6 C :    0.029788
   7 C :   -0.600961
   8 H :    0.462092
   9 H :   -0.319584
  10 H :   -0.319584
  11 H :    0.564579
  12 H :    0.564577
  13 H :    0.376505
Sum of atomic charges:    0.0000000

LOEWDIN ATOMIC CHARGES
----------------------
   0 C :   -0.212195
   1 C :   -0.009418
   2 C :    0.204685
   3 C :    0.204685
   4 C :    0.200989
   5 C :    0.200989
   6 C :    0.199881
   7 C :    0.413422
   8 H :   -0.299240
   9 H :   -0.176296
  10 H :   -0.176296
  11 H :   -0.183920
  12 H :   -0.183920
  13 H :   -0.183368

  Mayer bond orders larger than 0.100000
B(  0-C ,  1-C ) :  -0.1514 B(  0-C ,  2-C ) :   0.4763 B(  0-C ,  3-C ) :   0.4763
B(  0-C ,  4-C ) :   0.3925 B(  0-C ,  5-C ) :   0.3925 B(  0-C ,  7-C ) :   1.0587
B(  0-C ,  8-H ) :   0.1242 B(  0-C , 11-H ) :  -0.2790 B(  0-C , 12-H ) :  -0.2790
B(  0-C , 13-H ) :   0.2113 B(  1-C ,  2-C ) :   0.2145 B(  1-C ,  3-C ) :   0.2145
B(  1-C ,  4-C ) :  -0.1278 B(  1-C ,  5-C ) :  -0.1278 B(  1-C ,  6-C ) :   0.3007
B(  1-C ,  7-C ) :   3.0546 B(  1-C ,  8-H ) :  -0.1463 B(  1-C ,  9-H ) :  -0.4930
B(  1-C , 10-H ) :  -0.4930 B(  1-C , 11-H ) :   0.2334 B(  1-C , 12-H ) :   0.2334
B(  1-C , 13-H ) :  -0.2143 B(  2-C ,  3-C ) :  -0.3405 B(  2-C ,  4-C ) :   1.3266
B(  2-C ,  5-C ) :   0.1947 B(  2-C ,  6-C ) :  -0.4013 B(  2-C ,  7-C ) :  -0.3188
B(  2-C ,  9-H ) :   2.4268 B(  2-C , 10-H ) :   0.5685 B(  2-C , 11-H ) :  -0.1712
B(  2-C , 12-H ) :  -0.1777 B(  2-C , 13-H ) :   0.1701 B(  3-C ,  4-C ) :   0.1947
B(  3-C ,  5-C ) :   1.3266 B(  3-C ,  6-C ) :  -0.4013 B(  3-C ,  7-C ) :  -0.3188
B(  3-C ,  9-H ) :   0.5685 B(  3-C , 10-H ) :   2.4268 B(  3-C , 11-H ) :  -0.1777
B(  3-C , 12-H ) :  -0.1712 B(  3-C , 13-H ) :   0.1701 B(  4-C ,  5-C ) :   0.1151
B(  4-C ,  6-C ) :   1.0563 B(  4-C ,  7-C ) :  -0.2129 B(  4-C ,  9-H ) :  -0.1734
B(  4-C , 11-H ) :   0.6602 B(  4-C , 13-H ) :  -0.2191 B(  5-C ,  6-C ) :   1.0563
B(  5-C ,  7-C ) :  -0.2129 B(  5-C , 10-H ) :  -0.1734 B(  5-C , 12-H ) :   0.6602
B(  5-C , 13-H ) :  -0.2191 B(  6-C ,  7-C ) :   0.2419 B(  6-C ,  9-H ) :  -0.1186
B(  6-C , 10-H ) :  -0.1186 B(  6-C , 13-H ) :   0.9550 B(  7-C ,  8-H ) :   1.0430
B(  7-C ,  9-H ) :  -0.9109 B(  7-C , 10-H ) :  -0.9109 B(  7-C , 11-H ) :   0.3994
B(  7-C , 12-H ) :   0.3994 B(  7-C , 13-H ) :  -0.1359 B(  9-H , 10-H ) :   0.5542
B(  9-H , 11-H ) :  -0.1089 B(  9-H , 12-H ) :  -0.1141 B( 10-H , 11-H ) :  -0.1141
B( 10-H , 12-H ) :  -0.1089

MP2 TOTAL ENERGY:     -307.738960274 Eh
FINAL SINGLE POINT ENERGY      -307.738960274145

DIPOLE MOMENT
-------------
                                X             Y             Z
Electronic contribution:     -0.00000       0.00000       1.92563
Nuclear contribution   :      0.00000       0.00000      -2.22709
                        -----------------------------------------
Total Dipole Moment    :     -0.00000       0.00000      -0.30147
                        -----------------------------------------
Magnitude (a.u.)       :      0.30147
Magnitude (Debye)      :      0.76626

Rotational constants in cm-1:     0.190950     0.051244     0.040401
Rotational constants in MHz :  5724.550164  1536.245876  1211.205567

                             ****ORCA TERMINATED NORMALLY****
TOTAL RUN TIME: 0 days 0 hours 4 minutes 36 seconds 415 msec
