                         Program Version 5.0.3 -  RELEASE  -
|  1> !ri-mp2 aug-cc-pvtz aug-cc-pvtz/c tightscf
|  2> %pal nprocs 16 end
|  3>
|  4> * xyz 0 1
|  5> C     -0.834927    0.310226   -1.120699
|  6> C     -0.863686   -1.052974   -0.441012
|  7> C      0.863686    1.052974    0.441012
|  8> C      0.834927   -0.310226    1.120699
|  9> N     -0.450116    1.325039   -0.140555
| 10> N      0.450116   -1.325039    0.140555
| 11> H     -0.136260    0.260567   -1.970344
| 12> H     -1.825522    0.552488   -1.508068
| 13> H     -1.664933   -1.048703    0.314250
| 14> H     -1.091286   -1.828069   -1.174163
| 15> H      1.091286    1.828069    1.174163
| 16> H      1.664933    1.048703   -0.314250
| 17> H      1.825522   -0.552488    1.508068
| 18> H      0.136260   -0.260567    1.970344
| 19> H     -0.474735    2.247690   -0.552801
| 20> H      0.474735   -2.247690    0.552801
| 21> *
| 22>
| 23>                          ****END OF INPUT****

CARTESIAN COORDINATES (ANGSTROEM)
---------------------------------
  C     -0.834927    0.310226   -1.120699
  C     -0.863686   -1.052974   -0.441012
  C      0.863686    1.052974    0.441012
  C      0.834927   -0.310226    1.120699
  N     -0.450116    1.325039   -0.140555
  N      0.450116   -1.325039    0.140555
  H     -0.136260    0.260567   -1.970344
  H     -1.825522    0.552488   -1.508068
  H     -1.664933   -1.048703    0.314250
  H     -1.091286   -1.828069   -1.174163
  H      1.091286    1.828069    1.174163
  H      1.664933    1.048703   -0.314250
  H      1.825522   -0.552488    1.508068
  H      0.136260   -0.260567    1.970344
  H     -0.474735    2.247690   -0.552801
  H      0.474735   -2.247690    0.552801

 Total Charge           Charge          ....    0
 Multiplicity           Mult            ....    1
 Number of Electrons    NEL             ....   48
 Basis Dimension        Dim             ....  506

ORBITAL ENERGIES
----------------

  NO   OCC          E(Eh)            E(eV)
   0   2.0000     -15.537560      -422.7985
   1   2.0000     -15.537557      -422.7984
   2   2.0000     -11.241686      -305.9018
   3   2.0000     -11.241668      -305.9013
   4   2.0000     -11.241050      -305.8845
   5   2.0000     -11.241039      -305.8842
   6   2.0000      -1.232680       -33.5429
   7   2.0000      -1.165753       -31.7218
   8   2.0000      -1.019987       -27.7553
   9   2.0000      -0.908315       -24.7165
  10   2.0000      -0.852083       -23.1864
  11   2.0000      -0.758764       -20.6470
  12   2.0000      -0.701568       -19.0906
  13   2.0000      -0.639543       -17.4028
  14   2.0000      -0.617852       -16.8126
  15   2.0000      -0.598219       -16.2784
  16   2.0000      -0.574430       -15.6310
  17   2.0000      -0.569714       -15.5027
  18   2.0000      -0.534451       -14.5432
  19   2.0000      -0.488710       -13.2985
  20   2.0000      -0.470311       -12.7978
  21   2.0000      -0.460522       -12.5314
  22   2.0000      -0.371797       -10.1171
  23   2.0000      -0.360248        -9.8028
  24   0.0000       0.030123         0.8197
  25   0.0000       0.035594         0.9686
  26   0.0000       0.037811         1.0289
  27   0.0000       0.041813         1.1378
  28   0.0000       0.052823         1.4374

MULLIKEN ATOMIC CHARGES
-----------------------
   0 C :   -0.391608
   1 C :   -0.391658
   2 C :   -0.391658
   3 C :   -0.391608
   4 N :   -0.423186
   5 N :   -0.423186
   6 H :    0.227263
   7 H :    0.377486
   8 H :    0.227373
   9 H :    0.377411
  10 H :    0.377411
  11 H :    0.227373
  12 H :    0.377486
  13 H :    0.227263
  14 H :   -0.003081
  15 H :   -0.003081
Sum of atomic charges:    0.0000000

LOEWDIN ATOMIC CHARGES
----------------------
   0 C :    0.160887
   1 C :    0.160751
   2 C :    0.160751
   3 C :    0.160887
   4 N :    0.562805
   5 N :    0.562805
   6 H :   -0.140028
   7 H :   -0.147857
   8 H :   -0.140017
   9 H :   -0.147880
  10 H :   -0.147880
  11 H :   -0.140017
  12 H :   -0.147857
  13 H :   -0.140028
  14 H :   -0.308660
  15 H :   -0.308660

  Mayer bond orders larger than 0.100000
B(  0-C ,  1-C ) :   1.0143 B(  0-C ,  4-N ) :   0.8742 B(  0-C ,  6-H ) :   1.0033
B(  0-C ,  7-H ) :   0.8596 B(  1-C ,  5-N ) :   0.8739 B(  1-C ,  8-H ) :   1.0030
B(  1-C ,  9-H ) :   0.8597 B(  2-C ,  3-C ) :   1.0143 B(  2-C ,  4-N ) :   0.8739
B(  2-C , 10-H ) :   0.8597 B(  2-C , 11-H ) :   1.0030 B(  3-C ,  5-N ) :   0.8742
B(  3-C , 12-H ) :   0.8596 B(  3-C , 13-H ) :   1.0033 B(  4-N , 14-H ) :   1.0493
B(  5-N , 15-H ) :   1.0493

MP2 TOTAL ENERGY:     -267.397463734 Eh
FINAL SINGLE POINT ENERGY      -267.397463734429

DIPOLE MOMENT
-------------
                                X             Y             Z
Electronic contribution:      0.00000      -0.00000       0.00000
Nuclear contribution   :      0.00000       0.00000      -0.00000
                        -----------------------------------------
Total Dipole Moment    :      0.00000      -0.00000       0.00000
                        -----------------------------------------
Magnitude (a.u.)       :      0.00000
Magnitude (Debye)      :      0.00000

Rotational constants in cm-1:     0.158508     0.152888     0.087202
Rotational constants in MHz :  4751.947453  4583.470386  2614.241366

                             ****ORCA TERMINATED NORMALLY****
TOTAL RUN TIME: 0 days 0 hours 4 minutes 26 seconds 338 msec
