                         Program Version 5.0.3 -  RELEASE  -
|  1> !ri-mp2 aug-cc-pvtz aug-cc-pvtz/c tightscf
|  2> %pal nprocs 16 end
|  3>
|  4> * xyz 0 1
|  5> H     -1.766142   -0.526208   -1.297472
|  6> C     -1.849296    0.110726   -0.416946
|  7> C     -0.795460   -0.266086    0.634887
|  8> C      0.604920   -0.137267    0.093049
|  9> O      1.306287   -1.044919   -0.274495
| 10> O      1.008287    1.158088    0.032116
| 11> H     -2.849620   -0.014338   -0.003869
| 12> H     -1.738498    1.147718   -0.730793
| 13> H     -0.895780    0.381920    1.506215
| 14> H      1.897322    1.160106   -0.352283
| 15> H     -0.924854   -1.298789    0.951287
| 16> *
| 17>
| 18>                          ****END OF INPUT****

CARTESIAN COORDINATES (ANGSTROEM)
---------------------------------
  H     -1.766142   -0.526208   -1.297472
  C     -1.849296    0.110726   -0.416946
  C     -0.795460   -0.266086    0.634887
  C      0.604920   -0.137267    0.093049
  O      1.306287   -1.044919   -0.274495
  O      1.008287    1.158088    0.032116
  H     -2.849620   -0.014338   -0.003869
  H     -1.738498    1.147718   -0.730793
  H     -0.895780    0.381920    1.506215
  H      1.897322    1.160106   -0.352283
  H     -0.924854   -1.298789    0.951287

 Total Charge           Charge          ....    0
 Multiplicity           Mult            ....    1
 Number of Electrons    NEL             ....   40
 Basis Dimension        Dim             ....  368

ORBITAL ENERGIES
----------------

  NO   OCC          E(Eh)            E(eV)
   0   2.0000     -20.612440      -560.8930
   1   2.0000     -20.549916      -559.1917
   2   2.0000     -11.385229      -309.8078
   3   2.0000     -11.249021      -306.1014
   4   2.0000     -11.234784      -305.7140
   5   2.0000      -1.463951       -39.8361
   6   2.0000      -1.361297       -37.0428
   7   2.0000      -1.069162       -29.0934
   8   2.0000      -0.912560       -24.8320
   9   2.0000      -0.809711       -22.0333
  10   2.0000      -0.706134       -19.2149
  11   2.0000      -0.683833       -18.6080
  12   2.0000      -0.637649       -17.3513
  13   2.0000      -0.617956       -16.8154
  14   2.0000      -0.595010       -16.1910
  15   2.0000      -0.547116       -14.8878
  16   2.0000      -0.528875       -14.3914
  17   2.0000      -0.514114       -13.9897
  18   2.0000      -0.481594       -13.1048
  19   2.0000      -0.448428       -12.2024
  20   0.0000       0.028011         0.7622
  21   0.0000       0.035717         0.9719
  22   0.0000       0.040673         1.1068
  23   0.0000       0.045617         1.2413
  24   0.0000       0.058059         1.5799

MULLIKEN ATOMIC CHARGES
-----------------------
   0 H :    0.289153
   1 C :   -0.954706
   2 C :   -0.088381
   3 C :    0.560816
   4 O :   -0.757439
   5 O :   -0.434895
   6 H :    0.284995
   7 H :    0.305187
   8 H :    0.285043
   9 H :    0.233609
  10 H :    0.276618
Sum of atomic charges:   -0.0000000

LOEWDIN ATOMIC CHARGES
----------------------
   0 H :   -0.168242
   1 C :    0.585400
   2 C :    0.255422
   3 C :   -0.798677
   4 O :    0.444658
   5 O :    0.827336
   6 H :   -0.170547
   7 H :   -0.173093
   8 H :   -0.160585
   9 H :   -0.475174
  10 H :   -0.166498

  Mayer bond orders larger than 0.100000
B(  0-H ,  1-C ) :   0.9296 B(  1-C ,  2-C ) :   0.8611 B(  1-C ,  3-C ) :   0.1386
B(  1-C ,  6-H ) :   0.9535 B(  1-C ,  7-H ) :   0.9161 B(  2-C ,  3-C ) :   0.6158
B(  2-C ,  8-H ) :   0.9479 B(  2-C , 10-H ) :   0.9454 B(  3-C ,  4-O ) :   1.4692
B(  3-C ,  5-O ) :   0.9962 B(  5-O ,  9-H ) :   0.9403

MP2 TOTAL ENERGY:     -267.946229486 Eh
FINAL SINGLE POINT ENERGY      -267.946229486145

DIPOLE MOMENT
-------------
                                X             Y             Z
Electronic contribution:      5.77234      -0.28556       0.11120
Nuclear contribution   :     -6.32903       0.86420       0.07024
                        -----------------------------------------
Total Dipole Moment    :     -0.55669       0.57864       0.18144
                        -----------------------------------------
Magnitude (a.u.)       :      0.82320
Magnitude (Debye)      :      2.09241

Rotational constants in cm-1:     0.287145     0.130058     0.104839
Rotational constants in MHz :  8608.387936  3899.043479  3142.996277

                             ****ORCA TERMINATED NORMALLY****
TOTAL RUN TIME: 0 days 0 hours 1 minutes 34 seconds 363 msec
