                         Program Version 5.0.3 -  RELEASE  -
|  1> !ri-mp2 aug-cc-pvtz aug-cc-pvtz/c tightscf
|  2> %pal nprocs 16 end
|  3>
|  4> * xyz 0 1
|  5> C      0.000000    0.000000    1.363040
|  6> C      0.000000    0.000000   -1.363040
|  7> C      0.000000    1.211776    0.695210
|  8> C      0.000000   -1.211776    0.695210
|  9> C      0.000000   -1.211776   -0.695210
| 10> C      0.000000    1.211776   -0.695210
| 11> F      0.000000    0.000000    2.715276
| 12> F      0.000000    0.000000   -2.715276
| 13> H      0.000000    2.134857    1.256229
| 14> H      0.000000   -2.134857    1.256229
| 15> H      0.000000   -2.134857   -1.256229
| 16> H      0.000000    2.134857   -1.256229
| 17> *
| 18>
| 19>                          ****END OF INPUT****

CARTESIAN COORDINATES (ANGSTROEM)
---------------------------------
  C      0.000000    0.000000    1.363040
  C      0.000000    0.000000   -1.363040
  C      0.000000    1.211776    0.695210
  C      0.000000   -1.211776    0.695210
  C      0.000000   -1.211776   -0.695210
  C      0.000000    1.211776   -0.695210
  F      0.000000    0.000000    2.715276
  F      0.000000    0.000000   -2.715276
  H      0.000000    2.134857    1.256229
  H      0.000000   -2.134857    1.256229
  H      0.000000   -2.134857   -1.256229
  H      0.000000    2.134857   -1.256229

 Total Charge           Charge          ....    0
 Multiplicity           Mult            ....    1
 Number of Electrons    NEL             ....   58
 Basis Dimension        Dim             ....  460

ORBITAL ENERGIES
----------------

  NO   OCC          E(Eh)            E(eV)
   0   2.0000     -26.314830      -716.0629
   1   2.0000     -26.314829      -716.0629
   2   2.0000     -11.335750      -308.4614
   3   2.0000     -11.335728      -308.4608
   4   2.0000     -11.261746      -306.4477
   5   2.0000     -11.261702      -306.4465
   6   2.0000     -11.260486      -306.4134
   7   2.0000     -11.260482      -306.4133
   8   2.0000      -1.630294       -44.3625
   9   2.0000      -1.630101       -44.3573
  10   2.0000      -1.182640       -32.1813
  11   2.0000      -1.052986       -28.6532
  12   2.0000      -1.033330       -28.1183
  13   2.0000      -0.884754       -24.0754
  14   2.0000      -0.857333       -23.3292
  15   2.0000      -0.758739       -20.6463
  16   2.0000      -0.748191       -20.3593
  17   2.0000      -0.739446       -20.1214
  18   2.0000      -0.701382       -19.0856
  19   2.0000      -0.696427       -18.9507
  20   2.0000      -0.666697       -18.1417
  21   2.0000      -0.643948       -17.5227
  22   2.0000      -0.623266       -16.9599
  23   2.0000      -0.596830       -16.2406
  24   2.0000      -0.588931       -16.0256
  25   2.0000      -0.523879       -14.2555
  26   2.0000      -0.520064       -14.1517
  27   2.0000      -0.368981       -10.0405
  28   2.0000      -0.346798        -9.4369
  29   0.0000       0.029080         0.7913
  30   0.0000       0.031656         0.8614
  31   0.0000       0.038776         1.0551
  32   0.0000       0.048194         1.3114
  33   0.0000       0.070917         1.9297

MULLIKEN ATOMIC CHARGES
-----------------------
   0 C :    0.732287
   1 C :    0.732287
   2 C :   -0.624172
   3 C :   -0.624172
   4 C :   -0.624172
   5 C :   -0.624172
   6 F :   -0.495240
   7 F :   -0.495240
   8 H :    0.505648
   9 H :    0.505648
  10 H :    0.505648
  11 H :    0.505648
Sum of atomic charges:    0.0000000

LOEWDIN ATOMIC CHARGES
----------------------
   0 C :   -0.514102
   1 C :   -0.514102
   2 C :    0.192166
   3 C :    0.192166
   4 C :    0.192166
   5 C :    0.192166
   6 F :    0.488917
   7 F :    0.488917
   8 H :   -0.179573
   9 H :   -0.179573
  10 H :   -0.179573
  11 H :   -0.179573

  Mayer bond orders larger than 0.100000
B(  0-C ,  1-C ) :   0.1294 B(  0-C ,  2-C ) :   1.2756 B(  0-C ,  3-C ) :   1.2756
B(  0-C ,  6-F ) :   0.3939 B(  1-C ,  4-C ) :   1.2756 B(  1-C ,  5-C ) :   1.2756
B(  1-C ,  7-F ) :   0.3939 B(  2-C ,  3-C ) :   0.1372 B(  2-C ,  5-C ) :   1.3146
B(  2-C ,  6-F ) :   0.1175 B(  2-C ,  8-H ) :   0.6233 B(  3-C ,  4-C ) :   1.3146
B(  3-C ,  6-F ) :   0.1175 B(  3-C ,  9-H ) :   0.6233 B(  4-C ,  5-C ) :   0.1372
B(  4-C ,  7-F ) :   0.1175 B(  4-C , 10-H ) :   0.6233 B(  5-C ,  7-F ) :   0.1175
B(  5-C , 11-H ) :   0.6233

MP2 TOTAL ENERGY:     -430.018275419 Eh
FINAL SINGLE POINT ENERGY      -430.018275419450

DIPOLE MOMENT
-------------
                                X             Y             Z
Electronic contribution:      0.00000       0.00000      -0.00000
Nuclear contribution   :      0.00000       0.00000       0.00000
                        -----------------------------------------
Total Dipole Moment    :      0.00000       0.00000      -0.00000
                        -----------------------------------------
Magnitude (a.u.)       :      0.00000
Magnitude (Debye)      :      0.00000

Rotational constants in cm-1:     0.189573     0.047574     0.038030
Rotational constants in MHz :  5683.263867  1426.226085  1140.112614

                             ****ORCA TERMINATED NORMALLY****
TOTAL RUN TIME: 0 days 0 hours 3 minutes 22 seconds 559 msec
