                         Program Version 5.0.3 -  RELEASE  -
|  1> !ri-mp2 aug-cc-pvtz aug-cc-pvtz/c tightscf
|  2> %pal nprocs 16 end
|  3>
|  4> * xyz 0 1
|  5> C      0.834198   -0.936571   -0.030495
|  6> C     -1.402371   -0.269951    0.991854
|  7> C      0.042139    0.149384    0.691781
|  8> S      2.619734   -0.495778   -0.173755
|  9> S     -2.501238   -0.563857   -0.452043
| 10> S      0.149502    1.790968   -0.137745
| 11> H      0.429951   -1.103433   -1.026573
| 12> H      0.765825   -1.867304    0.532760
| 13> H     -1.408866   -1.167657    1.610121
| 14> H     -1.897031    0.521267    1.550558
| 15> H      0.520127    0.338062    1.655473
| 16> H      3.083147   -1.750169   -0.026735
| 17> H     -2.037822   -1.781895   -0.783799
| 18> H     -0.587096    1.452627   -1.213971
| 19> *
| 20>
| 21>                          ****END OF INPUT****

CARTESIAN COORDINATES (ANGSTROEM)
---------------------------------
  C      0.834198   -0.936571   -0.030495
  C     -1.402371   -0.269951    0.991854
  C      0.042139    0.149384    0.691781
  S      2.619734   -0.495778   -0.173755
  S     -2.501238   -0.563857   -0.452043
  S      0.149502    1.790968   -0.137745
  H      0.429951   -1.103433   -1.026573
  H      0.765825   -1.867304    0.532760
  H     -1.408866   -1.167657    1.610121
  H     -1.897031    0.521267    1.550558
  H      0.520127    0.338062    1.655473
  H      3.083147   -1.750169   -0.026735
  H     -2.037822   -1.781895   -0.783799
  H     -0.587096    1.452627   -1.213971

 Total Charge           Charge          ....    0
 Multiplicity           Mult            ....    1
 Number of Electrons    NEL             ....   74
 Basis Dimension        Dim             ....  472

ORBITAL ENERGIES
----------------

  NO   OCC          E(Eh)            E(eV)
   0   2.0000     -91.967231     -2502.5556
   1   2.0000     -91.958393     -2502.3151
   2   2.0000     -91.956470     -2502.2628
   3   2.0000     -11.290081      -307.2187
   4   2.0000     -11.282777      -307.0200
   5   2.0000     -11.276994      -306.8626
   6   2.0000      -8.968051      -244.0331
   7   2.0000      -8.958908      -243.7843
   8   2.0000      -8.957620      -243.7492
   9   2.0000      -6.649342      -180.9378
  10   2.0000      -6.648332      -180.9103
  11   2.0000      -6.647364      -180.8840
  12   2.0000      -6.640097      -180.6862
  13   2.0000      -6.639160      -180.6607
  14   2.0000      -6.638867      -180.6527
  15   2.0000      -6.638098      -180.6318
  16   2.0000      -6.637906      -180.6266
  17   2.0000      -6.636920      -180.5998
  18   2.0000      -1.131898       -30.8005
  19   2.0000      -1.039498       -28.2862
  20   2.0000      -0.988563       -26.9002
  21   2.0000      -0.920138       -25.0382
  22   2.0000      -0.874991       -23.8097
  23   2.0000      -0.782528       -21.2937
  24   2.0000      -0.649959       -17.6863
  25   2.0000      -0.636308       -17.3148
  26   2.0000      -0.622646       -16.9431
  27   2.0000      -0.588675       -16.0187
  28   2.0000      -0.540564       -14.7095
  29   2.0000      -0.518467       -14.1082
  30   2.0000      -0.510758       -13.8984
  31   2.0000      -0.473265       -12.8782
  32   2.0000      -0.457717       -12.4551
  33   2.0000      -0.442943       -12.0531
  34   2.0000      -0.377476       -10.2717
  35   2.0000      -0.369777       -10.0622
  36   2.0000      -0.356052        -9.6887
  37   0.0000       0.024173         0.6578
  38   0.0000       0.033919         0.9230
  39   0.0000       0.038299         1.0422
  40   0.0000       0.043083         1.1723
  41   0.0000       0.054920         1.4944

MULLIKEN ATOMIC CHARGES
-----------------------
   0 C :   -0.359465
   1 C :   -0.386394
   2 C :   -0.011338
   3 S :   -0.339098
   4 S :   -0.391232
   5 S :   -0.432749
   6 H :    0.302573
   7 H :    0.271784
   8 H :    0.250671
   9 H :    0.355102
  10 H :    0.383514
  11 H :    0.042296
  12 H :    0.140925
  13 H :    0.173412
Sum of atomic charges:    0.0000000

LOEWDIN ATOMIC CHARGES
----------------------
   0 C :   -0.192129
   1 C :   -0.147907
   2 C :   -0.546075
   3 S :    1.261533
   4 S :    1.284366
   5 S :    1.288214
   6 H :   -0.254564
   7 H :   -0.225356
   8 H :   -0.223254
   9 H :   -0.248474
  10 H :   -0.243039
  11 H :   -0.588497
  12 H :   -0.573028
  13 H :   -0.591790

  Mayer bond orders larger than 0.100000
B(  0-C ,  2-C ) :   0.9647 B(  0-C ,  3-S ) :   0.8957 B(  0-C ,  6-H ) :   0.9568
B(  0-C ,  7-H ) :   0.9056 B(  1-C ,  2-C ) :   0.9429 B(  1-C ,  4-S ) :   0.9185
B(  1-C ,  8-H ) :   0.9167 B(  1-C ,  9-H ) :   0.9203 B(  2-C ,  5-S ) :   0.9280
B(  2-C , 10-H ) :   0.8455 B(  3-S , 11-H ) :   1.1230 B(  4-S , 12-H ) :   1.0364
B(  5-S , 13-H ) :   1.0325

MP2 TOTAL ENERGY:    -1312.021783347 Eh
FINAL SINGLE POINT ENERGY     -1312.021783346782

DIPOLE MOMENT
-------------
                                X             Y             Z
Electronic contribution:      0.87794       4.22409      -1.83636
Nuclear contribution   :     -1.12947      -5.33122       2.29989
                        -----------------------------------------
Total Dipole Moment    :     -0.25154      -1.10712       0.46353
                        -----------------------------------------
Magnitude (a.u.)       :      1.22631
Magnitude (Debye)      :      3.11704

Rotational constants in cm-1:     0.091533     0.032986     0.027127
Rotational constants in MHz :  2744.093580   988.891133   813.261360

                             ****ORCA TERMINATED NORMALLY****
TOTAL RUN TIME: 0 days 0 hours 3 minutes 48 seconds 721 msec
