                         Program Version 5.0.3 -  RELEASE  -
|  1> !ri-mp2 aug-cc-pvtz aug-cc-pvtz/c tightscf
|  2> %pal nprocs 16 end
|  3> %maxcore 3800
|  4>
|  5> * xyz 0 1
|  6> N     -1.339042    1.450654   -0.784825
|  7> C     -1.389756    0.054525   -0.330039
|  8> C     -2.841838   -0.324033    0.031390
|  9> O     -3.133850   -1.336349    0.609477
| 10> O     -3.754709    0.560078   -0.391499
| 11> H     -3.240979    1.282550   -0.814313
| 12> C     -0.428785   -0.303489    0.819231
| 13> C      1.025254   -0.197841    0.432381
| 14> C      1.621881   -1.185950   -0.355385
| 15> C      2.953581   -1.088667   -0.737089
| 16> C      3.718469    0.001996   -0.335343
| 17> C      3.141002    0.988624    0.453392
| 18> C      1.805840    0.886727    0.832293
| 19> H     -1.147606   -0.573924   -1.190629
| 20> H     -0.639640    0.355030    1.665991
| 21> H     -0.667999   -1.315484    1.143917
| 22> H      1.040607   -2.046855   -0.662923
| 23> H      3.397501   -1.868361   -1.341580
| 24> H      4.756749    0.076482   -0.628637
| 25> H      3.729078    1.836137    0.779435
| 26> H      1.370663    1.654866    1.459995
| 27> H     -1.109294    2.078090   -0.023130
| 28> H     -0.641205    1.585711   -1.503173
| 29> *
| 30>
| 31>                          ****END OF INPUT****

CARTESIAN COORDINATES (ANGSTROEM)
---------------------------------
  N     -1.339042    1.450654   -0.784825
  C     -1.389756    0.054525   -0.330039
  C     -2.841838   -0.324033    0.031390
  O     -3.133850   -1.336349    0.609477
  O     -3.754709    0.560078   -0.391499
  H     -3.240979    1.282550   -0.814313
  C     -0.428785   -0.303489    0.819231
  C      1.025254   -0.197841    0.432381
  C      1.621881   -1.185950   -0.355385
  C      2.953581   -1.088667   -0.737089
  C      3.718469    0.001996   -0.335343
  C      3.141002    0.988624    0.453392
  C      1.805840    0.886727    0.832293
  H     -1.147606   -0.573924   -1.190629
  H     -0.639640    0.355030    1.665991
  H     -0.667999   -1.315484    1.143917
  H      1.040607   -2.046855   -0.662923
  H      3.397501   -1.868361   -1.341580
  H      4.756749    0.076482   -0.628637
  H      3.729078    1.836137    0.779435
  H      1.370663    1.654866    1.459995
  H     -1.109294    2.078090   -0.023130
  H     -0.641205    1.585711   -1.503173

 Total Charge           Charge          ....    0
 Multiplicity           Mult            ....    1
 Number of Electrons    NEL             ....   88
 Basis Dimension        Dim             ....  805

ORBITAL ENERGIES
----------------

  NO   OCC          E(Eh)            E(eV)
   0   2.0000     -20.596693      -560.4645
   1   2.0000     -20.536720      -558.8326
   2   2.0000     -15.582736      -424.0278
   3   2.0000     -11.375718      -309.5490
   4   2.0000     -11.296601      -307.3961
   5   2.0000     -11.255220      -306.2701
   6   2.0000     -11.247810      -306.0685
   7   2.0000     -11.247138      -306.0502
   8   2.0000     -11.246782      -306.0405
   9   2.0000     -11.244968      -305.9911
  10   2.0000     -11.243762      -305.9583
  11   2.0000     -11.243186      -305.9426
  12   2.0000      -1.452106       -39.5138
  13   2.0000      -1.356920       -36.9237
  14   2.0000      -1.225384       -33.3444
  15   2.0000      -1.168874       -31.8067
  16   2.0000      -1.071262       -29.1505
  17   2.0000      -1.027978       -27.9727
  18   2.0000      -0.998930       -27.1823
  19   2.0000      -0.907718       -24.7003
  20   2.0000      -0.841500       -22.8984
  21   2.0000      -0.815339       -22.1865
  22   2.0000      -0.801064       -21.7981
  23   2.0000      -0.743981       -20.2447
  24   2.0000      -0.709586       -19.3088
  25   2.0000      -0.691820       -18.8254
  26   2.0000      -0.667052       -18.1514
  27   2.0000      -0.650426       -17.6990
  28   2.0000      -0.646198       -17.5839
  29   2.0000      -0.625613       -17.0238
  30   2.0000      -0.612851       -16.6765
  31   2.0000      -0.598883       -16.2964
  32   2.0000      -0.590865       -16.0783
  33   2.0000      -0.574573       -15.6349
  34   2.0000      -0.554187       -15.0802
  35   2.0000      -0.529683       -14.4134
  36   2.0000      -0.508494       -13.8368
  37   2.0000      -0.500369       -13.6157
  38   2.0000      -0.498946       -13.5770
  39   2.0000      -0.468003       -12.7350
  40   2.0000      -0.463934       -12.6243
  41   2.0000      -0.422364       -11.4931
  42   2.0000      -0.350399        -9.5348
  43   2.0000      -0.341616        -9.2959
  44   0.0000       0.020053         0.5457
  45   0.0000       0.027255         0.7416
  46   0.0000       0.031111         0.8466
  47   0.0000       0.036414         0.9909
  48   0.0000       0.042986         1.1697

MULLIKEN ATOMIC CHARGES
-----------------------
   0 N :   -0.627057
   1 C :    0.494426
   2 C :    0.457818
   3 O :   -0.809325
   4 O :   -0.552625
   5 H :    0.255745
   6 C :   -0.288841
   7 C :    1.649912
   8 C :   -0.921068
   9 C :   -0.794473
  10 C :   -0.047276
  11 C :   -0.600126
  12 C :   -0.800562
  13 H :    0.389826
  14 H :    0.218600
  15 H :    0.251298
  16 H :    0.142190
  17 H :    0.540961
  18 H :    0.403391
  19 H :    0.601757
  20 H :   -0.131163
  21 H :    0.098512
  22 H :    0.068079
Sum of atomic charges:    0.0000000

LOEWDIN ATOMIC CHARGES
----------------------
   0 N :    0.875032
   1 C :   -0.097979
   2 C :   -0.767472
   3 O :    0.440952
   4 O :    0.841463
   5 H :   -0.589616
   6 C :    0.289674
   7 C :   -0.109572
   8 C :    0.219786
   9 C :    0.202903
  10 C :    0.196781
  11 C :    0.200499
  12 C :    0.215295
  13 H :   -0.135994
  14 H :   -0.144264
  15 H :   -0.158401
  16 H :   -0.170618
  17 H :   -0.182377
  18 H :   -0.185653
  19 H :   -0.183332
  20 H :   -0.179404
  21 H :   -0.290459
  22 H :   -0.287243

  Mayer bond orders larger than 0.100000
B(  0-N ,  1-C ) :   0.5173 B(  0-N ,  2-C ) :   0.1553 B(  0-N ,  5-H ) :   0.1071
B(  0-N , 21-H ) :   0.9937 B(  0-N , 22-H ) :   1.0588 B(  1-C ,  2-C ) :   0.6591
B(  1-C ,  4-O ) :   0.1292 B(  1-C ,  6-C ) :   0.9335 B(  1-C , 13-H ) :   0.9092
B(  2-C ,  3-O ) :   1.3845 B(  2-C ,  4-O ) :   0.7215 B(  4-O ,  5-H ) :   0.8580
B(  6-C ,  7-C ) :   0.3665 B(  6-C ,  8-C ) :   0.2751 B(  6-C , 12-C ) :   0.1495
B(  6-C , 14-H ) :   1.0992 B(  6-C , 15-H ) :   1.0102 B(  6-C , 16-H ) :  -0.1047
B(  7-C ,  8-C ) :   0.6185 B(  7-C , 11-C ) :   0.2013 B(  7-C , 12-C ) :   0.4188
B(  7-C , 15-H ) :  -0.1080 B(  7-C , 16-H ) :  -0.2066 B(  7-C , 20-H ) :  -0.3145
B(  8-C ,  9-C ) :   1.4158 B(  8-C , 10-C ) :  -0.1753 B(  8-C , 12-C ) :  -0.4359
B(  8-C , 16-H ) :   1.3091 B(  8-C , 18-H ) :   0.1140 B(  8-C , 20-H ) :   0.1384
B(  9-C , 10-C ) :   1.1085 B(  9-C , 11-C ) :   0.2466 B(  9-C , 12-C ) :   0.1706
B(  9-C , 17-H ) :   0.6202 B(  9-C , 18-H ) :  -0.1575 B( 10-C , 11-C ) :   1.0840
B( 10-C , 12-C ) :  -0.3184 B( 10-C , 18-H ) :   0.8846 B( 11-C , 12-C ) :   1.2737
B( 11-C , 18-H ) :  -0.2284 B( 11-C , 19-H ) :   0.6148 B( 11-C , 20-H ) :  -0.1472
B( 12-C , 16-H ) :   0.2129 B( 12-C , 18-H ) :   0.1538 B( 12-C , 19-H ) :  -0.1370
B( 12-C , 20-H ) :   1.9052 B( 16-H , 20-H ) :   0.1219

MP2 TOTAL ENERGY:     -553.777293976 Eh
FINAL SINGLE POINT ENERGY      -553.777293975608

DIPOLE MOMENT
-------------
                                X             Y             Z
Electronic contribution:     -4.91216      -1.89016       0.51598
Nuclear contribution   :      6.73462       3.06197      -1.11675
                        -----------------------------------------
Total Dipole Moment    :      1.82246       1.17181      -0.60076
                        -----------------------------------------
Magnitude (a.u.)       :      2.24843
Magnitude (Debye)      :      5.71505

Rotational constants in cm-1:     0.082009     0.014903     0.013914
Rotational constants in MHz :  2458.576575   446.794215   417.120275

                             ****ORCA TERMINATED NORMALLY****
TOTAL RUN TIME: 0 days 0 hours 18 minutes 16 seconds 226 msec
