                         Program Version 5.0.3 -  RELEASE  -
|  1> !ri-mp2 aug-cc-pvtz aug-cc-pvtz/c tightscf
|  2> %pal nprocs 16 end
|  3>
|  4> * xyz 0 1
|  5> S     -1.415690   -0.626525   -0.000006
|  6> O     -0.221616    1.707573    0.000000
|  7> C     -0.028547    0.519090    0.000000
|  8> C      1.281666   -0.084082    0.000004
|  9> C      2.374298   -0.580157    0.000009
| 10> H     -0.687542   -1.757741   -0.000004
| 11> H      3.347002   -1.007548    0.000013
| 12> *
| 13>
| 14>                          ****END OF INPUT****

CARTESIAN COORDINATES (ANGSTROEM)
---------------------------------
  S     -1.415690   -0.626525   -0.000006
  O     -0.221616    1.707573    0.000000
  C     -0.028547    0.519090    0.000000
  C      1.281666   -0.084082    0.000004
  C      2.374298   -0.580157    0.000009
  H     -0.687542   -1.757741   -0.000004
  H      3.347002   -1.007548    0.000013

 Total Charge           Charge          ....    0
 Multiplicity           Mult            ....    1
 Number of Electrons    NEL             ....   44
 Basis Dimension        Dim             ....  280

ORBITAL ENERGIES
----------------

  NO   OCC          E(Eh)            E(eV)
   0   2.0000     -91.997167     -2503.3702
   1   2.0000     -20.583098      -560.0946
   2   2.0000     -11.405266      -310.3531
   3   2.0000     -11.281789      -306.9931
   4   2.0000     -11.272720      -306.7463
   5   2.0000      -8.998564      -244.8634
   6   2.0000      -6.679567      -181.7603
   7   2.0000      -6.678630      -181.7348
   8   2.0000      -6.677656      -181.7083
   9   2.0000      -1.429172       -38.8897
  10   2.0000      -1.094201       -29.7747
  11   2.0000      -1.031575       -28.0706
  12   2.0000      -0.886100       -24.1120
  13   2.0000      -0.751800       -20.4575
  14   2.0000      -0.708721       -19.2853
  15   2.0000      -0.653567       -17.7845
  16   2.0000      -0.593086       -16.1387
  17   2.0000      -0.543175       -14.7805
  18   2.0000      -0.455280       -12.3888
  19   2.0000      -0.438295       -11.9266
  20   2.0000      -0.434635       -11.8270
  21   2.0000      -0.403634       -10.9834
  22   0.0000       0.022572         0.6142
  23   0.0000       0.035955         0.9784
  24   0.0000       0.053522         1.4564
  25   0.0000       0.066422         1.8074
  26   0.0000       0.072313         1.9677

MULLIKEN ATOMIC CHARGES
-----------------------
   0 S :   -0.205274
   1 O :   -0.658278
   2 C :    0.404324
   3 C :    1.150360
   4 C :   -1.385475
   5 H :    0.169247
   6 H :    0.525096
Sum of atomic charges:    0.0000000

LOEWDIN ATOMIC CHARGES
----------------------
   0 S :    1.282289
   1 O :    0.359872
   2 C :   -1.069875
   3 C :   -0.115981
   4 C :    0.406512
   5 H :   -0.584665
   6 H :   -0.278153

  Mayer bond orders larger than 0.100000
B(  0-S ,  2-C ) :   1.1440 B(  0-S ,  5-H ) :   1.0208 B(  1-O ,  2-C ) :   1.5905
B(  1-O ,  3-C ) :  -0.1044 B(  2-C ,  3-C ) :   0.7049 B(  3-C ,  4-C ) :   1.1986
B(  4-C ,  6-H ) :   0.7845

MP2 TOTAL ENERGY:     -588.042592643 Eh
FINAL SINGLE POINT ENERGY      -588.042592642996

DIPOLE MOMENT
-------------
                                X             Y             Z
Electronic contribution:     -1.80124       1.22370      -0.00001
Nuclear contribution   :      2.59077      -2.60938       0.00001
                        -----------------------------------------
Total Dipole Moment    :      0.78954      -1.38568       0.00000
                        -----------------------------------------
Magnitude (a.u.)       :      1.59482
Magnitude (Debye)      :      4.05372

Rotational constants in cm-1:     0.238789     0.102647     0.071788
Rotational constants in MHz :  7158.703903  3077.285482  2152.149124

                             ****ORCA TERMINATED NORMALLY****
TOTAL RUN TIME: 0 days 0 hours 0 minutes 53 seconds 618 msec
