                         Program Version 5.0.3 -  RELEASE  -
|  1> !ri-mp2 aug-cc-pvtz aug-cc-pvtz/c tightscf
|  2> %pal nprocs 16 end
|  3>
|  4> * xyz 0 1
|  5> C      0.000000    0.000000    0.314636
|  6> C      0.000000    1.305048    0.357543
|  7> C      0.000000   -1.305048    0.357543
|  8> O      0.776928    2.146963   -0.393553
|  9> O     -0.776928   -2.146963   -0.393553
| 10> H     -0.646254    1.874974    1.014469
| 11> H      0.646254   -1.874974    1.014469
| 12> H      1.357245    1.618777   -0.955207
| 13> H     -1.357245   -1.618777   -0.955207
| 14> *
| 15>
| 16>                          ****END OF INPUT****

CARTESIAN COORDINATES (ANGSTROEM)
---------------------------------
  C      0.000000    0.000000    0.314636
  C      0.000000    1.305048    0.357543
  C      0.000000   -1.305048    0.357543
  O      0.776928    2.146963   -0.393553
  O     -0.776928   -2.146963   -0.393553
  H     -0.646254    1.874974    1.014469
  H      0.646254   -1.874974    1.014469
  H      1.357245    1.618777   -0.955207
  H     -1.357245   -1.618777   -0.955207

 Total Charge           Charge          ....    0
 Multiplicity           Mult            ....    1
 Number of Electrons    NEL             ....   38
 Basis Dimension        Dim             ....  322

ORBITAL ENERGIES
----------------

  NO   OCC          E(Eh)            E(eV)
   0   2.0000     -20.596932      -560.4710
   1   2.0000     -20.596932      -560.4710
   2   2.0000     -11.317975      -307.9778
   3   2.0000     -11.317973      -307.9777
   4   2.0000     -11.225691      -305.4666
   5   2.0000      -1.407672       -38.3047
   6   2.0000      -1.405349       -38.2415
   7   2.0000      -1.059279       -28.8244
   8   2.0000      -0.943649       -25.6780
   9   2.0000      -0.812152       -22.0998
  10   2.0000      -0.759257       -20.6604
  11   2.0000      -0.656579       -17.8664
  12   2.0000      -0.656532       -17.8651
  13   2.0000      -0.590373       -16.0649
  14   2.0000      -0.582717       -15.8565
  15   2.0000      -0.581910       -15.8346
  16   2.0000      -0.560706       -15.2576
  17   2.0000      -0.361613        -9.8400
  18   2.0000      -0.360922        -9.8212
  19   0.0000       0.027355         0.7444
  20   0.0000       0.038113         1.0371
  21   0.0000       0.041094         1.1182
  22   0.0000       0.043605         1.1865
  23   0.0000       0.083202         2.2640

MULLIKEN ATOMIC CHARGES
-----------------------
   0 C :    0.692266
   1 C :   -0.542002
   2 C :   -0.542002
   3 O :   -0.434166
   4 O :   -0.434166
   5 H :    0.436925
   6 H :    0.436925
   7 H :    0.193110
   8 H :    0.193110
Sum of atomic charges:    0.0000000

LOEWDIN ATOMIC CHARGES
----------------------
   0 C :    0.090940
   1 C :   -0.119098
   2 C :   -0.119098
   3 O :    0.786169
   4 O :    0.786169
   5 H :   -0.220577
   6 H :   -0.220577
   7 H :   -0.491963
   8 H :   -0.491963

  Mayer bond orders larger than 0.100000
B(  0-C ,  1-C ) :   1.2765 B(  0-C ,  2-C ) :   1.2765 B(  1-C ,  2-C ) :  -0.2346
B(  1-C ,  3-O ) :   0.9308 B(  1-C ,  5-H ) :   0.8911 B(  1-C ,  7-H ) :   0.1120
B(  2-C ,  4-O ) :   0.9308 B(  2-C ,  6-H ) :   0.8911 B(  2-C ,  8-H ) :   0.1120
B(  3-O ,  7-H ) :   0.9524 B(  4-O ,  8-H ) :   0.9524

MP2 TOTAL ENERGY:     -266.646791368 Eh
FINAL SINGLE POINT ENERGY      -266.646791367666

DIPOLE MOMENT
-------------
                                X             Y             Z
Electronic contribution:      0.00000       0.00000      -0.28921
Nuclear contribution   :      0.00000       0.00000       0.10509
                        -----------------------------------------
Total Dipole Moment    :      0.00000       0.00000      -0.18412
                        -----------------------------------------
Magnitude (a.u.)       :      0.18412
Magnitude (Debye)      :      0.46798

Rotational constants in cm-1:     0.798779     0.075041     0.073357
Rotational constants in MHz : 23946.788837  2249.664668  2199.193026

                             ****ORCA TERMINATED NORMALLY****
TOTAL RUN TIME: 0 days 0 hours 1 minutes 8 seconds 407 msec
