                         Program Version 5.0.3 -  RELEASE  -
|  1> !ri-mp2 aug-cc-pvtz aug-cc-pvtz/c tightscf
|  2> %pal nprocs 16 end
|  3>
|  4> * xyz 0 1
|  5> O     -1.140757    1.067901   -0.000039
|  6> O     -1.122638   -1.159311   -0.000036
|  7> C     -0.509953   -0.131001   -0.000019
|  8> C      0.939527   -0.050347    0.000023
|  9> C      2.137587    0.000371    0.000080
| 10> H     -0.495557    1.786680   -0.000024
| 11> H      3.199749    0.030461    0.000128
| 12> *
| 13>
| 14>                          ****END OF INPUT****

CARTESIAN COORDINATES (ANGSTROEM)
---------------------------------
  O     -1.140757    1.067901   -0.000039
  O     -1.122638   -1.159311   -0.000036
  C     -0.509953   -0.131001   -0.000019
  C      0.939527   -0.050347    0.000023
  C      2.137587    0.000371    0.000080
  H     -0.495557    1.786680   -0.000024
  H      3.199749    0.030461    0.000128

 Total Charge           Charge          ....    0
 Multiplicity           Mult            ....    1
 Number of Electrons    NEL             ....   36
 Basis Dimension        Dim             ....  276

ORBITAL ENERGIES
----------------

  NO   OCC          E(Eh)            E(eV)
   0   2.0000     -20.632107      -561.4282
   1   2.0000     -20.569268      -559.7182
   2   2.0000     -11.424900      -310.8873
   3   2.0000     -11.286440      -307.1196
   4   2.0000     -11.276313      -306.8441
   5   2.0000      -1.481412       -40.3113
   6   2.0000      -1.387687       -37.7609
   7   2.0000      -1.084761       -29.5179
   8   2.0000      -0.915289       -24.9063
   9   2.0000      -0.825097       -22.4520
  10   2.0000      -0.749230       -20.3876
  11   2.0000      -0.682811       -18.5802
  12   2.0000      -0.652051       -17.7432
  13   2.0000      -0.619503       -16.8575
  14   2.0000      -0.507007       -13.7964
  15   2.0000      -0.493805       -13.4371
  16   2.0000      -0.444024       -12.0825
  17   2.0000      -0.442711       -12.0468
  18   0.0000       0.019697         0.5360
  19   0.0000       0.033370         0.9080
  20   0.0000       0.062122         1.6904
  21   0.0000       0.068101         1.8531
  22   0.0000       0.080238         2.1834

MULLIKEN ATOMIC CHARGES
-----------------------
   0 O :   -0.342688
   1 O :   -0.568488
   2 C :    0.325650
   3 C :    1.271147
   4 C :   -1.445198
   5 H :    0.224562
   6 H :    0.535014
Sum of atomic charges:    0.0000000

LOEWDIN ATOMIC CHARGES
----------------------
   0 O :    0.817774
   1 O :    0.429945
   2 C :   -0.886312
   3 C :   -0.008877
   4 C :    0.415345
   5 H :   -0.490639
   6 H :   -0.277236

  Mayer bond orders larger than 0.100000
B(  0-O ,  2-C ) :   1.0824 B(  0-O ,  5-H ) :   0.9458 B(  1-O ,  2-C ) :   1.7520
B(  1-O ,  3-C ) :  -0.1519 B(  2-C ,  3-C ) :   0.5983 B(  2-C ,  4-C ) :  -0.1151
B(  3-C ,  4-C ) :   1.1635 B(  4-C ,  6-H ) :   0.7904

MP2 TOTAL ENERGY:     -265.465696681 Eh
FINAL SINGLE POINT ENERGY      -265.465696681116

DIPOLE MOMENT
-------------
                                X             Y             Z
Electronic contribution:     -1.02296      -0.61468      -0.00005
Nuclear contribution   :      2.57570       1.75255       0.00010
                        -----------------------------------------
Total Dipole Moment    :      1.55274       1.13786       0.00005
                        -----------------------------------------
Magnitude (a.u.)       :      1.92503
Magnitude (Debye)      :      4.89303

Rotational constants in cm-1:     0.390673     0.140404     0.103285
Rotational constants in MHz : 11712.069850  4209.212230  3096.395592

                             ****ORCA TERMINATED NORMALLY****
TOTAL RUN TIME: 0 days 0 hours 0 minutes 50 seconds 389 msec
