                         Program Version 5.0.3 -  RELEASE  -
|  1> !ri-mp2 aug-cc-pvtz aug-cc-pvtz/c tightscf
|  2> %pal nprocs 16 end
|  3>
|  4> * xyz 0 1
|  5> N      0.000000    1.175961   -0.636160
|  6> N      0.000000    1.151724    0.677844
|  7> N      0.000000    0.000000    1.324042
|  8> N      0.000000   -1.151724    0.677844
|  9> N      0.000000   -1.175961   -0.636160
| 10> C      0.000000    0.000000   -1.252774
| 11> H      0.000000    0.000000   -2.335236
| 12> *
| 13>
| 14>                          ****END OF INPUT****

CARTESIAN COORDINATES (ANGSTROEM)
---------------------------------
  N      0.000000    1.175961   -0.636160
  N      0.000000    1.151724    0.677844
  N      0.000000    0.000000    1.324042
  N      0.000000   -1.151724    0.677844
  N      0.000000   -1.175961   -0.636160
  C      0.000000    0.000000   -1.252774
  H      0.000000    0.000000   -2.335236

 Total Charge           Charge          ....    0
 Multiplicity           Mult            ....    1
 Number of Electrons    NEL             ....   42
 Basis Dimension        Dim             ....  299

ORBITAL ENERGIES
----------------

  NO   OCC          E(Eh)            E(eV)
   0   2.0000     -15.719143      -427.7396
   1   2.0000     -15.719131      -427.7393
   2   2.0000     -15.696065      -427.1117
   3   2.0000     -15.676672      -426.5839
   4   2.0000     -15.676652      -426.5834
   5   2.0000     -11.374762      -309.5230
   6   2.0000      -1.514878       -41.2219
   7   2.0000      -1.369223       -37.2585
   8   2.0000      -1.293379       -35.1946
   9   2.0000      -1.064415       -28.9642
  10   2.0000      -1.024651       -27.8822
  11   2.0000      -0.838176       -22.8079
  12   2.0000      -0.771538       -20.9946
  13   2.0000      -0.687643       -18.7117
  14   2.0000      -0.664422       -18.0798
  15   2.0000      -0.587173       -15.9778
  16   2.0000      -0.575489       -15.6599
  17   2.0000      -0.520472       -14.1628
  18   2.0000      -0.487253       -13.2588
  19   2.0000      -0.481637       -13.1060
  20   2.0000      -0.445562       -12.1244
  21   0.0000       0.013568         0.3692
  22   0.0000       0.023820         0.6482
  23   0.0000       0.034658         0.9431
  24   0.0000       0.063665         1.7324
  25   0.0000       0.069067         1.8794

MULLIKEN ATOMIC CHARGES
-----------------------
   0 N :   -0.124569
   1 N :   -0.074386
   2 N :   -0.062931
   3 N :   -0.074386
   4 N :   -0.124569
   5 C :   -0.160122
   6 H :    0.620963
Sum of atomic charges:   -0.0000000

LOEWDIN ATOMIC CHARGES
----------------------
   0 N :    0.182500
   1 N :    0.014326
   2 N :    0.004695
   3 N :    0.014326
   4 N :    0.182500
   5 C :   -0.197310
   6 H :   -0.201037

  Mayer bond orders larger than 0.100000
B(  0-N ,  1-N ) :   0.7929 B(  0-N ,  2-N ) :   0.1014 B(  0-N ,  5-C ) :   1.3145
B(  1-N ,  2-N ) :   0.8798 B(  1-N ,  3-N ) :   0.1672 B(  2-N ,  3-N ) :   0.8798
B(  2-N ,  4-N ) :   0.1014 B(  3-N ,  4-N ) :   0.7929 B(  4-N ,  5-C ) :   1.3145
B(  5-C ,  6-H ) :   0.5375

MP2 TOTAL ENERGY:     -311.787626407 Eh
FINAL SINGLE POINT ENERGY      -311.787626406744

DIPOLE MOMENT
-------------
                                X             Y             Z
Electronic contribution:     -0.00000      -0.00000       1.10730
Nuclear contribution   :      0.00000       0.00000      -2.21000
                        -----------------------------------------
Total Dipole Moment    :     -0.00000      -0.00000      -1.10271
                        -----------------------------------------
Magnitude (a.u.)       :      1.10271
Magnitude (Debye)      :      2.80285

Rotational constants in cm-1:     0.230776     0.222104     0.113179
Rotational constants in MHz :  6918.500595  6658.508765  3393.007667

                             ****ORCA TERMINATED NORMALLY****
TOTAL RUN TIME: 0 days 0 hours 1 minutes 13 seconds 614 msec
