                         Program Version 5.0.3 -  RELEASE  -
|  1> !ri-mp2 aug-cc-pvtz aug-cc-pvtz/c tightscf
|  2> %pal nprocs 16 end
|  3>
|  4> * xyz 0 1
|  5> C     -0.002527   -1.360148    1.209015
|  6> C     -0.002527   -1.360148   -1.209015
|  7> C     -0.002527    0.019496    1.209747
|  8> C     -0.002527    0.019496   -1.209747
|  9> C     -0.001512   -2.076412    0.000000
| 10> C     -0.002390    0.706727    0.000000
| 11> N     -0.043718   -3.450313    0.000000
| 12> N     -0.000096    2.164119    0.000000
| 13> O      0.000905    2.738949    1.083563
| 14> O      0.000905    2.738949   -1.083563
| 15> H     -0.005983   -1.897716    2.148203
| 16> H     -0.005983   -1.897716   -2.148203
| 17> H     -0.001593    0.575824    2.134036
| 18> H     -0.001593    0.575824   -2.134036
| 19> H      0.195712   -3.935056    0.846913
| 20> H      0.195712   -3.935056   -0.846913
| 21> *
| 22>
| 23>                          ****END OF INPUT****

CARTESIAN COORDINATES (ANGSTROEM)
---------------------------------
  C     -0.002527   -1.360148    1.209015
  C     -0.002527   -1.360148   -1.209015
  C     -0.002527    0.019496    1.209747
  C     -0.002527    0.019496   -1.209747
  C     -0.001512   -2.076412    0.000000
  C     -0.002390    0.706727    0.000000
  N     -0.043718   -3.450313    0.000000
  N     -0.000096    2.164119    0.000000
  O      0.000905    2.738949    1.083563
  O      0.000905    2.738949   -1.083563
  H     -0.005983   -1.897716    2.148203
  H     -0.005983   -1.897716   -2.148203
  H     -0.001593    0.575824    2.134036
  H     -0.001593    0.575824   -2.134036
  H      0.195712   -3.935056    0.846913
  H      0.195712   -3.935056   -0.846913

 Total Charge           Charge          ....    0
 Multiplicity           Mult            ....    1
 Number of Electrons    NEL             ....   72
 Basis Dimension        Dim             ....  598

ORBITAL ENERGIES
----------------

  NO   OCC          E(Eh)            E(eV)
   0   2.0000     -20.588424      -560.2395
   1   2.0000     -20.588374      -560.2381
   2   2.0000     -15.842645      -431.1003
   3   2.0000     -15.597991      -424.4429
   4   2.0000     -11.320935      -308.0583
   5   2.0000     -11.289053      -307.1907
   6   2.0000     -11.273402      -306.7649
   7   2.0000     -11.273338      -306.7631
   8   2.0000     -11.251586      -306.1712
   9   2.0000     -11.251570      -306.1708
  10   2.0000      -1.591951       -43.3192
  11   2.0000      -1.384323       -37.6693
  12   2.0000      -1.263167       -34.3725
  13   2.0000      -1.179341       -32.0915
  14   2.0000      -1.068047       -29.0630
  15   2.0000      -1.050615       -28.5887
  16   2.0000      -0.941655       -25.6237
  17   2.0000      -0.871509       -23.7150
  18   2.0000      -0.823676       -22.4134
  19   2.0000      -0.772390       -21.0178
  20   2.0000      -0.735876       -20.0242
  21   2.0000      -0.729317       -19.8457
  22   2.0000      -0.707637       -19.2558
  23   2.0000      -0.706016       -19.2117
  24   2.0000      -0.645101       -17.5541
  25   2.0000      -0.630172       -17.1479
  26   2.0000      -0.618701       -16.8357
  27   2.0000      -0.591916       -16.1069
  28   2.0000      -0.565676       -15.3928
  29   2.0000      -0.523225       -14.2377
  30   2.0000      -0.486265       -13.2319
  31   2.0000      -0.482050       -13.1173
  32   2.0000      -0.481319       -13.0974
  33   2.0000      -0.444635       -12.0991
  34   2.0000      -0.371556       -10.1105
  35   2.0000      -0.327671        -8.9164
  36   0.0000       0.015037         0.4092
  37   0.0000       0.026923         0.7326
  38   0.0000       0.036711         0.9990
  39   0.0000       0.047442         1.2910
  40   0.0000       0.049449         1.3456

MULLIKEN ATOMIC CHARGES
-----------------------
   0 C :   -0.705175
   1 C :   -0.705171
   2 C :   -0.545408
   3 C :   -0.545412
   4 C :    1.426563
   5 C :    0.485397
   6 N :   -0.772166
   7 N :    0.714971
   8 O :   -0.696556
   9 O :   -0.696556
  10 H :    0.351912
  11 H :    0.351911
  12 H :    0.602507
  13 H :    0.602506
  14 H :    0.065339
  15 H :    0.065339
Sum of atomic charges:    0.0000000

LOEWDIN ATOMIC CHARGES
----------------------
   0 C :    0.237718
   1 C :    0.237718
   2 C :    0.205545
   3 C :    0.205545
   4 C :   -0.229188
   5 C :   -0.229819
   6 N :    0.866162
   7 N :   -0.723803
   8 O :    0.381522
   9 O :    0.381522
  10 H :   -0.181168
  11 H :   -0.181168
  12 H :   -0.189327
  13 H :   -0.189327
  14 H :   -0.295965
  15 H :   -0.295965

  Mayer bond orders larger than 0.100000
B(  0-C ,  1-C ) :   0.1569 B(  0-C ,  2-C ) :   1.5148 B(  0-C ,  4-C ) :   0.7814
B(  0-C ,  5-C ) :  -0.1303 B(  0-C ,  6-N ) :  -0.1489 B(  0-C , 10-H ) :   0.8998
B(  1-C ,  3-C ) :   1.5148 B(  1-C ,  4-C ) :   0.7814 B(  1-C ,  5-C ) :  -0.1303
B(  1-C ,  6-N ) :  -0.1489 B(  1-C , 11-H ) :   0.8998 B(  2-C ,  5-C ) :   0.9503
B(  2-C ,  7-N ) :  -0.2132 B(  2-C ,  8-O ) :  -0.1147 B(  2-C , 12-H ) :   0.5398
B(  3-C ,  5-C ) :   0.9503 B(  3-C ,  7-N ) :  -0.2132 B(  3-C ,  9-O ) :  -0.1147
B(  3-C , 13-H ) :   0.5398 B(  4-C ,  5-C ) :   0.1653 B(  4-C ,  6-N ) :   0.5587
B(  5-C ,  7-N ) :   1.2403 B(  5-C ,  8-O ) :   0.4205 B(  5-C ,  9-O ) :   0.4205
B(  6-N , 14-H ) :   1.1465 B(  6-N , 15-H ) :   1.1465 B(  7-N ,  8-O ) :   1.0163
B(  7-N ,  9-O ) :   1.0163 B(  8-O , 12-H ) :  -0.1005 B(  9-O , 13-H ) :  -0.1005

MP2 TOTAL ENERGY:     -491.255071873 Eh
FINAL SINGLE POINT ENERGY      -491.255071872666

DIPOLE MOMENT
-------------
                                X             Y             Z
Electronic contribution:     -0.09380       7.34948      -0.00000
Nuclear contribution   :      0.36814     -10.21564       0.00000
                        -----------------------------------------
Total Dipole Moment    :      0.27434      -2.86616      -0.00000
                        -----------------------------------------
Magnitude (a.u.)       :      2.87926
Magnitude (Debye)      :      7.31850

Rotational constants in cm-1:     0.131833     0.027496     0.022757
Rotational constants in MHz :  3952.249093   824.304709   682.240605

                             ****ORCA TERMINATED NORMALLY****
TOTAL RUN TIME: 0 days 0 hours 8 minutes 55 seconds 330 msec
