                         Program Version 5.0.3 -  RELEASE  -
|  1> !ri-mp2 aug-cc-pvtz aug-cc-pvtz/c tightscf
|  2> %pal nprocs 16 end
|  3> %maxcore 3800
|  4>
|  5> * xyz 0 1
|  6> O      1.182952    0.463928    2.029051
|  7> S      0.000000    0.000000    1.311979
|  8> O     -1.182952   -0.463928    2.029051
|  9> C     -0.520392    1.327106    0.212950
| 10> C      0.409097    2.277935   -0.192069
| 11> C      0.000000    3.304743   -1.033775
| 12> C     -1.322848    3.373603   -1.458638
| 13> C     -2.245249    2.421077   -1.037808
| 14> C     -1.847361    1.389895   -0.196106
| 15> C      0.520392   -1.327106    0.212950
| 16> C     -0.409097   -2.277935   -0.192069
| 17> C      0.000000   -3.304743   -1.033775
| 18> C      1.322848   -3.373603   -1.458638
| 19> C      2.245249   -2.421077   -1.037808
| 20> C      1.847361   -1.389895   -0.196106
| 21> H      1.426580    2.222201    0.166269
| 22> H      0.711915    4.054300   -1.350886
| 23> H     -1.637459    4.175977   -2.112088
| 24> H     -3.276080    2.484727   -1.358041
| 25> H     -2.555114    0.655284    0.159175
| 26> H     -1.426580   -2.222201    0.166269
| 27> H     -0.711915   -4.054300   -1.350886
| 28> H      1.637459   -4.175977   -2.112088
| 29> H      3.276080   -2.484727   -1.358041
| 30> H      2.555114   -0.655284    0.159175
| 31> *
| 32>
| 33>                          ****END OF INPUT****

CARTESIAN COORDINATES (ANGSTROEM)
---------------------------------
  O      1.182952    0.463928    2.029051
  S      0.000000    0.000000    1.311979
  O     -1.182952   -0.463928    2.029051
  C     -0.520392    1.327106    0.212950
  C      0.409097    2.277935   -0.192069
  C      0.000000    3.304743   -1.033775
  C     -1.322848    3.373603   -1.458638
  C     -2.245249    2.421077   -1.037808
  C     -1.847361    1.389895   -0.196106
  C      0.520392   -1.327106    0.212950
  C     -0.409097   -2.277935   -0.192069
  C      0.000000   -3.304743   -1.033775
  C      1.322848   -3.373603   -1.458638
  C      2.245249   -2.421077   -1.037808
  C      1.847361   -1.389895   -0.196106
  H      1.426580    2.222201    0.166269
  H      0.711915    4.054300   -1.350886
  H     -1.637459    4.175977   -2.112088
  H     -3.276080    2.484727   -1.358041
  H     -2.555114    0.655284    0.159175
  H     -1.426580   -2.222201    0.166269
  H     -0.711915   -4.054300   -1.350886
  H      1.637459   -4.175977   -2.112088
  H      3.276080   -2.484727   -1.358041
  H      2.555114   -0.655284    0.159175

 Total Charge           Charge          ....    0
 Multiplicity           Mult            ....    1
 Number of Electrons    NEL             ....  114
 Basis Dimension        Dim             ....  924

ORBITAL ENERGIES
----------------

  NO   OCC          E(Eh)            E(eV)
   0   2.0000     -92.183919     -2508.4520
   1   2.0000     -20.542114      -558.9793
   2   2.0000     -20.542095      -558.9788
   3   2.0000     -11.277973      -306.8893
   4   2.0000     -11.277961      -306.8889
   5   2.0000     -11.263540      -306.4965
   6   2.0000     -11.263539      -306.4965
   7   2.0000     -11.263470      -306.4946
   8   2.0000     -11.263469      -306.4946
   9   2.0000     -11.260577      -306.4159
  10   2.0000     -11.260577      -306.4159
  11   2.0000     -11.254846      -306.2599
  12   2.0000     -11.254846      -306.2599
  13   2.0000     -11.254704      -306.2561
  14   2.0000     -11.254704      -306.2561
  15   2.0000      -9.152210      -249.0443
  16   2.0000      -6.836725      -186.0367
  17   2.0000      -6.836687      -186.0357
  18   2.0000      -6.836507      -186.0308
  19   2.0000      -1.441979       -39.2382
  20   2.0000      -1.332278       -36.2531
  21   2.0000      -1.183827       -32.2136
  22   2.0000      -1.179962       -32.1084
  23   2.0000      -1.066501       -29.0210
  24   2.0000      -1.044300       -28.4168
  25   2.0000      -1.042232       -28.3606
  26   2.0000      -1.041475       -28.3400
  27   2.0000      -0.923814       -25.1383
  28   2.0000      -0.855302       -23.2740
  29   2.0000      -0.853067       -23.2131
  30   2.0000      -0.851628       -23.1740
  31   2.0000      -0.800566       -21.7845
  32   2.0000      -0.744915       -20.2702
  33   2.0000      -0.724903       -19.7256
  34   2.0000      -0.679950       -18.5024
  35   2.0000      -0.663964       -18.0674
  36   2.0000      -0.663357       -18.0509
  37   2.0000      -0.651077       -17.7167
  38   2.0000      -0.639227       -17.3943
  39   2.0000      -0.635833       -17.3019
  40   2.0000      -0.618398       -16.8275
  41   2.0000      -0.614923       -16.7329
  42   2.0000      -0.612261       -16.6605
  43   2.0000      -0.546913       -14.8823
  44   2.0000      -0.545478       -14.8432
  45   2.0000      -0.537874       -14.6363
  46   2.0000      -0.522309       -14.2127
  47   2.0000      -0.520717       -14.1694
  48   2.0000      -0.519984       -14.1495
  49   2.0000      -0.496783       -13.5182
  50   2.0000      -0.490023       -13.3342
  51   2.0000      -0.469851       -12.7853
  52   2.0000      -0.437460       -11.9039
  53   2.0000      -0.383365       -10.4319
  54   2.0000      -0.362079        -9.8527
  55   2.0000      -0.356933        -9.7126
  56   2.0000      -0.352981        -9.6051
  57   0.0000       0.022688         0.6174
  58   0.0000       0.024978         0.6797
  59   0.0000       0.028917         0.7869
  60   0.0000       0.037256         1.0138
  61   0.0000       0.038480         1.0471

MULLIKEN ATOMIC CHARGES
-----------------------
   0 O :   -1.136700
   1 S :    2.033855
   2 O :   -1.136703
   3 C :    0.851442
   4 C :   -0.756486
   5 C :   -0.564693
   6 C :   -0.206740
   7 C :   -0.564050
   8 C :   -0.756202
   9 C :    0.851534
  10 C :   -0.756515
  11 C :   -0.564665
  12 C :   -0.206796
  13 C :   -0.564038
  14 C :   -0.756251
  15 H :    0.392688
  16 H :    0.375769
  17 H :    0.578670
  18 H :    0.375603
  19 H :    0.393773
  20 H :    0.392676
  21 H :    0.375819
  22 H :    0.578646
  23 H :    0.375622
  24 H :    0.393741
Sum of atomic charges:   -0.0000000

LOEWDIN ATOMIC CHARGES
----------------------
   0 O :    0.053629
   1 S :    0.288415
   2 O :    0.053629
   3 C :   -0.229519
   4 C :    0.167391
   5 C :    0.209842
   6 C :    0.208850
   7 C :    0.209854
   8 C :    0.167413
   9 C :   -0.229519
  10 C :    0.167391
  11 C :    0.209842
  12 C :    0.208850
  13 C :    0.209854
  14 C :    0.167413
  15 H :   -0.195313
  16 H :   -0.181687
  17 H :   -0.177840
  18 H :   -0.181683
  19 H :   -0.195143
  20 H :   -0.195313
  21 H :   -0.181687
  22 H :   -0.177840
  23 H :   -0.181683
  24 H :   -0.195143

  Mayer bond orders larger than 0.100000
B(  0-O ,  1-S ) :   0.7220 B(  0-O ,  3-C ) :   0.1306 B(  0-O ,  9-C ) :   0.1307
B(  1-S ,  2-O ) :   0.7220 B(  1-S ,  3-C ) :   1.2069 B(  1-S ,  9-C ) :   1.2069
B(  2-O ,  3-C ) :   0.1307 B(  2-O ,  9-C ) :   0.1306 B(  3-C ,  4-C ) :   0.4745
B(  3-C ,  8-C ) :   0.4749 B(  3-C ,  9-C ) :   0.3892 B(  4-C ,  5-C ) :   1.1844
B(  4-C ,  6-C ) :   0.1136 B(  4-C ,  8-C ) :   0.1260 B(  4-C , 15-H ) :   0.8611
B(  4-C , 16-H ) :  -0.1043 B(  5-C ,  6-C ) :   1.1256 B(  5-C , 16-H ) :   1.0029
B(  5-C , 17-H ) :  -0.1256 B(  6-C ,  7-C ) :   1.1255 B(  6-C ,  8-C ) :   0.1138
B(  6-C , 17-H ) :   0.6284 B(  7-C ,  8-C ) :   1.1844 B(  7-C , 17-H ) :  -0.1255
B(  7-C , 18-H ) :   1.0032 B(  8-C , 18-H ) :  -0.1041 B(  8-C , 19-H ) :   0.8585
B(  9-C , 10-C ) :   0.4744 B(  9-C , 14-C ) :   0.4747 B( 10-C , 11-C ) :   1.1843
B( 10-C , 12-C ) :   0.1136 B( 10-C , 14-C ) :   0.1261 B( 10-C , 20-H ) :   0.8611
B( 10-C , 21-H ) :  -0.1043 B( 11-C , 12-C ) :   1.1255 B( 11-C , 21-H ) :   1.0028
B( 11-C , 22-H ) :  -0.1256 B( 12-C , 13-C ) :   1.1254 B( 12-C , 14-C ) :   0.1138
B( 12-C , 22-H ) :   0.6284 B( 13-C , 14-C ) :   1.1844 B( 13-C , 22-H ) :  -0.1255
B( 13-C , 23-H ) :   1.0032 B( 14-C , 23-H ) :  -0.1041 B( 14-C , 24-H ) :   0.8586

MP2 TOTAL ENERGY:    -1010.267458458 Eh
FINAL SINGLE POINT ENERGY     -1010.267458458287

DIPOLE MOMENT
-------------
                                X             Y             Z
Electronic contribution:      0.00000      -0.00000       6.47766
Nuclear contribution   :      0.00000      -0.00000      -8.79634
                        -----------------------------------------
Total Dipole Moment    :      0.00000      -0.00000      -2.31868
                        -----------------------------------------
Magnitude (a.u.)       :      2.31868
Magnitude (Debye)      :      5.89361

Rotational constants in cm-1:     0.031346     0.012636     0.011926
Rotational constants in MHz :   939.719137   378.811425   357.527925

                             ****ORCA TERMINATED NORMALLY****
TOTAL RUN TIME: 0 days 0 hours 30 minutes 49 seconds 984 msec
