                         Program Version 5.0.3 -  RELEASE  -
|  1> !ri-mp2 aug-cc-pvtz aug-cc-pvtz/c tightscf
|  2> %pal nprocs 16 end
|  3>
|  4> * xyz 0 1
|  5> C      1.264505    0.437243        0.000000
|  6> C     -1.134314    0.204052        0.000000
|  7> C      1.405404   -0.941236        0.000000
|  8> C     -1.007552   -1.169144        0.000000
|  9> C      0.000000    1.026568        0.000000
| 10> C      0.266706   -1.745847        0.000000
| 11> C     -0.123034    2.491555        0.000000
| 12> O     -1.167015    3.105905        0.000000
| 13> O      0.332247   -3.103791        0.000000
| 14> H      2.146215    1.066352        0.000000
| 15> H     -2.110754    0.668386        0.000000
| 16> H      2.389487   -1.394063        0.000000
| 17> H     -1.872992   -1.816544        0.000000
| 18> H      0.845206    3.032775        0.000000
| 19> H      1.250697   -3.392963        0.000000
| 20> *
| 21>
| 22>                          ****END OF INPUT****

CARTESIAN COORDINATES (ANGSTROEM)
---------------------------------
  C      1.264505    0.437243    0.000000
  C     -1.134314    0.204052    0.000000
  C      1.405404   -0.941236    0.000000
  C     -1.007552   -1.169144    0.000000
  C      0.000000    1.026568    0.000000
  C      0.266706   -1.745847    0.000000
  C     -0.123034    2.491555    0.000000
  O     -1.167015    3.105905    0.000000
  O      0.332247   -3.103791    0.000000
  H      2.146215    1.066352    0.000000
  H     -2.110754    0.668386    0.000000
  H      2.389487   -1.394063    0.000000
  H     -1.872992   -1.816544    0.000000
  H      0.845206    3.032775    0.000000
  H      1.250697   -3.392963    0.000000

 Total Charge           Charge          ....    0
 Multiplicity           Mult            ....    1
 Number of Electrons    NEL             ....   64
 Basis Dimension        Dim             ....  552

ORBITAL ENERGIES
----------------

  NO   OCC          E(Eh)            E(eV)
   0   2.0000     -20.613065      -560.9100
   1   2.0000     -20.549254      -559.1736
   2   2.0000     -11.331337      -308.3414
   3   2.0000     -11.331100      -308.3349
   4   2.0000     -11.269483      -306.6582
   5   2.0000     -11.260412      -306.4114
   6   2.0000     -11.251367      -306.1653
   7   2.0000     -11.245137      -305.9957
   8   2.0000     -11.244685      -305.9834
   9   2.0000      -1.430008       -38.9125
  10   2.0000      -1.386291       -37.7229
  11   2.0000      -1.174256       -31.9531
  12   2.0000      -1.047495       -28.5038
  13   2.0000      -1.041758       -28.3477
  14   2.0000      -0.897787       -24.4300
  15   2.0000      -0.862458       -23.4687
  16   2.0000      -0.804105       -21.8808
  17   2.0000      -0.757328       -20.6079
  18   2.0000      -0.695606       -18.9284
  19   2.0000      -0.690249       -18.7826
  20   2.0000      -0.641280       -17.4501
  21   2.0000      -0.625774       -17.0282
  22   2.0000      -0.613523       -16.6948
  23   2.0000      -0.612874       -16.6771
  24   2.0000      -0.588535       -16.0148
  25   2.0000      -0.562592       -15.3089
  26   2.0000      -0.549551       -14.9541
  27   2.0000      -0.511895       -13.9294
  28   2.0000      -0.488488       -13.2924
  29   2.0000      -0.425426       -11.5764
  30   2.0000      -0.364420        -9.9164
  31   2.0000      -0.335365        -9.1257
  32   0.0000       0.019014         0.5174
  33   0.0000       0.030923         0.8415
  34   0.0000       0.036239         0.9861
  35   0.0000       0.046328         1.2606
  36   0.0000       0.052844         1.4380

MULLIKEN ATOMIC CHARGES
-----------------------
   0 C :   -0.801442
   1 C :   -0.488296
   2 C :   -0.847644
   3 C :   -0.860792
   4 C :    1.614507
   5 C :    1.014029
   6 C :   -0.290846
   7 O :   -0.855106
   8 O :   -0.797049
   9 H :    0.241053
  10 H :    0.230994
  11 H :    0.493691
  12 H :    0.646411
  13 H :    0.532798
  14 H :    0.167694
Sum of atomic charges:    0.0000000

LOEWDIN ATOMIC CHARGES
----------------------
   0 C :    0.190753
   1 C :    0.209790
   2 C :    0.225592
   3 C :    0.230436
   4 C :   -0.154473
   5 C :   -0.365722
   6 C :   -0.245034
   7 O :    0.430640
   8 O :    0.848747
   9 H :   -0.174273
  10 H :   -0.171964
  11 H :   -0.185188
  12 H :   -0.180526
  13 H :   -0.186892
  14 H :   -0.471886

  Mayer bond orders larger than 0.100000
B(  0-C ,  1-C ) :  -0.1633 B(  0-C ,  2-C ) :   1.2736 B(  0-C ,  4-C ) :   0.3503
B(  0-C ,  9-H ) :   1.2718 B(  1-C ,  3-C ) :   1.3628 B(  1-C ,  4-C ) :   0.5383
B(  1-C ,  5-C ) :  -0.2548 B(  1-C ,  6-C ) :   0.1479 B(  1-C ,  9-H ) :   0.1052
B(  1-C , 10-H ) :   1.0861 B(  2-C ,  3-C ) :   0.3193 B(  2-C ,  5-C ) :   1.1510
B(  2-C ,  9-H ) :  -0.1044 B(  2-C , 11-H ) :   0.6272 B(  3-C ,  4-C ) :   0.1273
B(  3-C ,  5-C ) :   1.0819 B(  3-C , 12-H ) :   0.3872 B(  4-C ,  5-C ) :   0.1047
B(  4-C ,  6-C ) :   0.3761 B(  4-C ,  7-O ) :  -0.1718 B(  4-C ,  9-H ) :  -0.1443
B(  4-C , 10-H ) :  -0.1494 B(  5-C ,  8-O ) :   0.5695 B(  6-C ,  7-O ) :   1.4693
B(  6-C , 13-H ) :   0.7062 B(  7-O , 13-H ) :  -0.1345 B(  8-O , 14-H ) :   1.0508

MP2 TOTAL ENERGY:     -420.029944688 Eh
FINAL SINGLE POINT ENERGY      -420.029944687830

DIPOLE MOMENT
-------------
                                X             Y             Z
Electronic contribution:     -1.12184       0.64099       0.00000
Nuclear contribution   :      2.59314      -1.80706       0.00000
                        -----------------------------------------
Total Dipole Moment    :      1.47130      -1.16608       0.00000
                        -----------------------------------------
Magnitude (a.u.)       :      1.87736
Magnitude (Debye)      :      4.77186

Rotational constants in cm-1:     0.171126     0.033237     0.027831
Rotational constants in MHz :  5130.218801   996.407384   834.356094

                             ****ORCA TERMINATED NORMALLY****
TOTAL RUN TIME: 0 days 0 hours 6 minutes 41 seconds 596 msec
