                         Program Version 5.0.3 -  RELEASE  -
|  1> !ri-mp2 aug-cc-pvtz aug-cc-pvtz/c tightscf
|  2> %pal nprocs 16 end
|  3>
|  4> * xyz 0 1
|  5> C      0.088227   -0.640097    0.000000
|  6> C     -0.628654    0.743753    0.000000
|  7> Cl     1.853861   -0.454917    0.000000
|  8> F     -0.297556   -1.321635    1.086547
|  9> F     -0.297556   -1.321635   -1.086547
| 10> F     -1.951228    0.550467    0.000000
| 11> F     -0.297556    1.441493    1.086607
| 12> F     -0.297556    1.441493   -1.086607
| 13> *
| 14>
| 15>                          ****END OF INPUT****

CARTESIAN COORDINATES (ANGSTROEM)
---------------------------------
  C      0.088227   -0.640097    0.000000
  C     -0.628654    0.743753    0.000000
  Cl     1.853861   -0.454917    0.000000
  F     -0.297556   -1.321635    1.086547
  F     -0.297556   -1.321635   -1.086547
  F     -1.951228    0.550467    0.000000
  F     -0.297556    1.441493    1.086607
  F     -0.297556    1.441493   -1.086607

 Total Charge           Charge          ....    0
 Multiplicity           Mult            ....    1
 Number of Electrons    NEL             ....   74
 Basis Dimension        Dim             ....  372

ORBITAL ENERGIES
----------------

  NO   OCC          E(Eh)            E(eV)
   0   2.0000    -104.889781     -2854.1960
   1   2.0000     -26.376110      -717.7304
   2   2.0000     -26.376089      -717.7299
   3   2.0000     -26.375114      -717.7034
   4   2.0000     -26.375094      -717.7028
   5   2.0000     -26.374032      -717.6739
   6   2.0000     -11.555186      -314.4326
   7   2.0000     -11.531086      -313.7768
   8   2.0000     -10.614076      -288.8237
   9   2.0000      -8.080891      -219.8922
  10   2.0000      -8.078723      -219.8332
  11   2.0000      -8.078715      -219.8330
  12   2.0000      -1.770651       -48.1819
  13   2.0000      -1.732027       -47.1309
  14   2.0000      -1.676268       -45.6136
  15   2.0000      -1.670873       -45.4668
  16   2.0000      -1.665406       -45.3180
  17   2.0000      -1.193343       -32.4725
  18   2.0000      -1.063206       -28.9313
  19   2.0000      -0.951952       -25.9039
  20   2.0000      -0.883635       -24.0449
  21   2.0000      -0.867372       -23.6024
  22   2.0000      -0.861006       -23.4292
  23   2.0000      -0.823054       -22.3964
  24   2.0000      -0.800929       -21.7944
  25   2.0000      -0.755062       -20.5463
  26   2.0000      -0.741791       -20.1852
  27   2.0000      -0.737739       -20.0749
  28   2.0000      -0.727699       -19.8017
  29   2.0000      -0.701635       -19.0925
  30   2.0000      -0.698381       -19.0039
  31   2.0000      -0.687804       -18.7161
  32   2.0000      -0.682515       -18.5722
  33   2.0000      -0.650826       -17.7099
  34   2.0000      -0.570800       -15.5323
  35   2.0000      -0.509844       -13.8735
  36   2.0000      -0.507821       -13.8185
  37   0.0000       0.056084         1.5261
  38   0.0000       0.063357         1.7240
  39   0.0000       0.068964         1.8766
  40   0.0000       0.078709         2.1418
  41   0.0000       0.093620         2.5475

MULLIKEN ATOMIC CHARGES
-----------------------
   0 C :    0.876927
   1 C :    1.195092
   2 Cl:   -0.208221
   3 F :   -0.386223
   4 F :   -0.386223
   5 F :   -0.370770
   6 F :   -0.360291
   7 F :   -0.360291
Sum of atomic charges:   -0.0000000

LOEWDIN ATOMIC CHARGES
----------------------
   0 C :   -1.750665
   1 C :   -1.626594
   2 Cl:    0.946944
   3 F :    0.459893
   4 F :    0.459893
   5 F :    0.506599
   6 F :    0.501965
   7 F :    0.501965

  Mayer bond orders larger than 0.100000
B(  0-C ,  1-C ) :   0.9933 B(  0-C ,  2-Cl) :   0.9845 B(  0-C ,  3-F ) :   0.7712
B(  0-C ,  4-F ) :   0.7712 B(  1-C ,  5-F ) :   0.8260 B(  1-C ,  6-F ) :   0.8110
B(  1-C ,  7-F ) :   0.8110

MP2 TOTAL ENERGY:    -1034.465400847 Eh
FINAL SINGLE POINT ENERGY     -1034.465400846652

DIPOLE MOMENT
-------------
                                X             Y             Z
Electronic contribution:     -0.15172       0.11790       0.00000
Nuclear contribution   :      0.40509      -0.11656       0.00000
                        -----------------------------------------
Total Dipole Moment    :      0.25337       0.00134       0.00000
                        -----------------------------------------
Magnitude (a.u.)       :      0.25337
Magnitude (Debye)      :      0.64403

Rotational constants in cm-1:     0.077710     0.049841     0.044867
Rotational constants in MHz :  2329.677006  1494.184545  1345.087955

                             ****ORCA TERMINATED NORMALLY****
TOTAL RUN TIME: 0 days 0 hours 1 minutes 38 seconds 327 msec
