                         Program Version 5.0.3 -  RELEASE  -
|  1> !ri-mp2 aug-cc-pvtz aug-cc-pvtz/c tightscf
|  2> %pal nprocs 16 end
|  3>
|  4> * xyz 0 1
|  5> H      0.006474   -0.227339    2.044374
|  6> H     -1.635546   -0.354899    1.408749
|  7> C     -0.624771   -0.007610    1.187918
|  8> H      0.006474   -0.227339   -2.044374
|  9> H     -1.635546   -0.354899   -1.408749
| 10> C     -0.624771   -0.007610   -1.187918
| 11> H     -1.486817    2.000076   -1.189456
| 12> H      0.267197    1.975221   -1.154715
| 13> C     -0.624771    1.478937   -0.776179
| 14> H     -1.486817    2.000076    1.189456
| 15> H      0.267197    1.975221    1.154715
| 16> C     -0.624771    1.478937    0.776179
| 17> N     -0.139113   -0.737456    0.000000
| 18> C      1.096623   -1.229239    0.000000
| 19> N      2.155136   -1.700631    0.000000
| 20> *
| 21>
| 22>                          ****END OF INPUT****

CARTESIAN COORDINATES (ANGSTROEM)
---------------------------------
  H      0.006474   -0.227339    2.044374
  H     -1.635546   -0.354899    1.408749
  C     -0.624771   -0.007610    1.187918
  H      0.006474   -0.227339   -2.044374
  H     -1.635546   -0.354899   -1.408749
  C     -0.624771   -0.007610   -1.187918
  H     -1.486817    2.000076   -1.189456
  H      0.267197    1.975221   -1.154715
  C     -0.624771    1.478937   -0.776179
  H     -1.486817    2.000076    1.189456
  H      0.267197    1.975221    1.154715
  C     -0.624771    1.478937    0.776179
  N     -0.139113   -0.737456    0.000000
  C      1.096623   -1.229239    0.000000
  N      2.155136   -1.700631    0.000000

 Total Charge           Charge          ....    0
 Multiplicity           Mult            ....    1
 Number of Electrons    NEL             ....   52
 Basis Dimension        Dim             ....  506

ORBITAL ENERGIES
----------------

  NO   OCC          E(Eh)            E(eV)
   0   2.0000     -15.611377      -424.8072
   1   2.0000     -15.546498      -423.0417
   2   2.0000     -11.290734      -307.2365
   3   2.0000     -11.284786      -307.0746
   4   2.0000     -11.284766      -307.0741
   5   2.0000     -11.245727      -306.0118
   6   2.0000     -11.245172      -305.9967
   7   2.0000      -1.303135       -35.4601
   8   2.0000      -1.190988       -32.4084
   9   2.0000      -1.071635       -29.1607
  10   2.0000      -1.015047       -27.6208
  11   2.0000      -0.895018       -24.3547
  12   2.0000      -0.823724       -22.4147
  13   2.0000      -0.746482       -20.3128
  14   2.0000      -0.690056       -18.7774
  15   2.0000      -0.638838       -17.3837
  16   2.0000      -0.632164       -17.2021
  17   2.0000      -0.574850       -15.6425
  18   2.0000      -0.568965       -15.4823
  19   2.0000      -0.540526       -14.7085
  20   2.0000      -0.516851       -14.0642
  21   2.0000      -0.511951       -13.9309
  22   2.0000      -0.505119       -13.7450
  23   2.0000      -0.490226       -13.3397
  24   2.0000      -0.442918       -12.0524
  25   2.0000      -0.374723       -10.1967
  26   0.0000       0.021903         0.5960
  27   0.0000       0.033088         0.9004
  28   0.0000       0.034092         0.9277
  29   0.0000       0.040870         1.1121
  30   0.0000       0.050599         1.3769

MULLIKEN ATOMIC CHARGES
-----------------------
   0 H :    0.369929
   1 H :    0.241643
   2 C :   -0.456171
   3 H :    0.369929
   4 H :    0.241643
   5 C :   -0.456171
   6 H :    0.310203
   7 H :    0.250372
   8 C :   -0.505852
   9 H :    0.310203
  10 H :    0.250372
  11 C :   -0.505852
  12 N :    0.365138
  13 C :   -0.126797
  14 N :   -0.658591
Sum of atomic charges:    0.0000000

LOEWDIN ATOMIC CHARGES
----------------------
   0 H :   -0.142667
   1 H :   -0.137988
   2 C :    0.219068
   3 H :   -0.142667
   4 H :   -0.137988
   5 C :    0.219068
   6 H :   -0.149828
   7 H :   -0.150140
   8 C :    0.336874
   9 H :   -0.149828
  10 H :   -0.150140
  11 C :    0.336874
  12 N :    0.201212
  13 C :   -0.382173
  14 N :    0.230323

  Mayer bond orders larger than 0.100000
B(  0-H ,  2-C ) :   0.8644 B(  1-H ,  2-C ) :   1.0022 B(  2-C , 11-C ) :   0.9812
B(  2-C , 12-N ) :   0.7593 B(  3-H ,  5-C ) :   0.8644 B(  4-H ,  5-C ) :   1.0022
B(  5-C ,  8-C ) :   0.9812 B(  5-C , 12-N ) :   0.7593 B(  6-H ,  8-C ) :   0.8797
B(  7-H ,  8-C ) :   0.9695 B(  8-C , 11-C ) :   0.9799 B(  9-H , 11-C ) :   0.8797
B( 10-H , 11-C ) :   0.9695 B( 12-N , 13-C ) :   0.9050 B( 12-N , 14-N ) :  -0.2186
B( 13-C , 14-N ) :   2.5755

MP2 TOTAL ENERGY:     -304.216251693 Eh
FINAL SINGLE POINT ENERGY      -304.216251693223

DIPOLE MOMENT
-------------
                                X             Y             Z
Electronic contribution:      4.05602      -5.51155      -0.00000
Nuclear contribution   :     -5.77585       6.87936       0.00000
                        -----------------------------------------
Total Dipole Moment    :     -1.71983       1.36781      -0.00000
                        -----------------------------------------
Magnitude (a.u.)       :      2.19743
Magnitude (Debye)      :      5.58543

Rotational constants in cm-1:     0.176967     0.069423     0.060154
Rotational constants in MHz :  5305.351866  2081.253485  1803.369897

                             ****ORCA TERMINATED NORMALLY****
TOTAL RUN TIME: 0 days 0 hours 5 minutes 10 seconds 873 msec
