                         Program Version 5.0.3 -  RELEASE  -
|  1> !ri-mp2 aug-cc-pvtz aug-cc-pvtz/c tightscf
|  2> %pal nprocs 16 end
|  3>
|  4> * xyz 0 1
|  5> C      0.771682   -0.432622    0.000000
|  6> C     -1.515437    0.563249    0.000000
|  7> C      0.000000    0.807103    0.000000
|  8> N      1.364991   -1.417770    0.000000
|  9> H     -1.819793    0.002200    0.881973
| 10> H     -2.041098    1.517131    0.000000
| 11> H     -1.819793    0.002200   -0.881973
| 12> H      0.294138    1.388238    0.876058
| 13> H      0.294138    1.388238   -0.876058
| 14> *
| 15>
| 16>                          ****END OF INPUT****

CARTESIAN COORDINATES (ANGSTROEM)
---------------------------------
  C      0.771682   -0.432622    0.000000
  C     -1.515437    0.563249    0.000000
  C      0.000000    0.807103    0.000000
  N      1.364991   -1.417770    0.000000
  H     -1.819793    0.002200    0.881973
  H     -2.041098    1.517131    0.000000
  H     -1.819793    0.002200   -0.881973
  H      0.294138    1.388238    0.876058
  H      0.294138    1.388238   -0.876058

 Total Charge           Charge          ....    0
 Multiplicity           Mult            ....    1
 Number of Electrons    NEL             ....   30
 Basis Dimension        Dim             ....  299

ORBITAL ENERGIES
----------------

  NO   OCC          E(Eh)            E(eV)
   0   2.0000     -15.566321      -423.5811
   1   2.0000     -11.286065      -307.1094
   2   2.0000     -11.271047      -306.7008
   3   2.0000     -11.248929      -306.0989
   4   2.0000      -1.220843       -33.2208
   5   2.0000      -1.083698       -29.4889
   6   2.0000      -0.914192       -24.8764
   7   2.0000      -0.703423       -19.1411
   8   2.0000      -0.659003       -17.9324
   9   2.0000      -0.590633       -16.0719
  10   2.0000      -0.563402       -15.3309
  11   2.0000      -0.544170       -14.8076
  12   2.0000      -0.541248       -14.7281
  13   2.0000      -0.458436       -12.4747
  14   2.0000      -0.458119       -12.4660
  15   0.0000       0.022446         0.6108
  16   0.0000       0.036979         1.0063
  17   0.0000       0.037712         1.0262
  18   0.0000       0.045868         1.2481
  19   0.0000       0.060426         1.6443

MULLIKEN ATOMIC CHARGES
-----------------------
   0 C :    0.094476
   1 C :   -0.897449
   2 C :   -0.175456
   3 N :   -0.500915
   4 H :    0.296957
   5 H :    0.298387
   6 H :    0.296957
   7 H :    0.293522
   8 H :    0.293522
Sum of atomic charges:    0.0000000

LOEWDIN ATOMIC CHARGES
----------------------
   0 C :   -0.217445
   1 C :    0.583360
   2 C :    0.214999
   3 N :    0.251618
   4 H :   -0.168412
   5 H :   -0.169478
   6 H :   -0.168412
   7 H :   -0.163115
   8 H :   -0.163115

  Mayer bond orders larger than 0.100000
B(  0-C ,  1-C ) :   0.1107 B(  0-C ,  2-C ) :   0.9068 B(  0-C ,  3-N ) :   2.3583
B(  1-C ,  2-C ) :   0.8809 B(  1-C ,  4-H ) :   0.9266 B(  1-C ,  5-H ) :   0.9388
B(  1-C ,  6-H ) :   0.9266 B(  2-C ,  7-H ) :   0.9213 B(  2-C ,  8-H ) :   0.9213

MP2 TOTAL ENERGY:     -171.721696132 Eh
FINAL SINGLE POINT ENERGY      -171.721696132361

DIPOLE MOMENT
-------------
                                X             Y             Z
Electronic contribution:      4.22199      -2.97397       0.00000
Nuclear contribution   :     -5.20091       4.38799       0.00000
                        -----------------------------------------
Total Dipole Moment    :     -0.97892       1.41402       0.00000
                        -----------------------------------------
Magnitude (a.u.)       :      1.71980
Magnitude (Debye)      :      4.37139

Rotational constants in cm-1:     0.940156     0.156620     0.141265
Rotational constants in MHz : 28185.154270  4695.353194  4235.007188

                             ****ORCA TERMINATED NORMALLY****
TOTAL RUN TIME: 0 days 0 hours 0 minutes 53 seconds 886 msec
