                         Program Version 5.0.3 -  RELEASE  -
|  1> !ri-mp2 aug-cc-pvtz aug-cc-pvtz/c tightscf
|  2> %pal nprocs 16 end
|  3>
|  4> * xyz 0 1
|  5> C      1.317704    0.115038        0.000000
|  6> C     -1.022687   -0.385775        0.000000
|  7> C      1.558392   -1.254677        0.000000
|  8> C     -0.677231   -1.728443        0.000000
|  9> C      0.000000    0.561086        0.000000
| 10> C     -0.292864    2.016587        0.000000
| 11> N      0.586424   -2.165062        0.000000
| 12> O     -1.402646    2.490215        0.000000
| 13> H      2.141104    0.817975        0.000000
| 14> H     -2.055648   -0.068068        0.000000
| 15> H      2.573168   -1.634741        0.000000
| 16> H     -1.445137   -2.492744        0.000000
| 17> H      0.602825    2.668397        0.000000
| 18> *
| 19>
| 20>                          ****END OF INPUT****

CARTESIAN COORDINATES (ANGSTROEM)
---------------------------------
  C      1.317704    0.115038    0.000000
  C     -1.022687   -0.385775    0.000000
  C      1.558392   -1.254677    0.000000
  C     -0.677231   -1.728443    0.000000
  C      0.000000    0.561086    0.000000
  C     -0.292864    2.016587    0.000000
  N      0.586424   -2.165062    0.000000
  O     -1.402646    2.490215    0.000000
  H      2.141104    0.817975    0.000000
  H     -2.055648   -0.068068    0.000000
  H      2.573168   -1.634741    0.000000
  H     -1.445137   -2.492744    0.000000
  H      0.602825    2.668397    0.000000

 Total Charge           Charge          ....    0
 Multiplicity           Mult            ....    1
 Number of Electrons    NEL             ....   56
 Basis Dimension        Dim             ....  483

ORBITAL ENERGIES
----------------

  NO   OCC          E(Eh)            E(eV)
   0   2.0000     -20.575623      -559.8912
   1   2.0000     -15.586426      -424.1282
   2   2.0000     -11.351342      -308.8857
   3   2.0000     -11.291126      -307.2472
   4   2.0000     -11.288393      -307.1728
   5   2.0000     -11.277737      -306.8828
   6   2.0000     -11.266634      -306.5807
   7   2.0000     -11.259680      -306.3915
   8   2.0000      -1.411970       -38.4217
   9   2.0000      -1.278413       -34.7874
  10   2.0000      -1.123134       -30.5620
  11   2.0000      -1.054148       -28.6848
  12   2.0000      -0.931444       -25.3459
  13   2.0000      -0.879509       -23.9327
  14   2.0000      -0.815725       -22.1970
  15   2.0000      -0.733920       -19.9710
  16   2.0000      -0.697894       -18.9907
  17   2.0000      -0.671525       -18.2731
  18   2.0000      -0.647660       -17.6237
  19   2.0000      -0.626695       -17.0532
  20   2.0000      -0.615665       -16.7531
  21   2.0000      -0.578328       -15.7371
  22   2.0000      -0.538245       -14.6464
  23   2.0000      -0.536292       -14.5933
  24   2.0000      -0.454030       -12.3548
  25   2.0000      -0.432801       -11.7771
  26   2.0000      -0.399772       -10.8783
  27   2.0000      -0.364774        -9.9260
  28   0.0000       0.024077         0.6552
  29   0.0000       0.032483         0.8839
  30   0.0000       0.035979         0.9790
  31   0.0000       0.040388         1.0990
  32   0.0000       0.050777         1.3817

MULLIKEN ATOMIC CHARGES
-----------------------
   0 C :   -0.618034
   1 C :   -0.425690
   2 C :   -0.499474
   3 C :   -0.615188
   4 C :    1.425586
   5 C :   -0.317585
   6 N :   -0.519514
   7 O :   -0.809740
   8 H :    0.233161
   9 H :    0.253879
  10 H :    0.673730
  11 H :    0.680556
  12 H :    0.538314
Sum of atomic charges:    0.0000000

LOEWDIN ATOMIC CHARGES
----------------------
   0 C :    0.203007
   1 C :    0.215694
   2 C :    0.024213
   3 C :    0.028338
   4 C :   -0.156176
   5 C :   -0.216542
   6 N :    0.378904
   7 O :    0.450272
   8 H :   -0.182415
   9 H :   -0.180570
  10 H :   -0.191113
  11 H :   -0.190681
  12 H :   -0.182930

  Mayer bond orders larger than 0.100000
B(  0-C ,  2-C ) :   1.0820 B(  0-C ,  4-C ) :   0.7577 B(  0-C ,  8-H ) :   1.2039
B(  1-C ,  3-C ) :   1.0486 B(  1-C ,  4-C ) :   0.8697 B(  1-C ,  9-H ) :   1.0646
B(  2-C ,  3-C ) :   0.1050 B(  2-C ,  6-N ) :   1.1910 B(  2-C , 10-H ) :   0.4282
B(  3-C ,  6-N ) :   1.1141 B(  3-C , 11-H ) :   0.3943 B(  4-C ,  5-C ) :   0.4727
B(  4-C ,  7-O ) :  -0.1525 B(  4-C ,  8-H ) :  -0.1537 B(  4-C ,  9-H ) :  -0.1287
B(  5-C ,  7-O ) :   1.4950 B(  5-C , 12-H ) :   0.6988 B(  6-N , 10-H ) :  -0.1134
B(  7-O , 12-H ) :  -0.1226

MP2 TOTAL ENERGY:     -360.926536897 Eh
FINAL SINGLE POINT ENERGY      -360.926536896532

DIPOLE MOMENT
-------------
                                X             Y             Z
Electronic contribution:     -0.94362       0.69001       0.00000
Nuclear contribution   :      1.76509      -0.67027       0.00000
                        -----------------------------------------
Total Dipole Moment    :      0.82147       0.01974       0.00000
                        -----------------------------------------
Magnitude (a.u.)       :      0.82171
Magnitude (Debye)      :      2.08861

Rotational constants in cm-1:     0.185488     0.052098     0.040674
Rotational constants in MHz :  5560.782827  1561.858890  1219.373154

                             ****ORCA TERMINATED NORMALLY****
TOTAL RUN TIME: 0 days 0 hours 4 minutes 33 seconds 216 msec
