                         Program Version 5.0.3 -  RELEASE  -
|  1> !ri-mp2 aug-cc-pvtz aug-cc-pvtz/c tightscf
|  2> %pal nprocs 16 end
|  3>
|  4> * xyz 0 1
|  5> C      0.000000    0.000000    0.712293
|  6> N      0.000000    1.158741    1.413954
|  7> N      0.000000   -1.158741    1.413954
|  8> C      0.000000   -2.261085    0.709672
|  9> C      0.000000    2.261085    0.709672
| 10> C      0.000000   -2.261085   -0.709672
| 11> N      0.000000   -1.158741   -1.413954
| 12> C      0.000000    0.000000   -0.712293
| 13> N      0.000000    1.158741   -1.413954
| 14> C      0.000000    2.261085   -0.709672
| 15> H      0.000000    3.201418   -1.250194
| 16> H      0.000000   -3.201418    1.250194
| 17> H      0.000000    3.201418    1.250194
| 18> H      0.000000   -3.201418   -1.250194
| 19> *
| 20>
| 21>                          ****END OF INPUT****

CARTESIAN COORDINATES (ANGSTROEM)
---------------------------------
  C      0.000000    0.000000    0.712293
  N      0.000000    1.158741    1.413954
  N      0.000000   -1.158741    1.413954
  C      0.000000   -2.261085    0.709672
  C      0.000000    2.261085    0.709672
  C      0.000000   -2.261085   -0.709672
  N      0.000000   -1.158741   -1.413954
  C      0.000000    0.000000   -0.712293
  N      0.000000    1.158741   -1.413954
  C      0.000000    2.261085   -0.709672
  H      0.000000    3.201418   -1.250194
  H      0.000000   -3.201418    1.250194
  H      0.000000    3.201418    1.250194
  H      0.000000   -3.201418   -1.250194

 Total Charge           Charge          ....    0
 Multiplicity           Mult            ....    1
 Number of Electrons    NEL             ....   68
 Basis Dimension        Dim             ....  552

ORBITAL ENERGIES
----------------

  NO   OCC          E(Eh)            E(eV)
   0   2.0000     -15.602629      -424.5691
   1   2.0000     -15.602614      -424.5687
   2   2.0000     -15.602611      -424.5686
   3   2.0000     -15.602602      -424.5684
   4   2.0000     -11.326054      -308.1976
   5   2.0000     -11.324996      -308.1688
   6   2.0000     -11.303943      -307.5959
   7   2.0000     -11.303942      -307.5959
   8   2.0000     -11.302885      -307.5671
   9   2.0000     -11.302883      -307.5671
  10   2.0000      -1.356707       -36.9179
  11   2.0000      -1.284882       -34.9634
  12   2.0000      -1.271226       -34.5918
  13   2.0000      -1.205414       -32.8010
  14   2.0000      -1.067715       -29.0540
  15   2.0000      -0.957289       -26.0492
  16   2.0000      -0.928880       -25.2761
  17   2.0000      -0.886404       -24.1203
  18   2.0000      -0.795535       -21.6476
  19   2.0000      -0.761784       -20.7292
  20   2.0000      -0.746623       -20.3166
  21   2.0000      -0.671510       -18.2727
  22   2.0000      -0.649949       -17.6860
  23   2.0000      -0.642393       -17.4804
  24   2.0000      -0.628014       -17.0891
  25   2.0000      -0.575458       -15.6590
  26   2.0000      -0.529750       -14.4152
  27   2.0000      -0.523199       -14.2370
  28   2.0000      -0.499259       -13.5855
  29   2.0000      -0.496401       -13.5078
  30   2.0000      -0.465749       -12.6737
  31   2.0000      -0.402871       -10.9627
  32   2.0000      -0.401425       -10.9233
  33   2.0000      -0.351601        -9.5676
  34   0.0000       0.018767         0.5107
  35   0.0000       0.025857         0.7036
  36   0.0000       0.027107         0.7376
  37   0.0000       0.039253         1.0681
  38   0.0000       0.042690         1.1616

MULLIKEN ATOMIC CHARGES
-----------------------
   0 C :    0.541697
   1 N :   -0.428115
   2 N :   -0.428115
   3 C :   -0.468928
   4 C :   -0.468928
   5 C :   -0.468933
   6 N :   -0.428113
   7 C :    0.541699
   8 N :   -0.428113
   9 C :   -0.468933
  10 H :    0.626195
  11 H :    0.626196
  12 H :    0.626196
  13 H :    0.626195
Sum of atomic charges:   -0.0000000

LOEWDIN ATOMIC CHARGES
----------------------
   0 C :   -0.488000
   1 N :    0.398133
   2 N :    0.398133
   3 C :    0.036035
   4 C :    0.036035
   5 C :    0.036035
   6 N :    0.398133
   7 C :   -0.488000
   8 N :    0.398133
   9 C :    0.036035
  10 H :   -0.190168
  11 H :   -0.190168
  12 H :   -0.190168
  13 H :   -0.190168

  Mayer bond orders larger than 0.100000
B(  0-C ,  1-N ) :   0.3905 B(  0-C ,  2-N ) :   0.3905 B(  0-C ,  3-C ) :  -0.3248
B(  0-C ,  4-C ) :  -0.3248 B(  0-C ,  5-C ) :   0.1280 B(  0-C ,  6-N ) :   0.1709
B(  0-C ,  7-C ) :   1.4279 B(  0-C ,  8-N ) :   0.1709 B(  0-C ,  9-C ) :   0.1280
B(  1-N ,  2-N ) :  -0.1345 B(  1-N ,  4-C ) :   1.3956 B(  1-N ,  7-C ) :   0.1709
B(  1-N , 12-H ) :  -0.1283 B(  2-N ,  3-C ) :   1.3956 B(  2-N ,  7-C ) :   0.1709
B(  2-N , 11-H ) :  -0.1283 B(  3-C ,  5-C ) :   1.0975 B(  3-C ,  7-C ) :   0.1280
B(  3-C , 11-H ) :   0.5148 B(  4-C ,  7-C ) :   0.1280 B(  4-C ,  9-C ) :   1.0975
B(  4-C , 12-H ) :   0.5148 B(  5-C ,  6-N ) :   1.3956 B(  5-C ,  7-C ) :  -0.3248
B(  5-C , 13-H ) :   0.5148 B(  6-N ,  7-C ) :   0.3905 B(  6-N ,  8-N ) :  -0.1345
B(  6-N , 13-H ) :  -0.1283 B(  7-C ,  8-N ) :   0.3905 B(  7-C ,  9-C ) :  -0.3248
B(  8-N ,  9-C ) :   1.3956 B(  8-N , 10-H ) :  -0.1283 B(  9-C , 10-H ) :   0.5148

MP2 TOTAL ENERGY:     -449.195652894 Eh
FINAL SINGLE POINT ENERGY      -449.195652894498

DIPOLE MOMENT
-------------
                                X             Y             Z
Electronic contribution:      0.00000      -0.00000       0.00000
Nuclear contribution   :      0.00000       0.00000      -0.00000
                        -----------------------------------------
Total Dipole Moment    :      0.00000      -0.00000       0.00000
                        -----------------------------------------
Magnitude (a.u.)       :      0.00000
Magnitude (Debye)      :      0.00000

Rotational constants in cm-1:     0.108969     0.046545     0.032614
Rotational constants in MHz :  3266.808893  1395.392854   977.753008

                             ****ORCA TERMINATED NORMALLY****
TOTAL RUN TIME: 0 days 0 hours 7 minutes 1 seconds 728 msec
