                         Program Version 5.0.3 -  RELEASE  -
|  1> !ri-mp2 aug-cc-pvtz aug-cc-pvtz/c tightscf
|  2> %pal nprocs 16 end
|  3>
|  4> * xyz 0 1
|  5> C     -0.428305   -0.603318    0.292946
|  6> C     -1.730980    0.145991    0.048752
|  7> C      0.804689    0.186857   -0.143412
|  8> N     -2.798137   -0.632363   -0.294446
|  9> O     -1.831047    1.353253    0.169304
| 10> C      2.116704   -0.509009    0.218058
| 11> C      3.349645    0.278591   -0.221813
| 12> H     -0.378232   -0.797219    1.369502
| 13> H     -0.452804   -1.579947   -0.197097
| 14> H      0.763288    0.351634   -1.223970
| 15> H      0.764447    1.175441    0.315734
| 16> H     -3.696408   -0.193737   -0.404160
| 17> H     -2.730511   -1.629614   -0.375823
| 18> H      2.153180   -0.667921    1.300253
| 19> H      2.140943   -1.504976   -0.235220
| 20> H      4.270724   -0.237101    0.052854
| 21> H      3.359798    0.422536   -1.304049
| 22> H      3.370399    1.266751    0.241480
| 23> *
| 24>
| 25>                          ****END OF INPUT****

CARTESIAN COORDINATES (ANGSTROEM)
---------------------------------
  C     -0.428305   -0.603318    0.292946
  C     -1.730980    0.145991    0.048752
  C      0.804689    0.186857   -0.143412
  N     -2.798137   -0.632363   -0.294446
  O     -1.831047    1.353253    0.169304
  C      2.116704   -0.509009    0.218058
  C      3.349645    0.278591   -0.221813
  H     -0.378232   -0.797219    1.369502
  H     -0.452804   -1.579947   -0.197097
  H      0.763288    0.351634   -1.223970
  H      0.764447    1.175441    0.315734
  H     -3.696408   -0.193737   -0.404160
  H     -2.730511   -1.629614   -0.375823
  H      2.153180   -0.667921    1.300253
  H      2.140943   -1.504976   -0.235220
  H      4.270724   -0.237101    0.052854
  H      3.359798    0.422536   -1.304049
  H      3.370399    1.266751    0.241480

 Total Charge           Charge          ....    0
 Multiplicity           Mult            ....    1
 Number of Electrons    NEL             ....   56
 Basis Dimension        Dim             ....  575

ORBITAL ENERGIES
----------------

  NO   OCC          E(Eh)            E(eV)
   0   2.0000     -20.515193      -558.2468
   1   2.0000     -15.584180      -424.0671
   2   2.0000     -11.349282      -308.8297
   3   2.0000     -11.239342      -305.8380
   4   2.0000     -11.221862      -305.3624
   5   2.0000     -11.220752      -305.3322
   6   2.0000     -11.212161      -305.0984
   7   2.0000      -1.378577       -37.5130
   8   2.0000      -1.209790       -32.9201
   9   2.0000      -1.083434       -29.4817
  10   2.0000      -1.006593       -27.3908
  11   2.0000      -0.896536       -24.3960
  12   2.0000      -0.807478       -21.9726
  13   2.0000      -0.781263       -21.2593
  14   2.0000      -0.721502       -19.6331
  15   2.0000      -0.669965       -18.2307
  16   2.0000      -0.645970       -17.5777
  17   2.0000      -0.603297       -16.4165
  18   2.0000      -0.593778       -16.1575
  19   2.0000      -0.580844       -15.8056
  20   2.0000      -0.550687       -14.9850
  21   2.0000      -0.529118       -14.3980
  22   2.0000      -0.500025       -13.6064
  23   2.0000      -0.477785       -13.0012
  24   2.0000      -0.475038       -12.9264
  25   2.0000      -0.468409       -12.7460
  26   2.0000      -0.418809       -11.3964
  27   2.0000      -0.413642       -11.2558
  28   0.0000       0.021978         0.5981
  29   0.0000       0.031698         0.8625
  30   0.0000       0.038776         1.0551
  31   0.0000       0.039946         1.0870
  32   0.0000       0.048971         1.3326

MULLIKEN ATOMIC CHARGES
-----------------------
   0 C :   -0.109288
   1 C :    0.533226
   2 C :   -0.279505
   3 N :   -0.392900
   4 O :   -0.851937
   5 C :   -0.462634
   6 C :   -0.978917
   7 H :    0.277443
   8 H :    0.183870
   9 H :    0.253711
  10 H :    0.256035
  11 H :    0.158945
  12 H :    0.110211
  13 H :    0.244970
  14 H :    0.238280
  15 H :    0.272208
  16 H :    0.270914
  17 H :    0.275369
Sum of atomic charges:   -0.0000000

LOEWDIN ATOMIC CHARGES
----------------------
   0 C :    0.279937
   1 C :   -0.666124
   2 C :    0.263459
   3 N :    0.853201
   4 O :    0.437336
   5 C :    0.256074
   6 C :    0.581006
   7 H :   -0.142013
   8 H :   -0.159951
   9 H :   -0.137420
  10 H :   -0.152891
  11 H :   -0.293834
  12 H :   -0.307909
  13 H :   -0.148365
  14 H :   -0.148568
  15 H :   -0.173634
  16 H :   -0.170681
  17 H :   -0.169623

  Mayer bond orders larger than 0.100000
B(  0-C ,  1-C ) :   0.5411 B(  0-C ,  2-C ) :   0.9749 B(  0-C ,  3-N ) :  -0.1197
B(  0-C ,  7-H ) :   0.9096 B(  0-C ,  8-H ) :   0.9767 B(  1-C ,  3-N ) :   0.9749
B(  1-C ,  4-O ) :   1.3300 B(  2-C ,  5-C ) :   0.8612 B(  2-C ,  9-H ) :   0.9176
B(  2-C , 10-H ) :   0.9710 B(  3-N , 11-H ) :   1.0325 B(  3-N , 12-H ) :   1.0872
B(  5-C ,  6-C ) :   0.9073 B(  5-C , 13-H ) :   0.9605 B(  5-C , 14-H ) :   0.9666
B(  6-C , 15-H ) :   0.9881 B(  6-C , 16-H ) :   0.9599 B(  6-C , 17-H ) :   0.9546

MP2 TOTAL ENERGY:     -326.529098717 Eh
FINAL SINGLE POINT ENERGY      -326.529098717427

DIPOLE MOMENT
-------------
                                X             Y             Z
Electronic contribution:     -9.94098       1.96278       0.32026
Nuclear contribution   :      9.89816      -3.51083      -0.47783
                        -----------------------------------------
Total Dipole Moment    :     -0.04281      -1.54805      -0.15758
                        -----------------------------------------
Magnitude (a.u.)       :      1.55664
Magnitude (Debye)      :      3.95666

Rotational constants in cm-1:     0.250632     0.034980     0.032038
Rotational constants in MHz :  7513.758794  1048.684376   960.487371

                             ****ORCA TERMINATED NORMALLY****
TOTAL RUN TIME: 0 days 0 hours 6 minutes 1 seconds 224 msec
