                         Program Version 5.0.3 -  RELEASE  -
|  1> !ri-mp2 aug-cc-pvtz aug-cc-pvtz/c tightscf
|  2> %pal nprocs 16 end
|  3>
|  4> * xyz 0 1
|  5> C     -0.013757   -1.316234    0.197329
|  6> C      0.083647    1.251840    0.325748
|  7> C      0.646705   -0.029651   -0.312805
|  8> N     -1.467041   -1.338650   -0.018105
|  9> N     -1.231706    1.613642   -0.202973
| 10> N      2.093096   -0.186523   -0.116420
| 11> H      0.508805   -2.160172   -0.265080
| 12> H      0.158200   -1.387214    1.276005
| 13> H      0.104816    1.127108    1.421032
| 14> H      0.771050    2.067989    0.090551
| 15> H      0.474190    0.042447   -1.391124
| 16> H     -1.874954   -2.159342    0.411086
| 17> H     -1.678612   -1.389398   -1.008104
| 18> H     -1.536048    2.505919    0.164381
| 19> H     -1.910296    0.908416    0.058611
| 20> H      2.324036   -0.198746    0.871269
| 21> H      2.598800    0.587978   -0.527778
| 22> *
| 23>
| 24>                          ****END OF INPUT****

CARTESIAN COORDINATES (ANGSTROEM)
---------------------------------
  C     -0.013757   -1.316234    0.197329
  C      0.083647    1.251840    0.325748
  C      0.646705   -0.029651   -0.312805
  N     -1.467041   -1.338650   -0.018105
  N     -1.231706    1.613642   -0.202973
  N      2.093096   -0.186523   -0.116420
  H      0.508805   -2.160172   -0.265080
  H      0.158200   -1.387214    1.276005
  H      0.104816    1.127108    1.421032
  H      0.771050    2.067989    0.090551
  H      0.474190    0.042447   -1.391124
  H     -1.874954   -2.159342    0.411086
  H     -1.678612   -1.389398   -1.008104
  H     -1.536048    2.505919    0.164381
  H     -1.910296    0.908416    0.058611
  H      2.324036   -0.198746    0.871269
  H      2.598800    0.587978   -0.527778

 Total Charge           Charge          ....    0
 Multiplicity           Mult            ....    1
 Number of Electrons    NEL             ....   50
 Basis Dimension        Dim             ....  529

ORBITAL ENERGIES
----------------

  NO   OCC          E(Eh)            E(eV)
   0   2.0000     -15.543251      -422.9534
   1   2.0000     -15.537929      -422.8085
   2   2.0000     -15.523330      -422.4113
   3   2.0000     -11.248206      -306.0792
   4   2.0000     -11.245835      -306.0147
   5   2.0000     -11.239659      -305.8467
   6   2.0000      -1.203372       -32.7454
   7   2.0000      -1.163761       -31.6676
   8   2.0000      -1.151972       -31.3468
   9   2.0000      -0.966862       -26.3097
  10   2.0000      -0.885725       -24.1018
  11   2.0000      -0.784896       -21.3581
  12   2.0000      -0.675532       -18.3822
  13   2.0000      -0.662346       -18.0234
  14   2.0000      -0.656200       -17.8561
  15   2.0000      -0.607067       -16.5191
  16   2.0000      -0.604118       -16.4389
  17   2.0000      -0.559672       -15.2294
  18   2.0000      -0.548876       -14.9357
  19   2.0000      -0.538223       -14.6458
  20   2.0000      -0.496606       -13.5133
  21   2.0000      -0.470289       -12.7972
  22   2.0000      -0.400213       -10.8903
  23   2.0000      -0.389416       -10.5966
  24   2.0000      -0.371599       -10.1117
  25   0.0000       0.028842         0.7848
  26   0.0000       0.033818         0.9202
  27   0.0000       0.038589         1.0501
  28   0.0000       0.039694         1.0801
  29   0.0000       0.054758         1.4900

MULLIKEN ATOMIC CHARGES
-----------------------
   0 C :   -0.304761
   1 C :   -0.166959
   2 C :    0.415235
   3 N :   -0.510234
   4 N :   -0.659403
   5 N :   -0.752843
   6 H :    0.299709
   7 H :    0.264731
   8 H :    0.240059
   9 H :    0.291928
  10 H :    0.374281
  11 H :    0.095181
  12 H :    0.034886
  13 H :    0.053548
  14 H :    0.177935
  15 H :    0.082036
  16 H :    0.064671
Sum of atomic charges:   -0.0000000

LOEWDIN ATOMIC CHARGES
----------------------
   0 C :    0.168013
   1 C :    0.161896
   2 C :   -0.146415
   3 N :    0.846928
   4 N :    0.843347
   5 N :    0.850313
   6 H :   -0.148730
   7 H :   -0.150828
   8 H :   -0.143215
   9 H :   -0.160924
  10 H :   -0.137105
  11 H :   -0.317831
  12 H :   -0.309452
  13 H :   -0.326638
  14 H :   -0.390200
  15 H :   -0.317647
  16 H :   -0.321511

  Mayer bond orders larger than 0.100000
B(  0-C ,  1-C ) :   0.1325 B(  0-C ,  2-C ) :   0.7594 B(  0-C ,  3-N ) :   0.7374
B(  0-C ,  5-N ) :   0.1897 B(  0-C ,  6-H ) :   0.9171 B(  0-C ,  7-H ) :   0.9572
B(  1-C ,  2-C ) :   0.8773 B(  1-C ,  4-N ) :   0.5989 B(  1-C ,  8-H ) :   0.9452
B(  1-C ,  9-H ) :   0.9502 B(  2-C ,  5-N ) :   0.2610 B(  2-C , 10-H ) :   0.8670
B(  3-N , 11-H ) :   1.0090 B(  3-N , 12-H ) :   1.0701 B(  4-N , 13-H ) :   1.0450
B(  4-N , 14-H ) :   0.9235 B(  5-N , 15-H ) :   0.9993 B(  5-N , 16-H ) :   1.0324

MP2 TOTAL ENERGY:     -284.643693020 Eh
FINAL SINGLE POINT ENERGY      -284.643693019941

DIPOLE MOMENT
-------------
                                X             Y             Z
Electronic contribution:      0.00911      -0.04766      -0.67588
Nuclear contribution   :     -0.06696      -0.05741       1.15757
                        -----------------------------------------
Total Dipole Moment    :     -0.05785      -0.10506       0.48169
                        -----------------------------------------
Magnitude (a.u.)       :      0.49639
Magnitude (Debye)      :      1.26173

Rotational constants in cm-1:     0.120876     0.108304     0.062014
Rotational constants in MHz :  3623.779238  3246.869086  1859.139616

                             ****ORCA TERMINATED NORMALLY****
TOTAL RUN TIME: 0 days 0 hours 4 minutes 30 seconds 420 msec
