                         Program Version 5.0.3 -  RELEASE  -
|  1> !ri-mp2 aug-cc-pvtz aug-cc-pvtz/c tightscf
|  2> %pal nprocs 16 end
|  3> %maxcore 3800
|  4>
|  5> * xyz 0 1
|  6> C     -0.643755    0.451811   -0.116063
|  7> C      0.643754   -0.451811   -0.116065
|  8> C     -1.971641   -0.359225    0.109674
|  9> C      1.971641    0.359224    0.109675
| 10> C     -3.260971    0.423128   -0.322117
| 11> C      3.260972   -0.423127   -0.322118
| 12> C     -4.593120   -0.161784    0.255224
| 13> C      4.593120    0.161783    0.255225
| 14> F     -0.717886    1.087551   -1.301534
| 15> F     -0.534691    1.367522    0.866508
| 16> F      0.717886   -1.087547   -1.301538
| 17> F      0.534691   -1.367525    0.866504
| 18> F     -2.067751   -0.666456    1.418445
| 19> F     -1.915832   -1.502658   -0.602171
| 20> F      2.067750    0.666452    1.418447
| 21> F      1.915832    1.502659   -0.602167
| 22> F     -3.354065    0.399093   -1.664116
| 23> F     -3.170091    1.704673    0.088792
| 24> F      3.170091   -1.704673    0.088788
| 25> F      3.354066   -0.399089   -1.664117
| 26> F     -5.619910    0.441189   -0.347993
| 27> F     -4.668993   -1.475221    0.024297
| 28> F     -4.683604    0.056486    1.566635
| 29> F      4.668993    1.475221    0.024300
| 30> F      5.619909   -0.441188   -0.347994
| 31> F      4.683603   -0.056489    1.566635
| 32> *
| 33>
| 34>                          ****END OF INPUT****

CARTESIAN COORDINATES (ANGSTROEM)
---------------------------------
  C     -0.643755    0.451811   -0.116063
  C      0.643754   -0.451811   -0.116065
  C     -1.971641   -0.359225    0.109674
  C      1.971641    0.359224    0.109675
  C     -3.260971    0.423128   -0.322117
  C      3.260972   -0.423127   -0.322118
  C     -4.593120   -0.161784    0.255224
  C      4.593120    0.161783    0.255225
  F     -0.717886    1.087551   -1.301534
  F     -0.534691    1.367522    0.866508
  F      0.717886   -1.087547   -1.301538
  F      0.534691   -1.367525    0.866504
  F     -2.067751   -0.666456    1.418445
  F     -1.915832   -1.502658   -0.602171
  F      2.067750    0.666452    1.418447
  F      1.915832    1.502659   -0.602167
  F     -3.354065    0.399093   -1.664116
  F     -3.170091    1.704673    0.088792
  F      3.170091   -1.704673    0.088788
  F      3.354066   -0.399089   -1.664117
  F     -5.619910    0.441189   -0.347993
  F     -4.668993   -1.475221    0.024297
  F     -4.683604    0.056486    1.566635
  F      4.668993    1.475221    0.024300
  F      5.619909   -0.441188   -0.347994
  F      4.683603   -0.056489    1.566635

 Total Charge           Charge          ....    0
 Multiplicity           Mult            ....    1
 Number of Electrons    NEL             ....  210
 Basis Dimension        Dim             .... 1196

ORBITAL ENERGIES
----------------

  NO   OCC          E(Eh)            E(eV)
   0   2.0000     -26.382351      -717.9003
   1   2.0000     -26.382351      -717.9003
   2   2.0000     -26.382328      -717.8996
   3   2.0000     -26.382328      -717.8996
   4   2.0000     -26.382257      -717.8977
   5   2.0000     -26.382257      -717.8977
   6   2.0000     -26.382141      -717.8946
   7   2.0000     -26.382138      -717.8945
   8   2.0000     -26.381387      -717.8740
   9   2.0000     -26.381387      -717.8740
  10   2.0000     -26.381153      -717.8677
  11   2.0000     -26.381153      -717.8677
  12   2.0000     -26.379693      -717.8279
  13   2.0000     -26.379693      -717.8279
  14   2.0000     -26.378765      -717.8027
  15   2.0000     -26.378765      -717.8027
  16   2.0000     -26.378338      -717.7911
  17   2.0000     -26.378338      -717.7911
  18   2.0000     -11.560908      -314.5883
  19   2.0000     -11.560908      -314.5883
  20   2.0000     -11.509104      -313.1786
  21   2.0000     -11.508706      -313.1678
  22   2.0000     -11.508287      -313.1564
  23   2.0000     -11.508158      -313.1529
  24   2.0000     -11.504705      -313.0589
  25   2.0000     -11.504705      -313.0589
  26   2.0000      -1.776312       -48.3359
  27   2.0000      -1.776037       -48.3284
  28   2.0000      -1.758555       -47.8527
  29   2.0000      -1.746256       -47.5180
  30   2.0000      -1.734594       -47.2007
  31   2.0000      -1.730259       -47.0828
  32   2.0000      -1.728299       -47.0294
  33   2.0000      -1.727943       -47.0197
  34   2.0000      -1.686735       -45.8984
  35   2.0000      -1.683608       -45.8133
  36   2.0000      -1.679971       -45.7143
  37   2.0000      -1.676468       -45.6190
  38   2.0000      -1.675932       -45.6044
  39   2.0000      -1.675165       -45.5836
  40   2.0000      -1.671623       -45.4872
  41   2.0000      -1.669412       -45.4270
  42   2.0000      -1.668065       -45.3904
  43   2.0000      -1.667870       -45.3851
  44   2.0000      -1.156644       -31.4739
  45   2.0000      -1.139327       -31.0027
  46   2.0000      -1.110494       -30.2181
  47   2.0000      -1.070743       -29.1364
  48   2.0000      -1.022705       -27.8292
  49   2.0000      -0.978260       -26.6198
  50   2.0000      -0.951659       -25.8960
  51   2.0000      -0.938503       -25.5380
  52   2.0000      -0.901698       -24.5365
  53   2.0000      -0.896096       -24.3840
  54   2.0000      -0.893302       -24.3080
  55   2.0000      -0.884029       -24.0557
  56   2.0000      -0.874992       -23.8097
  57   2.0000      -0.872730       -23.7482
  58   2.0000      -0.868827       -23.6420
  59   2.0000      -0.866721       -23.5847
  60   2.0000      -0.860246       -23.4085
  61   2.0000      -0.851198       -23.1623
  62   2.0000      -0.850038       -23.1307
  63   2.0000      -0.848018       -23.0757
  64   2.0000      -0.836539       -22.7634
  65   2.0000      -0.833766       -22.6879
  66   2.0000      -0.819451       -22.2984
  67   2.0000      -0.808006       -21.9870
  68   2.0000      -0.801515       -21.8103
  69   2.0000      -0.773584       -21.0503
  70   2.0000      -0.772541       -21.0219
  71   2.0000      -0.765501       -20.8303
  72   2.0000      -0.764006       -20.7896
  73   2.0000      -0.756958       -20.5979
  74   2.0000      -0.755010       -20.5449
  75   2.0000      -0.750182       -20.4135
  76   2.0000      -0.748269       -20.3614
  77   2.0000      -0.747196       -20.3322
  78   2.0000      -0.745007       -20.2727
  79   2.0000      -0.741239       -20.1701
  80   2.0000      -0.739030       -20.1100
  81   2.0000      -0.737508       -20.0686
  82   2.0000      -0.732113       -19.9218
  83   2.0000      -0.731848       -19.9146
  84   2.0000      -0.725952       -19.7541
  85   2.0000      -0.722731       -19.6665
  86   2.0000      -0.710455       -19.3325
  87   2.0000      -0.704931       -19.1822
  88   2.0000      -0.702948       -19.1282
  89   2.0000      -0.701669       -19.0934
  90   2.0000      -0.698999       -19.0207
  91   2.0000      -0.697296       -18.9744
  92   2.0000      -0.695823       -18.9343
  93   2.0000      -0.693888       -18.8816
  94   2.0000      -0.691458       -18.8155
  95   2.0000      -0.688733       -18.7414
  96   2.0000      -0.685759       -18.6605
  97   2.0000      -0.685292       -18.6477
  98   2.0000      -0.660923       -17.9846
  99   2.0000      -0.655451       -17.8357
 100   2.0000      -0.649168       -17.6648
 101   2.0000      -0.637062       -17.3353
 102   2.0000      -0.611132       -16.6298
 103   2.0000      -0.570894       -15.5348
 104   2.0000      -0.529628       -14.4119
 105   0.0000       0.048325         1.3150
 106   0.0000       0.053520         1.4563
 107   0.0000       0.054222         1.4755
 108   0.0000       0.058248         1.5850
 109   0.0000       0.064907         1.7662

MULLIKEN ATOMIC CHARGES
-----------------------
   0 C :    1.126850
   1 C :    1.126848
   2 C :    1.104549
   3 C :    1.104548
   4 C :    0.950305
   5 C :    0.950305
   6 C :    1.139346
   7 C :    1.139347
   8 F :   -0.538088
   9 F :   -0.541803
  10 F :   -0.538087
  11 F :   -0.541803
  12 F :   -0.518386
  13 F :   -0.537523
  14 F :   -0.518386
  15 F :   -0.537523
  16 F :   -0.502721
  17 F :   -0.494196
  18 F :   -0.494196
  19 F :   -0.502721
  20 F :   -0.380522
  21 F :   -0.408426
  22 F :   -0.399383
  23 F :   -0.408426
  24 F :   -0.380522
  25 F :   -0.399383
Sum of atomic charges:   -0.0000000

LOEWDIN ATOMIC CHARGES
----------------------
   0 C :   -1.097345
   1 C :   -1.097344
   2 C :   -1.102004
   3 C :   -1.102003
   4 C :   -1.115609
   5 C :   -1.115610
   6 C :   -1.516537
   7 C :   -1.516538
   8 F :    0.547460
   9 F :    0.546996
  10 F :    0.547460
  11 F :    0.546995
  12 F :    0.544108
  13 F :    0.545204
  14 F :    0.544108
  15 F :    0.545204
  16 F :    0.539112
  17 F :    0.539169
  18 F :    0.539169
  19 F :    0.539112
  20 F :    0.522340
  21 F :    0.523487
  22 F :    0.523618
  23 F :    0.523486
  24 F :    0.522341
  25 F :    0.523619

  Mayer bond orders larger than 0.100000
B(  0-C ,  1-C ) :   1.1017 B(  0-C ,  2-C ) :   1.0834 B(  0-C ,  8-F ) :   0.3175
B(  0-C ,  9-F ) :   0.3580 B(  0-C , 10-F ) :   0.1833 B(  0-C , 11-F ) :   0.2579
B(  0-C , 12-F ) :   0.1770 B(  0-C , 13-F ) :   0.2571 B(  1-C ,  3-C ) :   1.0834
B(  1-C ,  8-F ) :   0.1833 B(  1-C ,  9-F ) :   0.2579 B(  1-C , 10-F ) :   0.3175
B(  1-C , 11-F ) :   0.3580 B(  1-C , 14-F ) :   0.1770 B(  1-C , 15-F ) :   0.2571
B(  2-C ,  4-C ) :   1.0188 B(  2-C ,  8-F ) :   0.2282 B(  2-C ,  9-F ) :   0.1755
B(  2-C , 12-F ) :   0.3632 B(  2-C , 13-F ) :   0.4081 B(  2-C , 16-F ) :   0.1701
B(  2-C , 17-F ) :   0.2417 B(  3-C ,  5-C ) :   1.0188 B(  3-C , 10-F ) :   0.2282
B(  3-C , 11-F ) :   0.1755 B(  3-C , 14-F ) :   0.3632 B(  3-C , 15-F ) :   0.4081
B(  3-C , 18-F ) :   0.2417 B(  3-C , 19-F ) :   0.1701 B(  4-C ,  6-C ) :   1.0021
B(  4-C , 12-F ) :   0.1802 B(  4-C , 13-F ) :   0.1540 B(  4-C , 16-F ) :   0.4660
B(  4-C , 17-F ) :   0.5084 B(  4-C , 21-F ) :   0.1645 B(  5-C ,  7-C ) :   1.0021
B(  5-C , 14-F ) :   0.1802 B(  5-C , 15-F ) :   0.1540 B(  5-C , 18-F ) :   0.5084
B(  5-C , 19-F ) :   0.4660 B(  5-C , 23-F ) :   0.1645 B(  6-C , 16-F ) :   0.1324
B(  6-C , 17-F ) :   0.1210 B(  6-C , 20-F ) :   0.8048 B(  6-C , 21-F ) :   0.7894
B(  6-C , 22-F ) :   0.8020 B(  7-C , 18-F ) :   0.1210 B(  7-C , 19-F ) :   0.1324
B(  7-C , 23-F ) :   0.7894 B(  7-C , 24-F ) :   0.8048 B(  7-C , 25-F ) :   0.8020

MP2 TOTAL ENERGY:    -2099.503343335 Eh
FINAL SINGLE POINT ENERGY     -2099.503343335158

DIPOLE MOMENT
-------------
                                X             Y             Z
Electronic contribution:      0.00000      -0.00000       0.12742
Nuclear contribution   :      0.00000      -0.00000      -0.08688
                        -----------------------------------------
Total Dipole Moment    :      0.00000      -0.00000       0.04054
                        -----------------------------------------
Magnitude (a.u.)       :      0.04054
Magnitude (Debye)      :      0.10304

Rotational constants in cm-1:     0.020324     0.003205     0.003176
Rotational constants in MHz :   609.286113    96.075565    95.223232

                             ****ORCA TERMINATED NORMALLY****
TOTAL RUN TIME: 0 days 0 hours 47 minutes 14 seconds 216 msec
