                         Program Version 5.0.3 -  RELEASE  -
|  1> !ri-mp2 aug-cc-pvtz aug-cc-pvtz/c tightscf
|  2> %pal nprocs 16 end
|  3>
|  4> * xyz 0 1
|  5> C      1.610317   -1.209436        0.000000
|  6> C      1.329993    0.147978        0.000000
|  7> C      0.543915   -2.101297        0.000000
|  8> C     -0.997140   -0.422562        0.000000
|  9> C      0.000000    0.559527        0.000000
| 10> C     -0.339161    1.998058        0.000000
| 11> N     -0.739333   -1.725611        0.000000
| 12> O     -1.461675    2.444254        0.000000
| 13> H      2.627285   -1.575291        0.000000
| 14> H      2.126453    0.882601        0.000000
| 15> H      0.725761   -3.169850        0.000000
| 16> H     -2.037530   -0.121485        0.000000
| 17> H      0.539218    2.675668        0.000000
| 18> *
| 19>
| 20>                          ****END OF INPUT****

CARTESIAN COORDINATES (ANGSTROEM)
---------------------------------
  C      1.610317   -1.209436    0.000000
  C      1.329993    0.147978    0.000000
  C      0.543915   -2.101297    0.000000
  C     -0.997140   -0.422562    0.000000
  C      0.000000    0.559527    0.000000
  C     -0.339161    1.998058    0.000000
  N     -0.739333   -1.725611    0.000000
  O     -1.461675    2.444254    0.000000
  H      2.627285   -1.575291    0.000000
  H      2.126453    0.882601    0.000000
  H      0.725761   -3.169850    0.000000
  H     -2.037530   -0.121485    0.000000
  H      0.539218    2.675668    0.000000

 Total Charge           Charge          ....    0
 Multiplicity           Mult            ....    1
 Number of Electrons    NEL             ....   56
 Basis Dimension        Dim             ....  483

ORBITAL ENERGIES
----------------

  NO   OCC          E(Eh)            E(eV)
   0   2.0000     -20.564325      -559.5837
   1   2.0000     -15.581947      -424.0063
   2   2.0000     -11.345287      -308.7209
   3   2.0000     -11.298057      -307.4358
   4   2.0000     -11.296145      -307.3837
   5   2.0000     -11.284865      -307.0768
   6   2.0000     -11.260925      -306.4253
   7   2.0000     -11.258695      -306.3647
   8   2.0000      -1.402287       -38.1582
   9   2.0000      -1.280139       -34.8344
  10   2.0000      -1.121184       -30.5090
  11   2.0000      -1.063286       -28.9335
  12   2.0000      -0.919384       -25.0177
  13   2.0000      -0.883359       -24.0374
  14   2.0000      -0.817561       -22.2470
  15   2.0000      -0.736772       -20.0486
  16   2.0000      -0.701909       -19.0999
  17   2.0000      -0.674055       -18.3420
  18   2.0000      -0.642248       -17.4764
  19   2.0000      -0.628146       -17.0927
  20   2.0000      -0.597839       -16.2680
  21   2.0000      -0.578035       -15.7291
  22   2.0000      -0.550165       -14.9708
  23   2.0000      -0.532951       -14.5023
  24   2.0000      -0.453558       -12.3419
  25   2.0000      -0.423118       -11.5136
  26   2.0000      -0.405278       -11.0282
  27   2.0000      -0.365043        -9.9333
  28   0.0000       0.020690         0.5630
  29   0.0000       0.030329         0.8253
  30   0.0000       0.039288         1.0691
  31   0.0000       0.048001         1.3062
  32   0.0000       0.052631         1.4322

MULLIKEN ATOMIC CHARGES
-----------------------
   0 C :   -0.334140
   1 C :   -0.853839
   2 C :   -0.597862
   3 C :   -0.717032
   4 C :    1.580471
   5 C :   -0.222195
   6 N :   -0.459959
   7 O :   -0.840791
   8 H :    0.292706
   9 H :    0.383828
  10 H :    0.660864
  11 H :    0.611947
  12 H :    0.496002
Sum of atomic charges:    0.0000000

LOEWDIN ATOMIC CHARGES
----------------------
   0 C :    0.213981
   1 C :    0.196233
   2 C :    0.025470
   3 C :    0.033338
   4 C :   -0.145606
   5 C :   -0.237378
   6 N :    0.384066
   7 O :    0.439305
   8 H :   -0.188000
   9 H :   -0.167552
  10 H :   -0.186586
  11 H :   -0.182836
  12 H :   -0.184435

  Mayer bond orders larger than 0.100000
B(  0-C ,  1-C ) :   1.2681 B(  0-C ,  2-C ) :   0.9415 B(  0-C ,  3-C ) :  -0.1184
B(  0-C ,  4-C ) :  -0.1845 B(  0-C ,  8-H ) :   1.0741 B(  1-C ,  2-C ) :   0.3052
B(  1-C ,  3-C ) :   0.2761 B(  1-C ,  4-C ) :   0.6540 B(  1-C ,  9-H ) :   1.0066
B(  2-C ,  3-C ) :   0.2749 B(  2-C ,  4-C ) :  -0.1808 B(  2-C ,  6-N ) :   1.2943
B(  2-C , 10-H ) :   0.4046 B(  3-C ,  4-C ) :   0.5910 B(  3-C ,  6-N ) :   1.0576
B(  3-C , 11-H ) :   0.4528 B(  4-C ,  5-C ) :   0.6211 B(  4-C ,  6-N ) :  -0.1325
B(  4-C ,  7-O ) :  -0.1463 B(  5-C ,  7-O ) :   1.4617 B(  5-C , 12-H ) :   0.7539
B(  7-O , 12-H ) :  -0.1233

MP2 TOTAL ENERGY:     -360.925894921 Eh
FINAL SINGLE POINT ENERGY      -360.925894921333

DIPOLE MOMENT
-------------
                                X             Y             Z
Electronic contribution:     -2.15970       0.91035      -0.00000
Nuclear contribution   :      3.88220      -1.25677       0.00000
                        -----------------------------------------
Total Dipole Moment    :      1.72249      -0.34643      -0.00000
                        -----------------------------------------
Magnitude (a.u.)       :      1.75699
Magnitude (Debye)      :      4.46590

Rotational constants in cm-1:     0.180010     0.053265     0.041103
Rotational constants in MHz :  5396.571316  1596.847660  1232.230231

                             ****ORCA TERMINATED NORMALLY****
TOTAL RUN TIME: 0 days 0 hours 4 minutes 35 seconds 51 msec
