                         Program Version 5.0.3 -  RELEASE  -
|  1> !ri-mp2 aug-cc-pvtz aug-cc-pvtz/c tightscf
|  2> %pal nprocs 16 end
|  3>
|  4> * xyz 0 1
|  5> C      0.968305   -1.191866   -0.005659
|  6> C      1.297498    1.177941   -0.005925
|  7> C     -0.412677   -1.004932   -0.001215
|  8> C     -0.072135    1.370804   -0.000176
|  9> C      1.845461   -0.110566   -0.007083
| 10> C     -0.943492    0.281050    0.001739
| 11> C     -3.203619   -0.496341    0.002648
| 12> N      3.234655   -0.299516   -0.075261
| 13> O     -2.281512    0.577362    0.007741
| 14> H      1.361714   -2.200914   -0.013324
| 15> H      1.955088    2.038508   -0.014741
| 16> H     -1.054456   -1.872710    0.000780
| 17> H     -0.487426    2.369078    0.002544
| 18> H     -3.093299   -1.125308    0.890843
| 19> H     -3.093184   -1.116539   -0.891616
| 20> H     -4.192458   -0.045145    0.004971
| 21> H      3.556642   -1.185853    0.280103
| 22> H      3.780840    0.460055    0.299362
| 23> *
| 24>
| 25>                          ****END OF INPUT****

CARTESIAN COORDINATES (ANGSTROEM)
---------------------------------
  C      0.968305   -1.191866   -0.005659
  C      1.297498    1.177941   -0.005925
  C     -0.412677   -1.004932   -0.001215
  C     -0.072135    1.370804   -0.000176
  C      1.845461   -0.110566   -0.007083
  C     -0.943492    0.281050    0.001739
  C     -3.203619   -0.496341    0.002648
  N      3.234655   -0.299516   -0.075261
  O     -2.281512    0.577362    0.007741
  H      1.361714   -2.200914   -0.013324
  H      1.955088    2.038508   -0.014741
  H     -1.054456   -1.872710    0.000780
  H     -0.487426    2.369078    0.002544
  H     -3.093299   -1.125308    0.890843
  H     -3.093184   -1.116539   -0.891616
  H     -4.192458   -0.045145    0.004971
  H      3.556642   -1.185853    0.280103
  H      3.780840    0.460055    0.299362

 Total Charge           Charge          ....    0
 Multiplicity           Mult            ....    1
 Number of Electrons    NEL             ....   66
 Basis Dimension        Dim             ....  621

ORBITAL ENERGIES
----------------

  NO   OCC          E(Eh)            E(eV)
   0   2.0000     -20.575207      -559.8798
   1   2.0000     -15.559619      -423.3988
   2   2.0000     -11.284120      -307.0565
   3   2.0000     -11.278494      -306.9034
   4   2.0000     -11.267994      -306.6177
   5   2.0000     -11.230101      -305.5866
   6   2.0000     -11.227790      -305.5237
   7   2.0000     -11.226341      -305.4843
   8   2.0000     -11.226321      -305.4837
   9   2.0000      -1.398308       -38.0499
  10   2.0000      -1.218284       -33.1512
  11   2.0000      -1.124785       -30.6069
  12   2.0000      -1.017200       -27.6794
  13   2.0000      -0.994925       -27.0733
  14   2.0000      -0.929100       -25.2821
  15   2.0000      -0.838526       -22.8175
  16   2.0000      -0.800481       -21.7822
  17   2.0000      -0.715078       -19.4583
  18   2.0000      -0.694627       -18.9018
  19   2.0000      -0.676531       -18.4093
  20   2.0000      -0.648036       -17.6340
  21   2.0000      -0.629911       -17.1408
  22   2.0000      -0.616192       -16.7674
  23   2.0000      -0.585568       -15.9341
  24   2.0000      -0.566457       -15.4141
  25   2.0000      -0.551950       -15.0193
  26   2.0000      -0.532288       -14.4843
  27   2.0000      -0.512685       -13.9509
  28   2.0000      -0.496054       -13.4983
  29   2.0000      -0.476747       -12.9729
  30   2.0000      -0.425396       -11.5756
  31   2.0000      -0.339653        -9.2424
  32   2.0000      -0.277873        -7.5613
  33   0.0000       0.026677         0.7259
  34   0.0000       0.031097         0.8462
  35   0.0000       0.034693         0.9440
  36   0.0000       0.045926         1.2497
  37   0.0000       0.047046         1.2802

MULLIKEN ATOMIC CHARGES
-----------------------
   0 C :   -0.921782
   1 C :   -0.632950
   2 C :   -0.422428
   3 C :   -0.934995
   4 C :    1.336740
   5 C :    1.142439
   6 C :   -0.888889
   7 N :   -0.814033
   8 O :   -0.772021
   9 H :    0.328371
  10 H :    0.415326
  11 H :    0.432008
  12 H :    0.512142
  13 H :    0.344359
  14 H :    0.347346
  15 H :    0.384868
  16 H :    0.081268
  17 H :    0.062233
Sum of atomic charges:    0.0000000

LOEWDIN ATOMIC CHARGES
----------------------
   0 C :    0.211638
   1 C :    0.211190
   2 C :    0.196443
   3 C :    0.203567
   4 C :   -0.251094
   5 C :   -0.388278
   6 C :    0.329928
   7 N :    0.842313
   8 O :    0.562889
   9 H :   -0.182396
  10 H :   -0.181044
  11 H :   -0.205732
  12 H :   -0.180194
  13 H :   -0.175854
  14 H :   -0.175603
  15 H :   -0.183035
  16 H :   -0.317182
  17 H :   -0.317557

  Mayer bond orders larger than 0.100000
B(  0-C ,  1-C ) :   0.1019 B(  0-C ,  2-C ) :   1.0947 B(  0-C ,  4-C ) :   0.8764
B(  0-C ,  9-H ) :   0.9122 B(  1-C ,  3-C ) :   1.3411 B(  1-C ,  4-C ) :   1.0237
B(  1-C ,  5-C ) :  -0.2533 B(  1-C ,  7-N ) :  -0.1075 B(  1-C , 10-H ) :   0.7718
B(  2-C ,  3-C ) :   0.3584 B(  2-C ,  5-C ) :   1.1709 B(  2-C ,  8-O ) :  -0.3346
B(  2-C , 11-H ) :   0.7618 B(  3-C ,  5-C ) :   0.7034 B(  3-C ,  8-O ) :   0.2763
B(  3-C , 12-H ) :   0.6357 B(  4-C ,  5-C ) :   0.1250 B(  4-C ,  7-N ) :   0.3751
B(  5-C ,  8-O ) :   0.4147 B(  6-C ,  8-O ) :   0.9924 B(  6-C , 13-H ) :   0.8927
B(  6-C , 14-H ) :   0.8890 B(  6-C , 15-H ) :   0.9059 B(  7-N , 16-H ) :   1.0811
B(  7-N , 17-H ) :   1.1245

MP2 TOTAL ENERGY:     -401.352718664 Eh
FINAL SINGLE POINT ENERGY      -401.352718663931

DIPOLE MOMENT
-------------
                                X             Y             Z
Electronic contribution:      1.47305       2.18631      -0.15892
Nuclear contribution   :     -1.29183      -2.68879       0.56222
                        -----------------------------------------
Total Dipole Moment    :      0.18122      -0.50248       0.40331
                        -----------------------------------------
Magnitude (a.u.)       :      0.66931
Magnitude (Debye)      :      1.70125

Rotational constants in cm-1:     0.163371     0.032959     0.027591
Rotational constants in MHz :  4897.743129   988.071284   827.157882

                             ****ORCA TERMINATED NORMALLY****
TOTAL RUN TIME: 0 days 0 hours 8 minutes 22 seconds 667 msec
