                         Program Version 5.0.3 -  RELEASE  -
|  1> !ri-mp2 aug-cc-pvtz aug-cc-pvtz/c tightscf
|  2> %pal nprocs 16 end
|  3>
|  4> * xyz 0 1
|  5> C     0.000000     2.553552    0.323437
|  6> C     0.000000    -2.553552    0.323437
|  7> C     0.000000     1.280666   -0.521619
|  8> C     0.000000    -1.280666   -0.521619
|  9> C     0.000000     0.000000    0.313781
| 10> H     0.880619     2.598968    0.967590
| 11> H    -0.880619     2.598968    0.967590
| 12> H     0.000000     3.448219   -0.300839
| 13> H     0.880619    -2.598968    0.967590
| 14> H     0.000000    -3.448219   -0.300839
| 15> H    -0.880619    -2.598968    0.967590
| 16> H    -0.873927     1.280219   -1.180074
| 17> H     0.873927     1.280219   -1.180074
| 18> H    -0.873927    -1.280219   -1.180074
| 19> H     0.873927    -1.280219   -1.180074
| 20> H    -0.874435     0.000000    0.973556
| 21> H     0.874435     0.000000    0.973556
| 22> *
| 23>
| 24>                          ****END OF INPUT****

CARTESIAN COORDINATES (ANGSTROEM)
---------------------------------
  C      0.000000    2.553552    0.323437
  C      0.000000   -2.553552    0.323437
  C      0.000000    1.280666   -0.521619
  C      0.000000   -1.280666   -0.521619
  C      0.000000    0.000000    0.313781
  H      0.880619    2.598968    0.967590
  H     -0.880619    2.598968    0.967590
  H      0.000000    3.448219   -0.300839
  H      0.880619   -2.598968    0.967590
  H      0.000000   -3.448219   -0.300839
  H     -0.880619   -2.598968    0.967590
  H     -0.873927    1.280219   -1.180074
  H      0.873927    1.280219   -1.180074
  H     -0.873927   -1.280219   -1.180074
  H      0.873927   -1.280219   -1.180074
  H     -0.874435    0.000000    0.973556
  H      0.874435    0.000000    0.973556

 Total Charge           Charge          ....    0
 Multiplicity           Mult            ....    1
 Number of Electrons    NEL             ....   42
 Basis Dimension        Dim             ....  506

ORBITAL ENERGIES
----------------

  NO   OCC          E(Eh)            E(eV)
   0   2.0000     -11.214461      -305.1610
   1   2.0000     -11.214392      -305.1591
   2   2.0000     -11.212042      -305.0952
   3   2.0000     -11.208585      -305.0011
   4   2.0000     -11.208584      -305.0011
   5   2.0000      -1.077926       -29.3318
   6   2.0000      -1.013580       -27.5809
   7   2.0000      -0.918722       -24.9997
   8   2.0000      -0.820227       -22.3195
   9   2.0000      -0.784264       -21.3409
  10   2.0000      -0.644657       -17.5420
  11   2.0000      -0.596481       -16.2311
  12   2.0000      -0.591540       -16.0966
  13   2.0000      -0.553191       -15.0531
  14   2.0000      -0.546754       -14.8779
  15   2.0000      -0.525617       -14.3028
  16   2.0000      -0.494251       -13.4493
  17   2.0000      -0.475804       -12.9473
  18   2.0000      -0.460384       -12.5277
  19   2.0000      -0.458225       -12.4689
  20   2.0000      -0.447844       -12.1865
  21   0.0000       0.031628         0.8607
  22   0.0000       0.034329         0.9341
  23   0.0000       0.037967         1.0331
  24   0.0000       0.039598         1.0775
  25   0.0000       0.053450         1.4544

MULLIKEN ATOMIC CHARGES
-----------------------
   0 C :   -0.968413
   1 C :   -0.968413
   2 C :   -0.483218
   3 C :   -0.483218
   4 C :   -0.254463
   5 H :    0.267602
   6 H :    0.267602
   7 H :    0.271350
   8 H :    0.267602
   9 H :    0.271350
  10 H :    0.267602
  11 H :    0.246427
  12 H :    0.246427
  13 H :    0.246427
  14 H :    0.246427
  15 H :    0.279455
  16 H :    0.279455
Sum of atomic charges:   -0.0000000

LOEWDIN ATOMIC CHARGES
----------------------
   0 C :    0.576915
   1 C :    0.576915
   2 C :    0.253798
   3 C :    0.253798
   4 C :    0.258271
   5 H :   -0.172003
   6 H :   -0.172003
   7 H :   -0.174581
   8 H :   -0.172003
   9 H :   -0.174581
  10 H :   -0.172003
  11 H :   -0.148800
  12 H :   -0.148800
  13 H :   -0.148800
  14 H :   -0.148800
  15 H :   -0.143662
  16 H :   -0.143662

  Mayer bond orders larger than 0.100000
B(  0-C ,  2-C ) :   0.9147 B(  0-C ,  5-H ) :   0.9598 B(  0-C ,  6-H ) :   0.9598
B(  0-C ,  7-H ) :   0.9885 B(  1-C ,  3-C ) :   0.9147 B(  1-C ,  8-H ) :   0.9598
B(  1-C ,  9-H ) :   0.9885 B(  1-C , 10-H ) :   0.9598 B(  2-C ,  4-C ) :   0.8938
B(  2-C , 11-H ) :   0.9562 B(  2-C , 12-H ) :   0.9562 B(  3-C ,  4-C ) :   0.8938
B(  3-C , 13-H ) :   0.9562 B(  3-C , 14-H ) :   0.9562 B(  4-C , 15-H ) :   0.9292
B(  4-C , 16-H ) :   0.9292

MP2 TOTAL ENERGY:     -197.309951164 Eh
FINAL SINGLE POINT ENERGY      -197.309951164371

DIPOLE MOMENT
-------------
                                X             Y             Z
Electronic contribution:     -0.00000       0.00000      -0.57479
Nuclear contribution   :      0.00000       0.00000       0.54170
                        -----------------------------------------
Total Dipole Moment    :     -0.00000       0.00000      -0.03309
                        -----------------------------------------
Magnitude (a.u.)       :      0.03309
Magnitude (Debye)      :      0.08411

Rotational constants in cm-1:     0.572242     0.064441     0.061176
Rotational constants in MHz : 17155.372822  1931.889839  1833.995355

                             ****ORCA TERMINATED NORMALLY****
TOTAL RUN TIME: 0 days 0 hours 3 minutes 28 seconds 281 msec
