                         Program Version 5.0.3 -  RELEASE  -
|  1> !ri-mp2 aug-cc-pvtz aug-cc-pvtz/c tightscf
|  2> %pal nprocs 16 end
|  3>
|  4> * xyz 0 1
|  5> C     0.000000     0.000000    0.590836
|  6> C     0.000000     1.321706   -0.236848
|  7> C     0.000000    -1.321706   -0.236848
|  8> F     1.097195     0.000000    1.372804
|  9> F    -1.097195     0.000000    1.372804
| 10> F     0.000000     2.356688    0.605533
| 11> F     0.000000    -2.356688    0.605533
| 12> F     1.086235     1.396250   -1.008692
| 13> F    -1.086235     1.396250   -1.008692
| 14> F    -1.086235    -1.396250   -1.008692
| 15> F     1.086235    -1.396250   -1.008692
| 16> *
| 17>
| 18>                          ****END OF INPUT****

CARTESIAN COORDINATES (ANGSTROEM)
---------------------------------
  C      0.000000    0.000000    0.590836
  C      0.000000    1.321706   -0.236848
  C      0.000000   -1.321706   -0.236848
  F      1.097195    0.000000    1.372804
  F     -1.097195    0.000000    1.372804
  F      0.000000    2.356688    0.605533
  F      0.000000   -2.356688    0.605533
  F      1.086235    1.396250   -1.008692
  F     -1.086235    1.396250   -1.008692
  F     -1.086235   -1.396250   -1.008692
  F      1.086235   -1.396250   -1.008692

 Total Charge           Charge          ....    0
 Multiplicity           Mult            ....    1
 Number of Electrons    NEL             ....   90
 Basis Dimension        Dim             ....  506

ORBITAL ENERGIES
----------------

  NO   OCC          E(Eh)            E(eV)
   0   2.0000     -26.381167      -717.8680
   1   2.0000     -26.381165      -717.8680
   2   2.0000     -26.381146      -717.8675
   3   2.0000     -26.381143      -717.8674
   4   2.0000     -26.379048      -717.8104
   5   2.0000     -26.379048      -717.8104
   6   2.0000     -26.378506      -717.7956
   7   2.0000     -26.378487      -717.7951
   8   2.0000     -11.561200      -314.5962
   9   2.0000     -11.561192      -314.5960
  10   2.0000     -11.501238      -312.9646
  11   2.0000      -1.779882       -48.4330
  12   2.0000      -1.770462       -48.1767
  13   2.0000      -1.729326       -47.0574
  14   2.0000      -1.683653       -45.8145
  15   2.0000      -1.677007       -45.6337
  16   2.0000      -1.676314       -45.6148
  17   2.0000      -1.675507       -45.5929
  18   2.0000      -1.667030       -45.3622
  19   2.0000      -1.127995       -30.6943
  20   2.0000      -1.031359       -28.0647
  21   2.0000      -0.959979       -26.1224
  22   2.0000      -0.904300       -24.6072
  23   2.0000      -0.886692       -24.1281
  24   2.0000      -0.876859       -23.8606
  25   2.0000      -0.864270       -23.5180
  26   2.0000      -0.856487       -23.3062
  27   2.0000      -0.853918       -23.2363
  28   2.0000      -0.817915       -22.2566
  29   2.0000      -0.766891       -20.8682
  30   2.0000      -0.758831       -20.6488
  31   2.0000      -0.753675       -20.5086
  32   2.0000      -0.742823       -20.2132
  33   2.0000      -0.740763       -20.1572
  34   2.0000      -0.737744       -20.0750
  35   2.0000      -0.731861       -19.9149
  36   2.0000      -0.711689       -19.3660
  37   2.0000      -0.709677       -19.3113
  38   2.0000      -0.696035       -18.9401
  39   2.0000      -0.695200       -18.9174
  40   2.0000      -0.695182       -18.9169
  41   2.0000      -0.686374       -18.6772
  42   2.0000      -0.684665       -18.6307
  43   2.0000      -0.644734       -17.5441
  44   2.0000      -0.574401       -15.6302
  45   0.0000       0.058455         1.5906
  46   0.0000       0.058860         1.6017
  47   0.0000       0.063542         1.7291
  48   0.0000       0.071755         1.9526
  49   0.0000       0.091479         2.4893

MULLIKEN ATOMIC CHARGES
-----------------------
   0 C :    0.931102
   1 C :    1.142691
   2 C :    1.142691
   3 F :   -0.459510
   4 F :   -0.459510
   5 F :   -0.371954
   6 F :   -0.371954
   7 F :   -0.388389
   8 F :   -0.388389
   9 F :   -0.388389
  10 F :   -0.388389
Sum of atomic charges:    0.0000000

LOEWDIN ATOMIC CHARGES
----------------------
   0 C :   -1.137294
   1 C :   -1.523665
   2 C :   -1.523665
   3 F :    0.530317
   4 F :    0.530317
   5 F :    0.521283
   6 F :    0.521283
   7 F :    0.520356
   8 F :    0.520356
   9 F :    0.520356
  10 F :    0.520356

  Mayer bond orders larger than 0.100000
B(  0-C ,  1-C ) :   0.9907 B(  0-C ,  2-C ) :   0.9907 B(  0-C ,  3-F ) :   0.6017
B(  0-C ,  4-F ) :   0.6017 B(  1-C ,  3-F ) :   0.1094 B(  1-C ,  4-F ) :   0.1094
B(  1-C ,  5-F ) :   0.8255 B(  1-C ,  7-F ) :   0.8066 B(  1-C ,  8-F ) :   0.8066
B(  2-C ,  3-F ) :   0.1094 B(  2-C ,  4-F ) :   0.1094 B(  2-C ,  6-F ) :   0.8255
B(  2-C ,  9-F ) :   0.8066 B(  2-C , 10-F ) :   0.8066

MP2 TOTAL ENERGY:     -911.999834649 Eh
FINAL SINGLE POINT ENERGY      -911.999834649029

DIPOLE MOMENT
-------------
                                X             Y             Z
Electronic contribution:      0.00000      -0.00000      -0.12980
Nuclear contribution   :      0.00000       0.00000       0.06933
                        -----------------------------------------
Total Dipole Moment    :      0.00000      -0.00000      -0.06047
                        -----------------------------------------
Magnitude (a.u.)       :      0.06047
Magnitude (Debye)      :      0.15370

Rotational constants in cm-1:     0.055489     0.031419     0.029599
Rotational constants in MHz :  1663.512932   941.914318   887.348727

                             ****ORCA TERMINATED NORMALLY****
TOTAL RUN TIME: 0 days 0 hours 3 minutes 30 seconds 445 msec
