                         Program Version 5.0.3 -  RELEASE  -
|  1> !ri-mp2 aug-cc-pvtz aug-cc-pvtz/c tightscf
|  2> %pal nprocs 16 end
|  3>
|  4> * xyz 0 1
|  5> C      0.000000    1.207774    0.694419
|  6> C      0.000000    1.207774   -0.694419
|  7> C      0.000000   -1.207774    0.694419
|  8> C      0.000000   -1.207774   -0.694419
|  9> C      0.000000    0.000000    1.378331
| 10> C      0.000000    0.000000   -1.378331
| 11> Cl     0.000000    0.000000    3.128670
| 12> Cl     0.000000    0.000000   -3.128670
| 13> H      0.000000    2.139873    1.239951
| 14> H      0.000000    2.139873   -1.239951
| 15> H      0.000000   -2.139873    1.239951
| 16> H      0.000000   -2.139873   -1.239951
| 17> *
| 18>
| 19>                          ****END OF INPUT****

CARTESIAN COORDINATES (ANGSTROEM)
---------------------------------
  C      0.000000    1.207774    0.694419
  C      0.000000    1.207774   -0.694419
  C      0.000000   -1.207774    0.694419
  C      0.000000   -1.207774   -0.694419
  C      0.000000    0.000000    1.378331
  C      0.000000    0.000000   -1.378331
  Cl     0.000000    0.000000    3.128670
  Cl     0.000000    0.000000   -3.128670
  H      0.000000    2.139873    1.239951
  H      0.000000    2.139873   -1.239951
  H      0.000000   -2.139873    1.239951
  H      0.000000   -2.139873   -1.239951

 Total Charge           Charge          ....    0
 Multiplicity           Mult            ....    1
 Number of Electrons    NEL             ....   74
 Basis Dimension        Dim             ....  468

ORBITAL ENERGIES
----------------

  NO   OCC          E(Eh)            E(eV)
   0   2.0000    -104.850475     -2853.1265
   1   2.0000    -104.850475     -2853.1265
   2   2.0000     -11.316389      -307.9346
   3   2.0000     -11.316368      -307.9340
   4   2.0000     -11.266095      -306.5660
   5   2.0000     -11.266048      -306.5647
   6   2.0000     -11.264822      -306.5314
   7   2.0000     -11.264814      -306.5312
   8   2.0000     -10.574060      -287.7348
   9   2.0000     -10.574060      -287.7348
  10   2.0000      -8.040947      -218.8053
  11   2.0000      -8.040947      -218.8053
  12   2.0000      -8.039054      -218.7538
  13   2.0000      -8.039053      -218.7537
  14   2.0000      -8.039044      -218.7535
  15   2.0000      -8.039044      -218.7535
  16   2.0000      -1.214715       -33.0541
  17   2.0000      -1.164623       -31.6910
  18   2.0000      -1.100776       -29.9536
  19   2.0000      -1.051817       -28.6214
  20   2.0000      -0.985556       -26.8183
  21   2.0000      -0.869764       -23.6675
  22   2.0000      -0.823468       -22.4077
  23   2.0000      -0.706191       -19.2164
  24   2.0000      -0.677060       -18.4237
  25   2.0000      -0.660077       -17.9616
  26   2.0000      -0.621298       -16.9064
  27   2.0000      -0.589358       -16.0373
  28   2.0000      -0.569848       -15.5064
  29   2.0000      -0.541234       -14.7277
  30   2.0000      -0.526077       -14.3153
  31   2.0000      -0.516052       -14.0425
  32   2.0000      -0.466977       -12.7071
  33   2.0000      -0.461755       -12.5650
  34   2.0000      -0.457677       -12.4540
  35   2.0000      -0.369046       -10.0423
  36   2.0000      -0.340550        -9.2668
  37   0.0000       0.030114         0.8194
  38   0.0000       0.032202         0.8763
  39   0.0000       0.040107         1.0914
  40   0.0000       0.049344         1.3427
  41   0.0000       0.071349         1.9415

MULLIKEN ATOMIC CHARGES
-----------------------
   0 C :   -0.669161
   1 C :   -0.669161
   2 C :   -0.669161
   3 C :   -0.669161
   4 C :    0.738062
   5 C :    0.738062
   6 Cl:   -0.489199
   7 Cl:   -0.489199
   8 H :    0.544730
   9 H :    0.544730
  10 H :    0.544730
  11 H :    0.544730
Sum of atomic charges:   -0.0000000

LOEWDIN ATOMIC CHARGES
----------------------
   0 C :    0.101428
   1 C :    0.101428
   2 C :    0.101428
   3 C :    0.101428
   4 C :   -0.765751
   5 C :   -0.765751
   6 Cl:    0.962881
   7 Cl:    0.962881
   8 H :   -0.199994
   9 H :   -0.199994
  10 H :   -0.199994
  11 H :   -0.199994

  Mayer bond orders larger than 0.100000
B(  0-C ,  1-C ) :   1.2619 B(  0-C ,  2-C ) :   0.1631 B(  0-C ,  3-C ) :   0.1162
B(  0-C ,  4-C ) :   1.1632 B(  0-C ,  5-C ) :  -0.1206 B(  0-C ,  8-H ) :   0.6782
B(  1-C ,  2-C ) :   0.1162 B(  1-C ,  3-C ) :   0.1631 B(  1-C ,  4-C ) :  -0.1206
B(  1-C ,  5-C ) :   1.1632 B(  1-C ,  9-H ) :   0.6782 B(  2-C ,  3-C ) :   1.2619
B(  2-C ,  4-C ) :   1.1632 B(  2-C ,  5-C ) :  -0.1206 B(  2-C , 10-H ) :   0.6782
B(  3-C ,  4-C ) :  -0.1206 B(  3-C ,  5-C ) :   1.1632 B(  3-C , 11-H ) :   0.6782
B(  4-C ,  6-Cl) :   0.6041 B(  5-C ,  7-Cl) :   0.6041

MP2 TOTAL ENERGY:    -1149.991638448 Eh
FINAL SINGLE POINT ENERGY     -1149.991638447577

DIPOLE MOMENT
-------------
                                X             Y             Z
Electronic contribution:      0.00000      -0.00000      -0.00000
Nuclear contribution   :      0.00000       0.00000       0.00000
                        -----------------------------------------
Total Dipole Moment    :      0.00000      -0.00000      -0.00000
                        -----------------------------------------
Magnitude (a.u.)       :      0.00000
Magnitude (Debye)      :      0.00000

Rotational constants in cm-1:     0.190384     0.021919     0.019656
Rotational constants in MHz :  5707.574325   657.128564   589.282828

                             ****ORCA TERMINATED NORMALLY****
TOTAL RUN TIME: 0 days 0 hours 3 minutes 50 seconds 747 msec
