                         Program Version 5.0.3 -  RELEASE  -
|  1> !ri-mp2 aug-cc-pvtz aug-cc-pvtz/c tightscf
|  2> %pal nprocs 16 end
|  3>
|  4> * xyz 0 1
|  5> F      1.053714    1.101216    0.000007
|  6> O      1.153455   -1.111284    0.000013
|  7> C      0.490920   -0.130271   -0.000038
|  8> C     -0.939398   -0.040028   -0.000063
|  9> C     -2.136840   -0.004245    0.000046
| 10> H     -3.199160    0.026597    0.000161
| 11> *
| 12>
| 13>                          ****END OF INPUT****

CARTESIAN COORDINATES (ANGSTROEM)
---------------------------------
  F      1.053714    1.101216    0.000007
  O      1.153455   -1.111284    0.000013
  C      0.490920   -0.130271   -0.000038
  C     -0.939398   -0.040028   -0.000063
  C     -2.136840   -0.004245    0.000046
  H     -3.199160    0.026597    0.000161

 Total Charge           Charge          ....    0
 Multiplicity           Mult            ....    1
 Number of Electrons    NEL             ....   36
 Basis Dimension        Dim             ....  253

ORBITAL ENERGIES
----------------

  NO   OCC          E(Eh)            E(eV)
   0   2.0000     -26.347826      -716.9608
   1   2.0000     -20.604917      -560.6883
   2   2.0000     -11.462400      -311.9078
   3   2.0000     -11.296408      -307.3909
   4   2.0000     -11.284408      -307.0644
   5   2.0000      -1.670856       -45.4663
   6   2.0000      -1.452888       -39.5351
   7   2.0000      -1.098385       -29.8886
   8   2.0000      -0.949544       -25.8384
   9   2.0000      -0.821976       -22.3671
  10   2.0000      -0.757069       -20.6009
  11   2.0000      -0.737504       -20.0685
  12   2.0000      -0.736155       -20.0318
  13   2.0000      -0.657501       -17.8915
  14   2.0000      -0.574224       -15.6254
  15   2.0000      -0.530983       -14.4488
  16   2.0000      -0.453587       -12.3427
  17   2.0000      -0.451995       -12.2994
  18   0.0000       0.021837         0.5942
  19   0.0000       0.053466         1.4549
  20   0.0000       0.059707         1.6247
  21   0.0000       0.069691         1.8964
  22   0.0000       0.077994         2.1223

MULLIKEN ATOMIC CHARGES
-----------------------
   0 F :   -0.318167
   1 O :   -0.483929
   2 C :    0.446090
   3 C :    1.174950
   4 C :   -1.361556
   5 H :    0.542612
Sum of atomic charges:   -0.0000000

LOEWDIN ATOMIC CHARGES
----------------------
   0 F :    0.452888
   1 O :    0.433844
   2 C :   -0.999765
   3 C :   -0.033262
   4 C :    0.417674
   5 H :   -0.271377

  Mayer bond orders larger than 0.100000
B(  0-F ,  2-C ) :   0.9670 B(  1-O ,  2-C ) :   1.8659 B(  1-O ,  3-C ) :  -0.1210
B(  2-C ,  3-C ) :   0.7203 B(  2-C ,  4-C ) :  -0.1307 B(  3-C ,  4-C ) :   1.3153
B(  4-C ,  5-H ) :   0.7537

MP2 TOTAL ENERGY:     -289.470231389 Eh
FINAL SINGLE POINT ENERGY      -289.470231388878

DIPOLE MOMENT
-------------
                                X             Y             Z
Electronic contribution:      2.58793       1.30550      -0.00013
Nuclear contribution   :     -3.96216      -1.01219       0.00014
                        -----------------------------------------
Total Dipole Moment    :     -1.37423       0.29331       0.00002
                        -----------------------------------------
Magnitude (a.u.)       :      1.40518
Magnitude (Debye)      :      3.57168

Rotational constants in cm-1:     0.392161     0.139542     0.102920
Rotational constants in MHz : 11756.685955  4183.360058  3085.464776

                             ****ORCA TERMINATED NORMALLY****
TOTAL RUN TIME: 0 days 0 hours 0 minutes 44 seconds 323 msec
