                         Program Version 5.0.3 -  RELEASE  -
|  1> !ri-mp2 aug-cc-pvtz aug-cc-pvtz/c tightscf
|  2> %pal nprocs 16 end
|  3> %maxcore 3800
|  4>
|  5> * xyz 0 1
|  6> C           0.000000     1.141350    0.720815
|  7> C           0.000000     1.141350   -0.720815
|  8> N           0.000000     0.000000    1.415067
|  9> C           0.000000     2.387462    1.410508
| 10> N           0.000000     0.000000   -1.415067
| 11> C           0.000000     2.387462   -1.410508
| 12> C           0.000000    -1.141350    0.720815
| 13> C           0.000000     3.557969    0.711879
| 14> C           0.000000    -1.141350   -0.720815
| 15> C           0.000000     3.557969   -0.711879
| 16> C           0.000000    -2.387462    1.410508
| 17> C           0.000000    -2.387462   -1.410508
| 18> C           0.000000    -3.557969    0.711879
| 19> C           0.000000    -3.557969   -0.711879
| 20> H           0.000000     2.364656    2.491337
| 21> H           0.000000     2.364656   -2.491337
| 22> H           0.000000     4.502732    1.238686
| 23> H           0.000000     4.502732   -1.238686
| 24> H           0.000000    -2.364656    2.491337
| 25> H           0.000000    -2.364656   -2.491337
| 26> H           0.000000    -4.502732    1.238686
| 27> H           0.000000    -4.502732   -1.238686
| 28> *
| 29>
| 30>                          ****END OF INPUT****

CARTESIAN COORDINATES (ANGSTROEM)
---------------------------------
  C      0.000000    1.141350    0.720815
  C      0.000000    1.141350   -0.720815
  N      0.000000    0.000000    1.415067
  C      0.000000    2.387462    1.410508
  N      0.000000    0.000000   -1.415067
  C      0.000000    2.387462   -1.410508
  C      0.000000   -1.141350    0.720815
  C      0.000000    3.557969    0.711879
  C      0.000000   -1.141350   -0.720815
  C      0.000000    3.557969   -0.711879
  C      0.000000   -2.387462    1.410508
  C      0.000000   -2.387462   -1.410508
  C      0.000000   -3.557969    0.711879
  C      0.000000   -3.557969   -0.711879
  H      0.000000    2.364656    2.491337
  H      0.000000    2.364656   -2.491337
  H      0.000000    4.502732    1.238686
  H      0.000000    4.502732   -1.238686
  H      0.000000   -2.364656    2.491337
  H      0.000000   -2.364656   -2.491337
  H      0.000000   -4.502732    1.238686
  H      0.000000   -4.502732   -1.238686

 Total Charge           Charge          ....    0
 Multiplicity           Mult            ....    1
 Number of Electrons    NEL             ....   94
 Basis Dimension        Dim             ....  828

ORBITAL ENERGIES
----------------

  NO   OCC          E(Eh)            E(eV)
   0   2.0000     -15.586491      -424.1300
   1   2.0000     -15.586475      -424.1296
   2   2.0000     -11.286431      -307.1194
   3   2.0000     -11.286393      -307.1184
   4   2.0000     -11.285443      -307.0925
   5   2.0000     -11.285440      -307.0924
   6   2.0000     -11.250729      -306.1479
   7   2.0000     -11.250728      -306.1479
   8   2.0000     -11.249725      -306.1206
   9   2.0000     -11.249724      -306.1206
  10   2.0000     -11.244314      -305.9733
  11   2.0000     -11.244313      -305.9733
  12   2.0000     -11.244313      -305.9733
  13   2.0000     -11.244313      -305.9733
  14   2.0000      -1.309287       -35.6275
  15   2.0000      -1.226757       -33.3818
  16   2.0000      -1.166649       -31.7461
  17   2.0000      -1.129591       -30.7377
  18   2.0000      -1.044164       -28.4132
  19   2.0000      -1.029044       -28.0017
  20   2.0000      -1.009446       -27.4684
  21   2.0000      -0.928911       -25.2769
  22   2.0000      -0.881057       -23.9748
  23   2.0000      -0.839762       -22.8511
  24   2.0000      -0.822988       -22.3946
  25   2.0000      -0.775216       -21.0947
  26   2.0000      -0.750556       -20.4237
  27   2.0000      -0.691661       -18.8211
  28   2.0000      -0.683779       -18.6066
  29   2.0000      -0.660759       -17.9802
  30   2.0000      -0.644946       -17.5499
  31   2.0000      -0.615612       -16.7517
  32   2.0000      -0.606988       -16.5170
  33   2.0000      -0.604037       -16.4367
  34   2.0000      -0.596580       -16.2338
  35   2.0000      -0.557942       -15.1824
  36   2.0000      -0.538075       -14.6418
  37   2.0000      -0.517188       -14.0734
  38   2.0000      -0.512484       -13.9454
  39   2.0000      -0.507972       -13.8226
  40   2.0000      -0.492736       -13.4080
  41   2.0000      -0.471888       -12.8407
  42   2.0000      -0.441969       -12.0266
  43   2.0000      -0.403472       -10.9790
  44   2.0000      -0.359557        -9.7840
  45   2.0000      -0.320189        -8.7128
  46   2.0000      -0.300049        -8.1647
  47   0.0000       0.019526         0.5313
  48   0.0000       0.027756         0.7553
  49   0.0000       0.027847         0.7577
  50   0.0000       0.032420         0.8822
  51   0.0000       0.038415         1.0453

MULLIKEN ATOMIC CHARGES
-----------------------
   0 C :    0.969388
   1 C :    0.969436
   2 N :   -0.750540
   3 C :   -1.207308
   4 N :   -0.750498
   5 C :   -1.207370
   6 C :    0.969318
   7 C :   -0.263681
   8 C :    0.969358
   9 C :   -0.263701
  10 C :   -1.207291
  11 C :   -1.207329
  12 C :   -0.263773
  13 C :   -0.263828
  14 H :    0.342090
  15 H :    0.342123
  16 H :    0.534828
  17 H :    0.534822
  18 H :    0.342144
  19 H :    0.342136
  20 H :    0.534797
  21 H :    0.534879
Sum of atomic charges:   -0.0000000

LOEWDIN ATOMIC CHARGES
----------------------
   0 C :   -0.282721
   1 C :   -0.282721
   2 N :    0.437821
   3 C :    0.220833
   4 N :    0.437821
   5 C :    0.220833
   6 C :   -0.282721
   7 C :    0.205394
   8 C :   -0.282721
   9 C :    0.205394
  10 C :    0.220833
  11 C :    0.220833
  12 C :    0.205394
  13 C :    0.205394
  14 H :   -0.178640
  15 H :   -0.178640
  16 H :   -0.183776
  17 H :   -0.183776
  18 H :   -0.178640
  19 H :   -0.178640
  20 H :   -0.183776
  21 H :   -0.183776

  Mayer bond orders larger than 0.100000
B(  0-C ,  1-C ) :   1.0307 B(  0-C ,  2-N ) :   0.1875 B(  0-C ,  3-C ) :   0.2027
B(  0-C ,  5-C ) :   0.1867 B(  0-C ,  6-C ) :   0.3858 B(  0-C ,  8-C ) :   0.1187
B(  0-C ,  9-C ) :   0.1266 B(  1-C ,  3-C ) :   0.1867 B(  1-C ,  4-N ) :   0.1875
B(  1-C ,  5-C ) :   0.2028 B(  1-C ,  6-C ) :   0.1188 B(  1-C ,  7-C ) :   0.1266
B(  1-C ,  8-C ) :   0.3859 B(  2-N ,  3-C ) :   0.2303 B(  2-N ,  6-C ) :   0.1877
B(  2-N , 10-C ) :   0.2302 B(  3-C ,  7-C ) :   1.5601 B(  3-C , 10-C ) :   0.1231
B(  3-C , 11-C ) :   0.2272 B(  3-C , 14-H ) :   0.9507 B(  3-C , 16-H ) :  -0.1482
B(  3-C , 17-H ) :   0.1118 B(  4-N ,  5-C ) :   0.2302 B(  4-N ,  8-C ) :   0.1877
B(  4-N , 11-C ) :   0.2303 B(  5-C ,  9-C ) :   1.5602 B(  5-C , 10-C ) :   0.2272
B(  5-C , 11-C ) :   0.1231 B(  5-C , 15-H ) :   0.9506 B(  5-C , 16-H ) :   0.1118
B(  5-C , 17-H ) :  -0.1482 B(  6-C ,  8-C ) :   1.0307 B(  6-C , 10-C ) :   0.2027
B(  6-C , 11-C ) :   0.1867 B(  6-C , 13-C ) :   0.1266 B(  7-C ,  9-C ) :   0.6575
B(  7-C , 13-C ) :   0.1205 B(  7-C , 16-H ) :   0.6610 B(  8-C , 10-C ) :   0.1866
B(  8-C , 11-C ) :   0.2027 B(  8-C , 12-C ) :   0.1266 B(  9-C , 12-C ) :   0.1205
B(  9-C , 17-H ) :   0.6610 B( 10-C , 12-C ) :   1.5603 B( 10-C , 18-H ) :   0.9506
B( 10-C , 20-H ) :  -0.1482 B( 10-C , 21-H ) :   0.1117 B( 11-C , 13-C ) :   1.5603
B( 11-C , 19-H ) :   0.9506 B( 11-C , 20-H ) :   0.1117 B( 11-C , 21-H ) :  -0.1482
B( 12-C , 13-C ) :   0.6576 B( 12-C , 20-H ) :   0.6610 B( 13-C , 21-H ) :   0.6609

MP2 TOTAL ENERGY:     -570.458169821 Eh
FINAL SINGLE POINT ENERGY      -570.458169820898

DIPOLE MOMENT
-------------
                                X             Y             Z
Electronic contribution:      0.00000       0.00000       0.00000
Nuclear contribution   :      0.00000      -0.00000       0.00000
                        -----------------------------------------
Total Dipole Moment    :      0.00000       0.00000       0.00000
                        -----------------------------------------
Magnitude (a.u.)       :      0.00000
Magnitude (Debye)      :      0.00000

Rotational constants in cm-1:     0.072599     0.016071     0.013158
Rotational constants in MHz :  2176.458697   481.807567   394.480524

                             ****ORCA TERMINATED NORMALLY****
TOTAL RUN TIME: 0 days 0 hours 21 minutes 46 seconds 107 msec
