                         Program Version 5.0.3 -  RELEASE  -
|  1> !ri-mp2 aug-cc-pvtz aug-cc-pvtz/c tightscf
|  2> %pal nprocs 16 end
|  3>
|  4> * xyz 0 1
|  5> H      0.523976   -2.089870    0.151478
|  6> N     -1.558037    0.145643    0.423258
|  7> O     -2.483813    0.541713   -0.169766
|  8> O     -0.642907   -0.522944   -0.431654
|  9> C      1.780908   -0.362548   -0.207690
| 10> H      1.873022   -0.557573   -1.278447
| 11> H      2.615550   -0.879811    0.273817
| 12> C      0.501420   -1.009602    0.298749
| 13> H      0.339389   -0.803022    1.358537
| 14> H      2.807723    1.545267   -0.303725
| 15> H      1.808716    1.348492    1.134869
| 16> H      1.057381    1.676612   -0.426643
| 17> C      1.866715    1.137191    0.065387
| 18> *
| 19>
| 20>                          ****END OF INPUT****

CARTESIAN COORDINATES (ANGSTROEM)
---------------------------------
  H      0.523976   -2.089870    0.151478
  N     -1.558037    0.145643    0.423258
  O     -2.483813    0.541713   -0.169766
  O     -0.642907   -0.522944   -0.431654
  C      1.780908   -0.362548   -0.207690
  H      1.873022   -0.557573   -1.278447
  H      2.615550   -0.879811    0.273817
  C      0.501420   -1.009602    0.298749
  H      0.339389   -0.803022    1.358537
  H      2.807723    1.545267   -0.303725
  H      1.808716    1.348492    1.134869
  H      1.057381    1.676612   -0.426643
  C      1.866715    1.137191    0.065387

 Total Charge           Charge          ....    0
 Multiplicity           Mult            ....    1
 Number of Electrons    NEL             ....   48
 Basis Dimension        Dim             ....  437

ORBITAL ENERGIES
----------------

  NO   OCC          E(Eh)            E(eV)
   0   2.0000     -20.650912      -561.9399
   1   2.0000     -20.620804      -561.1206
   2   2.0000     -15.782790      -429.4715
   3   2.0000     -11.294530      -307.3398
   4   2.0000     -11.235618      -305.7367
   5   2.0000     -11.221950      -305.3648
   6   2.0000      -1.596363       -43.4392
   7   2.0000      -1.394928       -37.9579
   8   2.0000      -1.072423       -29.1821
   9   2.0000      -0.969411       -26.3790
  10   2.0000      -0.903991       -24.5989
  11   2.0000      -0.824455       -22.4346
  12   2.0000      -0.747640       -20.3443
  13   2.0000      -0.717216       -19.5164
  14   2.0000      -0.689543       -18.7634
  15   2.0000      -0.628176       -17.0935
  16   2.0000      -0.620462       -16.8836
  17   2.0000      -0.590206       -16.0603
  18   2.0000      -0.552674       -15.0390
  19   2.0000      -0.534152       -14.5350
  20   2.0000      -0.504884       -13.7386
  21   2.0000      -0.493448       -13.4274
  22   2.0000      -0.459810       -12.5121
  23   2.0000      -0.442239       -12.0339
  24   0.0000       0.027994         0.7618
  25   0.0000       0.035848         0.9755
  26   0.0000       0.038816         1.0562
  27   0.0000       0.046072         1.2537
  28   0.0000       0.058985         1.6051

MULLIKEN ATOMIC CHARGES
-----------------------
   0 H :    0.293163
   1 N :    0.306668
   2 O :   -0.413897
   3 O :   -0.467573
   4 C :   -0.495444
   5 H :    0.258747
   6 H :    0.268692
   7 C :   -0.124252
   8 H :    0.408590
   9 H :    0.281241
  10 H :    0.277629
  11 H :    0.305718
  12 C :   -0.899281
Sum of atomic charges:   -0.0000000

LOEWDIN ATOMIC CHARGES
----------------------
   0 H :   -0.166353
   1 N :   -0.265720
   2 O :    0.254347
   3 O :    0.383495
   4 C :    0.247205
   5 H :   -0.153844
   6 H :   -0.153963
   7 C :   -0.003290
   8 H :   -0.191776
   9 H :   -0.172638
  10 H :   -0.172038
  11 H :   -0.177201
  12 C :    0.571777

  Mayer bond orders larger than 0.100000
B(  0-H ,  7-C ) :   0.9351 B(  1-N ,  2-O ) :   1.4883 B(  1-N ,  3-O ) :   0.9853
B(  3-O ,  7-C ) :   0.7025 B(  4-C ,  5-H ) :   0.9440 B(  4-C ,  6-H ) :   0.9494
B(  4-C ,  7-C ) :   0.9066 B(  4-C , 12-C ) :   0.8446 B(  7-C ,  8-H ) :   0.8974
B(  9-H , 12-C ) :   0.9624 B( 10-H , 12-C ) :   0.9391 B( 11-H , 12-C ) :   0.9261

MP2 TOTAL ENERGY:     -323.085522726 Eh
FINAL SINGLE POINT ENERGY      -323.085522725565

DIPOLE MOMENT
-------------
                                X             Y             Z
Electronic contribution:    -10.12324      -0.57806      -0.50659
Nuclear contribution   :     11.09701       0.24410       0.91356
                        -----------------------------------------
Total Dipole Moment    :      0.97376      -0.33396       0.40697
                        -----------------------------------------
Magnitude (a.u.)       :      1.10696
Magnitude (Debye)      :      2.81368

Rotational constants in cm-1:     0.260837     0.065599     0.056933
Rotational constants in MHz :  7819.683806  1966.604605  1706.799256

                             ****ORCA TERMINATED NORMALLY****
TOTAL RUN TIME: 0 days 0 hours 2 minutes 42 seconds 18 msec
