                         Program Version 5.0.3 -  RELEASE  -
|  1> !ri-mp2 aug-cc-pvtz aug-cc-pvtz/c tightscf
|  2> %pal nprocs 16 end
|  3> %maxcore 3800
|  4>
|  5> * xyz 0 1
|  6> C     -1.760775    2.179912    0.000000
|  7> C     -3.257433    2.344694    0.000000
|  8> C      3.309060   -3.268875    0.000000
|  9> C      1.838693   -2.855555    0.000000
| 10> C      1.639526   -1.339018    0.000000
| 11> C      0.167821   -0.923390    0.000000
| 12> C      0.000000    0.582801    0.000000
| 13> O     -0.959601    3.081295    0.000000
| 14> O     -1.416146    0.876019    0.000000
| 15> H     -3.685781    1.861519    0.878050
| 16> H     -3.685781    1.861519   -0.878050
| 17> H     -3.506083    3.401176    0.000000
| 18> H      3.827078   -2.884132   -0.880810
| 19> H      3.827078   -2.884132    0.880810
| 20> H      3.417166   -4.354194    0.000000
| 21> H      1.339037   -3.283396    0.874078
| 22> H      1.339037   -3.283396   -0.874078
| 23> H      2.140097   -0.911420    0.874802
| 24> H      2.140097   -0.911420   -0.874802
| 25> H     -0.335676   -1.338585    0.876781
| 26> H     -0.335676   -1.338585   -0.876781
| 27> H      0.452021    1.041556   -0.880361
| 28> H      0.452021    1.041556    0.880361
| 29> *
| 30>
| 31>                          ****END OF INPUT****

CARTESIAN COORDINATES (ANGSTROEM)
---------------------------------
  C     -1.760775    2.179912    0.000000
  C     -3.257433    2.344694    0.000000
  C      3.309060   -3.268875    0.000000
  C      1.838693   -2.855555    0.000000
  C      1.639526   -1.339018    0.000000
  C      0.167821   -0.923390    0.000000
  C      0.000000    0.582801    0.000000
  O     -0.959601    3.081295    0.000000
  O     -1.416146    0.876019    0.000000
  H     -3.685781    1.861519    0.878050
  H     -3.685781    1.861519   -0.878050
  H     -3.506083    3.401176    0.000000
  H      3.827078   -2.884132   -0.880810
  H      3.827078   -2.884132    0.880810
  H      3.417166   -4.354194    0.000000
  H      1.339037   -3.283396    0.874078
  H      1.339037   -3.283396   -0.874078
  H      2.140097   -0.911420    0.874802
  H      2.140097   -0.911420   -0.874802
  H     -0.335676   -1.338585    0.876781
  H     -0.335676   -1.338585   -0.876781
  H      0.452021    1.041556   -0.880361
  H      0.452021    1.041556    0.880361

 Total Charge           Charge          ....    0
 Multiplicity           Mult            ....    1
 Number of Electrons    NEL             ....   72
 Basis Dimension        Dim             ....  736

ORBITAL ENERGIES
----------------

  NO   OCC          E(Eh)            E(eV)
   0   2.0000     -20.597452      -560.4852
   1   2.0000     -20.540506      -558.9356
   2   2.0000     -11.376751      -309.5771
   3   2.0000     -11.284338      -307.0624
   4   2.0000     -11.238119      -305.8048
   5   2.0000     -11.225963      -305.4740
   6   2.0000     -11.224676      -305.4390
   7   2.0000     -11.222695      -305.3851
   8   2.0000     -11.214367      -305.1584
   9   2.0000      -1.454241       -39.5719
  10   2.0000      -1.354753       -36.8647
  11   2.0000      -1.092531       -29.7293
  12   2.0000      -1.040486       -28.3131
  13   2.0000      -1.004007       -27.3204
  14   2.0000      -0.926938       -25.2233
  15   2.0000      -0.837792       -22.7975
  16   2.0000      -0.799923       -21.7670
  17   2.0000      -0.772778       -21.0284
  18   2.0000      -0.687352       -18.7038
  19   2.0000      -0.686655       -18.6848
  20   2.0000      -0.664774       -18.0894
  21   2.0000      -0.644450       -17.5364
  22   2.0000      -0.604197       -16.4410
  23   2.0000      -0.588145       -16.0042
  24   2.0000      -0.582928       -15.8623
  25   2.0000      -0.563629       -15.3371
  26   2.0000      -0.558971       -15.2104
  27   2.0000      -0.539637       -14.6843
  28   2.0000      -0.521761       -14.1978
  29   2.0000      -0.505893       -13.7661
  30   2.0000      -0.490458       -13.3460
  31   2.0000      -0.478161       -13.0114
  32   2.0000      -0.469734       -12.7821
  33   2.0000      -0.467443       -12.7198
  34   2.0000      -0.456350       -12.4179
  35   2.0000      -0.442767       -12.0483
  36   0.0000       0.028197         0.7673
  37   0.0000       0.029652         0.8069
  38   0.0000       0.036461         0.9922
  39   0.0000       0.037055         1.0083
  40   0.0000       0.043550         1.1850

MULLIKEN ATOMIC CHARGES
-----------------------
   0 C :    0.272984
   1 C :   -0.634117
   2 C :   -0.982537
   3 C :   -0.497927
   4 C :   -0.231917
   5 C :   -0.334932
   6 C :   -0.332121
   7 O :   -0.719297
   8 O :   -0.258006
   9 H :    0.262910
  10 H :    0.262910
  11 H :    0.366520
  12 H :    0.267773
  13 H :    0.267773
  14 H :    0.274152
  15 H :    0.234288
  16 H :    0.234288
  17 H :    0.257744
  18 H :    0.257743
  19 H :    0.231111
  20 H :    0.231111
  21 H :    0.284774
  22 H :    0.284774
Sum of atomic charges:    0.0000000

LOEWDIN ATOMIC CHARGES
----------------------
   0 C :   -0.829850
   1 C :    0.582597
   2 C :    0.579889
   3 C :    0.258090
   4 C :    0.267241
   5 C :    0.276102
   6 C :    0.052654
   7 O :    0.450176
   8 O :    0.582002
   9 H :   -0.176704
  10 H :   -0.176704
  11 H :   -0.186536
  12 H :   -0.170887
  13 H :   -0.170887
  14 H :   -0.173366
  15 H :   -0.147340
  16 H :   -0.147340
  17 H :   -0.140644
  18 H :   -0.140644
  19 H :   -0.142456
  20 H :   -0.142456
  21 H :   -0.151468
  22 H :   -0.151468

  Mayer bond orders larger than 0.100000
B(  0-C ,  1-C ) :   0.7161 B(  0-C ,  7-O ) :   1.5566 B(  0-C ,  8-O ) :   0.9920
B(  1-C ,  9-H ) :   0.9725 B(  1-C , 10-H ) :   0.9725 B(  1-C , 11-H ) :   0.8830
B(  2-C ,  3-C ) :   0.9270 B(  2-C , 12-H ) :   0.9619 B(  2-C , 13-H ) :   0.9619
B(  2-C , 14-H ) :   0.9939 B(  3-C ,  4-C ) :   0.8759 B(  3-C , 15-H ) :   0.9665
B(  3-C , 16-H ) :   0.9665 B(  4-C ,  5-C ) :   0.9213 B(  4-C , 17-H ) :   0.9305
B(  4-C , 18-H ) :   0.9305 B(  5-C ,  6-C ) :   1.0118 B(  5-C ,  8-O ) :  -0.2080
B(  5-C , 19-H ) :   0.9541 B(  5-C , 20-H ) :   0.9541 B(  6-C ,  8-O ) :   0.8359
B(  6-C , 21-H ) :   0.9545 B(  6-C , 22-H ) :   0.9545

MP2 TOTAL ENERGY:     -424.833722074 Eh
FINAL SINGLE POINT ENERGY      -424.833722073613

DIPOLE MOMENT
-------------
                                X             Y             Z
Electronic contribution:     -7.94013      11.50100       0.00000
Nuclear contribution   :      7.63129     -12.38047       0.00000
                        -----------------------------------------
Total Dipole Moment    :     -0.30883      -0.87947       0.00000
                        -----------------------------------------
Magnitude (a.u.)       :      0.93212
Magnitude (Debye)      :      2.36925

Rotational constants in cm-1:     0.218133     0.015554     0.014755
Rotational constants in MHz :  6539.456344   466.287824   442.349090

                             ****ORCA TERMINATED NORMALLY****
TOTAL RUN TIME: 0 days 0 hours 12 minutes 36 seconds 594 msec
