                         Program Version 5.0.3 -  RELEASE  -
|  1> !ri-mp2 aug-cc-pvtz aug-cc-pvtz/c tightscf
|  2> %pal nprocs 16 end
|  3>
|  4> * xyz 0 1
|  5> C     -0.006126    0.695514    1.193928
|  6> C      0.006126   -0.695514    1.193928
|  7> C     -0.005956    0.693932   -1.191741
|  8> C      0.005956   -0.693932   -1.191741
|  9> C     -0.010665    1.417282    0.002438
| 10> C      0.010665   -1.417282    0.002438
| 11> C      0.005956    2.923660   -0.002240
| 12> C     -0.005956   -2.923660   -0.002240
| 13> H     -0.011287    1.226083    2.138293
| 14> H      0.011287   -1.226083    2.138293
| 15> H     -0.010880    1.224834   -2.136140
| 16> H      0.010880   -1.224834   -2.136140
| 17> H     -0.642816    3.326662   -0.780885
| 18> H     -0.324391    3.327444    0.954402
| 19> H      1.012311    3.306699   -0.189982
| 20> H      0.642816   -3.326662   -0.780885
| 21> H      0.324391   -3.327444    0.954402
| 22> H     -1.012311   -3.306699   -0.189982
| 23> *
| 24>
| 25>                          ****END OF INPUT****

CARTESIAN COORDINATES (ANGSTROEM)
---------------------------------
  C     -0.006126    0.695514    1.193928
  C      0.006126   -0.695514    1.193928
  C     -0.005956    0.693932   -1.191741
  C      0.005956   -0.693932   -1.191741
  C     -0.010665    1.417282    0.002438
  C      0.010665   -1.417282    0.002438
  C      0.005956    2.923660   -0.002240
  C     -0.005956   -2.923660   -0.002240
  H     -0.011287    1.226083    2.138293
  H      0.011287   -1.226083    2.138293
  H     -0.010880    1.224834   -2.136140
  H      0.010880   -1.224834   -2.136140
  H     -0.642816    3.326662   -0.780885
  H     -0.324391    3.327444    0.954402
  H      1.012311    3.306699   -0.189982
  H      0.642816   -3.326662   -0.780885
  H      0.324391   -3.327444    0.954402
  H     -1.012311   -3.306699   -0.189982

 Total Charge           Charge          ....    0
 Multiplicity           Mult            ....    1
 Number of Electrons    NEL             ....   58
 Basis Dimension        Dim             ....  598

ORBITAL ENERGIES
----------------

  NO   OCC          E(Eh)            E(eV)
   0   2.0000     -11.234155      -305.6969
   1   2.0000     -11.234143      -305.6966
   2   2.0000     -11.226009      -305.4752
   3   2.0000     -11.225616      -305.4645
   4   2.0000     -11.224748      -305.4409
   5   2.0000     -11.224389      -305.4311
   6   2.0000     -11.220420      -305.3231
   7   2.0000     -11.220420      -305.3231
   8   2.0000      -1.153822       -31.3971
   9   2.0000      -1.060451       -28.8563
  10   2.0000      -1.008108       -27.4320
  11   2.0000      -0.972070       -26.4514
  12   2.0000      -0.894313       -24.3355
  13   2.0000      -0.825055       -22.4509
  14   2.0000      -0.781045       -21.2533
  15   2.0000      -0.667260       -18.1571
  16   2.0000      -0.643385       -17.5074
  17   2.0000      -0.624536       -16.9945
  18   2.0000      -0.577258       -15.7080
  19   2.0000      -0.577152       -15.7051
  20   2.0000      -0.567607       -15.4454
  21   2.0000      -0.553769       -15.0688
  22   2.0000      -0.547771       -14.9056
  23   2.0000      -0.522575       -14.2200
  24   2.0000      -0.481074       -13.0907
  25   2.0000      -0.477574       -12.9955
  26   2.0000      -0.475279       -12.9330
  27   2.0000      -0.332174        -9.0389
  28   2.0000      -0.312449        -8.5022
  29   0.0000       0.030673         0.8347
  30   0.0000       0.030684         0.8350
  31   0.0000       0.035025         0.9531
  32   0.0000       0.044787         1.2187
  33   0.0000       0.044923         1.2224

MULLIKEN ATOMIC CHARGES
-----------------------
   0 C :   -0.868287
   1 C :   -0.868286
   2 C :   -1.042931
   3 C :   -1.042931
   4 C :    1.469260
   5 C :    1.469260
   6 C :   -0.895771
   7 C :   -0.895771
   8 H :    0.235784
   9 H :    0.235784
  10 H :    0.272864
  11 H :    0.272864
  12 H :    0.272729
  13 H :    0.250310
  14 H :    0.306042
  15 H :    0.272729
  16 H :    0.250310
  17 H :    0.306042
Sum of atomic charges:   -0.0000000

LOEWDIN ATOMIC CHARGES
----------------------
   0 C :    0.214932
   1 C :    0.214932
   2 C :    0.213984
   3 C :    0.213984
   4 C :   -0.126135
   5 C :   -0.126135
   6 C :    0.574943
   7 C :    0.574943
   8 H :   -0.181148
   9 H :   -0.181148
  10 H :   -0.177760
  11 H :   -0.177760
  12 H :   -0.173883
  13 H :   -0.179583
  14 H :   -0.165349
  15 H :   -0.173883
  16 H :   -0.179583
  17 H :   -0.165349

  Mayer bond orders larger than 0.100000
B(  0-C ,  1-C ) :   1.3165 B(  0-C ,  4-C ) :   0.6244 B(  0-C ,  8-H ) :   1.1830
B(  1-C ,  5-C ) :   0.6244 B(  1-C ,  9-H ) :   1.1830 B(  2-C ,  3-C ) :   1.3910
B(  2-C ,  4-C ) :   0.6404 B(  2-C , 10-H ) :   1.1077 B(  3-C ,  5-C ) :   0.6404
B(  3-C , 11-H ) :   1.1077 B(  4-C ,  5-C ) :   0.1028 B(  4-C ,  6-C ) :   0.4356
B(  5-C ,  7-C ) :   0.4356 B(  6-C , 12-H ) :   1.0077 B(  6-C , 13-H ) :   1.0144
B(  6-C , 14-H ) :   0.9694 B(  7-C , 15-H ) :   1.0077 B(  7-C , 16-H ) :   1.0144
B(  7-C , 17-H ) :   0.9694

MP2 TOTAL ENERGY:     -310.203626824 Eh
FINAL SINGLE POINT ENERGY      -310.203626824342

DIPOLE MOMENT
-------------
                                X             Y             Z
Electronic contribution:     -0.00000      -0.00000       0.01391
Nuclear contribution   :      0.00000       0.00000      -0.02937
                        -----------------------------------------
Total Dipole Moment    :     -0.00000      -0.00000      -0.01546
                        -----------------------------------------
Magnitude (a.u.)       :      0.01546
Magnitude (Debye)      :      0.03929

Rotational constants in cm-1:     0.181202     0.047806     0.038363
Rotational constants in MHz :  5432.305035  1433.202698  1150.103636

                             ****ORCA TERMINATED NORMALLY****
TOTAL RUN TIME: 0 days 0 hours 6 minutes 48 seconds 439 msec
