                         Program Version 5.0.3 -  RELEASE  -
|  1> !ri-mp2 aug-cc-pvtz aug-cc-pvtz/c tightscf
|  2> %pal nprocs 16 end
|  3>
|  4> * xyz 0 1
|  5> C     -0.854017   -2.053209    0.000000
|  6> C      0.913211    2.739799    0.000000
|  7> C      0.331799   -1.126885    0.000000
|  8> C      1.244470    1.248574    0.000000
|  9> C      0.000000    0.360098    0.000000
| 10> O     -2.008076   -1.706587    0.000000
| 11> H     -0.596414   -3.133487    0.000000
| 12> H      1.818200    3.348531    0.000000
| 13> H      0.328751    3.013404    0.880532
| 14> H      0.328751    3.013404   -0.880532
| 15> H      0.945985   -1.401209    0.867354
| 16> H      0.945985   -1.401209   -0.867354
| 17> H      1.858867    1.012250    0.874251
| 18> H      1.858867    1.012250   -0.874251
| 19> H     -0.618581    0.589247   -0.870767
| 20> H     -0.618581    0.589247    0.870767
| 21> *
| 22>
| 23>                          ****END OF INPUT****

CARTESIAN COORDINATES (ANGSTROEM)
---------------------------------
  C     -0.854017   -2.053209    0.000000
  C      0.913211    2.739799    0.000000
  C      0.331799   -1.126885    0.000000
  C      1.244470    1.248574    0.000000
  C      0.000000    0.360098    0.000000
  O     -2.008076   -1.706587    0.000000
  H     -0.596414   -3.133487    0.000000
  H      1.818200    3.348531    0.000000
  H      0.328751    3.013404    0.880532
  H      0.328751    3.013404   -0.880532
  H      0.945985   -1.401209    0.867354
  H      0.945985   -1.401209   -0.867354
  H      1.858867    1.012250    0.874251
  H      1.858867    1.012250   -0.874251
  H     -0.618581    0.589247   -0.870767
  H     -0.618581    0.589247    0.870767

 Total Charge           Charge          ....    0
 Multiplicity           Mult            ....    1
 Number of Electrons    NEL             ....   48
 Basis Dimension        Dim             ....  506

ORBITAL ENERGIES
----------------

  NO   OCC          E(Eh)            E(eV)
   0   2.0000     -20.556928      -559.3825
   1   2.0000     -11.331242      -308.3388
   2   2.0000     -11.242600      -305.9267
   3   2.0000     -11.225362      -305.4576
   4   2.0000     -11.224685      -305.4392
   5   2.0000     -11.214859      -305.1718
   6   2.0000      -1.394786       -37.9541
   7   2.0000      -1.090037       -29.6614
   8   2.0000      -1.016925       -27.6719
   9   2.0000      -0.910209       -24.7681
  10   2.0000      -0.813728       -22.1427
  11   2.0000      -0.770517       -20.9668
  12   2.0000      -0.673192       -18.3185
  13   2.0000      -0.656090       -17.8531
  14   2.0000      -0.629319       -17.1246
  15   2.0000      -0.597001       -16.2452
  16   2.0000      -0.586145       -15.9498
  17   2.0000      -0.535071       -14.5600
  18   2.0000      -0.527249       -14.3472
  19   2.0000      -0.494240       -13.4489
  20   2.0000      -0.488926       -13.3043
  21   2.0000      -0.478706       -13.0263
  22   2.0000      -0.471932       -12.8419
  23   2.0000      -0.417711       -11.3665
  24   0.0000       0.026633         0.7247
  25   0.0000       0.031592         0.8597
  26   0.0000       0.037642         1.0243
  27   0.0000       0.041015         1.1161
  28   0.0000       0.050044         1.3618

MULLIKEN ATOMIC CHARGES
-----------------------
   0 C :   -0.181936
   1 C :   -0.970128
   2 C :   -0.352060
   3 C :   -0.446018
   4 C :   -0.157804
   5 O :   -0.745266
   6 H :    0.495031
   7 H :    0.277876
   8 H :    0.271237
   9 H :    0.271237
  10 H :    0.267255
  11 H :    0.267255
  12 H :    0.246964
  13 H :    0.246964
  14 H :    0.254697
  15 H :    0.254697
Sum of atomic charges:   -0.0000000

LOEWDIN ATOMIC CHARGES
----------------------
   0 C :   -0.208811
   1 C :    0.581153
   2 C :    0.254935
   3 C :    0.254140
   4 C :    0.254452
   5 O :    0.443473
   6 H :   -0.176997
   7 H :   -0.173312
   8 H :   -0.170037
   9 H :   -0.170037
  10 H :   -0.152075
  11 H :   -0.152075
  12 H :   -0.148651
  13 H :   -0.148651
  14 H :   -0.143753
  15 H :   -0.143753

  Mayer bond orders larger than 0.100000
B(  0-C ,  2-C ) :   0.8188 B(  0-C ,  4-C ) :  -0.1048 B(  0-C ,  5-O ) :   1.5701
B(  0-C ,  6-H ) :   0.7240 B(  1-C ,  3-C ) :   0.9147 B(  1-C ,  7-H ) :   0.9787
B(  1-C ,  8-H ) :   0.9572 B(  1-C ,  9-H ) :   0.9572 B(  2-C ,  4-C ) :   0.9966
B(  2-C , 10-H ) :   0.9462 B(  2-C , 11-H ) :   0.9462 B(  3-C ,  4-C ) :   0.8702
B(  3-C , 12-H ) :   0.9512 B(  3-C , 13-H ) :   0.9512 B(  4-C , 14-H ) :   0.9390
B(  4-C , 15-H ) :   0.9390

MP2 TOTAL ENERGY:     -271.229030759 Eh
FINAL SINGLE POINT ENERGY      -271.229030759196

DIPOLE MOMENT
-------------
                                X             Y             Z
Electronic contribution:     -5.28698      -6.99657       0.00000
Nuclear contribution   :      6.51001       6.92378       0.00000
                        -----------------------------------------
Total Dipole Moment    :      1.22303      -0.07278       0.00000
                        -----------------------------------------
Magnitude (a.u.)       :      1.22519
Magnitude (Debye)      :      3.11419

Rotational constants in cm-1:     0.352280     0.048258     0.043800
Rotational constants in MHz : 10561.091558  1446.752332  1313.101794

                             ****ORCA TERMINATED NORMALLY****
TOTAL RUN TIME: 0 days 0 hours 4 minutes 25 seconds 999 msec
