                         Program Version 5.0.3 -  RELEASE  -
|  1> !ri-mp2 aug-cc-pvtz aug-cc-pvtz/c tightscf
|  2> %pal nprocs 16 end
|  3>
|  4> * xyz 0 1
|  5> C     -0.903175    0.001036   -0.006994
|  6> C      0.005478    1.220666    0.132987
|  7> C      1.412127    0.693606   -0.180358
|  8> C      1.324994   -0.815730    0.127683
|  9> N     -0.088155   -1.094127   -0.072504
| 10> O     -2.116544   -0.011504   -0.038990
| 11> H     -0.330880    2.020914   -0.521866
| 12> H     -0.083303    1.580279    1.160742
| 13> H      1.635799    0.834612   -1.237813
| 14> H      2.197405    1.180877    0.393609
| 15> H      1.945173   -1.412323   -0.541075
| 16> H      1.632814   -1.032529    1.156074
| 17> H     -0.484123   -2.018367   -0.030135
| 18> *
| 19>
| 20>                          ****END OF INPUT****

CARTESIAN COORDINATES (ANGSTROEM)
---------------------------------
  C     -0.903175    0.001036   -0.006994
  C      0.005478    1.220666    0.132987
  C      1.412127    0.693606   -0.180358
  C      1.324994   -0.815730    0.127683
  N     -0.088155   -1.094127   -0.072504
  O     -2.116544   -0.011504   -0.038990
  H     -0.330880    2.020914   -0.521866
  H     -0.083303    1.580279    1.160742
  H      1.635799    0.834612   -1.237813
  H      2.197405    1.180877    0.393609
  H      1.945173   -1.412323   -0.541075
  H      1.632814   -1.032529    1.156074
  H     -0.484123   -2.018367   -0.030135

 Total Charge           Charge          ....    0
 Multiplicity           Mult            ....    1
 Number of Electrons    NEL             ....   46
 Basis Dimension        Dim             ....  437

ORBITAL ENERGIES
----------------

  NO   OCC          E(Eh)            E(eV)
   0   2.0000     -20.514184      -558.2193
   1   2.0000     -15.582697      -424.0268
   2   2.0000     -11.343879      -308.6826
   3   2.0000     -11.278619      -306.9068
   4   2.0000     -11.244336      -305.9739
   5   2.0000     -11.240454      -305.8683
   6   2.0000      -1.376282       -37.4505
   7   2.0000      -1.249497       -34.0005
   8   2.0000      -1.060636       -28.8614
   9   2.0000      -0.974995       -26.5310
  10   2.0000      -0.836688       -22.7674
  11   2.0000      -0.791618       -21.5410
  12   2.0000      -0.689680       -18.7671
  13   2.0000      -0.678113       -18.4524
  14   2.0000      -0.621740       -16.9184
  15   2.0000      -0.590076       -16.0568
  16   2.0000      -0.575277       -15.6541
  17   2.0000      -0.560480       -15.2514
  18   2.0000      -0.553164       -15.0524
  19   2.0000      -0.508347       -13.8328
  20   2.0000      -0.483314       -13.1516
  21   2.0000      -0.411772       -11.2049
  22   2.0000      -0.391207       -10.6453
  23   0.0000       0.023649         0.6435
  24   0.0000       0.033797         0.9197
  25   0.0000       0.035372         0.9625
  26   0.0000       0.041824         1.1381
  27   0.0000       0.055321         1.5053

MULLIKEN ATOMIC CHARGES
-----------------------
   0 C :    0.194236
   1 C :   -0.254936
   2 C :   -0.527317
   3 C :   -0.377764
   4 N :   -0.043883
   5 O :   -0.789545
   6 H :    0.290911
   7 H :    0.237053
   8 H :    0.255551
   9 H :    0.321876
  10 H :    0.316106
  11 H :    0.263567
  12 H :    0.114146
Sum of atomic charges:    0.0000000

LOEWDIN ATOMIC CHARGES
----------------------
   0 C :   -0.661605
   1 C :    0.314514
   2 C :    0.308942
   3 C :    0.208783
   4 N :    0.561091
   5 O :    0.413799
   6 H :   -0.149671
   7 H :   -0.145520
   8 H :   -0.148873
   9 H :   -0.146982
  10 H :   -0.145503
  11 H :   -0.142599
  12 H :   -0.266376

  Mayer bond orders larger than 0.100000
B(  0-C ,  1-C ) :   0.5553 B(  0-C ,  2-C ) :   0.1107 B(  0-C ,  4-N ) :   1.0754
B(  0-C ,  5-O ) :   1.3804 B(  1-C ,  2-C ) :   0.9397 B(  1-C ,  6-H ) :   0.9294
B(  1-C ,  7-H ) :   0.9535 B(  2-C ,  3-C ) :   0.9603 B(  2-C ,  8-H ) :   0.9598
B(  2-C ,  9-H ) :   0.9136 B(  3-C ,  4-N ) :   0.7778 B(  3-C , 10-H ) :   0.9254
B(  3-C , 11-H ) :   0.9622 B(  4-N , 12-H ) :   1.0442

MP2 TOTAL ENERGY:     -286.101707968 Eh
FINAL SINGLE POINT ENERGY      -286.101707968367

DIPOLE MOMENT
-------------
                                X             Y             Z
Electronic contribution:     -4.78204      -1.34852      -0.23533
Nuclear contribution   :      6.57686       1.16418       0.38421
                        -----------------------------------------
Total Dipole Moment    :      1.79481      -0.18434       0.14888
                        -----------------------------------------
Magnitude (a.u.)       :      1.81039
Magnitude (Debye)      :      4.60163

Rotational constants in cm-1:     0.240045     0.115131     0.082271
Rotational constants in MHz :  7196.363915  3451.549469  2466.409291

                             ****ORCA TERMINATED NORMALLY****
TOTAL RUN TIME: 0 days 0 hours 2 minutes 54 seconds 327 msec
