                         Program Version 5.0.3 -  RELEASE  -
|  1> !ri-mp2 aug-cc-pvtz aug-cc-pvtz/c tightscf
|  2> %pal nprocs 16 end
|  3> %maxcore 3800
|  4>
|  5> * xyz 0 1
|  6> N     0.000000     0.000000    1.286725
|  7> C     0.000000     1.384344    0.796964
|  8> C    -1.198877    -0.692172    0.796964
|  9> C     1.198877    -0.692172    0.796964
| 10> C     0.000000     1.443662   -0.760521
| 11> C    -1.250248    -0.721831   -0.760521
| 12> C     1.250248    -0.721831   -0.760521
| 13> C     0.000000     0.000000   -1.290089
| 14> H     0.877475     1.885976    1.207931
| 15> H    -0.877475     1.885976    1.207931
| 16> H    -2.072040    -0.183072    1.207931
| 17> H    -1.194565    -1.702903    1.207931
| 18> H     1.194565    -1.702903    1.207931
| 19> H     2.072040    -0.183072    1.207931
| 20> H     0.877284     1.977815   -1.131569
| 21> H    -0.877284     1.977815   -1.131569
| 22> H    -2.151480    -0.229157   -1.131569
| 23> H    -1.274196    -1.748657   -1.131569
| 24> H     1.274196    -1.748657   -1.131569
| 25> H     2.151480    -0.229157   -1.131569
| 26> H     0.000000     0.000000   -2.380678
| 27> *
| 28>
| 29>                          ****END OF INPUT****

CARTESIAN COORDINATES (ANGSTROEM)
---------------------------------
  N      0.000000    0.000000    1.286725
  C      0.000000    1.384344    0.796964
  C     -1.198877   -0.692172    0.796964
  C      1.198877   -0.692172    0.796964
  C      0.000000    1.443662   -0.760521
  C     -1.250248   -0.721831   -0.760521
  C      1.250248   -0.721831   -0.760521
  C      0.000000    0.000000   -1.290089
  H      0.877475    1.885976    1.207931
  H     -0.877475    1.885976    1.207931
  H     -2.072040   -0.183072    1.207931
  H     -1.194565   -1.702903    1.207931
  H      1.194565   -1.702903    1.207931
  H      2.072040   -0.183072    1.207931
  H      0.877284    1.977815   -1.131569
  H     -0.877284    1.977815   -1.131569
  H     -2.151480   -0.229157   -1.131569
  H     -1.274196   -1.748657   -1.131569
  H      1.274196   -1.748657   -1.131569
  H      2.151480   -0.229157   -1.131569
  H      0.000000    0.000000   -2.380678

 Total Charge           Charge          ....    0
 Multiplicity           Mult            ....    1
 Number of Electrons    NEL             ....   62
 Basis Dimension        Dim             ....  667

ORBITAL ENERGIES
----------------

  NO   OCC          E(Eh)            E(eV)
   0   2.0000     -15.537190      -422.7884
   1   2.0000     -11.239587      -305.8447
   2   2.0000     -11.239587      -305.8447
   3   2.0000     -11.239566      -305.8441
   4   2.0000     -11.221869      -305.3626
   5   2.0000     -11.213109      -305.1242
   6   2.0000     -11.213109      -305.1242
   7   2.0000     -11.213067      -305.1231
   8   2.0000      -1.235333       -33.6151
   9   2.0000      -1.068058       -29.0633
  10   2.0000      -1.004813       -27.3424
  11   2.0000      -1.004813       -27.3424
  12   2.0000      -0.844599       -22.9827
  13   2.0000      -0.844599       -22.9827
  14   2.0000      -0.827010       -22.5041
  15   2.0000      -0.695556       -18.9270
  16   2.0000      -0.663511       -18.0550
  17   2.0000      -0.656136       -17.8544
  18   2.0000      -0.656136       -17.8544
  19   2.0000      -0.562320       -15.3015
  20   2.0000      -0.549430       -14.9507
  21   2.0000      -0.549430       -14.9507
  22   2.0000      -0.522022       -14.2049
  23   2.0000      -0.522022       -14.2049
  24   2.0000      -0.508703       -13.8425
  25   2.0000      -0.508703       -13.8425
  26   2.0000      -0.493441       -13.4272
  27   2.0000      -0.460599       -12.5335
  28   2.0000      -0.427107       -11.6222
  29   2.0000      -0.427107       -11.6222
  30   2.0000      -0.337805        -9.1921
  31   0.0000       0.028830         0.7845
  32   0.0000       0.036631         0.9968
  33   0.0000       0.036631         0.9968
  34   0.0000       0.038449         1.0462
  35   0.0000       0.050063         1.3623

MULLIKEN ATOMIC CHARGES
-----------------------
   0 N :   -0.495369
   1 C :   -0.483143
   2 C :   -0.483106
   3 C :   -0.483117
   4 C :   -0.559142
   5 C :   -0.559188
   6 C :   -0.559178
   7 C :   -0.009449
   8 H :    0.280225
   9 H :    0.280200
  10 H :    0.280219
  11 H :    0.280228
  12 H :    0.280208
  13 H :    0.280234
  14 H :    0.251846
  15 H :    0.251875
  16 H :    0.251837
  17 H :    0.251864
  18 H :    0.251868
  19 H :    0.251839
  20 H :    0.439249
Sum of atomic charges:    0.0000000

LOEWDIN ATOMIC CHARGES
----------------------
   0 N :    0.286714
   1 C :    0.199869
   2 C :    0.199869
   3 C :    0.199869
   4 C :    0.333830
   5 C :    0.333830
   6 C :    0.333830
   7 C :   -0.017656
   8 H :   -0.146279
   9 H :   -0.146279
  10 H :   -0.146279
  11 H :   -0.146279
  12 H :   -0.146279
  13 H :   -0.146279
  14 H :   -0.144684
  15 H :   -0.144684
  16 H :   -0.144684
  17 H :   -0.144685
  18 H :   -0.144685
  19 H :   -0.144684
  20 H :   -0.124375

  Mayer bond orders larger than 0.100000
B(  0-N ,  1-C ) :   0.8314 B(  0-N ,  2-C ) :   0.8314 B(  0-N ,  3-C ) :   0.8314
B(  1-C ,  4-C ) :   0.9682 B(  1-C ,  8-H ) :   0.9803 B(  1-C ,  9-H ) :   0.9803
B(  2-C ,  5-C ) :   0.9682 B(  2-C , 10-H ) :   0.9803 B(  2-C , 11-H ) :   0.9803
B(  3-C ,  6-C ) :   0.9682 B(  3-C , 12-H ) :   0.9803 B(  3-C , 13-H ) :   0.9803
B(  4-C ,  7-C ) :   0.8556 B(  4-C , 14-H ) :   0.9731 B(  4-C , 15-H ) :   0.9731
B(  5-C ,  7-C ) :   0.8556 B(  5-C , 16-H ) :   0.9731 B(  5-C , 17-H ) :   0.9731
B(  6-C ,  7-C ) :   0.8556 B(  6-C , 18-H ) :   0.9731 B(  6-C , 19-H ) :   0.9731
B(  7-C , 20-H ) :   0.7920

MP2 TOTAL ENERGY:     -328.615934937 Eh
FINAL SINGLE POINT ENERGY      -328.615934936538

DIPOLE MOMENT
-------------
                                X             Y             Z
Electronic contribution:     -0.00000      -0.00000       1.53577
Nuclear contribution   :      0.00000       0.00000      -2.00542
                        -----------------------------------------
Total Dipole Moment    :     -0.00000      -0.00000      -0.46965
                        -----------------------------------------
Magnitude (a.u.)       :      0.46965
Magnitude (Debye)      :      1.19375

Rotational constants in cm-1:     0.084868     0.080862     0.080862
Rotational constants in MHz :  2544.270501  2424.172289  2424.172280

                             ****ORCA TERMINATED NORMALLY****
TOTAL RUN TIME: 0 days 0 hours 12 minutes 39 seconds 17 msec
