                         Program Version 5.0.3 -  RELEASE  -
|  1> !ri-mp2 aug-cc-pvtz aug-cc-pvtz/c tightscf
|  2> %pal nprocs 16 end
|  3> %maxcore 3800
|  4>
|  5> * xyz 0 1
|  6> C      0.000000    0.706926    2.368951
|  7> C      0.000000   -0.706926    2.368951
|  8> C      0.000000    1.406054    1.190448
|  9> C      0.000000   -1.406054    1.190448
| 10> C      0.000000    0.708403   -2.312800
| 11> C      0.000000   -0.708403   -2.312800
| 12> C      0.000000    0.712878   -0.041323
| 13> C      0.000000   -0.712878   -0.041323
| 14> N      0.000000    1.410993   -1.208183
| 15> N      0.000000   -1.410993   -1.208183
| 16> H      0.000000    1.237156    3.311638
| 17> H      0.000000   -1.237156    3.311638
| 18> H      0.000000    2.486877    1.166492
| 19> H      0.000000   -2.486877    1.166492
| 20> H      0.000000    1.250205   -3.252504
| 21> H      0.000000   -1.250205   -3.252504
| 22> *
| 23>
| 24>                          ****END OF INPUT****

CARTESIAN COORDINATES (ANGSTROEM)
---------------------------------
  C      0.000000    0.706926    2.368951
  C      0.000000   -0.706926    2.368951
  C      0.000000    1.406054    1.190448
  C      0.000000   -1.406054    1.190448
  C      0.000000    0.708403   -2.312800
  C      0.000000   -0.708403   -2.312800
  C      0.000000    0.712878   -0.041323
  C      0.000000   -0.712878   -0.041323
  N      0.000000    1.410993   -1.208183
  N      0.000000   -1.410993   -1.208183
  H      0.000000    1.237156    3.311638
  H      0.000000   -1.237156    3.311638
  H      0.000000    2.486877    1.166492
  H      0.000000   -2.486877    1.166492
  H      0.000000    1.250205   -3.252504
  H      0.000000   -1.250205   -3.252504

 Total Charge           Charge          ....    0
 Multiplicity           Mult            ....    1
 Number of Electrons    NEL             ....   68
 Basis Dimension        Dim             ....  598

ORBITAL ENERGIES
----------------

  NO   OCC          E(Eh)            E(eV)
   0   2.0000     -15.591179      -424.2575
   1   2.0000     -15.591163      -424.2571
   2   2.0000     -11.288654      -307.1799
   3   2.0000     -11.287582      -307.1507
   4   2.0000     -11.282896      -307.0232
   5   2.0000     -11.281839      -306.9944
   6   2.0000     -11.248675      -306.0920
   7   2.0000     -11.247623      -306.0634
   8   2.0000     -11.243883      -305.9616
   9   2.0000     -11.243867      -305.9612
  10   2.0000      -1.310456       -35.6593
  11   2.0000      -1.225738       -33.3540
  12   2.0000      -1.152580       -31.3633
  13   2.0000      -1.037435       -28.2300
  14   2.0000      -1.028356       -27.9830
  15   2.0000      -0.915450       -24.9107
  16   2.0000      -0.883632       -24.0448
  17   2.0000      -0.835050       -22.7229
  18   2.0000      -0.745392       -20.2832
  19   2.0000      -0.734353       -19.9828
  20   2.0000      -0.705301       -19.1922
  21   2.0000      -0.648818       -17.6552
  22   2.0000      -0.623543       -16.9675
  23   2.0000      -0.609597       -16.5880
  24   2.0000      -0.600094       -16.3294
  25   2.0000      -0.588859       -16.0237
  26   2.0000      -0.525212       -14.2917
  27   2.0000      -0.524731       -14.2787
  28   2.0000      -0.497191       -13.5293
  29   2.0000      -0.479885       -13.0583
  30   2.0000      -0.458428       -12.4744
  31   2.0000      -0.407423       -11.0866
  32   2.0000      -0.334666        -9.1067
  33   2.0000      -0.328031        -8.9262
  34   0.0000       0.028147         0.7659
  35   0.0000       0.029328         0.7980
  36   0.0000       0.034742         0.9454
  37   0.0000       0.043144         1.1740
  38   0.0000       0.044494         1.2108

MULLIKEN ATOMIC CHARGES
-----------------------
   0 C :   -0.385233
   1 C :   -0.385239
   2 C :   -1.079243
   3 C :   -1.079250
   4 C :   -0.503454
   5 C :   -0.503463
   6 C :    1.075732
   7 C :    1.075759
   8 N :   -0.611051
   9 N :   -0.611043
  10 H :    0.520140
  11 H :    0.520144
  12 H :    0.379914
  13 H :    0.379905
  14 H :    0.603198
  15 H :    0.603185
Sum of atomic charges:    0.0000000

LOEWDIN ATOMIC CHARGES
----------------------
   0 C :    0.202923
   1 C :    0.202923
   2 C :    0.216646
   3 C :    0.216646
   4 C :    0.034294
   5 C :    0.034294
   6 C :   -0.301132
   7 C :   -0.301132
   8 N :    0.404018
   9 N :    0.404018
  10 H :   -0.184146
  11 H :   -0.184146
  12 H :   -0.178794
  13 H :   -0.178794
  14 H :   -0.193810
  15 H :   -0.193810

  Mayer bond orders larger than 0.100000
B(  0-C ,  1-C ) :   0.9504 B(  0-C ,  2-C ) :   1.4937 B(  0-C , 10-H ) :   0.6702
B(  1-C ,  3-C ) :   1.4937 B(  1-C , 11-H ) :   0.6702 B(  2-C ,  6-C ) :   0.5236
B(  2-C ,  8-N ) :   0.3573 B(  2-C , 10-H ) :  -0.1187 B(  2-C , 12-H ) :   0.8643
B(  3-C ,  7-C ) :   0.5235 B(  3-C ,  9-N ) :   0.3574 B(  3-C , 11-H ) :  -0.1187
B(  3-C , 13-H ) :   0.8643 B(  4-C ,  5-C ) :   1.0037 B(  4-C ,  7-C ) :   0.1440
B(  4-C ,  8-N ) :   1.3371 B(  4-C , 14-H ) :   0.5609 B(  5-C ,  6-C ) :   0.1440
B(  5-C ,  9-N ) :   1.3371 B(  5-C , 15-H ) :   0.5609 B(  6-C ,  7-C ) :   1.2066
B(  6-C ,  8-N ) :  -0.2175 B(  7-C ,  9-N ) :  -0.2175 B(  8-N , 12-H ) :   0.1031
B(  8-N , 14-H ) :  -0.1027 B(  9-N , 13-H ) :   0.1031 B(  9-N , 15-H ) :  -0.1027

MP2 TOTAL ENERGY:     -417.134904333 Eh
FINAL SINGLE POINT ENERGY      -417.134904332679

DIPOLE MOMENT
-------------
                                X             Y             Z
Electronic contribution:      0.00000      -0.00000      -2.32389
Nuclear contribution   :      0.00000       0.00000       2.39136
                        -----------------------------------------
Total Dipole Moment    :      0.00000      -0.00000       0.06747
                        -----------------------------------------
Magnitude (a.u.)       :      0.06747
Magnitude (Debye)      :      0.17149

Rotational constants in cm-1:     0.106534     0.043853     0.031065
Rotational constants in MHz :  3193.817508  1314.670975   931.314163

                             ****ORCA TERMINATED NORMALLY****
TOTAL RUN TIME: 0 days 0 hours 9 minutes 1 seconds 759 msec
