                         Program Version 5.0.3 -  RELEASE  -
|  1> !ri-mp2 aug-cc-pvtz aug-cc-pvtz/c tightscf
|  2> %pal nprocs 16 end
|  3>
|  4> * xyz 0 1
|  5> C    -0.756547     0.773373   -0.707390
|  6> C     0.756547     0.773373   -0.707390
|  7> C     0.000000     1.149648    0.549230
|  8> C    -0.756547    -0.773373   -0.707390
|  9> C     0.756547    -0.773373   -0.707390
| 10> C     0.000000    -1.149648    0.549230
| 11> C     0.000000     0.000000    1.534441
| 12> H    -1.443256     1.422663   -1.227100
| 13> H     1.443256     1.422663   -1.227100
| 14> H     0.000000     2.180720    0.872633
| 15> H    -1.443256    -1.422663   -1.227100
| 16> H     1.443256    -1.422663   -1.227100
| 17> H     0.000000    -2.180720    0.872633
| 18> H     0.887300     0.000000    2.171546
| 19> H    -0.887300     0.000000    2.171546
| 20> *
| 21>
| 22>                          ****END OF INPUT****

CARTESIAN COORDINATES (ANGSTROEM)
---------------------------------
  C     -0.756547    0.773373   -0.707390
  C      0.756547    0.773373   -0.707390
  C      0.000000    1.149648    0.549230
  C     -0.756547   -0.773373   -0.707390
  C      0.756547   -0.773373   -0.707390
  C      0.000000   -1.149648    0.549230
  C      0.000000    0.000000    1.534441
  H     -1.443256    1.422663   -1.227100
  H      1.443256    1.422663   -1.227100
  H      0.000000    2.180720    0.872633
  H     -1.443256   -1.422663   -1.227100
  H      1.443256   -1.422663   -1.227100
  H      0.000000   -2.180720    0.872633
  H      0.887300    0.000000    2.171546
  H     -0.887300    0.000000    2.171546

 Total Charge           Charge          ....    0
 Multiplicity           Mult            ....    1
 Number of Electrons    NEL             ....   50
 Basis Dimension        Dim             ....  506

ORBITAL ENERGIES
----------------

  NO   OCC          E(Eh)            E(eV)
   0   2.0000     -11.226773      -305.4960
   1   2.0000     -11.226622      -305.4919
   2   2.0000     -11.225843      -305.4707
   3   2.0000     -11.225584      -305.4637
   4   2.0000     -11.225454      -305.4601
   5   2.0000     -11.225038      -305.4488
   6   2.0000     -11.216806      -305.2248
   7   2.0000      -1.241751       -33.7898
   8   2.0000      -1.046517       -28.4772
   9   2.0000      -0.989369       -26.9221
  10   2.0000      -0.866744       -23.5853
  11   2.0000      -0.770124       -20.9561
  12   2.0000      -0.755366       -20.5545
  13   2.0000      -0.716640       -19.5008
  14   2.0000      -0.713794       -19.4233
  15   2.0000      -0.597994       -16.2723
  16   2.0000      -0.590991       -16.0817
  17   2.0000      -0.585789       -15.9401
  18   2.0000      -0.538427       -14.6513
  19   2.0000      -0.488501       -13.2928
  20   2.0000      -0.483549       -13.1580
  21   2.0000      -0.438152       -11.9227
  22   2.0000      -0.398716       -10.8496
  23   2.0000      -0.387712       -10.5502
  24   2.0000      -0.332041        -9.0353
  25   0.0000       0.029084         0.7914
  26   0.0000       0.033615         0.9147
  27   0.0000       0.035318         0.9610
  28   0.0000       0.038065         1.0358
  29   0.0000       0.050488         1.3738

MULLIKEN ATOMIC CHARGES
-----------------------
   0 C :   -0.668314
   1 C :   -0.668314
   2 C :   -0.566635
   3 C :   -0.668314
   4 C :   -0.668314
   5 C :   -0.566635
   6 C :   -0.257874
   7 H :    0.610445
   8 H :    0.610446
   9 H :    0.597279
  10 H :    0.610446
  11 H :    0.610445
  12 H :    0.597279
  13 H :    0.214030
  14 H :    0.214030
Sum of atomic charges:   -0.0000000

LOEWDIN ATOMIC CHARGES
----------------------
   0 C :    0.143580
   1 C :    0.143580
   2 C :    0.087966
   3 C :    0.143580
   4 C :    0.143580
   5 C :    0.087966
   6 C :    0.330189
   7 H :   -0.136571
   8 H :   -0.136571
   9 H :   -0.127409
  10 H :   -0.136571
  11 H :   -0.136571
  12 H :   -0.127409
  13 H :   -0.139669
  14 H :   -0.139669

  Mayer bond orders larger than 0.100000
B(  0-C ,  1-C ) :   0.8924 B(  0-C ,  2-C ) :   0.8105 B(  0-C ,  3-C ) :   0.9887
B(  0-C ,  7-H ) :   0.4692 B(  1-C ,  2-C ) :   0.8105 B(  1-C ,  4-C ) :   0.9887
B(  1-C ,  8-H ) :   0.4692 B(  2-C ,  6-C ) :   0.7924 B(  2-C ,  9-H ) :   0.4981
B(  3-C ,  4-C ) :   0.8924 B(  3-C ,  5-C ) :   0.8105 B(  3-C , 10-H ) :   0.4692
B(  4-C ,  5-C ) :   0.8105 B(  4-C , 11-H ) :   0.4692 B(  5-C ,  6-C ) :   0.7924
B(  5-C , 12-H ) :   0.4981 B(  6-C , 13-H ) :   0.9231 B(  6-C , 14-H ) :   0.9231

MP2 TOTAL ENERGY:     -270.866739920 Eh
FINAL SINGLE POINT ENERGY      -270.866739919548

DIPOLE MOMENT
-------------
                                X             Y             Z
Electronic contribution:     -0.00000      -0.00000      -1.21507
Nuclear contribution   :      0.00000       0.00000       1.20253
                        -----------------------------------------
Total Dipole Moment    :     -0.00000      -0.00000      -0.01254
                        -----------------------------------------
Magnitude (a.u.)       :      0.01254
Magnitude (Debye)      :      0.03187

Rotational constants in cm-1:     0.147679     0.145680     0.108830
Rotational constants in MHz :  4427.320002  4367.363527  3262.646512

                             ****ORCA TERMINATED NORMALLY****
TOTAL RUN TIME: 0 days 0 hours 4 minutes 49 seconds 372 msec
