                         Program Version 5.0.3 -  RELEASE  -
|  1> !ri-mp2 aug-cc-pvtz aug-cc-pvtz/c tightscf
|  2> %pal nprocs 16 end
|  3> %maxcore 3800
|  4>
|  5> * xyz 0 1
|  6> C      2.686397   -0.273422        0.000000
|  7> C     -1.985691   -1.496841        0.000000
|  8> C      1.738404   -1.247442        0.000000
|  9> C     -2.345922   -0.171174        0.000000
| 10> C      2.286782    1.088692        0.000000
| 11> C     -0.649161   -1.894413        0.000000
| 12> C      0.967175    1.392721        0.000000
| 13> C      0.349704   -0.934931        0.000000
| 14> C     -1.385928    0.877093        0.000000
| 15> N      0.000000    0.414424        0.000000
| 16> O     -1.598324    2.082096        0.000000
| 17> H      3.736243   -0.531122        0.000000
| 18> H     -2.760364   -2.253013        0.000000
| 19> H      2.008743   -2.293604        0.000000
| 20> H     -3.380584    0.135967        0.000000
| 21> H      3.014749    1.885444        0.000000
| 22> H     -0.368672   -2.936075        0.000000
| 23> H      0.565928    2.392966        0.000000
| 24> *
| 25>
| 26>                          ****END OF INPUT****

CARTESIAN COORDINATES (ANGSTROEM)
---------------------------------
  C      2.686397   -0.273422    0.000000
  C     -1.985691   -1.496841    0.000000
  C      1.738404   -1.247442    0.000000
  C     -2.345922   -0.171174    0.000000
  C      2.286782    1.088692    0.000000
  C     -0.649161   -1.894413    0.000000
  C      0.967175    1.392721    0.000000
  C      0.349704   -0.934931    0.000000
  C     -1.385928    0.877093    0.000000
  N      0.000000    0.414424    0.000000
  O     -1.598324    2.082096    0.000000
  H      3.736243   -0.531122    0.000000
  H     -2.760364   -2.253013    0.000000
  H      2.008743   -2.293604    0.000000
  H     -3.380584    0.135967    0.000000
  H      3.014749    1.885444    0.000000
  H     -0.368672   -2.936075    0.000000
  H      0.565928    2.392966    0.000000

 Total Charge           Charge          ....    0
 Multiplicity           Mult            ....    1
 Number of Electrons    NEL             ....   76
 Basis Dimension        Dim             ....  667

ORBITAL ENERGIES
----------------

  NO   OCC          E(Eh)            E(eV)
   0   2.0000     -20.512898      -558.1843
   1   2.0000     -15.653370      -425.9499
   2   2.0000     -11.354815      -308.9802
   3   2.0000     -11.321883      -308.0841
   4   2.0000     -11.300268      -307.4959
   5   2.0000     -11.276323      -306.8443
   6   2.0000     -11.267605      -306.6071
   7   2.0000     -11.259881      -306.3969
   8   2.0000     -11.251699      -306.1743
   9   2.0000     -11.228812      -305.5515
  10   2.0000     -11.224126      -305.4240
  11   2.0000      -1.386765       -37.7358
  12   2.0000      -1.307336       -35.5744
  13   2.0000      -1.137408       -30.9504
  14   2.0000      -1.122804       -30.5530
  15   2.0000      -1.056923       -28.7603
  16   2.0000      -0.993937       -27.0464
  17   2.0000      -0.895780       -24.3754
  18   2.0000      -0.888240       -24.1702
  19   2.0000      -0.851248       -23.1636
  20   2.0000      -0.748959       -20.3802
  21   2.0000      -0.723133       -19.6774
  22   2.0000      -0.713660       -19.4197
  23   2.0000      -0.670593       -18.2478
  24   2.0000      -0.644841       -17.5470
  25   2.0000      -0.632532       -17.2121
  26   2.0000      -0.628718       -17.1083
  27   2.0000      -0.620647       -16.8887
  28   2.0000      -0.588300       -16.0084
  29   2.0000      -0.560861       -15.2618
  30   2.0000      -0.537975       -14.6391
  31   2.0000      -0.524747       -14.2791
  32   2.0000      -0.523095       -14.2341
  33   2.0000      -0.461692       -12.5633
  34   2.0000      -0.429802       -11.6955
  35   2.0000      -0.429392       -11.6843
  36   2.0000      -0.369319       -10.0497
  37   2.0000      -0.272500        -7.4151
  38   0.0000       0.021207         0.5771
  39   0.0000       0.027304         0.7430
  40   0.0000       0.034582         0.9410
  41   0.0000       0.043032         1.1710
  42   0.0000       0.047420         1.2904

MULLIKEN ATOMIC CHARGES
-----------------------
   0 C :   -0.727102
   1 C :   -0.588254
   2 C :   -0.804154
   3 C :   -0.457662
   4 C :   -0.324676
   5 C :   -0.788556
   6 C :   -0.286812
   7 C :    1.426679
   8 C :    0.638833
   9 N :    0.266812
  10 O :   -1.059588
  11 H :    0.624888
  12 H :    0.608272
  13 H :    0.047550
  14 H :    0.270085
  15 H :    0.258497
  16 H :    0.168630
  17 H :    0.726556
Sum of atomic charges:    0.0000000

LOEWDIN ATOMIC CHARGES
----------------------
   0 C :    0.218051
   1 C :    0.182074
   2 C :    0.239181
   3 C :    0.210027
   4 C :    0.225335
   5 C :    0.209620
   6 C :    0.143975
   7 C :   -0.204097
   8 C :   -0.644056
   9 N :    0.290342
  10 O :    0.438779
  11 H :   -0.169715
  12 H :   -0.167169
  13 H :   -0.177015
  14 H :   -0.200849
  15 H :   -0.189636
  16 H :   -0.197779
  17 H :   -0.207069

  Mayer bond orders larger than 0.100000
B(  0-C ,  2-C ) :   1.6364 B(  0-C ,  4-C ) :   1.1579 B(  0-C ,  6-C ) :   0.2565
B(  0-C ,  7-C ) :   0.1620 B(  0-C , 11-H ) :   0.5203 B(  0-C , 15-H ) :  -0.1815
B(  1-C ,  3-C ) :   1.5064 B(  1-C ,  5-C ) :   1.2830 B(  1-C ,  8-C ) :   0.2497
B(  1-C ,  9-N ) :  -0.1270 B(  1-C , 12-H ) :   0.4986 B(  2-C ,  4-C ) :  -0.1979
B(  2-C ,  5-C ) :  -0.1436 B(  2-C ,  6-C ) :  -0.2028 B(  2-C ,  9-N ) :  -0.1325
B(  2-C , 13-H ) :   1.5985 B(  2-C , 17-H ) :   0.1181 B(  3-C ,  5-C ) :  -0.2192
B(  3-C ,  8-C ) :   0.9835 B(  3-C ,  9-N ) :  -0.1663 B(  3-C , 14-H ) :   0.9663
B(  4-C ,  6-C ) :   0.8886 B(  4-C ,  9-N ) :  -0.2875 B(  4-C , 15-H ) :   1.1752
B(  5-C ,  7-C ) :   0.5589 B(  5-C ,  8-C ) :  -0.1642 B(  5-C , 16-H ) :   1.3200
B(  6-C ,  7-C ) :   0.4535 B(  6-C ,  8-C ) :  -0.1280 B(  6-C ,  9-N ) :   1.2667
B(  6-C , 15-H ) :  -0.1299 B(  6-C , 17-H ) :   0.5679 B(  7-C ,  8-C ) :   0.2250
B(  7-C ,  9-N ) :   0.9045 B(  7-C , 13-H ) :  -0.2489 B(  7-C , 14-H ) :   0.1275
B(  7-C , 15-H ) :   0.1803 B(  7-C , 16-H ) :  -0.1509 B(  7-C , 17-H ) :  -0.1070
B(  8-C ,  9-N ) :   1.1997 B(  8-C , 10-O ) :   0.8383 B(  8-C , 17-H ) :  -0.2007
B(  9-N , 10-O ) :  -0.1528 B(  9-N , 13-H ) :   0.1004 B( 10-O , 17-H ) :  -0.1547

MP2 TOTAL ENERGY:     -476.224933598 Eh
FINAL SINGLE POINT ENERGY      -476.224933597586

DIPOLE MOMENT
-------------
                                X             Y             Z
Electronic contribution:     -1.39804       2.15798       0.00000
Nuclear contribution   :      2.74418      -3.50458       0.00000
                        -----------------------------------------
Total Dipole Moment    :      1.34614      -1.34660       0.00000
                        -----------------------------------------
Magnitude (a.u.)       :      1.90406
Magnitude (Debye)      :      4.83973

Rotational constants in cm-1:     0.068071     0.039397     0.024954
Rotational constants in MHz :  2040.724298  1181.100372   748.116510

                             ****ORCA TERMINATED NORMALLY****
TOTAL RUN TIME: 0 days 0 hours 15 minutes 35 seconds 147 msec
