                         Program Version 5.0.3 -  RELEASE  -
|  1> !ri-mp2 aug-cc-pvtz aug-cc-pvtz/c tightscf
|  2> %pal nprocs 16 end
|  3>
|  4> * xyz 0 1
|  5> C      0.039427   -0.709559        0.000000
|  6> N      1.218194   -1.390076        0.000000
|  7> C     -1.186285   -1.412578        0.000000
|  8> C      2.313681   -0.674653        0.000000
|  9> N      2.413160    0.680885        0.000000
| 10> C      1.283002    1.344715        0.000000
| 11> C      0.020191    0.710676        0.000000
| 12> C     -2.369673   -0.719355        0.000000
| 13> C     -2.387537    0.694079        0.000000
| 14> C     -1.212893    1.400081        0.000000
| 15> H      3.255001   -1.211833        0.000000
| 16> H      1.342186    2.429877        0.000000
| 17> H     -3.335479    1.214343        0.000000
| 18> H     -3.307696   -1.258260        0.000000
| 19> H     -1.215242    2.482785        0.000000
| 20> H     -1.157726   -2.493006        0.000000
| 21> *
| 22>
| 23>                          ****END OF INPUT****

CARTESIAN COORDINATES (ANGSTROEM)
---------------------------------
  C      0.039427   -0.709559    0.000000
  N      1.218194   -1.390076    0.000000
  C     -1.186285   -1.412578    0.000000
  C      2.313681   -0.674653    0.000000
  N      2.413160    0.680885    0.000000
  C      1.283002    1.344715    0.000000
  C      0.020191    0.710676    0.000000
  C     -2.369673   -0.719355    0.000000
  C     -2.387537    0.694079    0.000000
  C     -1.212893    1.400081    0.000000
  H      3.255001   -1.211833    0.000000
  H      1.342186    2.429877    0.000000
  H     -3.335479    1.214343    0.000000
  H     -3.307696   -1.258260    0.000000
  H     -1.215242    2.482785    0.000000
  H     -1.157726   -2.493006    0.000000

 Total Charge           Charge          ....    0
 Multiplicity           Mult            ....    1
 Number of Electrons    NEL             ....   68
 Basis Dimension        Dim             ....  598

ORBITAL ENERGIES
----------------

  NO   OCC          E(Eh)            E(eV)
   0   2.0000     -15.573561      -423.7781
   1   2.0000     -15.568605      -423.6433
   2   2.0000     -11.311457      -307.8004
   3   2.0000     -11.305139      -307.6285
   4   2.0000     -11.293026      -307.2989
   5   2.0000     -11.260896      -306.4246
   6   2.0000     -11.259060      -306.3746
   7   2.0000     -11.256311      -306.2998
   8   2.0000     -11.250466      -306.1407
   9   2.0000     -11.244809      -305.9868
  10   2.0000      -1.312709       -35.7206
  11   2.0000      -1.202732       -32.7280
  12   2.0000      -1.161989       -31.6193
  13   2.0000      -1.058030       -28.7905
  14   2.0000      -1.031170       -28.0596
  15   2.0000      -0.911684       -24.8082
  16   2.0000      -0.885992       -24.1091
  17   2.0000      -0.842571       -22.9275
  18   2.0000      -0.747981       -20.3536
  19   2.0000      -0.735825       -20.0228
  20   2.0000      -0.704359       -19.1666
  21   2.0000      -0.647273       -17.6132
  22   2.0000      -0.631402       -17.1813
  23   2.0000      -0.612449       -16.6656
  24   2.0000      -0.589668       -16.0457
  25   2.0000      -0.588290       -16.0082
  26   2.0000      -0.551466       -15.0062
  27   2.0000      -0.526293       -14.3212
  28   2.0000      -0.494396       -13.4532
  29   2.0000      -0.469222       -12.7682
  30   2.0000      -0.441640       -12.0176
  31   2.0000      -0.411172       -11.1886
  32   2.0000      -0.357118        -9.7177
  33   2.0000      -0.326442        -8.8829
  34   0.0000       0.024112         0.6561
  35   0.0000       0.030804         0.8382
  36   0.0000       0.035448         0.9646
  37   0.0000       0.043466         1.1828
  38   0.0000       0.048358         1.3159

MULLIKEN ATOMIC CHARGES
-----------------------
   0 C :    0.579929
   1 N :   -0.761055
   2 C :   -1.050766
   3 C :   -0.714681
   4 N :   -0.580664
   5 C :   -0.691179
   6 C :    1.882024
   7 C :   -0.206590
   8 C :   -0.630345
   9 C :   -0.800344
  10 H :    0.610333
  11 H :    0.750603
  12 H :    0.628975
  13 H :    0.382062
  14 H :    0.031419
  15 H :    0.570278
Sum of atomic charges:   -0.0000000

LOEWDIN ATOMIC CHARGES
----------------------
   0 C :   -0.312505
   1 N :    0.393865
   2 C :    0.229401
   3 C :   -0.157197
   4 N :    0.378804
   5 C :    0.040288
   6 C :   -0.119079
   7 C :    0.210544
   8 C :    0.208547
   9 C :    0.218336
  10 H :   -0.203660
  11 H :   -0.170804
  12 H :   -0.186385
  13 H :   -0.178479
  14 H :   -0.173251
  15 H :   -0.178424

  Mayer bond orders larger than 0.100000
B(  0-C ,  1-N ) :   0.2204 B(  0-C ,  2-C ) :   0.9349 B(  0-C ,  3-C ) :  -0.2120
B(  0-C ,  4-N ) :   0.2215 B(  0-C ,  5-C ) :   1.0484 B(  0-C ,  6-C ) :   0.4338
B(  0-C ,  7-C ) :  -0.3222 B(  0-C ,  8-C ) :   0.1928 B(  0-C ,  9-C ) :  -0.7335
B(  0-C , 11-H ) :  -0.1440 B(  0-C , 13-H ) :   0.1381 B(  0-C , 14-H ) :   0.2310
B(  1-N ,  3-C ) :   1.7341 B(  1-N ,  4-N ) :   0.1168 B(  1-N ,  5-C ) :   0.2111
B(  1-N ,  6-C ) :  -0.4494 B(  2-C ,  6-C ) :   0.3752 B(  2-C ,  7-C ) :   1.3166
B(  2-C ,  8-C ) :   0.1708 B(  2-C , 13-H ) :  -0.1180 B(  2-C , 15-H ) :   0.4730
B(  3-C ,  4-N ) :   1.1759 B(  3-C ,  5-C ) :  -0.2455 B(  3-C ,  6-C ) :  -0.2765
B(  3-C , 10-H ) :   0.5475 B(  4-N ,  5-C ) :   0.7575 B(  4-N ,  6-C ) :  -0.2088
B(  4-N , 11-H ) :  -0.2073 B(  4-N , 12-H ) :   0.1010 B(  5-C ,  6-C ) :  -0.1906
B(  5-C ,  9-C ) :   0.1100 B(  5-C , 11-H ) :   0.2021 B(  6-C ,  9-C ) :   0.4926
B(  6-C , 11-H ) :   0.1664 B(  6-C , 14-H ) :  -0.1932 B(  7-C ,  8-C ) :   0.9727
B(  7-C ,  9-C ) :  -0.2235 B(  7-C , 13-H ) :   0.8819 B(  8-C ,  9-C ) :   1.3620
B(  8-C , 12-H ) :   0.4862 B(  8-C , 13-H ) :  -0.1799 B(  8-C , 14-H ) :  -0.1073
B(  9-C , 11-H ) :   0.1206 B(  9-C , 12-H ) :  -0.1460 B(  9-C , 13-H ) :   0.1739
B(  9-C , 14-H ) :   1.7942

MP2 TOTAL ENERGY:     -417.139305027 Eh
FINAL SINGLE POINT ENERGY      -417.139305027418

DIPOLE MOMENT
-------------
                                X             Y             Z
Electronic contribution:      3.28403      -0.58728       0.00000
Nuclear contribution   :     -4.31516       1.13799       0.00000
                        -----------------------------------------
Total Dipole Moment    :     -1.03113       0.55071       0.00000
                        -----------------------------------------
Magnitude (a.u.)       :      1.16898
Magnitude (Debye)      :      2.97131

Rotational constants in cm-1:     0.108513     0.042746     0.030666
Rotational constants in MHz :  3253.139386  1281.506487   919.348356

                             ****ORCA TERMINATED NORMALLY****
TOTAL RUN TIME: 0 days 0 hours 8 minutes 42 seconds 80 msec
