                         Program Version 5.0.3 -  RELEASE  -
|  1> !ri-mp2 aug-cc-pvtz aug-cc-pvtz/c tightscf
|  2> %pal nprocs 16 end
|  3>
|  4> * xyz 0 1
|  5> C      0.000000    0.703651        0.000000
|  6> N     -1.128178    1.465945        0.000000
|  7> C      1.258493    1.350388        0.000000
|  8> C     -2.286918    0.851830        0.000000
|  9> C     -2.438097   -0.553100        0.000000
| 10> C     -1.316052   -1.335881        0.000000
| 11> C     -0.043208   -0.722482        0.000000
| 12> C      2.416244    0.616895        0.000000
| 13> C      2.373746   -0.794928        0.000000
| 14> C      1.170348   -1.450387        0.000000
| 15> H     -3.428480   -0.986603        0.000000
| 16> H     -3.168814    1.484250        0.000000
| 17> H      3.297826   -1.356965        0.000000
| 18> H      3.374149    1.119515        0.000000
| 19> H     -1.387749   -2.416474        0.000000
| 20> H      1.132723   -2.532563        0.000000
| 21> H      1.270259    2.431307        0.000000
| 22> *
| 23>
| 24>                          ****END OF INPUT****

CARTESIAN COORDINATES (ANGSTROEM)
---------------------------------
  C      0.000000    0.703651    0.000000
  N     -1.128178    1.465945    0.000000
  C      1.258493    1.350388    0.000000
  C     -2.286918    0.851830    0.000000
  C     -2.438097   -0.553100    0.000000
  C     -1.316052   -1.335881    0.000000
  C     -0.043208   -0.722482    0.000000
  C      2.416244    0.616895    0.000000
  C      2.373746   -0.794928    0.000000
  C      1.170348   -1.450387    0.000000
  H     -3.428480   -0.986603    0.000000
  H     -3.168814    1.484250    0.000000
  H      3.297826   -1.356965    0.000000
  H      3.374149    1.119515    0.000000
  H     -1.387749   -2.416474    0.000000
  H      1.132723   -2.532563    0.000000
  H      1.270259    2.431307    0.000000

 Total Charge           Charge          ....    0
 Multiplicity           Mult            ....    1
 Number of Electrons    NEL             ....   68
 Basis Dimension        Dim             ....  621

ORBITAL ENERGIES
----------------

  NO   OCC          E(Eh)            E(eV)
   0   2.0000     -15.563843      -423.5137
   1   2.0000     -11.278422      -306.9015
   2   2.0000     -11.275071      -306.8103
   3   2.0000     -11.260748      -306.4205
   4   2.0000     -11.249398      -306.1117
   5   2.0000     -11.244736      -305.9848
   6   2.0000     -11.242639      -305.9278
   7   2.0000     -11.242381      -305.9207
   8   2.0000     -11.239898      -305.8532
   9   2.0000     -11.234209      -305.6984
  10   2.0000      -1.263459       -34.3805
  11   2.0000      -1.148010       -31.2389
  12   2.0000      -1.096094       -29.8262
  13   2.0000      -1.023329       -27.8462
  14   2.0000      -1.011759       -27.5314
  15   2.0000      -0.880719       -23.9656
  16   2.0000      -0.860047       -23.4031
  17   2.0000      -0.824452       -22.4345
  18   2.0000      -0.729317       -19.8457
  19   2.0000      -0.708211       -19.2714
  20   2.0000      -0.697237       -18.9728
  21   2.0000      -0.631177       -17.1752
  22   2.0000      -0.617706       -16.8086
  23   2.0000      -0.600698       -16.3458
  24   2.0000      -0.581139       -15.8136
  25   2.0000      -0.573914       -15.6170
  26   2.0000      -0.561827       -15.2881
  27   2.0000      -0.516151       -14.0452
  28   2.0000      -0.504806       -13.7365
  29   2.0000      -0.469541       -12.7769
  30   2.0000      -0.415132       -11.2963
  31   2.0000      -0.414362       -11.2754
  32   2.0000      -0.327485        -8.9113
  33   2.0000      -0.312025        -8.4906
  34   0.0000       0.026257         0.7145
  35   0.0000       0.029497         0.8026
  36   0.0000       0.034306         0.9335
  37   0.0000       0.042915         1.1678
  38   0.0000       0.045741         1.2447

MULLIKEN ATOMIC CHARGES
-----------------------
   0 C :    0.568091
   1 N :   -0.668710
   2 C :   -1.084205
   3 C :   -0.663545
   4 C :   -0.374410
   5 C :   -1.022917
   6 C :    2.158727
   7 C :   -0.199855
   8 C :   -0.526056
   9 C :   -1.084932
  10 H :    0.293084
  11 H :    0.652217
  12 H :    0.596984
  13 H :    0.437788
  14 H :    0.438243
  15 H :    0.043960
  16 H :    0.435534
Sum of atomic charges:   -0.0000000

LOEWDIN ATOMIC CHARGES
----------------------
   0 C :   -0.299153
   1 N :    0.397283
   2 C :    0.219284
   3 C :    0.019310
   4 C :    0.214714
   5 C :    0.223138
   6 C :   -0.119129
   7 C :    0.202625
   8 C :    0.201911
   9 C :    0.216460
  10 H :   -0.190400
  11 H :   -0.191017
  12 H :   -0.186723
  13 H :   -0.183790
  14 H :   -0.166593
  15 H :   -0.177603
  16 H :   -0.180317

  Mayer bond orders larger than 0.100000
B(  0-C ,  2-C ) :   0.8409 B(  0-C ,  3-C ) :   0.3084 B(  0-C ,  5-C ) :   0.7018
B(  0-C ,  6-C ) :   0.4792 B(  0-C ,  7-C ) :  -0.1904 B(  0-C ,  9-C ) :  -0.3937
B(  0-C , 15-H ) :   0.1227 B(  1-N ,  2-C ) :   0.1646 B(  1-N ,  3-C ) :   1.6877
B(  1-N ,  4-C ) :  -0.1716 B(  1-N ,  6-C ) :  -0.2241 B(  1-N , 11-H ) :  -0.1018
B(  2-C ,  6-C ) :   0.2053 B(  2-C ,  7-C ) :   1.2992 B(  2-C , 13-H ) :  -0.1280
B(  2-C , 16-H ) :   0.7020 B(  3-C ,  4-C ) :   0.7579 B(  3-C ,  5-C ) :   0.3877
B(  3-C ,  6-C ) :  -0.5327 B(  3-C , 11-H ) :   0.3810 B(  4-C ,  5-C ) :   1.2537
B(  4-C ,  6-C ) :  -0.2615 B(  4-C ,  7-C ) :   0.1078 B(  4-C , 10-H ) :   1.0680
B(  4-C , 12-H ) :   0.1295 B(  5-C ,  6-C ) :  -0.1961 B(  5-C ,  9-C ) :   0.3531
B(  5-C , 14-H ) :   0.8175 B(  5-C , 15-H ) :  -0.1231 B(  6-C ,  9-C ) :   0.1693
B(  6-C , 10-H ) :  -0.1327 B(  6-C , 11-H ) :   0.1364 B(  6-C , 15-H ) :  -0.1192
B(  7-C ,  8-C ) :   0.9310 B(  7-C ,  9-C ) :  -0.2166 B(  7-C , 13-H ) :   0.8052
B(  8-C ,  9-C ) :   1.2901 B(  8-C , 12-H ) :   0.5514 B(  8-C , 13-H ) :  -0.1550
B(  8-C , 15-H ) :  -0.1029 B(  9-C , 12-H ) :  -0.1998 B(  9-C , 13-H ) :   0.1767
B(  9-C , 15-H ) :   1.7551

MP2 TOTAL ENERGY:     -401.104239020 Eh
FINAL SINGLE POINT ENERGY      -401.104239019957

DIPOLE MOMENT
-------------
                                X             Y             Z
Electronic contribution:     -1.09961       1.36960      -0.00000
Nuclear contribution   :      1.07110      -2.22363       0.00000
                        -----------------------------------------
Total Dipole Moment    :     -0.02851      -0.85403      -0.00000
                        -----------------------------------------
Magnitude (a.u.)       :      0.85451
Magnitude (Debye)      :      2.17198

Rotational constants in cm-1:     0.105723     0.042568     0.030349
Rotational constants in MHz :  3169.495081  1276.153969   909.825243

                             ****ORCA TERMINATED NORMALLY****
TOTAL RUN TIME: 0 days 0 hours 9 minutes 36 seconds 807 msec
