                         Program Version 5.0.3 -  RELEASE  -
|  1> !ri-mp2 aug-cc-pvtz aug-cc-pvtz/c tightscf
|  2> %pal nprocs 16 end
|  3>
|  4> * xyz 0 1
|  5> Cl    -0.963836    1.196188   -1.568576
|  6> Cl     0.963836   -1.196188    1.568576
|  7> C     -1.877280   -0.439478    0.405978
|  8> C      1.877280    0.439478   -0.405978
|  9> C     -0.655802    0.388883    0.056013
| 10> C      0.655802   -0.388883   -0.056013
| 11> H     -2.768750    0.184001    0.395510
| 12> H      2.768750   -0.184001   -0.395510
| 13> H      1.763930    0.869887   -1.399295
| 14> H     -1.763930   -0.869887    1.399295
| 15> H     -2.014805   -1.248691   -0.311234
| 16> H      2.014805    1.248691    0.311234
| 17> H      0.528989   -1.216949   -0.749644
| 18> H     -0.528989    1.216949    0.749644
| 19> *
| 20>
| 21>                          ****END OF INPUT****

CARTESIAN COORDINATES (ANGSTROEM)
---------------------------------
  Cl    -0.963836    1.196188   -1.568576
  Cl     0.963836   -1.196188    1.568576
  C     -1.877280   -0.439478    0.405978
  C      1.877280    0.439478   -0.405978
  C     -0.655802    0.388883    0.056013
  C      0.655802   -0.388883   -0.056013
  H     -2.768750    0.184001    0.395510
  H      2.768750   -0.184001   -0.395510
  H      1.763930    0.869887   -1.399295
  H     -1.763930   -0.869887    1.399295
  H     -2.014805   -1.248691   -0.311234
  H      2.014805    1.248691    0.311234
  H      0.528989   -1.216949   -0.749644
  H     -0.528989    1.216949    0.749644

 Total Charge           Charge          ....    0
 Multiplicity           Mult            ....    1
 Number of Electrons    NEL             ....   66
 Basis Dimension        Dim             ....  468

ORBITAL ENERGIES
----------------

  NO   OCC          E(Eh)            E(eV)
   0   2.0000    -104.829329     -2852.5511
   1   2.0000    -104.829329     -2852.5511
   2   2.0000     -11.319166      -308.0102
   3   2.0000     -11.318547      -307.9933
   4   2.0000     -11.235505      -305.7336
   5   2.0000     -11.235502      -305.7336
   6   2.0000     -10.553536      -287.1763
   7   2.0000     -10.553534      -287.1763
   8   2.0000      -8.020224      -218.2414
   9   2.0000      -8.020224      -218.2414
  10   2.0000      -8.018587      -218.1968
  11   2.0000      -8.018586      -218.1968
  12   2.0000      -8.018549      -218.1958
  13   2.0000      -8.018549      -218.1958
  14   2.0000      -1.179525       -32.0965
  15   2.0000      -1.113170       -30.2909
  16   2.0000      -1.011088       -27.5131
  17   2.0000      -1.006496       -27.3881
  18   2.0000      -0.887515       -24.1505
  19   2.0000      -0.800832       -21.7918
  20   2.0000      -0.652436       -17.7537
  21   2.0000      -0.642880       -17.4937
  22   2.0000      -0.610043       -16.6001
  23   2.0000      -0.607834       -16.5400
  24   2.0000      -0.554789       -15.0966
  25   2.0000      -0.536779       -14.6065
  26   2.0000      -0.526990       -14.3401
  27   2.0000      -0.519419       -14.1341
  28   2.0000      -0.488872       -13.3029
  29   2.0000      -0.458904       -12.4874
  30   2.0000      -0.443462       -12.0672
  31   2.0000      -0.440440       -11.9850
  32   2.0000      -0.430632       -11.7181
  33   0.0000       0.032418         0.8821
  34   0.0000       0.035368         0.9624
  35   0.0000       0.037639         1.0242
  36   0.0000       0.047505         1.2927
  37   0.0000       0.053987         1.4691

MULLIKEN ATOMIC CHARGES
-----------------------
   0 Cl:   -0.468411
   1 Cl:   -0.468411
   2 C :   -1.021007
   3 C :   -1.021007
   4 C :    0.261680
   5 C :    0.261680
   6 H :    0.319998
   7 H :    0.319998
   8 H :    0.317504
   9 H :    0.317504
  10 H :    0.278904
  11 H :    0.278904
  12 H :    0.311333
  13 H :    0.311333
Sum of atomic charges:   -0.0000000

LOEWDIN ATOMIC CHARGES
----------------------
   0 Cl:    0.939234
   1 Cl:    0.939234
   2 C :    0.469278
   3 C :    0.469278
   4 C :   -0.602421
   5 C :   -0.602421
   6 H :   -0.187294
   7 H :   -0.187294
   8 H :   -0.211765
   9 H :   -0.211765
  10 H :   -0.178111
  11 H :   -0.178111
  12 H :   -0.228921
  13 H :   -0.228921

  Mayer bond orders larger than 0.100000
B(  0-Cl,  4-C ) :   0.6214 B(  1-Cl,  5-C ) :   0.6214 B(  2-C ,  4-C ) :   0.7934
B(  2-C ,  6-H ) :   0.9571 B(  2-C ,  9-H ) :   0.9257 B(  2-C , 10-H ) :   0.9677
B(  3-C ,  5-C ) :   0.7934 B(  3-C ,  7-H ) :   0.9571 B(  3-C ,  8-H ) :   0.9257
B(  3-C , 11-H ) :   0.9677 B(  4-C ,  5-C ) :   0.9929 B(  4-C , 13-H ) :   0.9008
B(  5-C , 12-H ) :   0.9008

MP2 TOTAL ENERGY:    -1076.338709021 Eh
FINAL SINGLE POINT ENERGY     -1076.338709020935

DIPOLE MOMENT
-------------
                                X             Y             Z
Electronic contribution:      0.00000       0.00000      -0.00000
Nuclear contribution   :      0.00000       0.00000       0.00000
                        -----------------------------------------
Total Dipole Moment    :      0.00000       0.00000      -0.00000
                        -----------------------------------------
Magnitude (a.u.)       :      0.00000
Magnitude (Debye)      :      0.00000

Rotational constants in cm-1:     0.122452     0.046127     0.034930
Rotational constants in MHz :  3671.007759  1382.840011  1047.178016

                             ****ORCA TERMINATED NORMALLY****
TOTAL RUN TIME: 0 days 0 hours 3 minutes 41 seconds 581 msec
