                         Program Version 5.0.3 -  RELEASE  -
|  1> !ri-mp2 aug-cc-pvtz aug-cc-pvtz/c tightscf
|  2> %pal nprocs 16 end
|  3>
|  4> * xyz 0 1
|  5> S     1.777893   -1.017043   -0.098312
|  6> O     3.331071   -0.521658   -0.383927
|  7> O     1.564558    1.616301   -0.260640
|  8> O     3.903677    0.151691    0.784045
|  9> C     0.945852    0.577476   -0.185281
| 10> C    -0.473005    0.441711   -0.112433
| 11> C    -1.670367    0.263764   -0.051931
| 12> C    -3.011782    0.084916    0.015677
| 13> C    -4.208213   -0.073703    0.076329
| 14> C    -5.641659   -0.262465    0.148528
| 15> H     3.588858    1.056127    0.611506
| 16> H    -6.026208   -0.654858   -0.794688
| 17> H    -6.149180    0.680904    0.356636
| 18> H    -5.899149   -0.970358    0.938381
| 19> *
| 20>
| 21>                          ****END OF INPUT****

CARTESIAN COORDINATES (ANGSTROEM)
---------------------------------
  S      1.777893   -1.017043   -0.098312
  O      3.331071   -0.521658   -0.383927
  O      1.564558    1.616301   -0.260640
  O      3.903677    0.151691    0.784045
  C      0.945852    0.577476   -0.185281
  C     -0.473005    0.441711   -0.112433
  C     -1.670367    0.263764   -0.051931
  C     -3.011782    0.084916    0.015677
  C     -4.208213   -0.073703    0.076329
  C     -5.641659   -0.262465    0.148528
  H      3.588858    1.056127    0.611506
  H     -6.026208   -0.654858   -0.794688
  H     -6.149180    0.680904    0.356636
  H     -5.899149   -0.970358    0.938381

 Total Charge           Charge          ....    0
 Multiplicity           Mult            ....    1
 Number of Electrons    NEL             ....   80
 Basis Dimension        Dim             ....  556

ORBITAL ENERGIES
----------------

  NO   OCC          E(Eh)            E(eV)
   0   2.0000     -92.042825     -2504.6126
   1   2.0000     -20.666653      -562.3682
   2   2.0000     -20.643092      -561.7271
   3   2.0000     -20.589303      -560.2634
   4   2.0000     -11.408007      -310.4276
   5   2.0000     -11.307120      -307.6824
   6   2.0000     -11.290694      -307.2354
   7   2.0000     -11.279561      -306.9324
   8   2.0000     -11.278871      -306.9137
   9   2.0000     -11.270395      -306.6830
  10   2.0000      -9.038072      -245.9384
  11   2.0000      -6.718964      -182.8323
  12   2.0000      -6.717389      -182.7894
  13   2.0000      -6.716464      -182.7643
  14   2.0000      -1.489846       -40.5408
  15   2.0000      -1.429926       -38.9103
  16   2.0000      -1.250441       -34.0262
  17   2.0000      -1.130439       -30.7608
  18   2.0000      -1.089038       -29.6342
  19   2.0000      -1.026749       -27.9393
  20   2.0000      -0.987420       -26.8691
  21   2.0000      -0.895527       -24.3685
  22   2.0000      -0.822819       -22.3900
  23   2.0000      -0.729058       -19.8387
  24   2.0000      -0.712529       -19.3889
  25   2.0000      -0.689400       -18.7595
  26   2.0000      -0.668777       -18.1983
  27   2.0000      -0.645139       -17.5551
  28   2.0000      -0.624458       -16.9924
  29   2.0000      -0.623874       -16.9765
  30   2.0000      -0.602290       -16.3892
  31   2.0000      -0.587405       -15.9841
  32   2.0000      -0.540720       -14.7137
  33   2.0000      -0.507697       -13.8151
  34   2.0000      -0.500946       -13.6314
  35   2.0000      -0.498660       -13.5692
  36   2.0000      -0.444978       -12.1085
  37   2.0000      -0.402983       -10.9657
  38   2.0000      -0.380527       -10.3547
  39   2.0000      -0.377039       -10.2598
  40   0.0000       0.017641         0.4800
  41   0.0000       0.033088         0.9004
  42   0.0000       0.038761         1.0547
  43   0.0000       0.039811         1.0833
  44   0.0000       0.044120         1.2006

MULLIKEN ATOMIC CHARGES
-----------------------
   0 S :    0.354492
   1 O :   -0.454166
   2 O :   -0.784899
   3 O :   -0.282955
   4 C :    0.577707
   5 C :    1.773265
   6 C :   -1.426303
   7 C :    0.229402
   8 C :   -0.368071
   9 C :   -0.893373
  10 H :    0.330738
  11 H :    0.314678
  12 H :    0.325833
  13 H :    0.303652
Sum of atomic charges:   -0.0000000

LOEWDIN ATOMIC CHARGES
----------------------
   0 S :    0.899095
   1 O :   -0.163679
   2 O :    0.382993
   3 O :    0.514324
   4 C :   -1.022053
   5 C :   -0.054106
   6 C :   -0.026508
   7 C :   -0.010136
   8 C :    0.107706
   9 C :    0.539375
  10 H :   -0.636330
  11 H :   -0.176667
  12 H :   -0.177068
  13 H :   -0.176946

  Mayer bond orders larger than 0.100000
B(  0-S ,  1-O ) :   0.8340 B(  0-S ,  4-C ) :   1.1818 B(  0-S ,  5-C ) :  -0.2110
B(  0-S ,  8-C ) :   0.1340 B(  1-O ,  3-O ) :   0.8362 B(  2-O ,  4-C ) :   1.4448
B(  2-O ,  5-C ) :  -0.1624 B(  2-O ,  6-C ) :   0.1445 B(  3-O , 10-H ) :   0.8709
B(  4-C ,  5-C ) :   0.1608 B(  4-C ,  6-C ) :  -1.0009 B(  4-C ,  7-C ) :  -2.4755
B(  4-C ,  8-C ) :   3.7141 B(  4-C ,  9-C ) :   0.5378 B(  5-C ,  6-C ) :  -1.6421
B(  5-C ,  7-C ) : -15.0984 B(  5-C ,  8-C ) :  15.3271 B(  5-C ,  9-C ) :   2.2482
B(  5-C , 11-H ) :   0.1100 B(  5-C , 12-H ) :   0.1157 B(  5-C , 13-H ) :   0.1160
B(  6-C ,  7-C ) :   9.9254 B(  6-C ,  8-C ) : -12.8142 B(  6-C ,  9-C ) :  -0.6143
B(  6-C , 12-H ) :  -0.1407 B(  7-C ,  8-C ) :  -3.7557 B(  7-C ,  9-C ) :  -1.7777
B(  8-C ,  9-C ) :   0.6099 B(  9-C , 11-H ) :   0.9228 B(  9-C , 12-H ) :   0.9227
B(  9-C , 13-H ) :   0.9317

MP2 TOTAL ENERGY:     -853.421974661 Eh
FINAL SINGLE POINT ENERGY      -853.421974660507

DIPOLE MOMENT
-------------
                                X             Y             Z
Electronic contribution:     11.37001      -0.48629      -0.90806
Nuclear contribution   :    -13.85684       0.15668       1.07480
                        -----------------------------------------
Total Dipole Moment    :     -2.48683      -0.32961       0.16673
                        -----------------------------------------
Magnitude (a.u.)       :      2.51411
Magnitude (Debye)      :      6.39037

Rotational constants in cm-1:     0.157110     0.011620     0.011054
Rotational constants in MHz :  4710.045530   348.346402   331.394307

                             ****ORCA TERMINATED NORMALLY****
TOTAL RUN TIME: 0 days 0 hours 5 minutes 26 seconds 187 msec
