                         Program Version 5.0.3 -  RELEASE  -
|  1> !ri-mp2 aug-cc-pvtz aug-cc-pvtz/c tightscf
|  2> %pal nprocs 16 end
|  3>
|  4> * xyz 0 1
|  5> C      1.333065    3.036686    0.000000
|  6> C     -0.058033    3.001626    0.000000
|  7> C      2.057969    1.849796    0.000000
|  8> C     -0.721944    1.784420    0.000000
|  9> C      1.395636    0.630072    0.000000
| 10> C      0.000000    0.587581    0.000000
| 11> C     -0.775412   -0.687600    0.000000
| 12> C     -1.161168   -3.408295    0.000000
| 13> O     -1.984399   -0.723520    0.000000
| 14> S      0.197665   -2.203581    0.000000
| 15> H      1.851085    3.986336    0.000000
| 16> H     -0.623442    3.923567    0.000000
| 17> H      3.139026    1.874086    0.000000
| 18> H     -1.801297    1.738555    0.000000
| 19> H      1.969563   -0.285827    0.000000
| 20> H     -1.773676   -3.283052    0.887927
| 21> H     -0.695712   -4.390868    0.000000
| 22> H     -1.773676   -3.283052   -0.887927
| 23> *
| 24>
| 25>                          ****END OF INPUT****

CARTESIAN COORDINATES (ANGSTROEM)
---------------------------------
  C      1.333065    3.036686    0.000000
  C     -0.058033    3.001626    0.000000
  C      2.057969    1.849796    0.000000
  C     -0.721944    1.784420    0.000000
  C      1.395636    0.630072    0.000000
  C      0.000000    0.587581    0.000000
  C     -0.775412   -0.687600    0.000000
  C     -1.161168   -3.408295    0.000000
  O     -1.984399   -0.723520    0.000000
  S      0.197665   -2.203581    0.000000
  H      1.851085    3.986336    0.000000
  H     -0.623442    3.923567    0.000000
  H      3.139026    1.874086    0.000000
  H     -1.801297    1.738555    0.000000
  H      1.969563   -0.285827    0.000000
  H     -1.773676   -3.283052    0.887927
  H     -0.695712   -4.390868    0.000000
  H     -1.773676   -3.283052   -0.887927

 Total Charge           Charge          ....    0
 Multiplicity           Mult            ....    1
 Number of Electrons    NEL             ....   80
 Basis Dimension        Dim             ....  648

ORBITAL ENERGIES
----------------

  NO   OCC          E(Eh)            E(eV)
   0   2.0000     -91.969633     -2502.6210
   1   2.0000     -20.554838      -559.3256
   2   2.0000     -11.365701      -309.2764
   3   2.0000     -11.257830      -306.3411
   4   2.0000     -11.257284      -306.3263
   5   2.0000     -11.256013      -306.2917
   6   2.0000     -11.254406      -306.2480
   7   2.0000     -11.250838      -306.1509
   8   2.0000     -11.246820      -306.0415
   9   2.0000     -11.245390      -306.0026
  10   2.0000      -8.970631      -244.1033
  11   2.0000      -6.651803      -181.0048
  12   2.0000      -6.650764      -180.9765
  13   2.0000      -6.650086      -180.9580
  14   2.0000      -1.402465       -38.1630
  15   2.0000      -1.172873       -31.9155
  16   2.0000      -1.067986       -29.0614
  17   2.0000      -1.039494       -28.2861
  18   2.0000      -1.031660       -28.0729
  19   2.0000      -0.919604       -25.0237
  20   2.0000      -0.857525       -23.3344
  21   2.0000      -0.836545       -22.7635
  22   2.0000      -0.758775       -20.6473
  23   2.0000      -0.709488       -19.3061
  24   2.0000      -0.659240       -17.9388
  25   2.0000      -0.656110       -17.8537
  26   2.0000      -0.625980       -17.0338
  27   2.0000      -0.616677       -16.7806
  28   2.0000      -0.603581       -16.4243
  29   2.0000      -0.602044       -16.3825
  30   2.0000      -0.562428       -15.3045
  31   2.0000      -0.555876       -15.1262
  32   2.0000      -0.528750       -14.3880
  33   2.0000      -0.508967       -13.8497
  34   2.0000      -0.507432       -13.8079
  35   2.0000      -0.482067       -13.1177
  36   2.0000      -0.408879       -11.1262
  37   2.0000      -0.375404       -10.2153
  38   2.0000      -0.350963        -9.5502
  39   2.0000      -0.348620        -9.4864
  40   0.0000       0.026261         0.7146
  41   0.0000       0.030972         0.8428
  42   0.0000       0.034256         0.9322
  43   0.0000       0.043675         1.1885
  44   0.0000       0.047847         1.3020

MULLIKEN ATOMIC CHARGES
-----------------------
   0 C :   -0.107005
   1 C :   -0.563506
   2 C :   -0.709274
   3 C :   -0.999662
   4 C :   -0.716961
   5 C :    1.800629
   6 C :    0.698148
   7 C :   -0.958133
   8 O :   -0.994864
   9 S :   -0.111023
  10 H :    0.423959
  11 H :    0.490214
  12 H :    0.461218
  13 H :    0.187267
  14 H :    0.245216
  15 H :    0.290859
  16 H :    0.272060
  17 H :    0.290859
Sum of atomic charges:   -0.0000000

LOEWDIN ATOMIC CHARGES
----------------------
   0 C :    0.207285
   1 C :    0.211760
   2 C :    0.208502
   3 C :    0.202459
   4 C :    0.167994
   5 C :   -0.205319
   6 C :   -0.903080
   7 C :    0.226567
   8 O :    0.406193
   9 S :    1.194776
  10 H :   -0.178855
  11 H :   -0.183437
  12 H :   -0.183683
  13 H :   -0.188091
  14 H :   -0.235650
  15 H :   -0.244749
  16 H :   -0.257923
  17 H :   -0.244749

  Mayer bond orders larger than 0.100000
B(  0-C ,  1-C ) :   1.0700 B(  0-C ,  2-C ) :   1.1449 B(  0-C ,  3-C ) :  -0.1223
B(  0-C , 10-H ) :   0.8735 B(  1-C ,  2-C ) :   0.1093 B(  1-C ,  3-C ) :   1.2152
B(  1-C , 10-H ) :  -0.1581 B(  1-C , 11-H ) :   0.7457 B(  2-C ,  4-C ) :   1.1574
B(  2-C ,  5-C ) :  -0.1362 B(  2-C , 10-H ) :  -0.1562 B(  2-C , 12-H ) :   0.7950
B(  3-C ,  5-C ) :   0.1462 B(  3-C ,  6-C ) :   0.4094 B(  3-C , 10-H ) :   0.1683
B(  3-C , 11-H ) :  -0.1391 B(  3-C , 13-H ) :   1.2103 B(  3-C , 14-H ) :   0.1390
B(  4-C ,  5-C ) :   0.2627 B(  4-C ,  6-C ) :   0.3392 B(  4-C ,  9-S ) :  -0.1776
B(  4-C , 13-H ) :   0.1155 B(  4-C , 14-H ) :   1.3213 B(  5-C ,  6-C ) :   0.4533
B(  5-C ,  8-O ) :  -0.1349 B(  5-C , 13-H ) :  -0.2122 B(  5-C , 14-H ) :  -0.1104
B(  6-C ,  8-O ) :   1.1448 B(  6-C ,  9-S ) :   0.9330 B(  6-C , 11-H ) :   0.1085
B(  6-C , 14-H ) :  -0.1578 B(  7-C ,  9-S ) :   0.9827 B(  7-C , 15-H ) :   0.9241
B(  7-C , 16-H ) :   0.9748 B(  7-C , 17-H ) :   0.9241 B(  8-O ,  9-S ) :   0.1301
B(  8-O , 13-H ) :   0.1481

MP2 TOTAL ENERGY:     -781.862552495 Eh
FINAL SINGLE POINT ENERGY      -781.862552494687

DIPOLE MOMENT
-------------
                                X             Y             Z
Electronic contribution:      0.41255      -0.10760      -0.00000
Nuclear contribution   :      0.25120       0.33199       0.00000
                        -----------------------------------------
Total Dipole Moment    :      0.66375       0.22439      -0.00000
                        -----------------------------------------
Magnitude (a.u.)       :      0.70066
Magnitude (Debye)      :      1.78093

Rotational constants in cm-1:     0.103180     0.022387     0.018459
Rotational constants in MHz :  3093.250381   671.134706   553.400898

                             ****ORCA TERMINATED NORMALLY****
TOTAL RUN TIME: 0 days 0 hours 11 minutes 5 seconds 501 msec
