                         Program Version 5.0.3 -  RELEASE  -
|  1> !ri-mp2 aug-cc-pvtz aug-cc-pvtz/c tightscf
|  2> %pal nprocs 16 end
|  3>
|  4> * xyz 0 1
|  5> C      0.646281   -2.178017        0.000000
|  6> C      1.654479   -1.222905        0.000000
|  7> C     -0.685207   -1.768319        0.000000
|  8> C      1.332018    0.128421        0.000000
|  9> C     -1.004470   -0.419868        0.000000
| 10> C      0.000000    0.557656        0.000000
| 11> C     -1.470206    2.598351        0.000000
| 12> C     -0.279787    1.999196        0.000000
| 13> H      0.891660   -3.231362        0.000000
| 14> H      2.692244   -1.528409        0.000000
| 15> H     -1.476757   -2.505897        0.000000
| 16> H      2.123019    0.867889        0.000000
| 17> H     -2.044665   -0.124640        0.000000
| 18> H     -1.545935    3.676443        0.000000
| 19> H     -2.403023    2.050610        0.000000
| 20> H      0.604810    2.628272        0.000000
| 21> *
| 22>
| 23>                          ****END OF INPUT****

CARTESIAN COORDINATES (ANGSTROEM)
---------------------------------
  C      0.646281   -2.178017    0.000000
  C      1.654479   -1.222905    0.000000
  C     -0.685207   -1.768319    0.000000
  C      1.332018    0.128421    0.000000
  C     -1.004470   -0.419868    0.000000
  C      0.000000    0.557656    0.000000
  C     -1.470206    2.598351    0.000000
  C     -0.279787    1.999196    0.000000
  H      0.891660   -3.231362    0.000000
  H      2.692244   -1.528409    0.000000
  H     -1.476757   -2.505897    0.000000
  H      2.123019    0.867889    0.000000
  H     -2.044665   -0.124640    0.000000
  H     -1.545935    3.676443    0.000000
  H     -2.403023    2.050610    0.000000
  H      0.604810    2.628272    0.000000

 Total Charge           Charge          ....    0
 Multiplicity           Mult            ....    1
 Number of Electrons    NEL             ....   56
 Basis Dimension        Dim             ....  552

ORBITAL ENERGIES
----------------

  NO   OCC          E(Eh)            E(eV)
   0   2.0000     -11.245650      -306.0097
   1   2.0000     -11.240508      -305.8698
   2   2.0000     -11.236822      -305.7695
   3   2.0000     -11.236442      -305.7591
   4   2.0000     -11.235491      -305.7332
   5   2.0000     -11.235035      -305.7208
   6   2.0000     -11.234562      -305.7080
   7   2.0000     -11.227640      -305.5196
   8   2.0000      -1.161134       -31.5961
   9   2.0000      -1.072954       -29.1966
  10   2.0000      -1.018703       -27.7203
  11   2.0000      -0.991821       -26.9888
  12   2.0000      -0.853232       -23.2176
  13   2.0000      -0.828102       -22.5338
  14   2.0000      -0.767080       -20.8733
  15   2.0000      -0.701531       -19.0896
  16   2.0000      -0.655548       -17.8384
  17   2.0000      -0.635299       -17.2874
  18   2.0000      -0.610989       -16.6258
  19   2.0000      -0.587952       -15.9990
  20   2.0000      -0.580228       -15.7888
  21   2.0000      -0.527418       -14.3518
  22   2.0000      -0.515672       -14.0321
  23   2.0000      -0.495821       -13.4920
  24   2.0000      -0.487747       -13.2723
  25   2.0000      -0.412040       -11.2122
  26   2.0000      -0.340346        -9.2613
  27   2.0000      -0.306346        -8.3361
  28   0.0000       0.029200         0.7946
  29   0.0000       0.031569         0.8590
  30   0.0000       0.033109         0.9009
  31   0.0000       0.045069         1.2264
  32   0.0000       0.045871         1.2482

MULLIKEN ATOMIC CHARGES
-----------------------
   0 C :   -0.281755
   1 C :   -0.555915
   2 C :   -0.709930
   3 C :   -1.092536
   4 C :   -0.677282
   5 C :    2.134008
   6 C :   -1.142061
   7 C :   -0.209834
   8 H :    0.378282
   9 H :    0.553634
  10 H :    0.486835
  11 H :    0.181774
  12 H :    0.072942
  13 H :    0.335028
  14 H :    0.341300
  15 H :    0.185509
Sum of atomic charges:    0.0000000

LOEWDIN ATOMIC CHARGES
----------------------
   0 C :    0.196046
   1 C :    0.198833
   2 C :    0.200380
   3 C :    0.206047
   4 C :    0.212369
   5 C :   -0.138395
   6 C :    0.535737
   7 C :    0.175840
   8 H :   -0.186500
   9 H :   -0.184750
  10 H :   -0.184227
  11 H :   -0.182967
  12 H :   -0.193613
  13 H :   -0.224976
  14 H :   -0.229763
  15 H :   -0.200062

  Mayer bond orders larger than 0.100000
B(  0-C ,  1-C ) :   1.1591 B(  0-C ,  2-C ) :   1.1156 B(  0-C ,  3-C ) :  -0.1123
B(  0-C ,  7-C ) :   0.1367 B(  0-C ,  8-H ) :   0.9260 B(  1-C ,  2-C ) :   0.1562
B(  1-C ,  3-C ) :   1.1266 B(  1-C ,  8-H ) :  -0.1506 B(  1-C ,  9-H ) :   0.6193
B(  1-C , 11-H ) :  -0.1125 B(  2-C ,  4-C ) :   1.1324 B(  2-C ,  8-H ) :  -0.1824
B(  2-C , 10-H ) :   0.7316 B(  2-C , 12-H ) :  -0.1524 B(  3-C ,  4-C ) :  -0.2537
B(  3-C ,  7-C ) :   0.2199 B(  3-C ,  8-H ) :   0.2105 B(  3-C ,  9-H ) :  -0.2013
B(  3-C , 11-H ) :   1.5232 B(  3-C , 12-H ) :   0.1666 B(  4-C ,  5-C ) :   0.4328
B(  4-C ,  7-C ) :   0.3077 B(  4-C , 11-H ) :   0.1191 B(  4-C , 12-H ) :   1.5645
B(  4-C , 14-H ) :  -0.1308 B(  5-C , 11-H ) :  -0.1463 B(  5-C , 12-H ) :  -0.2505
B(  6-C ,  7-C ) :   1.0345 B(  6-C , 13-H ) :   0.9258 B(  6-C , 14-H ) :   1.0850
B(  6-C , 15-H ) :  -0.1544 B(  7-C ,  9-H ) :   0.1350 B(  7-C , 15-H ) :   1.1940

MP2 TOTAL ENERGY:     -308.976706172 Eh
FINAL SINGLE POINT ENERGY      -308.976706171968

DIPOLE MOMENT
-------------
                                X             Y             Z
Electronic contribution:      1.19297      -1.91413      -0.00000
Nuclear contribution   :     -1.17000       1.85086       0.00000
                        -----------------------------------------
Total Dipole Moment    :      0.02298      -0.06328      -0.00000
                        -----------------------------------------
Magnitude (a.u.)       :      0.06732
Magnitude (Debye)      :      0.17111

Rotational constants in cm-1:     0.174163     0.051529     0.039764
Rotational constants in MHz :  5221.282678  1544.814388  1192.107138

                             ****ORCA TERMINATED NORMALLY****
TOTAL RUN TIME: 0 days 0 hours 6 minutes 5 seconds 325 msec
