                         Program Version 5.0.3 -  RELEASE  -
|  1> !ri-mp2 aug-cc-pvtz aug-cc-pvtz/c tightscf
|  2> %pal nprocs 16 end
|  3>
|  4> * xyz 0 1
|  5> H     -1.062995    1.233708   -0.007749
|  6> N     -1.287298    0.301061   -0.329906
|  7> H     -2.668450   -0.329662    1.188710
|  8> H     -2.886524   -1.049290   -0.414325
|  9> H     -3.337280    0.630006   -0.147704
| 10> C     -2.603422   -0.132820    0.107415
| 11> H     -0.323323   -1.023463    1.042073
| 12> H     -0.185290   -1.445839   -0.662916
| 13> C     -0.216255   -0.595054    0.027536
| 14> O      1.244161    1.313708    0.076402
| 15> C      1.122183    0.123838    0.016980
| 16> H      1.964442   -1.602938   -0.095392
| 17> O      2.217773   -0.675674   -0.014519
| 18> *
| 19>
| 20>                          ****END OF INPUT****

CARTESIAN COORDINATES (ANGSTROEM)
---------------------------------
  H     -1.062995    1.233708   -0.007749
  N     -1.287298    0.301061   -0.329906
  H     -2.668450   -0.329662    1.188710
  H     -2.886524   -1.049290   -0.414325
  H     -3.337280    0.630006   -0.147704
  C     -2.603422   -0.132820    0.107415
  H     -0.323323   -1.023463    1.042073
  H     -0.185290   -1.445839   -0.662916
  C     -0.216255   -0.595054    0.027536
  O      1.244161    1.313708    0.076402
  C      1.122183    0.123838    0.016980
  H      1.964442   -1.602938   -0.095392
  O      2.217773   -0.675674   -0.014519

 Total Charge           Charge          ....    0
 Multiplicity           Mult            ....    1
 Number of Electrons    NEL             ....   48
 Basis Dimension        Dim             ....  437

ORBITAL ENERGIES
----------------

  NO   OCC          E(Eh)            E(eV)
   0   2.0000     -20.620516      -561.1128
   1   2.0000     -20.552461      -559.2609
   2   2.0000     -15.556741      -423.3204
   3   2.0000     -11.391977      -309.9915
   4   2.0000     -11.289237      -307.1957
   5   2.0000     -11.255880      -306.2881
   6   2.0000      -1.467659       -39.9370
   7   2.0000      -1.373593       -37.3774
   8   2.0000      -1.223971       -33.3060
   9   2.0000      -1.005399       -27.3583
  10   2.0000      -0.894673       -24.3453
  11   2.0000      -0.831891       -22.6369
  12   2.0000      -0.746599       -20.3160
  13   2.0000      -0.677346       -18.4315
  14   2.0000      -0.674691       -18.3593
  15   2.0000      -0.633386       -17.2353
  16   2.0000      -0.616078       -16.7643
  17   2.0000      -0.610163       -16.6034
  18   2.0000      -0.570015       -15.5109
  19   2.0000      -0.544293       -14.8110
  20   2.0000      -0.529215       -14.4007
  21   2.0000      -0.487630       -13.2691
  22   2.0000      -0.457383       -12.4460
  23   2.0000      -0.385196       -10.4817
  24   0.0000       0.020475         0.5572
  25   0.0000       0.032345         0.8802
  26   0.0000       0.037733         1.0268
  27   0.0000       0.045458         1.2370
  28   0.0000       0.056491         1.5372

MULLIKEN ATOMIC CHARGES
-----------------------
   0 H :    0.094912
   1 N :   -0.360214
   2 H :    0.316799
   3 H :    0.337662
   4 H :    0.356598
   5 C :   -0.918014
   6 H :    0.299452
   7 H :    0.316956
   8 C :   -0.032461
   9 O :   -0.688250
  10 C :    0.483371
  11 H :    0.212342
  12 O :   -0.419153
Sum of atomic charges:    0.0000000

LOEWDIN ATOMIC CHARGES
----------------------
   0 H :   -0.349475
   1 N :    0.530991
   2 H :   -0.166367
   3 H :   -0.172892
   4 H :   -0.171801
   5 C :    0.458574
   6 H :   -0.143072
   7 H :   -0.155690
   8 C :    0.129983
   9 O :    0.458430
  10 C :   -0.768151
  11 H :   -0.486010
  12 O :    0.835479

  Mayer bond orders larger than 0.100000
B(  0-H ,  1-N ) :   0.9586 B(  1-N ,  5-C ) :   0.9558 B(  1-N ,  8-C ) :   0.8412
B(  2-H ,  5-C ) :   0.8998 B(  3-H ,  5-C ) :   0.8948 B(  4-H ,  5-C ) :   0.9105
B(  6-H ,  8-C ) :   0.8991 B(  7-H ,  8-C ) :   0.9124 B(  8-C , 10-C ) :   0.6819
B(  9-O , 10-C ) :   1.5309 B( 10-C , 12-O ) :   0.8818 B( 11-H , 12-O ) :   0.9558

MP2 TOTAL ENERGY:     -323.185444006 Eh
FINAL SINGLE POINT ENERGY      -323.185444005828

DIPOLE MOMENT
-------------
                                X             Y             Z
Electronic contribution:      7.68690       2.09462      -0.60356
Nuclear contribution   :     -8.55235      -3.61793       0.91240
                        -----------------------------------------
Total Dipole Moment    :     -0.86545      -1.52332       0.30883
                        -----------------------------------------
Magnitude (a.u.)       :      1.77901
Magnitude (Debye)      :      4.52189

Rotational constants in cm-1:     0.309318     0.064865     0.055351
Rotational constants in MHz :  9273.121779  1944.612106  1659.388650

                             ****ORCA TERMINATED NORMALLY****
TOTAL RUN TIME: 0 days 0 hours 2 minutes 48 seconds 641 msec
