                         Program Version 5.0.3 -  RELEASE  -
|  1> !ri-mp2 aug-cc-pvtz aug-cc-pvtz/c tightscf
|  2> %pal nprocs 16 end
|  3>
|  4> * xyz 0 1
|  5> N     -0.177991    1.757044   -0.045284
|  6> C     -0.174557    0.454696    0.630245
|  7> C      1.009523   -0.385808    0.110632
|  8> O      1.076352   -1.580041    0.246542
|  9> O      1.963473    0.331956   -0.488889
| 10> H      1.615569    1.250303   -0.522903
| 11> C     -1.479889   -0.332217    0.505893
| 12> O     -1.818406   -0.558856   -0.858546
| 13> H      0.029220    0.618593    1.692314
| 14> H     -2.295702    0.252625    0.931383
| 15> H     -1.398556   -1.270636    1.055345
| 16> H     -1.310349   -1.313636   -1.174889
| 17> H     -0.748545    1.709812   -0.883078
| 18> H     -0.547515    2.489126    0.545335
| 19> *
| 20>
| 21>                          ****END OF INPUT****

CARTESIAN COORDINATES (ANGSTROEM)
---------------------------------
  N     -0.177991    1.757044   -0.045284
  C     -0.174557    0.454696    0.630245
  C      1.009523   -0.385808    0.110632
  O      1.076352   -1.580041    0.246542
  O      1.963473    0.331956   -0.488889
  H      1.615569    1.250303   -0.522903
  C     -1.479889   -0.332217    0.505893
  O     -1.818406   -0.558856   -0.858546
  H      0.029220    0.618593    1.692314
  H     -2.295702    0.252625    0.931383
  H     -1.398556   -1.270636    1.055345
  H     -1.310349   -1.313636   -1.174889
  H     -0.748545    1.709812   -0.883078
  H     -0.547515    2.489126    0.545335

 Total Charge           Charge          ....    0
 Multiplicity           Mult            ....    1
 Number of Electrons    NEL             ....   56
 Basis Dimension        Dim             ....  483

ORBITAL ENERGIES
----------------

  NO   OCC          E(Eh)            E(eV)
   0   2.0000     -20.603111      -560.6392
   1   2.0000     -20.576307      -559.9098
   2   2.0000     -20.545183      -559.0628
   3   2.0000     -15.583717      -424.0545
   4   2.0000     -11.383431      -309.7589
   5   2.0000     -11.297750      -307.4274
   6   2.0000     -11.296866      -307.4034
   7   2.0000      -1.459923       -39.7265
   8   2.0000      -1.379447       -37.5367
   9   2.0000      -1.363875       -37.1129
  10   2.0000      -1.223033       -33.2804
  11   2.0000      -1.020036       -27.7566
  12   2.0000      -0.899830       -24.4856
  13   2.0000      -0.811043       -22.0696
  14   2.0000      -0.746428       -20.3113
  15   2.0000      -0.716476       -19.4963
  16   2.0000      -0.699826       -19.0432
  17   2.0000      -0.670949       -18.2575
  18   2.0000      -0.638004       -17.3610
  19   2.0000      -0.625728       -17.0269
  20   2.0000      -0.611988       -16.6530
  21   2.0000      -0.585418       -15.9300
  22   2.0000      -0.554210       -15.0808
  23   2.0000      -0.515923       -14.0390
  24   2.0000      -0.491889       -13.3850
  25   2.0000      -0.476191       -12.9578
  26   2.0000      -0.462161       -12.5760
  27   2.0000      -0.422645       -11.5008
  28   0.0000       0.019464         0.5296
  29   0.0000       0.033525         0.9123
  30   0.0000       0.038467         1.0467
  31   0.0000       0.041657         1.1335
  32   0.0000       0.057332         1.5601

MULLIKEN ATOMIC CHARGES
-----------------------
   0 N :   -0.596815
   1 C :    0.435199
   2 C :    0.576089
   3 O :   -0.777119
   4 O :   -0.511058
   5 H :    0.241213
   6 C :   -0.183542
   7 O :   -0.658686
   8 H :    0.384290
   9 H :    0.360738
  10 H :    0.345116
  11 H :    0.181431
  12 H :    0.128933
  13 H :    0.074210
Sum of atomic charges:    0.0000000

LOEWDIN ATOMIC CHARGES
----------------------
   0 N :    0.864217
   1 C :   -0.115418
   2 C :   -0.785137
   3 O :    0.438660
   4 O :    0.843793
   5 H :   -0.580806
   6 C :    0.050486
   7 O :    0.818883
   8 H :   -0.133334
   9 H :   -0.157964
  10 H :   -0.158871
  11 H :   -0.491092
  12 H :   -0.301519
  13 H :   -0.291898

  Mayer bond orders larger than 0.100000
B(  0-N ,  1-C ) :   0.5754 B(  0-N ,  2-C ) :   0.1104 B(  0-N ,  5-H ) :   0.1151
B(  0-N , 12-H ) :   0.9809 B(  0-N , 13-H ) :   1.0707 B(  1-C ,  2-C ) :   0.7340
B(  1-C ,  6-C ) :   0.8962 B(  1-C ,  8-H ) :   0.8240 B(  2-C ,  3-O ) :   1.4569
B(  2-C ,  4-O ) :   0.7820 B(  4-O ,  5-H ) :   0.8734 B(  6-C ,  7-O ) :   0.7706
B(  6-C ,  9-H ) :   0.9050 B(  6-C , 10-H ) :   0.9039 B(  7-O , 11-H ) :   0.9934

MP2 TOTAL ENERGY:     -398.337075973 Eh
FINAL SINGLE POINT ENERGY      -398.337075972721

DIPOLE MOMENT
-------------
                                X             Y             Z
Electronic contribution:      3.69780      -2.35524      -1.03711
Nuclear contribution   :     -4.64116       3.72081       1.62711
                        -----------------------------------------
Total Dipole Moment    :     -0.94336       1.36557       0.59000
                        -----------------------------------------
Magnitude (a.u.)       :      1.76148
Magnitude (Debye)      :      4.47733

Rotational constants in cm-1:     0.118621     0.077663     0.057178
Rotational constants in MHz :  3556.167214  2328.277482  1714.144266

                             ****ORCA TERMINATED NORMALLY****
TOTAL RUN TIME: 0 days 0 hours 4 minutes 9 seconds 389 msec
