                         Program Version 5.0.3 -  RELEASE  -
|  1> !ri-mp2 aug-cc-pvtz aug-cc-pvtz/c tightscf
|  2> %pal nprocs 16 end
|  3>
|  4> * xyz 0 1
|  5> O     -2.569105   -0.409889   -0.572480
|  6> C     -1.603311   -0.035392    0.038272
|  7> C     -0.692304    1.087981   -0.403001
|  8> C      0.695435    1.135208    0.232886
|  9> C      1.604629   -0.043381   -0.033539
| 10> O      2.579645   -0.312785    0.616746
| 11> O      1.230271   -0.763568   -1.119024
| 12> O     -1.243334   -0.568197    1.231448
| 13> H     -1.222247    2.014615   -0.166974
| 14> H     -0.636885    1.034304   -1.487924
| 15> H      0.640007    1.245840    1.313535
| 16> H      1.226901    2.014895   -0.139503
| 17> H      1.873901   -1.480386   -1.220794
| 18> H     -1.888183   -1.260241    1.440431
| 19> *
| 20>
| 21>                          ****END OF INPUT****

CARTESIAN COORDINATES (ANGSTROEM)
---------------------------------
  O     -2.569105   -0.409889   -0.572480
  C     -1.603311   -0.035392    0.038272
  C     -0.692304    1.087981   -0.403001
  C      0.695435    1.135208    0.232886
  C      1.604629   -0.043381   -0.033539
  O      2.579645   -0.312785    0.616746
  O      1.230271   -0.763568   -1.119024
  O     -1.243334   -0.568197    1.231448
  H     -1.222247    2.014615   -0.166974
  H     -0.636885    1.034304   -1.487924
  H      0.640007    1.245840    1.313535
  H      1.226901    2.014895   -0.139503
  H      1.873901   -1.480386   -1.220794
  H     -1.888183   -1.260241    1.440431

 Total Charge           Charge          ....    0
 Multiplicity           Mult            ....    1
 Number of Electrons    NEL             ....   62
 Basis Dimension        Dim             ....  506

ORBITAL ENERGIES
----------------

  NO   OCC          E(Eh)            E(eV)
   0   2.0000     -20.623559      -561.1956
   1   2.0000     -20.623467      -561.1931
   2   2.0000     -20.556521      -559.3714
   3   2.0000     -20.556463      -559.3698
   4   2.0000     -11.396843      -310.1239
   5   2.0000     -11.396736      -310.1210
   6   2.0000     -11.266441      -306.5754
   7   2.0000     -11.265824      -306.5587
   8   2.0000      -1.476494       -40.1775
   9   2.0000      -1.473264       -40.0895
  10   2.0000      -1.371621       -37.3237
  11   2.0000      -1.371343       -37.3161
  12   2.0000      -1.102795       -30.0086
  13   2.0000      -0.969029       -26.3686
  14   2.0000      -0.847943       -23.0737
  15   2.0000      -0.821768       -22.3614
  16   2.0000      -0.717161       -19.5149
  17   2.0000      -0.715669       -19.4743
  18   2.0000      -0.708254       -19.2726
  19   2.0000      -0.667775       -18.1711
  20   2.0000      -0.659987       -17.9591
  21   2.0000      -0.650747       -17.7077
  22   2.0000      -0.599487       -16.3129
  23   2.0000      -0.598388       -16.2830
  24   2.0000      -0.573770       -15.6131
  25   2.0000      -0.569500       -15.4969
  26   2.0000      -0.541249       -14.7281
  27   2.0000      -0.493966       -13.4415
  28   2.0000      -0.488116       -13.2823
  29   2.0000      -0.459275       -12.4975
  30   2.0000      -0.456202       -12.4139
  31   0.0000       0.024372         0.6632
  32   0.0000       0.032983         0.8975
  33   0.0000       0.034628         0.9423
  34   0.0000       0.045382         1.2349
  35   0.0000       0.049900         1.3578

MULLIKEN ATOMIC CHARGES
-----------------------
   0 O :   -0.828907
   1 C :    0.626132
   2 C :   -0.156530
   3 C :   -0.155979
   4 C :    0.622198
   5 O :   -0.827715
   6 O :   -0.400203
   7 O :   -0.403000
   8 H :    0.311953
   9 H :    0.232224
  10 H :    0.230709
  11 H :    0.311731
  12 H :    0.218605
  13 H :    0.218781
Sum of atomic charges:   -0.0000000

LOEWDIN ATOMIC CHARGES
----------------------
   0 O :    0.453301
   1 C :   -0.786490
   2 C :    0.267989
   3 C :    0.268355
   4 C :   -0.785894
   5 O :    0.453184
   6 O :    0.840250
   7 O :    0.839979
   8 H :   -0.145679
   9 H :   -0.165718
  10 H :   -0.165640
  11 H :   -0.145838
  12 H :   -0.463816
  13 H :   -0.463983

  Mayer bond orders larger than 0.100000
B(  0-O ,  1-C ) :   1.3547 B(  1-C ,  2-C ) :   0.6202 B(  1-C ,  7-O ) :   0.9842
B(  2-C ,  3-C ) :   0.9792 B(  2-C ,  8-H ) :   0.9287 B(  2-C ,  9-H ) :   0.9481
B(  3-C ,  4-C ) :   0.6186 B(  3-C , 10-H ) :   0.9496 B(  3-C , 11-H ) :   0.9285
B(  4-C ,  5-O ) :   1.3572 B(  4-C ,  6-O ) :   0.9854 B(  6-O , 12-H ) :   0.9455
B(  7-O , 13-H ) :   0.9446

MP2 TOTAL ENERGY:     -456.255987166 Eh
FINAL SINGLE POINT ENERGY      -456.255987165929

DIPOLE MOMENT
-------------
                                X             Y             Z
Electronic contribution:      0.00048      -3.07535       0.22990
Nuclear contribution   :     -0.00645       3.48730      -0.25515
                        -----------------------------------------
Total Dipole Moment    :     -0.00597       0.41195      -0.02525
                        -----------------------------------------
Magnitude (a.u.)       :      0.41277
Magnitude (Debye)      :      1.04918

Rotational constants in cm-1:     0.130836     0.041286     0.040984
Rotational constants in MHz :  3922.359749  1237.731637  1228.666001

                             ****ORCA TERMINATED NORMALLY****
TOTAL RUN TIME: 0 days 0 hours 4 minutes 21 seconds 676 msec
