                         Program Version 5.0.3 -  RELEASE  -
|  1> !ri-mp2 aug-cc-pvtz aug-cc-pvtz/c tightscf
|  2> %pal nprocs 16 end
|  3>
|  4> * xyz 0 1
|  5> S     -0.581423    0.778059   -0.046508
|  6> S      2.290563   -0.099694   -0.028882
|  7> N     -3.075461   -0.603242    0.072586
|  8> C      0.575090   -0.674352   -0.075835
|  9> C     -2.060382   -0.051436    0.023082
| 10> H      2.304288    0.255860    1.269161
| 11> H      0.444681   -1.205612   -1.013319
| 12> H      0.344772   -1.326672    0.758810
| 13> *
| 14>
| 15>                          ****END OF INPUT****

CARTESIAN COORDINATES (ANGSTROEM)
---------------------------------
  S     -0.581423    0.778059   -0.046508
  S      2.290563   -0.099694   -0.028882
  N     -3.075461   -0.603242    0.072586
  C      0.575090   -0.674352   -0.075835
  C     -2.060382   -0.051436    0.023082
  H      2.304288    0.255860    1.269161
  H      0.444681   -1.205612   -1.013319
  H      0.344772   -1.326672    0.758810

 Total Charge           Charge          ....    0
 Multiplicity           Mult            ....    1
 Number of Electrons    NEL             ....   54
 Basis Dimension        Dim             ....  307

ORBITAL ENERGIES
----------------

  NO   OCC          E(Eh)            E(eV)
   0   2.0000     -92.026413     -2504.1660
   1   2.0000     -91.996276     -2503.3460
   2   2.0000     -15.588353      -424.1806
   3   2.0000     -11.336058      -308.4698
   4   2.0000     -11.301778      -307.5370
   5   2.0000      -9.025700      -245.6018
   6   2.0000      -8.997061      -244.8225
   7   2.0000      -6.707060      -182.5084
   8   2.0000      -6.705393      -182.4630
   9   2.0000      -6.704442      -182.4371
  10   2.0000      -6.678275      -181.7251
  11   2.0000      -6.677314      -181.6990
  12   2.0000      -6.676224      -181.6693
  13   2.0000      -1.235886       -33.6302
  14   2.0000      -1.122159       -30.5355
  15   2.0000      -1.019554       -27.7435
  16   2.0000      -0.884719       -24.0744
  17   2.0000      -0.695056       -18.9134
  18   2.0000      -0.671687       -18.2775
  19   2.0000      -0.585887       -15.9428
  20   2.0000      -0.576867       -15.6974
  21   2.0000      -0.542784       -14.7699
  22   2.0000      -0.525964       -14.3122
  23   2.0000      -0.504973       -13.7410
  24   2.0000      -0.465839       -12.6761
  25   2.0000      -0.397214       -10.8087
  26   2.0000      -0.391358       -10.6494
  27   0.0000       0.024415         0.6644
  28   0.0000       0.035947         0.9782
  29   0.0000       0.043787         1.1915
  30   0.0000       0.057208         1.5567
  31   0.0000       0.069156         1.8818

MULLIKEN ATOMIC CHARGES
-----------------------
   0 S :    0.140159
   1 S :   -0.277299
   2 N :   -0.376025
   3 C :   -0.359783
   4 C :    0.103157
   5 H :    0.164704
   6 H :    0.316601
   7 H :    0.288486
Sum of atomic charges:    0.0000000

LOEWDIN ATOMIC CHARGES
----------------------
   0 S :    1.063613
   1 S :    1.226657
   2 N :    0.136192
   3 C :   -0.470058
   4 C :   -0.779497
   5 H :   -0.574369
   6 H :   -0.307286
   7 H :   -0.295253

  Mayer bond orders larger than 0.100000
B(  0-S ,  3-C ) :   0.9689 B(  0-S ,  4-C ) :   1.0550 B(  1-S ,  3-C ) :   1.0618
B(  1-S ,  5-H ) :   1.0203 B(  2-N ,  4-C ) :   2.5558 B(  3-C ,  6-H ) :   0.9034
B(  3-C ,  7-H ) :   0.8950

MP2 TOTAL ENERGY:     -927.923879928 Eh
FINAL SINGLE POINT ENERGY      -927.923879927998

DIPOLE MOMENT
-------------
                                X             Y             Z
Electronic contribution:     -1.54985       2.21754      -0.75242
Nuclear contribution   :      2.91496      -2.21870       0.98106
                        -----------------------------------------
Total Dipole Moment    :      1.36512      -0.00116       0.22864
                        -----------------------------------------
Magnitude (a.u.)       :      1.38413
Magnitude (Debye)      :      3.51818

Rotational constants in cm-1:     0.455278     0.044889     0.041554
Rotational constants in MHz : 13648.888286  1345.724786  1245.757372

                             ****ORCA TERMINATED NORMALLY****
TOTAL RUN TIME: 0 days 0 hours 1 minutes 17 seconds 890 msec
