                         Program Version 5.0.3 -  RELEASE  -
|  1> !ri-mp2 aug-cc-pvtz aug-cc-pvtz/c tightscf
|  2> %pal nprocs 16 end
|  3>
|  4> * xyz 0 1
|  5> C     -2.865077    0.100616    0.165518
|  6> C     -2.070507    1.223857    0.366327
|  7> C     -2.286294   -1.104138   -0.223924
|  8> C     -0.692839    1.148380    0.186907
|  9> C     -0.911773   -1.187321   -0.409725
| 10> C     -0.127095   -0.061385   -0.186065
| 11> C      2.115664   -0.968781    1.096612
| 12> O      2.191158    1.279499   -0.345256
| 13> S      1.671473   -0.126541   -0.469671
| 14> H     -3.936059    0.164368    0.301992
| 15> H     -2.522707    2.162209    0.657897
| 16> H     -2.905625   -1.974771   -0.391995
| 17> H     -0.051411    2.009136    0.320028
| 18> H     -0.461290   -2.117623   -0.732907
| 19> H      1.639276   -1.946560    1.131766
| 20> H      1.794165   -0.342110    1.925393
| 21> H      3.198354   -1.073357    1.090709
| 22> *
| 23>
| 24>                          ****END OF INPUT****

CARTESIAN COORDINATES (ANGSTROEM)
---------------------------------
  C     -2.865077    0.100616    0.165518
  C     -2.070507    1.223857    0.366327
  C     -2.286294   -1.104138   -0.223924
  C     -0.692839    1.148380    0.186907
  C     -0.911773   -1.187321   -0.409725
  C     -0.127095   -0.061385   -0.186065
  C      2.115664   -0.968781    1.096612
  O      2.191158    1.279499   -0.345256
  S      1.671473   -0.126541   -0.469671
  H     -3.936059    0.164368    0.301992
  H     -2.522707    2.162209    0.657897
  H     -2.905625   -1.974771   -0.391995
  H     -0.051411    2.009136    0.320028
  H     -0.461290   -2.117623   -0.732907
  H      1.639276   -1.946560    1.131766
  H      1.794165   -0.342110    1.925393
  H      3.198354   -1.073357    1.090709

 Total Charge           Charge          ....    0
 Multiplicity           Mult            ....    1
 Number of Electrons    NEL             ....   74
 Basis Dimension        Dim             ....  602

ORBITAL ENERGIES
----------------

  NO   OCC          E(Eh)            E(eV)
   0   2.0000     -92.076000     -2505.5153
   1   2.0000     -20.508056      -558.0526
   2   2.0000     -11.271835      -306.7222
   3   2.0000     -11.264165      -306.5135
   4   2.0000     -11.258793      -306.3673
   5   2.0000     -11.252518      -306.1966
   6   2.0000     -11.251164      -306.1597
   7   2.0000     -11.249875      -306.1247
   8   2.0000     -11.248667      -306.0918
   9   2.0000      -9.061814      -246.5845
  10   2.0000      -6.743415      -183.4977
  11   2.0000      -6.743281      -183.4940
  12   2.0000      -6.741931      -183.4573
  13   2.0000      -1.334802       -36.3218
  14   2.0000      -1.174760       -31.9668
  15   2.0000      -1.062471       -28.9113
  16   2.0000      -1.034799       -28.1583
  17   2.0000      -1.009087       -27.4586
  18   2.0000      -0.882865       -24.0240
  19   2.0000      -0.847018       -23.0485
  20   2.0000      -0.802344       -21.8329
  21   2.0000      -0.717402       -19.5215
  22   2.0000      -0.652367       -17.7518
  23   2.0000      -0.647953       -17.6317
  24   2.0000      -0.623525       -16.9670
  25   2.0000      -0.616471       -16.7750
  26   2.0000      -0.605566       -16.4783
  27   2.0000      -0.588168       -16.0049
  28   2.0000      -0.575400       -15.6574
  29   2.0000      -0.531818       -14.4715
  30   2.0000      -0.517835       -14.0910
  31   2.0000      -0.516144       -14.0450
  32   2.0000      -0.510321       -13.8865
  33   2.0000      -0.422267       -11.4905
  34   2.0000      -0.387601       -10.5472
  35   2.0000      -0.354289        -9.6407
  36   2.0000      -0.343171        -9.3382
  37   0.0000       0.023876         0.6497
  38   0.0000       0.029627         0.8062
  39   0.0000       0.034466         0.9379
  40   0.0000       0.042560         1.1581
  41   0.0000       0.046324         1.2605

MULLIKEN ATOMIC CHARGES
-----------------------
   0 C :   -0.346070
   1 C :   -0.362783
   2 C :   -0.436677
   3 C :   -0.854205
   4 C :   -0.979402
   5 C :    1.120178
   6 C :   -0.895520
   7 O :   -1.000108
   8 S :    0.484020
   9 H :    0.530970
  10 H :    0.375841
  11 H :    0.359595
  12 H :    0.520467
  13 H :    0.540703
  14 H :    0.348545
  15 H :    0.319406
  16 H :    0.275041
Sum of atomic charges:   -0.0000000

LOEWDIN ATOMIC CHARGES
----------------------
   0 C :    0.200146
   1 C :    0.202931
   2 C :    0.194556
   3 C :    0.146317
   4 C :    0.133404
   5 C :   -0.340494
   6 C :    0.414852
   7 O :   -0.164739
   8 S :    0.850079
   9 H :   -0.182627
  10 H :   -0.182327
  11 H :   -0.183970
  12 H :   -0.212450
  13 H :   -0.190140
  14 H :   -0.231684
  15 H :   -0.219788
  16 H :   -0.234066

  Mayer bond orders larger than 0.100000
B(  0-C ,  1-C ) :   1.1163 B(  0-C ,  2-C ) :   1.1202 B(  0-C ,  3-C ) :   0.1596
B(  0-C ,  4-C ) :   0.1906 B(  0-C ,  9-H ) :   0.7021 B(  1-C ,  3-C ) :   1.0362
B(  1-C , 10-H ) :   1.0470 B(  2-C ,  4-C ) :   1.1966 B(  2-C , 11-H ) :   1.0277
B(  3-C ,  4-C ) :   0.4352 B(  3-C ,  5-C ) :   0.6255 B(  3-C , 12-H ) :   0.7529
B(  4-C ,  5-C ) :   0.6937 B(  4-C , 13-H ) :   0.6253 B(  5-C ,  8-S ) :   0.8192
B(  6-C ,  8-S ) :   0.9730 B(  6-C , 14-H ) :   0.8686 B(  6-C , 15-H ) :   0.8844
B(  6-C , 16-H ) :   0.9530 B(  7-O ,  8-S ) :   1.2754 B(  7-O , 12-H ) :  -0.1330
B(  8-S , 13-H ) :  -0.1320

MP2 TOTAL ENERGY:     -743.790584017 Eh
FINAL SINGLE POINT ENERGY      -743.790584017215

DIPOLE MOMENT
-------------
                                X             Y             Z
Electronic contribution:      2.19161       1.74579      -3.67735
Nuclear contribution   :     -3.23388      -3.06765       4.27433
                        -----------------------------------------
Total Dipole Moment    :     -1.04227      -1.32186       0.59699
                        -----------------------------------------
Magnitude (a.u.)       :      1.78607
Magnitude (Debye)      :      4.53982

Rotational constants in cm-1:     0.104155     0.031671     0.027108
Rotational constants in MHz :  3122.481385   949.487424   812.683839

                             ****ORCA TERMINATED NORMALLY****
TOTAL RUN TIME: 0 days 0 hours 8 minutes 50 seconds 282 msec
