                         Program Version 5.0.3 -  RELEASE  -
|  1> !ri-mp2 aug-cc-pvtz aug-cc-pvtz/c tightscf
|  2> %pal nprocs 16 end
|  3>
|  4> * xyz 0 1
|  5> C      2.274150    1.388749   -0.000069
|  6> C      3.234944    0.386128    0.000107
|  7> C      0.927785    1.052725   -0.000171
|  8> C      2.801859   -0.932997    0.000173
|  9> C      0.607018   -0.304386   -0.000074
| 10> C     -2.244819    0.347643    0.000025
| 11> C     -3.658489   -0.190391    0.000171
| 12> N      1.514712   -1.276021    0.000089
| 13> O     -1.993920    1.525908    0.000110
| 14> S     -1.049030   -0.997881   -0.000205
| 15> H      2.565776    2.430616   -0.000132
| 16> H      4.290895    0.616050    0.000187
| 17> H      0.153685    1.800661   -0.000305
| 18> H      3.511957   -1.751445    0.000302
| 19> H     -4.172879    0.194508   -0.880641
| 20> H     -4.172111    0.193012    0.882092
| 21> H     -3.699155   -1.277234   -0.000689
| 22> *
| 23>
| 24>                          ****END OF INPUT****

CARTESIAN COORDINATES (ANGSTROEM)
---------------------------------
  C      2.274150    1.388749   -0.000069
  C      3.234944    0.386128    0.000107
  C      0.927785    1.052725   -0.000171
  C      2.801859   -0.932997    0.000173
  C      0.607018   -0.304386   -0.000074
  C     -2.244819    0.347643    0.000025
  C     -3.658489   -0.190391    0.000171
  N      1.514712   -1.276021    0.000089
  O     -1.993920    1.525908    0.000110
  S     -1.049030   -0.997881   -0.000205
  H      2.565776    2.430616   -0.000132
  H      4.290895    0.616050    0.000187
  H      0.153685    1.800661   -0.000305
  H      3.511957   -1.751445    0.000302
  H     -4.172879    0.194508   -0.880641
  H     -4.172111    0.193012    0.882092
  H     -3.699155   -1.277234   -0.000689

 Total Charge           Charge          ....    0
 Multiplicity           Mult            ....    1
 Number of Electrons    NEL             ....   80
 Basis Dimension        Dim             ....  625

ORBITAL ENERGIES
----------------

  NO   OCC          E(Eh)            E(eV)
   0   2.0000     -91.985458     -2503.0516
   1   2.0000     -20.564802      -559.5967
   2   2.0000     -15.574933      -423.8155
   3   2.0000     -11.376373      -309.5668
   4   2.0000     -11.318709      -307.9977
   5   2.0000     -11.282811      -307.0209
   6   2.0000     -11.263675      -306.5002
   7   2.0000     -11.250428      -306.1397
   8   2.0000     -11.245241      -305.9986
   9   2.0000     -11.243527      -305.9519
  10   2.0000      -8.986274      -244.5289
  11   2.0000      -6.667335      -181.4274
  12   2.0000      -6.666052      -181.3925
  13   2.0000      -6.665448      -181.3761
  14   2.0000      -1.413609       -38.4663
  15   2.0000      -1.278364       -34.7861
  16   2.0000      -1.097804       -29.8728
  17   2.0000      -1.080709       -29.4076
  18   2.0000      -1.039421       -28.2841
  19   2.0000      -0.971081       -26.4245
  20   2.0000      -0.871445       -23.7132
  21   2.0000      -0.848788       -23.0967
  22   2.0000      -0.761603       -20.7243
  23   2.0000      -0.704907       -19.1815
  24   2.0000      -0.680506       -18.5175
  25   2.0000      -0.669090       -18.2069
  26   2.0000      -0.642163       -17.4741
  27   2.0000      -0.623207       -16.9583
  28   2.0000      -0.621504       -16.9120
  29   2.0000      -0.588504       -16.0140
  30   2.0000      -0.565532       -15.3889
  31   2.0000      -0.563928       -15.3452
  32   2.0000      -0.560534       -15.2529
  33   2.0000      -0.526645       -14.3307
  34   2.0000      -0.489871       -13.3301
  35   2.0000      -0.426831       -11.6147
  36   2.0000      -0.424194       -11.5429
  37   2.0000      -0.414196       -11.2709
  38   2.0000      -0.386429       -10.5153
  39   2.0000      -0.330866        -9.0033
  40   0.0000       0.026952         0.7334
  41   0.0000       0.028185         0.7670
  42   0.0000       0.036807         1.0016
  43   0.0000       0.046036         1.2527
  44   0.0000       0.046214         1.2576

MULLIKEN ATOMIC CHARGES
-----------------------
   0 C :   -0.809493
   1 C :   -0.067386
   2 C :   -0.478004
   3 C :   -0.716968
   4 C :    0.611232
   5 C :    0.577523
   6 C :   -0.703812
   7 N :   -0.497464
   8 O :   -0.856477
   9 S :   -0.063125
  10 H :    0.485585
  11 H :    0.313572
  12 H :    0.600426
  13 H :    0.663799
  14 H :    0.305668
  15 H :    0.305684
  16 H :    0.329241
Sum of atomic charges:    0.0000000

LOEWDIN ATOMIC CHARGES
----------------------
   0 C :    0.196319
   1 C :    0.200537
   2 C :    0.154470
   3 C :    0.005455
   4 C :   -0.678903
   5 C :   -0.895681
   6 C :    0.494642
   7 N :    0.283518
   8 O :    0.413243
   9 S :    1.237178
  10 H :   -0.172124
  11 H :   -0.189773
  12 H :   -0.282875
  13 H :   -0.191035
  14 H :   -0.178800
  15 H :   -0.178784
  16 H :   -0.217387

  Mayer bond orders larger than 0.100000
B(  0-C ,  1-C ) :   0.9980 B(  0-C ,  2-C ) :   1.3378 B(  0-C ,  3-C ) :   0.3639
B(  0-C ,  7-N ) :   0.1035 B(  0-C , 10-H ) :   0.8207 B(  0-C , 11-H ) :  -0.1464
B(  0-C , 12-H ) :  -0.1005 B(  1-C ,  3-C ) :   0.9359 B(  1-C ,  7-N ) :  -0.2234
B(  1-C , 11-H ) :   1.0184 B(  2-C ,  4-C ) :   0.9076 B(  2-C , 12-H ) :   0.7588
B(  3-C ,  4-C ) :   0.1036 B(  3-C ,  7-N ) :   1.4080 B(  3-C , 13-H ) :   0.3863
B(  4-C ,  7-N ) :   0.9461 B(  4-C ,  9-S ) :   0.9205 B(  5-C ,  6-C ) :   0.5174
B(  5-C ,  8-O ) :   1.4214 B(  5-C ,  9-S ) :   0.9706 B(  6-C , 14-H ) :   0.9595
B(  6-C , 15-H ) :   0.9594 B(  6-C , 16-H ) :   0.9469 B(  7-N , 13-H ) :  -0.1000
B(  8-O , 12-H ) :  -0.1338

MP2 TOTAL ENERGY:     -797.889973176 Eh
FINAL SINGLE POINT ENERGY      -797.889973176171

DIPOLE MOMENT
-------------
                                X             Y             Z
Electronic contribution:      1.58332      -2.04199      -0.00079
Nuclear contribution   :     -1.48286       2.21008       0.00081
                        -----------------------------------------
Total Dipole Moment    :      0.10046       0.16809       0.00002
                        -----------------------------------------
Magnitude (a.u.)       :      0.19582
Magnitude (Debye)      :      0.49774

Rotational constants in cm-1:     0.105628     0.022863     0.018861
Rotational constants in MHz :  3166.648159   685.412948   565.429114

                             ****ORCA TERMINATED NORMALLY****
TOTAL RUN TIME: 0 days 0 hours 8 minutes 45 seconds 408 msec
