                         Program Version 5.0.3 -  RELEASE  -
|  1> !ri-mp2 aug-cc-pvtz aug-cc-pvtz/c tightscf
|  2> %pal nprocs 16 end
|  3>
|  4> * xyz 0 1
|  5> C     0.422954     0.646920    0.000000
|  6> C    -0.422954    -0.646920    0.000000
|  7> C    -0.422954     1.834859    0.000000
|  8> C     0.422954    -1.834859    0.000000
|  9> N     1.107673    -2.757950    0.000000
| 10> N    -1.107673     2.757950    0.000000
| 11> H     1.069525     0.672423    0.877634
| 12> H     1.069525     0.672423   -0.877634
| 13> H    -1.069525    -0.672423    0.877634
| 14> H    -1.069525    -0.672423   -0.877634
| 15> *
| 16>
| 17>                          ****END OF INPUT****

CARTESIAN COORDINATES (ANGSTROEM)
---------------------------------
  C      0.422954    0.646920    0.000000
  C     -0.422954   -0.646920    0.000000
  C     -0.422954    1.834859    0.000000
  C      0.422954   -1.834859    0.000000
  N      1.107673   -2.757950    0.000000
  N     -1.107673    2.757950    0.000000
  H      1.069525    0.672423    0.877634
  H      1.069525    0.672423   -0.877634
  H     -1.069525   -0.672423    0.877634
  H     -1.069525   -0.672423   -0.877634

 Total Charge           Charge          ....    0
 Multiplicity           Mult            ....    1
 Number of Electrons    NEL             ....   42
 Basis Dimension        Dim             ....  368

ORBITAL ENERGIES
----------------

  NO   OCC          E(Eh)            E(eV)
   0   2.0000     -15.592253      -424.2868
   1   2.0000     -15.592253      -424.2868
   2   2.0000     -11.320900      -308.0573
   3   2.0000     -11.320337      -308.0420
   4   2.0000     -11.295093      -307.3551
   5   2.0000     -11.295090      -307.3550
   6   2.0000      -1.248930       -33.9851
   7   2.0000      -1.243104       -33.8266
   8   2.0000      -1.133593       -30.8466
   9   2.0000      -0.986593       -26.8465
  10   2.0000      -0.757538       -20.6137
  11   2.0000      -0.707575       -19.2541
  12   2.0000      -0.695819       -18.9342
  13   2.0000      -0.624745       -17.0002
  14   2.0000      -0.603865       -16.4320
  15   2.0000      -0.581081       -15.8120
  16   2.0000      -0.571354       -15.5473
  17   2.0000      -0.498530       -13.5657
  18   2.0000      -0.484777       -13.1914
  19   2.0000      -0.482567       -13.1313
  20   2.0000      -0.475134       -12.9291
  21   0.0000       0.021544         0.5862
  22   0.0000       0.032220         0.8767
  23   0.0000       0.034048         0.9265
  24   0.0000       0.052591         1.4311
  25   0.0000       0.057852         1.5742

MULLIKEN ATOMIC CHARGES
-----------------------
   0 C :   -0.091795
   1 C :   -0.091795
   2 C :    0.038722
   3 C :    0.038722
   4 N :   -0.538505
   5 N :   -0.538505
   6 H :    0.295789
   7 H :    0.295789
   8 H :    0.295789
   9 H :    0.295789
Sum of atomic charges:    0.0000000

LOEWDIN ATOMIC CHARGES
----------------------
   0 C :    0.235189
   1 C :    0.235189
   2 C :   -0.200682
   3 C :   -0.200682
   4 N :    0.269213
   5 N :    0.269213
   6 H :   -0.151860
   7 H :   -0.151860
   8 H :   -0.151860
   9 H :   -0.151860

  Mayer bond orders larger than 0.100000
B(  0-C ,  1-C ) :   0.8719 B(  0-C ,  2-C ) :   0.8661 B(  0-C ,  6-H ) :   0.9261
B(  0-C ,  7-H ) :   0.9261 B(  1-C ,  3-C ) :   0.8661 B(  1-C ,  8-H ) :   0.9261
B(  1-C ,  9-H ) :   0.9261 B(  2-C ,  5-N ) :   2.2536 B(  3-C ,  4-N ) :   2.2536

MP2 TOTAL ENERGY:     -263.802572408 Eh
FINAL SINGLE POINT ENERGY      -263.802572407966

DIPOLE MOMENT
-------------
                                X             Y             Z
Electronic contribution:      0.00000       0.00000       0.00000
Nuclear contribution   :      0.00000       0.00000       0.00000
                        -----------------------------------------
Total Dipole Moment    :      0.00000       0.00000       0.00000
                        -----------------------------------------
Magnitude (a.u.)       :      0.00000
Magnitude (Debye)      :      0.00000

Rotational constants in cm-1:     0.857872     0.049585     0.047700
Rotational constants in MHz : 25718.344128  1486.528616  1429.999926

                             ****ORCA TERMINATED NORMALLY****
TOTAL RUN TIME: 0 days 0 hours 1 minutes 39 seconds 374 msec
