                         Program Version 5.0.3 -  RELEASE  -
|  1> !ri-mp2 aug-cc-pvtz aug-cc-pvtz/c tightscf
|  2> %pal nprocs 16 end
|  3> %maxcore 3800
|  4>
|  5> * xyz 0 1
|  6> C      2.857988   -0.186371   -0.233131
|  7> C      2.053766    0.384179   -1.214486
|  8> C      2.290498   -0.563987    0.976902
|  9> C      0.697008    0.573868   -0.984913
| 10> C      0.930680   -0.371454    1.200202
| 11> C      0.110355    0.199210    0.227134
| 12> C     -2.106231   -1.897819   -0.384502
| 13> C     -1.735472    1.906080    0.469313
| 14> C     -2.268736   -0.382193   -0.478594
| 15> C     -1.370680    0.413775    0.488686
| 16> H      3.914630   -0.333895   -0.411250
| 17> H      2.484835    0.682992   -2.161028
| 18> H      2.904128   -1.009341    1.748912
| 19> H      0.089544    1.020400   -1.761714
| 20> H      0.498685   -0.670061    2.147496
| 21> H     -2.781757   -2.406774   -1.073300
| 22> H     -1.088989   -2.207419   -0.625697
| 23> H     -2.330630   -2.254856    0.622994
| 24> H     -1.578291    2.339587   -0.519828
| 25> H     -2.785198    2.048697    0.731767
| 26> H     -1.128084    2.469271    1.178299
| 27> H     -2.072665   -0.053669   -1.503150
| 28> H     -3.308762   -0.116218   -0.270236
| 29> H     -1.572502    0.039560    1.497058
| 30> *
| 31>
| 32>                          ****END OF INPUT****

CARTESIAN COORDINATES (ANGSTROEM)
---------------------------------
  C      2.857988   -0.186371   -0.233131
  C      2.053766    0.384179   -1.214486
  C      2.290498   -0.563987    0.976902
  C      0.697008    0.573868   -0.984913
  C      0.930680   -0.371454    1.200202
  C      0.110355    0.199210    0.227134
  C     -2.106231   -1.897819   -0.384502
  C     -1.735472    1.906080    0.469313
  C     -2.268736   -0.382193   -0.478594
  C     -1.370680    0.413775    0.488686
  H      3.914630   -0.333895   -0.411250
  H      2.484835    0.682992   -2.161028
  H      2.904128   -1.009341    1.748912
  H      0.089544    1.020400   -1.761714
  H      0.498685   -0.670061    2.147496
  H     -2.781757   -2.406774   -1.073300
  H     -1.088989   -2.207419   -0.625697
  H     -2.330630   -2.254856    0.622994
  H     -1.578291    2.339587   -0.519828
  H     -2.785198    2.048697    0.731767
  H     -1.128084    2.469271    1.178299
  H     -2.072665   -0.053669   -1.503150
  H     -3.308762   -0.116218   -0.270236
  H     -1.572502    0.039560    1.497058

 Total Charge           Charge          ....    0
 Multiplicity           Mult            ....    1
 Number of Electrons    NEL             ....   74
 Basis Dimension        Dim             ....  782

ORBITAL ENERGIES
----------------

  NO   OCC          E(Eh)            E(eV)
   0   2.0000     -11.235028      -305.7207
   1   2.0000     -11.231527      -305.6254
   2   2.0000     -11.231486      -305.6243
   3   2.0000     -11.230975      -305.6104
   4   2.0000     -11.227425      -305.5138
   5   2.0000     -11.226699      -305.4940
   6   2.0000     -11.226422      -305.4865
   7   2.0000     -11.219033      -305.2854
   8   2.0000     -11.212914      -305.1189
   9   2.0000     -11.207788      -304.9794
  10   2.0000      -1.155729       -31.4490
  11   2.0000      -1.087811       -29.6008
  12   2.0000      -1.011483       -27.5238
  13   2.0000      -1.008575       -27.4447
  14   2.0000      -0.974898       -26.5283
  15   2.0000      -0.869019       -23.6472
  16   2.0000      -0.833282       -22.6748
  17   2.0000      -0.820667       -22.3315
  18   2.0000      -0.765708       -20.8360
  19   2.0000      -0.693932       -18.8828
  20   2.0000      -0.647610       -17.6224
  21   2.0000      -0.624079       -16.9821
  22   2.0000      -0.608453       -16.5568
  23   2.0000      -0.592589       -16.1252
  24   2.0000      -0.582620       -15.8539
  25   2.0000      -0.572740       -15.5851
  26   2.0000      -0.569397       -15.4941
  27   2.0000      -0.535727       -14.5779
  28   2.0000      -0.514305       -13.9949
  29   2.0000      -0.499551       -13.5935
  30   2.0000      -0.494983       -13.4692
  31   2.0000      -0.488707       -13.2984
  32   2.0000      -0.464334       -12.6352
  33   2.0000      -0.460858       -12.5406
  34   2.0000      -0.452683       -12.3181
  35   2.0000      -0.334043        -9.0898
  36   2.0000      -0.323964        -8.8155
  37   0.0000       0.028090         0.7644
  38   0.0000       0.032251         0.8776
  39   0.0000       0.033281         0.9056
  40   0.0000       0.036853         1.0028
  41   0.0000       0.045037         1.2255

MULLIKEN ATOMIC CHARGES
-----------------------
   0 C :   -0.191382
   1 C :   -0.858177
   2 C :   -0.479542
   3 C :   -0.884034
   4 C :   -1.098624
   5 C :    1.907123
   6 C :   -1.050730
   7 C :   -1.071377
   8 C :   -0.491810
   9 C :    0.379171
  10 H :    0.462702
  11 H :    0.469731
  12 H :    0.634929
  13 H :    0.069325
  14 H :   -0.229948
  15 H :    0.258235
  16 H :    0.373449
  17 H :    0.234977
  18 H :    0.292640
  19 H :    0.210802
  20 H :    0.298086
  21 H :    0.202704
  22 H :    0.287345
  23 H :    0.274405
Sum of atomic charges:   -0.0000000

LOEWDIN ATOMIC CHARGES
----------------------
   0 C :    0.193117
   1 C :    0.202464
   2 C :    0.200022
   3 C :    0.216243
   4 C :    0.222468
   5 C :   -0.105864
   6 C :    0.591160
   7 C :    0.597987
   8 C :    0.272222
   9 C :   -0.035259
  10 H :   -0.188168
  11 H :   -0.183991
  12 H :   -0.184503
  13 H :   -0.179351
  14 H :   -0.176974
  15 H :   -0.169676
  16 H :   -0.170153
  17 H :   -0.165081
  18 H :   -0.166503
  19 H :   -0.163716
  20 H :   -0.158701
  21 H :   -0.150084
  22 H :   -0.146130
  23 H :   -0.151528

  Mayer bond orders larger than 0.100000
B(  0-C ,  1-C ) :   1.1707 B(  0-C ,  2-C ) :   1.1351 B(  0-C ,  4-C ) :  -0.1791
B(  0-C , 10-H ) :   0.7875 B(  1-C ,  2-C ) :   0.2185 B(  1-C ,  3-C ) :   1.4571
B(  1-C ,  5-C ) :   0.1422 B(  1-C , 10-H ) :  -0.1872 B(  1-C , 11-H ) :   0.7740
B(  1-C , 13-H ) :  -0.1688 B(  2-C ,  3-C ) :  -0.1105 B(  2-C ,  4-C ) :   1.2427
B(  2-C ,  5-C ) :   0.3486 B(  2-C , 10-H ) :  -0.2106 B(  2-C , 12-H ) :   0.5505
B(  2-C , 13-H ) :  -0.1682 B(  2-C , 14-H ) :  -0.2033 B(  3-C ,  4-C ) :  -0.2130
B(  3-C ,  5-C ) :   0.1438 B(  3-C ,  9-C ) :   0.3174 B(  3-C , 13-H ) :   1.4578
B(  3-C , 14-H ) :   0.2557 B(  4-C ,  5-C ) :  -0.1522 B(  4-C ,  9-C ) :   0.1441
B(  4-C , 10-H ) :   0.2048 B(  4-C , 12-H ) :  -0.2163 B(  4-C , 13-H ) :   0.3259
B(  4-C , 14-H ) :   2.2032 B(  5-C ,  8-C ) :   0.1848 B(  5-C ,  9-C ) :   0.8699
B(  5-C , 13-H ) :  -0.2915 B(  5-C , 14-H ) :  -0.4858 B(  6-C ,  8-C ) :   0.8339
B(  6-C , 15-H ) :   1.0132 B(  6-C , 16-H ) :   0.8849 B(  6-C , 17-H ) :   0.9998
B(  7-C ,  8-C ) :   0.1090 B(  7-C ,  9-C ) :   0.6037 B(  7-C , 18-H ) :   0.9843
B(  7-C , 19-H ) :   1.0444 B(  7-C , 20-H ) :   1.0021 B(  8-C ,  9-C ) :   0.7414
B(  8-C , 21-H ) :   0.9938 B(  8-C , 22-H ) :   0.9582 B(  9-C , 23-H ) :   0.9603
B( 12-H , 14-H ) :  -0.1193 B( 13-H , 14-H ) :   0.1257

MP2 TOTAL ENERGY:     -388.654511585 Eh
FINAL SINGLE POINT ENERGY      -388.654511584908

DIPOLE MOMENT
-------------
                                X             Y             Z
Electronic contribution:      8.90990       0.48324       0.42754
Nuclear contribution   :     -9.06524      -0.46773      -0.41384
                        -----------------------------------------
Total Dipole Moment    :     -0.15534       0.01551       0.01371
                        -----------------------------------------
Magnitude (a.u.)       :      0.15671
Magnitude (Debye)      :      0.39834

Rotational constants in cm-1:     0.072770     0.029587     0.027476
Rotational constants in MHz :  2181.586404   886.986923   823.717078

                             ****ORCA TERMINATED NORMALLY****
TOTAL RUN TIME: 0 days 0 hours 19 minutes 28 seconds 802 msec
