                         Program Version 5.0.3 -  RELEASE  -
|  1> !ri-mp2 aug-cc-pvtz aug-cc-pvtz/c tightscf
|  2> %pal nprocs 16 end
|  3>
|  4> * xyz 0 1
|  5> C     0.000000     0.000000    0.000000
|  6> C     0.000000     0.763303    1.266524
|  7> C     0.000000    -0.763303    1.266524
|  8> C    -0.763303     0.000000   -1.266524
|  9> C     0.763303     0.000000   -1.266524
| 10> H     0.910461     1.264133    1.569347
| 11> H    -0.910461     1.264133    1.569347
| 12> H    -0.910461    -1.264133    1.569347
| 13> H     0.910461    -1.264133    1.569347
| 14> H    -1.264133    -0.910461   -1.569347
| 15> H    -1.264133     0.910461   -1.569347
| 16> H     1.264133     0.910461   -1.569347
| 17> H     1.264133    -0.910461   -1.569347
| 18> *
| 19>
| 20>                          ****END OF INPUT****

CARTESIAN COORDINATES (ANGSTROEM)
---------------------------------
  C      0.000000    0.000000    0.000000
  C      0.000000    0.763303    1.266524
  C      0.000000   -0.763303    1.266524
  C     -0.763303    0.000000   -1.266524
  C      0.763303    0.000000   -1.266524
  H      0.910461    1.264133    1.569347
  H     -0.910461    1.264133    1.569347
  H     -0.910461   -1.264133    1.569347
  H      0.910461   -1.264133    1.569347
  H     -1.264133   -0.910461   -1.569347
  H     -1.264133    0.910461   -1.569347
  H      1.264133    0.910461   -1.569347
  H      1.264133   -0.910461   -1.569347

 Total Charge           Charge          ....    0
 Multiplicity           Mult            ....    1
 Number of Electrons    NEL             ....   38
 Basis Dimension        Dim             ....  414

ORBITAL ENERGIES
----------------

  NO   OCC          E(Eh)            E(eV)
   0   2.0000     -11.234389      -305.7033
   1   2.0000     -11.223726      -305.4131
   2   2.0000     -11.223651      -305.4111
   3   2.0000     -11.223102      -305.3961
   4   2.0000     -11.223102      -305.3961
   5   2.0000      -1.170851       -31.8605
   6   2.0000      -1.059623       -28.8338
   7   2.0000      -0.824185       -22.4272
   8   2.0000      -0.824185       -22.4272
   9   2.0000      -0.739828       -20.1317
  10   2.0000      -0.653011       -17.7693
  11   2.0000      -0.637426       -17.3452
  12   2.0000      -0.637426       -17.3452
  13   2.0000      -0.521046       -14.1784
  14   2.0000      -0.505486       -13.7550
  15   2.0000      -0.485669       -13.2157
  16   2.0000      -0.412259       -11.2181
  17   2.0000      -0.412259       -11.2181
  18   2.0000      -0.387027       -10.5315
  19   0.0000       0.032177         0.8756
  20   0.0000       0.037262         1.0139
  21   0.0000       0.039418         1.0726
  22   0.0000       0.039418         1.0726
  23   0.0000       0.056147         1.5278

MULLIKEN ATOMIC CHARGES
-----------------------
   0 C :    0.861617
   1 C :   -0.899969
   2 C :   -0.899969
   3 C :   -0.899969
   4 C :   -0.899969
   5 H :    0.342283
   6 H :    0.342282
   7 H :    0.342283
   8 H :    0.342282
   9 H :    0.342282
  10 H :    0.342283
  11 H :    0.342282
  12 H :    0.342283
Sum of atomic charges:   -0.0000000

LOEWDIN ATOMIC CHARGES
----------------------
   0 C :   -0.297798
   1 C :    0.394441
   2 C :    0.394441
   3 C :    0.394441
   4 C :    0.394441
   5 H :   -0.159996
   6 H :   -0.159996
   7 H :   -0.159996
   8 H :   -0.159996
   9 H :   -0.159996
  10 H :   -0.159996
  11 H :   -0.159996
  12 H :   -0.159996

  Mayer bond orders larger than 0.100000
B(  0-C ,  1-C ) :   0.3895 B(  0-C ,  2-C ) :   0.3895 B(  0-C ,  3-C ) :   0.3895
B(  0-C ,  4-C ) :   0.3895 B(  1-C ,  2-C ) :   1.2831 B(  1-C ,  5-H ) :   0.8873
B(  1-C ,  6-H ) :   0.8873 B(  2-C ,  7-H ) :   0.8873 B(  2-C ,  8-H ) :   0.8873
B(  3-C ,  4-C ) :   1.2831 B(  3-C ,  9-H ) :   0.8873 B(  3-C , 10-H ) :   0.8873
B(  4-C , 11-H ) :   0.8873 B(  4-C , 12-H ) :   0.8873

MP2 TOTAL ENERGY:     -194.834732843 Eh
FINAL SINGLE POINT ENERGY      -194.834732842719

DIPOLE MOMENT
-------------
                                X             Y             Z
Electronic contribution:     -0.00000      -0.00000      -0.00000
Nuclear contribution   :      0.00000       0.00000       0.00000
                        -----------------------------------------
Total Dipole Moment    :     -0.00000      -0.00000      -0.00000
                        -----------------------------------------
Magnitude (a.u.)       :      0.00000
Magnitude (Debye)      :      0.00000

Rotational constants in cm-1:     0.354427     0.139656     0.139656
Rotational constants in MHz : 10625.465361  4186.775882  4186.775882

                             ****ORCA TERMINATED NORMALLY****
TOTAL RUN TIME: 0 days 0 hours 2 minutes 17 seconds 575 msec
