                         Program Version 5.0.3 -  RELEASE  -
|  1> !ri-mp2 aug-cc-pvtz aug-cc-pvtz/c tightscf
|  2> %pal nprocs 16 end
|  3>
|  4> * xyz 0 1
|  5> S     -1.708055   -0.944543    0.238777
|  6> O      2.543314    1.082665   -0.736842
|  7> O      3.099840   -0.995616   -0.091408
|  8> O     -3.637533    0.704920   -0.308545
|  9> N      0.648212    1.175180    1.198357
| 10> N     -2.500457    0.538811   -0.543859
| 11> C      0.958154   -0.108039    0.596436
| 12> C     -0.057481   -0.638317   -0.450388
| 13> C      2.322002   -0.078776   -0.081186
| 14> H      1.047909   -0.847293    1.390980
| 15> H      0.293305   -1.573053   -0.885849
| 16> H     -0.196720    0.090629   -1.251576
| 17> H     -0.227541    1.132950    1.703394
| 18> H      0.584033    1.910377    0.505497
| 19> H      3.412596    1.016178   -1.159186
| 20> *
| 21>
| 22>                          ****END OF INPUT****

CARTESIAN COORDINATES (ANGSTROEM)
---------------------------------
  S     -1.708055   -0.944543    0.238777
  O      2.543314    1.082665   -0.736842
  O      3.099840   -0.995616   -0.091408
  O     -3.637533    0.704920   -0.308545
  N      0.648212    1.175180    1.198357
  N     -2.500457    0.538811   -0.543859
  C      0.958154   -0.108039    0.596436
  C     -0.057481   -0.638317   -0.450388
  C      2.322002   -0.078776   -0.081186
  H      1.047909   -0.847293    1.390980
  H      0.293305   -1.573053   -0.885849
  H     -0.196720    0.090629   -1.251576
  H     -0.227541    1.132950    1.703394
  H      0.584033    1.910377    0.505497
  H      3.412596    1.016178   -1.159186

 Total Charge           Charge          ....    0
 Multiplicity           Mult            ....    1
 Number of Electrons    NEL             ....   78
 Basis Dimension        Dim             ....  556

ORBITAL ENERGIES
----------------

  NO   OCC          E(Eh)            E(eV)
   0   2.0000     -92.004817     -2503.5783
   1   2.0000     -20.672563      -562.5290
   2   2.0000     -20.628216      -561.3223
   3   2.0000     -20.564999      -559.6021
   4   2.0000     -15.765082      -428.9897
   5   2.0000     -15.565042      -423.5463
   6   2.0000     -11.400221      -310.2158
   7   2.0000     -11.302149      -307.5471
   8   2.0000     -11.291329      -307.2527
   9   2.0000      -9.003718      -245.0036
  10   2.0000      -6.684263      -181.8881
  11   2.0000      -6.683461      -181.8662
  12   2.0000      -6.682473      -181.8393
  13   2.0000      -1.581043       -43.0224
  14   2.0000      -1.481292       -40.3080
  15   2.0000      -1.378645       -37.5148
  16   2.0000      -1.220051       -33.1993
  17   2.0000      -1.100255       -29.9395
  18   2.0000      -1.018052       -27.7026
  19   2.0000      -0.935817       -25.4649
  20   2.0000      -0.854080       -23.2407
  21   2.0000      -0.825308       -22.4578
  22   2.0000      -0.730292       -19.8723
  23   2.0000      -0.713749       -19.4221
  24   2.0000      -0.707031       -19.2393
  25   2.0000      -0.700287       -19.0558
  26   2.0000      -0.668263       -18.1844
  27   2.0000      -0.657201       -17.8833
  28   2.0000      -0.647248       -17.6125
  29   2.0000      -0.625365       -17.0170
  30   2.0000      -0.609676       -16.5901
  31   2.0000      -0.589363       -16.0374
  32   2.0000      -0.550702       -14.9854
  33   2.0000      -0.509907       -13.8753
  34   2.0000      -0.498213       -13.5571
  35   2.0000      -0.466033       -12.6814
  36   2.0000      -0.421487       -11.4693
  37   2.0000      -0.394715       -10.7407
  38   2.0000      -0.389891       -10.6095
  39   0.0000       0.026451         0.7198
  40   0.0000       0.036990         1.0065
  41   0.0000       0.038619         1.0509
  42   0.0000       0.042036         1.1439
  43   0.0000       0.054396         1.4802

MULLIKEN ATOMIC CHARGES
-----------------------
   0 S :   -0.122170
   1 O :   -0.446660
   2 O :   -0.837958
   3 O :   -0.434310
   4 N :   -0.735689
   5 N :    0.179169
   6 C :    0.818754
   7 C :   -0.357176
   8 C :    0.476431
   9 H :    0.401998
  10 H :    0.304627
  11 H :    0.299961
  12 H :    0.133788
  13 H :    0.089118
  14 H :    0.230117
Sum of atomic charges:   -0.0000000

LOEWDIN ATOMIC CHARGES
----------------------
   0 S :    1.005738
   1 O :    0.842587
   2 O :    0.461268
   3 O :    0.153555
   4 N :    0.836911
   5 N :   -0.396625
   6 C :   -0.231539
   7 C :   -0.103893
   8 C :   -0.789914
   9 H :   -0.168749
  10 H :   -0.229668
  11 H :   -0.245535
  12 H :   -0.340423
  13 H :   -0.333200
  14 H :   -0.460512

  Mayer bond orders larger than 0.100000
B(  0-S ,  3-O ) :   0.1113 B(  0-S ,  5-N ) :   1.1315 B(  0-S ,  7-C ) :   0.8961
B(  1-O ,  6-C ) :  -0.1258 B(  1-O ,  8-C ) :   0.9664 B(  1-O , 14-H ) :   0.9321
B(  2-O ,  8-C ) :   1.3660 B(  3-O ,  5-N ) :   1.4506 B(  4-N ,  6-C ) :   0.4052
B(  4-N ,  8-C ) :   0.2047 B(  4-N , 12-H ) :   0.9697 B(  4-N , 13-H ) :   1.0108
B(  5-N ,  7-C ) :  -0.2139 B(  6-C ,  7-C ) :   0.8552 B(  6-C ,  8-C ) :   0.4616
B(  6-C ,  9-H ) :   0.8908 B(  7-C ,  8-C ) :   0.1447 B(  7-C , 10-H ) :   0.9049
B(  7-C , 11-H ) :   0.9385

MP2 TOTAL ENERGY:     -850.040512466 Eh
FINAL SINGLE POINT ENERGY      -850.040512465818

DIPOLE MOMENT
-------------
                                X             Y             Z
Electronic contribution:     -4.80852      -1.40525      -0.74324
Nuclear contribution   :      4.86539       1.73803       0.27494
                        -----------------------------------------
Total Dipole Moment    :      0.05688       0.33278      -0.46830
                        -----------------------------------------
Magnitude (a.u.)       :      0.57731
Magnitude (Debye)      :      1.46740

Rotational constants in cm-1:     0.104735     0.021152     0.019742
Rotational constants in MHz :  3139.889000   634.124971   591.840875

                             ****ORCA TERMINATED NORMALLY****
TOTAL RUN TIME: 0 days 0 hours 7 minutes 53 seconds 729 msec
