                         Program Version 5.0.3 -  RELEASE  -
|  1> !ri-mp2 aug-cc-pvtz aug-cc-pvtz/c tightscf
|  2> %pal nprocs 16 end
|  3>
|  4> * xyz 0 1
|  5> C    -0.780890     0.782120    0.714182
|  6> C     0.780890     0.782120    0.714182
|  7> C     0.780890    -0.782120    0.714182
|  8> C    -0.780890    -0.782120    0.714182
|  9> C    -1.552994     0.779426   -0.630946
| 10> C    -1.552994    -0.779426   -0.630946
| 11> H    -1.230266     1.359101    1.520382
| 12> H    -1.230266    -1.359101    1.520382
| 13> H    -1.058422     1.259186   -1.474246
| 14> H    -2.550804     1.207825   -0.545553
| 15> H    -2.550804    -1.207825   -0.545553
| 16> H    -1.058422    -1.259186   -1.474246
| 17> C     1.552994    -0.779426   -0.630946
| 18> C     1.552994     0.779426   -0.630946
| 19> H     1.230266     1.359101    1.520382
| 20> H     1.230266    -1.359101    1.520382
| 21> H     2.550804    -1.207825   -0.545553
| 22> H     1.058422    -1.259186   -1.474246
| 23> H     2.550804     1.207825   -0.545553
| 24> H     1.058422     1.259186   -1.474246
| 25> *
| 26>
| 27>                          ****END OF INPUT****

CARTESIAN COORDINATES (ANGSTROEM)
---------------------------------
  C     -0.780890    0.782120    0.714182
  C      0.780890    0.782120    0.714182
  C      0.780890   -0.782120    0.714182
  C     -0.780890   -0.782120    0.714182
  C     -1.552994    0.779426   -0.630946
  C     -1.552994   -0.779426   -0.630946
  H     -1.230266    1.359101    1.520382
  H     -1.230266   -1.359101    1.520382
  H     -1.058422    1.259186   -1.474246
  H     -2.550804    1.207825   -0.545553
  H     -2.550804   -1.207825   -0.545553
  H     -1.058422   -1.259186   -1.474246
  C      1.552994   -0.779426   -0.630946
  C      1.552994    0.779426   -0.630946
  H      1.230266    1.359101    1.520382
  H      1.230266   -1.359101    1.520382
  H      2.550804   -1.207825   -0.545553
  H      1.058422   -1.259186   -1.474246
  H      2.550804    1.207825   -0.545553
  H      1.058422    1.259186   -1.474246

 Total Charge           Charge          ....    0
 Multiplicity           Mult            ....    1
 Number of Electrons    NEL             ....   60
 Basis Dimension        Dim             ....  644

ORBITAL ENERGIES
----------------

  NO   OCC          E(Eh)            E(eV)
   0   2.0000     -11.217160      -305.2344
   1   2.0000     -11.216653      -305.2206
   2   2.0000     -11.216644      -305.2204
   3   2.0000     -11.216128      -305.2064
   4   2.0000     -11.213690      -305.1400
   5   2.0000     -11.213688      -305.1400
   6   2.0000     -11.213160      -305.1256
   7   2.0000     -11.213160      -305.1256
   8   2.0000      -1.170955       -31.8633
   9   2.0000      -1.069713       -29.1084
  10   2.0000      -0.947845       -25.7922
  11   2.0000      -0.926912       -25.2226
  12   2.0000      -0.853259       -23.2184
  13   2.0000      -0.809569       -22.0295
  14   2.0000      -0.766470       -20.8567
  15   2.0000      -0.687125       -18.6976
  16   2.0000      -0.660185       -17.9645
  17   2.0000      -0.645179       -17.5562
  18   2.0000      -0.609612       -16.5884
  19   2.0000      -0.568303       -15.4643
  20   2.0000      -0.564802       -15.3690
  21   2.0000      -0.546935       -14.8829
  22   2.0000      -0.504705       -13.7337
  23   2.0000      -0.474392       -12.9089
  24   2.0000      -0.472611       -12.8604
  25   2.0000      -0.449956       -12.2439
  26   2.0000      -0.421282       -11.4637
  27   2.0000      -0.405987       -11.0475
  28   2.0000      -0.397192       -10.8082
  29   2.0000      -0.368313       -10.0223
  30   0.0000       0.029279         0.7967
  31   0.0000       0.033792         0.9195
  32   0.0000       0.035461         0.9650
  33   0.0000       0.037973         1.0333
  34   0.0000       0.046754         1.2722

MULLIKEN ATOMIC CHARGES
-----------------------
   0 C :   -0.402835
   1 C :   -0.402835
   2 C :   -0.402833
   3 C :   -0.402833
   4 C :   -0.679298
   5 C :   -0.679298
   6 H :    0.500029
   7 H :    0.500027
   8 H :    0.309585
   9 H :    0.272520
  10 H :    0.272518
  11 H :    0.309586
  12 C :   -0.679298
  13 C :   -0.679298
  14 H :    0.500029
  15 H :    0.500027
  16 H :    0.272518
  17 H :    0.309586
  18 H :    0.272520
  19 H :    0.309585
Sum of atomic charges:   -0.0000000

LOEWDIN ATOMIC CHARGES
----------------------
   0 C :    0.101308
   1 C :    0.101308
   2 C :    0.101308
   3 C :    0.101308
   4 C :    0.355358
   5 C :    0.355358
   6 H :   -0.132721
   7 H :   -0.132721
   8 H :   -0.171367
   9 H :   -0.152578
  10 H :   -0.152578
  11 H :   -0.171367
  12 C :    0.355358
  13 C :    0.355358
  14 H :   -0.132721
  15 H :   -0.132721
  16 H :   -0.152578
  17 H :   -0.171367
  18 H :   -0.152578
  19 H :   -0.171367

  Mayer bond orders larger than 0.100000
B(  0-C ,  1-C ) :   0.9927 B(  0-C ,  3-C ) :   1.0308 B(  0-C ,  4-C ) :   0.9807
B(  0-C ,  6-H ) :   0.5713 B(  1-C ,  2-C ) :   1.0308 B(  1-C , 13-C ) :   0.9807
B(  1-C , 14-H ) :   0.5713 B(  2-C ,  3-C ) :   0.9927 B(  2-C , 12-C ) :   0.9807
B(  2-C , 15-H ) :   0.5713 B(  3-C ,  5-C ) :   0.9807 B(  3-C ,  7-H ) :   0.5713
B(  4-C ,  5-C ) :   1.0255 B(  4-C ,  8-H ) :   0.9524 B(  4-C ,  9-H ) :   0.9248
B(  5-C , 10-H ) :   0.9248 B(  5-C , 11-H ) :   0.9524 B( 12-C , 13-C ) :   1.0255
B( 12-C , 16-H ) :   0.9248 B( 12-C , 17-H ) :   0.9524 B( 13-C , 18-H ) :   0.9248
B( 13-C , 19-H ) :   0.9524

MP2 TOTAL ENERGY:     -311.288576135 Eh
FINAL SINGLE POINT ENERGY      -311.288576134661

DIPOLE MOMENT
-------------
                                X             Y             Z
Electronic contribution:     -0.00000       0.00000       2.14236
Nuclear contribution   :     -0.00000       0.00000      -2.08077
                        -----------------------------------------
Total Dipole Moment    :     -0.00000       0.00000       0.06159
                        -----------------------------------------
Magnitude (a.u.)       :      0.06159
Magnitude (Debye)      :      0.15656

Rotational constants in cm-1:     0.119408     0.068835     0.064757
Rotational constants in MHz :  3579.762258  2063.607387  1941.365406

                             ****ORCA TERMINATED NORMALLY****
TOTAL RUN TIME: 0 days 0 hours 10 minutes 14 seconds 422 msec
