                         Program Version 5.0.3 -  RELEASE  -
|  1> !ri-mp2 aug-cc-pvtz aug-cc-pvtz/c tightscf
|  2> %pal nprocs 16 end
|  3>
|  4> * xyz 0 1
|  5> C     -1.392165    1.170066    0.000000
|  6> C     -1.428012    2.519619    0.000000
|  7> C      0.691129    1.983502    0.000000
|  8> C      0.000000    0.807541    0.000000
|  9> C      0.635993   -0.516796    0.000000
| 10> C      0.661715   -3.268787    0.000000
| 11> O      1.835393   -0.684653    0.000000
| 12> O     -0.157808    3.030443    0.000000
| 13> S     -0.521930   -1.891204    0.000000
| 14> H     -2.241204    0.509673    0.000000
| 15> H     -2.223626    3.241441    0.000000
| 16> H      1.742596    2.204050    0.000000
| 17> H      1.285248   -3.226145    0.888112
| 18> H      1.285248   -3.226145   -0.888112
| 19> H      0.069983   -4.180792    0.000000
| 20> *
| 21>
| 22>                          ****END OF INPUT****

CARTESIAN COORDINATES (ANGSTROEM)
---------------------------------
  C     -1.392165    1.170066    0.000000
  C     -1.428012    2.519619    0.000000
  C      0.691129    1.983502    0.000000
  C      0.000000    0.807541    0.000000
  C      0.635993   -0.516796    0.000000
  C      0.661715   -3.268787    0.000000
  O      1.835393   -0.684653    0.000000
  O     -0.157808    3.030443    0.000000
  S     -0.521930   -1.891204    0.000000
  H     -2.241204    0.509673    0.000000
  H     -2.223626    3.241441    0.000000
  H      1.742596    2.204050    0.000000
  H      1.285248   -3.226145    0.888112
  H      1.285248   -3.226145   -0.888112
  H      0.069983   -4.180792    0.000000

 Total Charge           Charge          ....    0
 Multiplicity           Mult            ....    1
 Number of Electrons    NEL             ....   74
 Basis Dimension        Dim             ....  556

ORBITAL ENERGIES
----------------

  NO   OCC          E(Eh)            E(eV)
   0   2.0000     -91.972839     -2502.7082
   1   2.0000     -20.647485      -561.8466
   2   2.0000     -20.554278      -559.3103
   3   2.0000     -11.370010      -309.3937
   4   2.0000     -11.319976      -308.0322
   5   2.0000     -11.303707      -307.5895
   6   2.0000     -11.260429      -306.4119
   7   2.0000     -11.253194      -306.2150
   8   2.0000     -11.250218      -306.1340
   9   2.0000      -8.973877      -244.1916
  10   2.0000      -6.655059      -181.0934
  11   2.0000      -6.653994      -181.0644
  12   2.0000      -6.653331      -181.0463
  13   2.0000      -1.483379       -40.3648
  14   2.0000      -1.401104       -38.1260
  15   2.0000      -1.120268       -30.4840
  16   2.0000      -1.058232       -28.7959
  17   2.0000      -1.032258       -28.0892
  18   2.0000      -0.931547       -25.3487
  19   2.0000      -0.850781       -23.1509
  20   2.0000      -0.804410       -21.8891
  21   2.0000      -0.776612       -21.1327
  22   2.0000      -0.706890       -19.2355
  23   2.0000      -0.657297       -17.8860
  24   2.0000      -0.644581       -17.5399
  25   2.0000      -0.639392       -17.3988
  26   2.0000      -0.619317       -16.8525
  27   2.0000      -0.602677       -16.3997
  28   2.0000      -0.591032       -16.0828
  29   2.0000      -0.574051       -15.6207
  30   2.0000      -0.555929       -15.1276
  31   2.0000      -0.541808       -14.7433
  32   2.0000      -0.486360       -13.2345
  33   2.0000      -0.418272       -11.3818
  34   2.0000      -0.414232       -11.2718
  35   2.0000      -0.370186       -10.0733
  36   2.0000      -0.339324        -9.2335
  37   0.0000       0.027570         0.7502
  38   0.0000       0.030528         0.8307
  39   0.0000       0.038163         1.0385
  40   0.0000       0.046497         1.2653
  41   0.0000       0.049371         1.3435

MULLIKEN ATOMIC CHARGES
-----------------------
   0 C :   -0.604519
   1 C :   -0.546309
   2 C :   -0.854863
   3 C :    1.118515
   4 C :    0.619814
   5 C :   -0.874205
   6 O :   -0.949424
   7 O :   -0.429693
   8 S :   -0.166995
   9 H :    0.433274
  10 H :    0.728041
  11 H :    0.661624
  12 H :    0.294644
  13 H :    0.294644
  14 H :    0.275453
Sum of atomic charges:   -0.0000000

LOEWDIN ATOMIC CHARGES
----------------------
   0 C :    0.151931
   1 C :   -0.006088
   2 C :   -0.002098
   3 C :   -0.268152
   4 C :   -0.943485
   5 C :    0.227604
   6 O :    0.389561
   7 O :    0.571129
   8 S :    1.185142
   9 H :   -0.203917
  10 H :   -0.189885
  11 H :   -0.165407
  12 H :   -0.244200
  13 H :   -0.244200
  14 H :   -0.257935

  Mayer bond orders larger than 0.100000
B(  0-C ,  1-C ) :   1.3590 B(  0-C ,  3-C ) :   0.7722 B(  0-C ,  9-H ) :   1.0222
B(  1-C ,  2-C ) :   0.1030 B(  1-C ,  3-C ) :  -0.2023 B(  1-C ,  4-C ) :   0.1003
B(  1-C ,  7-O ) :   1.0408 B(  1-C , 10-H ) :   0.4018 B(  2-C ,  3-C ) :   0.6025
B(  2-C ,  4-C ) :   0.1521 B(  2-C ,  7-O ) :   1.0365 B(  2-C , 11-H ) :   0.5352
B(  3-C ,  4-C ) :   0.6707 B(  3-C ,  6-O ) :  -0.1369 B(  3-C ,  7-O ) :  -0.1014
B(  4-C ,  5-C ) :  -0.1041 B(  4-C ,  6-O ) :   1.3193 B(  4-C ,  8-S ) :   0.9514
B(  5-C ,  8-S ) :   0.9474 B(  5-C , 12-H ) :   0.9238 B(  5-C , 13-H ) :   0.9238
B(  5-C , 14-H ) :   0.9614 B(  6-O ,  8-S ) :   0.1128

MP2 TOTAL ENERGY:     -779.709257941 Eh
FINAL SINGLE POINT ENERGY      -779.709257940971

DIPOLE MOMENT
-------------
                                X             Y             Z
Electronic contribution:     -0.63416       4.44607      -0.00000
Nuclear contribution   :     -0.03832      -4.47961       0.00000
                        -----------------------------------------
Total Dipole Moment    :     -0.67248      -0.03354      -0.00000
                        -----------------------------------------
Magnitude (a.u.)       :      0.67332
Magnitude (Debye)      :      1.71144

Rotational constants in cm-1:     0.130401     0.027206     0.022606
Rotational constants in MHz :  3909.312514   815.615862   677.702322

                             ****ORCA TERMINATED NORMALLY****
TOTAL RUN TIME: 0 days 0 hours 6 minutes 49 seconds 300 msec
