                         Program Version 5.0.3 -  RELEASE  -
|  1> !ri-mp2 aug-cc-pvtz aug-cc-pvtz/c tightscf
|  2> %pal nprocs 16 end
|  3>
|  4> * xyz 0 1
|  5> S      2.048400   -0.290055   -0.000004
|  6> O      0.344735   -0.570900    0.000028
|  7> O      0.114295    1.662368   -0.000031
|  8> O     -2.201166   -1.044702   -0.000050
|  9> C     -0.370001    0.558920    0.000004
| 10> C     -1.869456    0.327817    0.000042
| 11> H      2.266181   -1.618423    0.000025
| 12> H     -3.158635   -1.130729    0.000000
| 13> H     -2.254090    0.847812   -0.883395
| 14> H     -2.254023    0.847674    0.883591
| 15> *
| 16>
| 17>                          ****END OF INPUT****

CARTESIAN COORDINATES (ANGSTROEM)
---------------------------------
  S      2.048400   -0.290055   -0.000004
  O      0.344735   -0.570900    0.000028
  O      0.114295    1.662368   -0.000031
  O     -2.201166   -1.044702   -0.000050
  C     -0.370001    0.558920    0.000004
  C     -1.869456    0.327817    0.000042
  H      2.266181   -1.618423    0.000025
  H     -3.158635   -1.130729    0.000000
  H     -2.254090    0.847812   -0.883395
  H     -2.254023    0.847674    0.883591

 Total Charge           Charge          ....    0
 Multiplicity           Mult            ....    1
 Number of Electrons    NEL             ....   56
 Basis Dimension        Dim             ....  372

ORBITAL ENERGIES
----------------

  NO   OCC          E(Eh)            E(eV)
   0   2.0000     -92.026029     -2504.1556
   1   2.0000     -20.635415      -561.5182
   2   2.0000     -20.584851      -560.1423
   3   2.0000     -20.557321      -559.3931
   4   2.0000     -11.396740      -310.1211
   5   2.0000     -11.314557      -307.8848
   6   2.0000      -9.020944      -245.4724
   7   2.0000      -6.701841      -182.3664
   8   2.0000      -6.700473      -182.3291
   9   2.0000      -6.698851      -182.2850
  10   2.0000      -1.477344       -40.2006
  11   2.0000      -1.388072       -37.7714
  12   2.0000      -1.371455       -37.3192
  13   2.0000      -1.027450       -27.9583
  14   2.0000      -0.962450       -26.1896
  15   2.0000      -0.780090       -21.2273
  16   2.0000      -0.731816       -19.9137
  17   2.0000      -0.710531       -19.3345
  18   2.0000      -0.689735       -18.7686
  19   2.0000      -0.666416       -18.1341
  20   2.0000      -0.626632       -17.0515
  21   2.0000      -0.595814       -16.2129
  22   2.0000      -0.547611       -14.9012
  23   2.0000      -0.514535       -14.0012
  24   2.0000      -0.504759       -13.7352
  25   2.0000      -0.469336       -12.7713
  26   2.0000      -0.463054       -12.6004
  27   2.0000      -0.380398       -10.3512
  28   0.0000       0.023584         0.6418
  29   0.0000       0.035732         0.9723
  30   0.0000       0.044886         1.2214
  31   0.0000       0.045671         1.2428
  32   0.0000       0.063088         1.7167

MULLIKEN ATOMIC CHARGES
-----------------------
   0 S :    0.090765
   1 O :   -0.369185
   2 O :   -0.697371
   3 O :   -0.513738
   4 C :    0.438472
   5 C :    0.140968
   6 H :    0.159139
   7 H :    0.154649
   8 H :    0.298151
   9 H :    0.298150
Sum of atomic charges:    0.0000000

LOEWDIN ATOMIC CHARGES
----------------------
   0 S :    1.058351
   1 O :    0.151697
   2 O :    0.405467
   3 O :    0.801008
   4 C :   -1.003405
   5 C :    0.012929
   6 H :   -0.605589
   7 H :   -0.487706
   8 H :   -0.166378
   9 H :   -0.166375

  Mayer bond orders larger than 0.100000
B(  0-S ,  1-O ) :   0.7860 B(  0-S ,  6-H ) :   1.0382 B(  1-O ,  4-C ) :   1.0388
B(  2-O ,  4-C ) :   1.5789 B(  3-O ,  5-C ) :   0.8185 B(  3-O ,  7-H ) :   1.0094
B(  4-C ,  5-C ) :   0.5405 B(  5-C ,  8-H ) :   0.9425 B(  5-C ,  9-H ) :   0.9425

MP2 TOTAL ENERGY:     -701.515998740 Eh
FINAL SINGLE POINT ENERGY      -701.515998739743

DIPOLE MOMENT
-------------
                                X             Y             Z
Electronic contribution:      4.49329       0.40181      -0.00011
Nuclear contribution   :     -5.34196      -1.01560       0.00021
                        -----------------------------------------
Total Dipole Moment    :     -0.84868      -0.61378       0.00010
                        -----------------------------------------
Magnitude (a.u.)       :      1.04737
Magnitude (Debye)      :      2.66220

Rotational constants in cm-1:     0.206843     0.059229     0.046444
Rotational constants in MHz :  6201.006412  1775.655468  1392.352316

                             ****ORCA TERMINATED NORMALLY****
TOTAL RUN TIME: 0 days 0 hours 1 minutes 50 seconds 301 msec
