                         Program Version 5.0.3 -  RELEASE  -
|  1> !ri-mp2 aug-cc-pvtz aug-cc-pvtz/c tightscf
|  2> %pal nprocs 16 end
|  3>
|  4> * xyz 0 1
|  5> C     0.000000    0.000000    0.000000
|  6> C     0.000000    1.177445    0.958848
|  7> C     0.000000   -1.177445    0.958848
|  8> C     1.177445    0.000000   -0.958848
|  9> C    -1.177445    0.000000   -0.958848
| 10> C     0.000000    0.734608    2.223211
| 11> C     0.000000   -0.734608    2.223211
| 12> C     0.734608    0.000000   -2.223211
| 13> C    -0.734608    0.000000   -2.223211
| 14> H     0.000000    2.201549    0.620322
| 15> H     0.000000   -2.201549    0.620322
| 16> H     2.201549    0.000000   -0.620322
| 17> H    -2.201549    0.000000   -0.620322
| 18> H     0.000000    1.348828    3.111832
| 19> H     0.000000   -1.348828    3.111832
| 20> H     1.348828    0.000000   -3.111832
| 21> H    -1.348828    0.000000   -3.111832
| 22> *
| 23>
| 24>                          ****END OF INPUT****

CARTESIAN COORDINATES (ANGSTROEM)
---------------------------------
  C      0.000000    0.000000    0.000000
  C      0.000000    1.177445    0.958848
  C      0.000000   -1.177445    0.958848
  C      1.177445    0.000000   -0.958848
  C     -1.177445    0.000000   -0.958848
  C      0.000000    0.734608    2.223211
  C      0.000000   -0.734608    2.223211
  C      0.734608    0.000000   -2.223211
  C     -0.734608    0.000000   -2.223211
  H      0.000000    2.201549    0.620322
  H      0.000000   -2.201549    0.620322
  H      2.201549    0.000000   -0.620322
  H     -2.201549    0.000000   -0.620322
  H      0.000000    1.348828    3.111832
  H      0.000000   -1.348828    3.111832
  H      1.348828    0.000000   -3.111832
  H     -1.348828    0.000000   -3.111832

 Total Charge           Charge          ....    0
 Multiplicity           Mult            ....    1
 Number of Electrons    NEL             ....   62
 Basis Dimension        Dim             ....  598

ORBITAL ENERGIES
----------------

  NO   OCC          E(Eh)            E(eV)
   0   2.0000     -11.247198      -306.0518
   1   2.0000     -11.231900      -305.6355
   2   2.0000     -11.231885      -305.6351
   3   2.0000     -11.231566      -305.6265
   4   2.0000     -11.231566      -305.6265
   5   2.0000     -11.230225      -305.5900
   6   2.0000     -11.230207      -305.5895
   7   2.0000     -11.229779      -305.5778
   8   2.0000     -11.229779      -305.5778
   9   2.0000      -1.183697       -32.2100
  10   2.0000      -1.119036       -30.4505
  11   2.0000      -0.970528       -26.4094
  12   2.0000      -0.970528       -26.4094
  13   2.0000      -0.957163       -26.0457
  14   2.0000      -0.808841       -22.0097
  15   2.0000      -0.736981       -20.0543
  16   2.0000      -0.736981       -20.0543
  17   2.0000      -0.727504       -19.7964
  18   2.0000      -0.706062       -19.2129
  19   2.0000      -0.661007       -17.9869
  20   2.0000      -0.567949       -15.4547
  21   2.0000      -0.567949       -15.4547
  22   2.0000      -0.533696       -14.5226
  23   2.0000      -0.533696       -14.5226
  24   2.0000      -0.532713       -14.4959
  25   2.0000      -0.521951       -14.2030
  26   2.0000      -0.486196       -13.2301
  27   2.0000      -0.418729       -11.3942
  28   2.0000      -0.418729       -11.3942
  29   2.0000      -0.341342        -9.2884
  30   2.0000      -0.287780        -7.8309
  31   0.0000       0.029812         0.8112
  32   0.0000       0.031642         0.8610
  33   0.0000       0.037993         1.0338
  34   0.0000       0.037993         1.0338
  35   0.0000       0.045775         1.2456

MULLIKEN ATOMIC CHARGES
-----------------------
   0 C :    2.240676
   1 C :   -0.854654
   2 C :   -0.854655
   3 C :   -0.854654
   4 C :   -0.854653
   5 C :   -0.763405
   6 C :   -0.763404
   7 C :   -0.763395
   8 C :   -0.763396
   9 H :    0.455695
  10 H :    0.455696
  11 H :    0.455694
  12 H :    0.455694
  13 H :    0.602194
  14 H :    0.602194
  15 H :    0.602187
  16 H :    0.602187
Sum of atomic charges:    0.0000000

LOEWDIN ATOMIC CHARGES
----------------------
   0 C :   -0.422562
   1 C :    0.239773
   2 C :    0.239773
   3 C :    0.239773
   4 C :    0.239773
   5 C :    0.214848
   6 C :    0.214848
   7 C :    0.214848
   8 C :    0.214848
   9 H :   -0.163698
  10 H :   -0.163698
  11 H :   -0.163698
  12 H :   -0.163698
  13 H :   -0.185283
  14 H :   -0.185283
  15 H :   -0.185283
  16 H :   -0.185283

  Mayer bond orders larger than 0.100000
B(  0-C ,  1-C ) :   0.3674 B(  0-C ,  2-C ) :   0.3674 B(  0-C ,  3-C ) :   0.3674
B(  0-C ,  4-C ) :   0.3674 B(  0-C ,  5-C ) :  -0.2095 B(  0-C ,  6-C ) :  -0.2095
B(  0-C ,  7-C ) :  -0.2095 B(  0-C ,  8-C ) :  -0.2095 B(  1-C ,  2-C ) :   0.2633
B(  1-C ,  5-C ) :   1.9143 B(  1-C ,  9-H ) :   0.8485 B(  2-C ,  6-C ) :   1.9143
B(  2-C , 10-H ) :   0.8485 B(  3-C ,  4-C ) :   0.2633 B(  3-C ,  7-C ) :   1.9143
B(  3-C , 11-H ) :   0.8485 B(  4-C ,  8-C ) :   1.9143 B(  4-C , 12-H ) :   0.8485
B(  5-C ,  6-C ) :   1.0127 B(  5-C , 13-H ) :   0.6358 B(  6-C , 14-H ) :   0.6358
B(  7-C ,  8-C ) :   1.0127 B(  7-C , 15-H ) :   0.6358 B(  8-C , 16-H ) :   0.6358

MP2 TOTAL ENERGY:     -346.946294521 Eh
FINAL SINGLE POINT ENERGY      -346.946294521255

DIPOLE MOMENT
-------------
                                X             Y             Z
Electronic contribution:      0.00000      -0.00000       0.00000
Nuclear contribution   :      0.00000       0.00000       0.00000
                        -----------------------------------------
Total Dipole Moment    :      0.00000      -0.00000       0.00000
                        -----------------------------------------
Magnitude (a.u.)       :      0.00000
Magnitude (Debye)      :      0.00000

Rotational constants in cm-1:     0.141172     0.044137     0.044137
Rotational constants in MHz :  4232.236700  1323.197753  1323.197753

                             ****ORCA TERMINATED NORMALLY****
TOTAL RUN TIME: 0 days 0 hours 8 minutes 26 seconds 435 msec
