                         Program Version 5.0.3 -  RELEASE  -
|  1> !ri-mp2 aug-cc-pvtz aug-cc-pvtz/c tightscf
|  2> %pal nprocs 16 end
|  3>
|  4> * xyz 0 1
|  5> C     -0.591523   -0.910088    0.000000
|  6> C      1.806424    0.511742    0.000000
|  7> O     -1.751511   -1.205927    0.000000
|  8> S      0.000000    0.769997    0.000000
|  9> H      0.228373   -1.652841    0.000000
| 10> H      2.021441   -0.556170    0.000000
| 11> H      2.236433    0.963278    0.889535
| 12> H      2.236433    0.963278   -0.889535
| 13> *
| 14>
| 15>                          ****END OF INPUT****

CARTESIAN COORDINATES (ANGSTROEM)
---------------------------------
  C     -0.591523   -0.910088    0.000000
  C      1.806424    0.511742    0.000000
  O     -1.751511   -1.205927    0.000000
  S      0.000000    0.769997    0.000000
  H      0.228373   -1.652841    0.000000
  H      2.021441   -0.556170    0.000000
  H      2.236433    0.963278    0.889535
  H      2.236433    0.963278   -0.889535

 Total Charge           Charge          ....    0
 Multiplicity           Mult            ....    1
 Number of Electrons    NEL             ....   40
 Basis Dimension        Dim             ....  280

ORBITAL ENERGIES
----------------

  NO   OCC          E(Eh)            E(eV)
   0   2.0000     -91.982635     -2502.9748
   1   2.0000     -20.571561      -559.7806
   2   2.0000     -11.370649      -309.4111
   3   2.0000     -11.279547      -306.9321
   4   2.0000      -8.983759      -244.4605
   5   2.0000      -6.664754      -181.3572
   6   2.0000      -6.663862      -181.3329
   7   2.0000      -6.663080      -181.3116
   8   2.0000      -1.415218       -38.5101
   9   2.0000      -1.077208       -29.3123
  10   2.0000      -0.928310       -25.2606
  11   2.0000      -0.803666       -21.8689
  12   2.0000      -0.676292       -18.4028
  13   2.0000      -0.642422       -17.4812
  14   2.0000      -0.616190       -16.7674
  15   2.0000      -0.585302       -15.9269
  16   2.0000      -0.560179       -15.2432
  17   2.0000      -0.490251       -13.3404
  18   2.0000      -0.421089       -11.4584
  19   2.0000      -0.378425       -10.2975
  20   0.0000       0.023472         0.6387
  21   0.0000       0.037763         1.0276
  22   0.0000       0.040869         1.1121
  23   0.0000       0.049790         1.3549
  24   0.0000       0.076914         2.0929

MULLIKEN ATOMIC CHARGES
-----------------------
   0 C :   -0.000849
   1 C :   -0.747237
   2 O :   -0.607380
   3 S :   -0.017238
   4 H :    0.519804
   5 H :    0.286571
   6 H :    0.283164
   7 H :    0.283164
Sum of atomic charges:   -0.0000000

LOEWDIN ATOMIC CHARGES
----------------------
   0 C :   -0.657469
   1 C :    0.228011
   2 O :    0.333851
   3 S :    1.145332
   4 H :   -0.278334
   5 H :   -0.267380
   6 H :   -0.252006
   7 H :   -0.252006

  Mayer bond orders larger than 0.100000
B(  0-C ,  2-O ) :   1.7418 B(  0-C ,  3-S ) :   1.1090 B(  0-C ,  4-H ) :   0.6356
B(  1-C ,  3-S ) :   0.9417 B(  1-C ,  5-H ) :   0.8952 B(  1-C ,  6-H ) :   0.9344
B(  1-C ,  7-H ) :   0.9344

MP2 TOTAL ENERGY:     -551.279031847 Eh
FINAL SINGLE POINT ENERGY      -551.279031847130

DIPOLE MOMENT
-------------
                                X             Y             Z
Electronic contribution:     -4.90679       0.41158       0.00000
Nuclear contribution   :      6.60798      -0.32099       0.00000
                        -----------------------------------------
Total Dipole Moment    :      1.70119       0.09058       0.00000
                        -----------------------------------------
Magnitude (a.u.)       :      1.70360
Magnitude (Debye)      :      4.33020

Rotational constants in cm-1:     0.649475     0.117320     0.101275
Rotational constants in MHz : 19470.782017  3517.168893  3036.138957

                             ****ORCA TERMINATED NORMALLY****
TOTAL RUN TIME: 0 days 0 hours 1 minutes 0 seconds 108 msec
