                         Program Version 5.0.3 -  RELEASE  -
|  1> !ri-mp2 aug-cc-pvtz aug-cc-pvtz/c tightscf
|  2> %pal nprocs 16 end
|  3>
|  4> * xyz 0 1
|  5> O     -2.357106   -0.826508    0.000023
|  6> C     -1.415289   -0.075802    0.000085
|  7> S      0.232683   -0.804196   -0.000140
|  8> H     -1.076024    1.860038    0.880271
|  9> H     -2.611239    1.674996    0.000488
| 10> H     -1.076214    1.860311   -0.879564
| 11> C     -1.552652    1.427474    0.000338
| 12> H      1.252246    1.209742   -0.884316
| 13> H      1.252388    1.209438    0.884567
| 14> C      1.422814    0.598820    0.000007
| 15> H      3.026676   -0.571696    0.882060
| 16> H      3.561268    0.860316   -0.000120
| 17> H      3.026534   -0.571397   -0.882700
| 18> C      2.841508    0.040750   -0.000202
| 19> *
| 20>
| 21>                          ****END OF INPUT****

CARTESIAN COORDINATES (ANGSTROEM)
---------------------------------
  O     -2.357106   -0.826508    0.000023
  C     -1.415289   -0.075802    0.000085
  S      0.232683   -0.804196   -0.000140
  H     -1.076024    1.860038    0.880271
  H     -2.611239    1.674996    0.000488
  H     -1.076214    1.860311   -0.879564
  C     -1.552652    1.427474    0.000338
  H      1.252246    1.209742   -0.884316
  H      1.252388    1.209438    0.884567
  C      1.422814    0.598820    0.000007
  H      3.026676   -0.571696    0.882060
  H      3.561268    0.860316   -0.000120
  H      3.026534   -0.571397   -0.882700
  C      2.841508    0.040750   -0.000202

 Total Charge           Charge          ....    0
 Multiplicity           Mult            ....    1
 Number of Electrons    NEL             ....   56
 Basis Dimension        Dim             ....  464

ORBITAL ENERGIES
----------------

  NO   OCC          E(Eh)            E(eV)
   0   2.0000     -91.967271     -2502.5567
   1   2.0000     -20.555193      -559.3352
   2   2.0000     -11.365159      -309.2617
   3   2.0000     -11.277258      -306.8698
   4   2.0000     -11.249853      -306.1241
   5   2.0000     -11.239149      -305.8328
   6   2.0000      -8.968242      -244.0383
   7   2.0000      -6.649248      -180.9352
   8   2.0000      -6.648266      -180.9085
   9   2.0000      -6.647474      -180.8870
  10   2.0000      -1.402889       -38.1745
  11   2.0000      -1.091927       -29.7128
  12   2.0000      -1.029341       -28.0098
  13   2.0000      -0.959245       -26.1024
  14   2.0000      -0.849552       -23.1175
  15   2.0000      -0.736888       -20.0518
  16   2.0000      -0.662879       -18.0379
  17   2.0000      -0.649774       -17.6813
  18   2.0000      -0.633899       -17.2493
  19   2.0000      -0.614007       -16.7080
  20   2.0000      -0.587180       -15.9780
  21   2.0000      -0.548923       -14.9369
  22   2.0000      -0.541794       -14.7430
  23   2.0000      -0.527015       -14.3408
  24   2.0000      -0.522845       -14.2273
  25   2.0000      -0.457657       -12.4535
  26   2.0000      -0.406437       -11.0597
  27   2.0000      -0.366786        -9.9808
  28   0.0000       0.022603         0.6150
  29   0.0000       0.031519         0.8577
  30   0.0000       0.036786         1.0010
  31   0.0000       0.042218         1.1488
  32   0.0000       0.052936         1.4405

MULLIKEN ATOMIC CHARGES
-----------------------
   0 O :   -0.752111
   1 C :    0.505196
   2 S :   -0.152404
   3 H :    0.306038
   4 H :    0.283070
   5 H :    0.306031
   6 C :   -0.724385
   7 H :    0.273878
   8 H :    0.273882
   9 C :   -0.295955
  10 H :    0.302535
  11 H :    0.288958
  12 H :    0.302537
  13 C :   -0.917272
Sum of atomic charges:   -0.0000000

LOEWDIN ATOMIC CHARGES
----------------------
   0 O :    0.360869
   1 C :   -0.929987
   2 S :    1.212006
   3 H :   -0.189893
   4 H :   -0.186269
   5 H :   -0.189888
   6 C :    0.510544
   7 H :   -0.226944
   8 H :   -0.226944
   9 C :   -0.087394
  10 H :   -0.184702
  11 H :   -0.174586
  12 H :   -0.184703
  13 C :    0.497890

  Mayer bond orders larger than 0.100000
B(  0-O ,  1-C ) :   1.4081 B(  1-C ,  2-S ) :   1.0438 B(  1-C ,  6-C ) :   0.8554
B(  2-S ,  9-C ) :   0.9258 B(  3-H ,  6-C ) :   0.9258 B(  4-H ,  6-C ) :   0.9311
B(  5-H ,  6-C ) :   0.9258 B(  7-H ,  9-C ) :   0.9325 B(  8-H ,  9-C ) :   0.9325
B(  9-C , 13-C ) :   0.8811 B( 10-H , 13-C ) :   0.9398 B( 11-H , 13-C ) :   0.9517
B( 12-H , 13-C ) :   0.9398

MP2 TOTAL ENERGY:     -629.740029257 Eh
FINAL SINGLE POINT ENERGY      -629.740029256608

DIPOLE MOMENT
-------------
                                X             Y             Z
Electronic contribution:     -6.19520      -6.09621      -0.00053
Nuclear contribution   :      7.38184       7.61632       0.00070
                        -----------------------------------------
Total Dipole Moment    :      1.18664       1.52011       0.00017
                        -----------------------------------------
Magnitude (a.u.)       :      1.92843
Magnitude (Debye)      :      4.90168

Rotational constants in cm-1:     0.214074     0.053881     0.044107
Rotational constants in MHz :  6417.783569  1615.313179  1322.292488

                             ****ORCA TERMINATED NORMALLY****
TOTAL RUN TIME: 0 days 0 hours 3 minutes 37 seconds 775 msec
