                         Program Version 5.0.3 -  RELEASE  -
|  1> !ri-mp2 aug-cc-pvtz aug-cc-pvtz/c tightscf
|  2> %pal nprocs 16 end
|  3>
|  4> * xyz 0 1
|  5> S     -1.717687   -0.094549    0.004331
|  6> O      2.473344   -0.005347   -0.104993
|  7> C     -0.032037    0.049767   -0.007089
|  8> C      1.170348    0.011478    0.003985
|  9> H     -2.024932    1.220216    0.023363
| 10> H      2.891302   -0.032124    0.765910
| 11> *
| 12>
| 13>                          ****END OF INPUT****

CARTESIAN COORDINATES (ANGSTROEM)
---------------------------------
  S     -1.717687   -0.094549    0.004331
  O      2.473344   -0.005347   -0.104993
  C     -0.032037    0.049767   -0.007089
  C      1.170348    0.011478    0.003985
  H     -2.024932    1.220216    0.023363
  H      2.891302   -0.032124    0.765910

 Total Charge           Charge          ....    0
 Multiplicity           Mult            ....    1
 Number of Electrons    NEL             ....   38
 Basis Dimension        Dim             ....  234

ORBITAL ENERGIES
----------------

  NO   OCC          E(Eh)            E(eV)
   0   2.0000     -91.990665     -2503.1933
   1   2.0000     -20.644258      -561.7588
   2   2.0000     -11.302423      -307.5546
   3   2.0000     -11.249200      -306.1063
   4   2.0000      -8.990196      -244.6357
   5   2.0000      -6.671722      -181.5468
   6   2.0000      -6.670578      -181.5157
   7   2.0000      -6.669515      -181.4867
   8   2.0000      -1.455784       -39.6139
   9   2.0000      -1.073557       -29.2130
  10   2.0000      -0.972329       -26.4584
  11   2.0000      -0.820614       -22.3301
  12   2.0000      -0.678420       -18.4608
  13   2.0000      -0.644900       -17.5486
  14   2.0000      -0.625861       -17.0305
  15   2.0000      -0.528831       -14.3902
  16   2.0000      -0.468813       -12.7570
  17   2.0000      -0.376258       -10.2385
  18   2.0000      -0.340602        -9.2683
  19   0.0000       0.022251         0.6055
  20   0.0000       0.035802         0.9742
  21   0.0000       0.068562         1.8657
  22   0.0000       0.078484         2.1357
  23   0.0000       0.081874         2.2279

MULLIKEN ATOMIC CHARGES
-----------------------
   0 S :   -0.547799
   1 O :   -0.321405
   2 C :    0.588605
   3 C :   -0.086754
   4 H :    0.127551
   5 H :    0.239803
Sum of atomic charges:   -0.0000000

LOEWDIN ATOMIC CHARGES
----------------------
   0 S :    1.178157
   1 O :    0.753042
   2 C :   -0.581921
   3 C :   -0.312645
   4 H :   -0.571304
   5 H :   -0.465330

  Mayer bond orders larger than 0.100000
B(  0-S ,  2-C ) :   0.9209 B(  0-S ,  4-H ) :   1.1045 B(  1-O ,  3-C ) :   0.9930
B(  1-O ,  5-H ) :   0.9541 B(  2-C ,  3-C ) :   2.0587

MP2 TOTAL ENERGY:     -550.001402012 Eh
FINAL SINGLE POINT ENERGY      -550.001402012429

DIPOLE MOMENT
-------------
                                X             Y             Z
Electronic contribution:     -0.50575      -0.85207      -0.15502
Nuclear contribution   :      0.92305       1.14704       0.75847
                        -----------------------------------------
Total Dipole Moment    :      0.41730       0.29498       0.60345
                        -----------------------------------------
Magnitude (a.u.)       :      0.79076
Magnitude (Debye)      :      2.00994

Rotational constants in cm-1:     6.710131     0.075844     0.075494
Rotational constants in MHz : 201164.669192  2273.758326  2263.250215

                             ****ORCA TERMINATED NORMALLY****
TOTAL RUN TIME: 0 days 0 hours 0 minutes 45 seconds 694 msec
