                         Program Version 5.0.3 -  RELEASE  -
|  1> !ri-mp2 aug-cc-pvtz aug-cc-pvtz/c tightscf
|  2> %pal nprocs 16 end
|  3>
|  4> * xyz 0 1
|  5> Cl     1.676546   -0.809324   -0.064042
|  6> S     -1.948152   -0.418639   -0.243515
|  7> O      0.873755    1.670610   -0.356742
|  8> C      0.580777    0.624501    0.110504
|  9> C     -0.682958    0.310390    0.867857
| 10> H     -2.149817    0.689707   -0.979994
| 11> H     -1.058018    1.227789    1.313361
| 12> H     -0.499959   -0.434986    1.635345
| 13> *
| 14>
| 15>                          ****END OF INPUT****

CARTESIAN COORDINATES (ANGSTROEM)
---------------------------------
  Cl     1.676546   -0.809324   -0.064042
  S     -1.948152   -0.418639   -0.243515
  O      0.873755    1.670610   -0.356742
  C      0.580777    0.624501    0.110504
  C     -0.682958    0.310390    0.867857
  H     -2.149817    0.689707   -0.979994
  H     -1.058018    1.227789    1.313361
  H     -0.499959   -0.434986    1.635345

 Total Charge           Charge          ....    0
 Multiplicity           Mult            ....    1
 Number of Electrons    NEL             ....   56
 Basis Dimension        Dim             ....  307

ORBITAL ENERGIES
----------------

  NO   OCC          E(Eh)            E(eV)
   0   2.0000    -104.853776     -2853.2163
   1   2.0000     -91.989645     -2503.1655
   2   2.0000     -20.604278      -560.6709
   3   2.0000     -11.421087      -310.7836
   4   2.0000     -11.310495      -307.7742
   5   2.0000     -10.578032      -287.8429
   6   2.0000      -8.990069      -244.6322
   7   2.0000      -8.044650      -218.9060
   8   2.0000      -8.042951      -218.8598
   9   2.0000      -8.042820      -218.8562
  10   2.0000      -6.671224      -181.5332
  11   2.0000      -6.670297      -181.5080
  12   2.0000      -6.669141      -181.4766
  13   2.0000      -1.460416       -39.7399
  14   2.0000      -1.142396       -31.0862
  15   2.0000      -1.082340       -29.4520
  16   2.0000      -0.933330       -25.3972
  17   2.0000      -0.783259       -21.3136
  18   2.0000      -0.698193       -18.9988
  19   2.0000      -0.686811       -18.6891
  20   2.0000      -0.626174       -17.0391
  21   2.0000      -0.616912       -16.7870
  22   2.0000      -0.552958       -15.0468
  23   2.0000      -0.498935       -13.5767
  24   2.0000      -0.474600       -12.9145
  25   2.0000      -0.471640       -12.8340
  26   2.0000      -0.461472       -12.5573
  27   2.0000      -0.390157       -10.6167
  28   0.0000       0.027513         0.7487
  29   0.0000       0.037680         1.0253
  30   0.0000       0.044824         1.2197
  31   0.0000       0.062486         1.7003
  32   0.0000       0.075861         2.0643

MULLIKEN ATOMIC CHARGES
-----------------------
   0 Cl:   -0.240815
   1 S :   -0.246977
   2 O :   -0.609708
   3 C :    0.570728
   4 C :   -0.261166
   5 H :    0.174393
   6 H :    0.262813
   7 H :    0.350731
Sum of atomic charges:   -0.0000000

LOEWDIN ATOMIC CHARGES
----------------------
   0 Cl:    0.825453
   1 S :    1.275542
   2 O :    0.382637
   3 C :   -1.191064
   4 C :   -0.213406
   5 H :   -0.565711
   6 H :   -0.239103
   7 H :   -0.274349

  Mayer bond orders larger than 0.100000
B(  0-Cl,  3-C ) :   0.8871 B(  1-S ,  3-C ) :   0.1016 B(  1-S ,  4-C ) :   0.9887
B(  1-S ,  5-H ) :   1.0002 B(  2-O ,  3-C ) :   1.6221 B(  3-C ,  4-C ) :   0.8619
B(  4-C ,  6-H ) :   0.8954 B(  4-C ,  7-H ) :   0.9055

MP2 TOTAL ENERGY:    -1010.410045423 Eh
FINAL SINGLE POINT ENERGY     -1010.410045422836

DIPOLE MOMENT
-------------
                                X             Y             Z
Electronic contribution:      5.03627      -2.56862      -1.32393
Nuclear contribution   :     -5.73859       2.54909       1.96176
                        -----------------------------------------
Total Dipole Moment    :     -0.70232      -0.01953       0.63784
                        -----------------------------------------
Magnitude (a.u.)       :      0.94893
Magnitude (Debye)      :      2.41200

Rotational constants in cm-1:     0.168414     0.063007     0.051026
Rotational constants in MHz :  5048.911410  1888.888733  1529.732123

                             ****ORCA TERMINATED NORMALLY****
TOTAL RUN TIME: 0 days 0 hours 1 minutes 19 seconds 740 msec
