                         Program Version 5.0.3 -  RELEASE  -
|  1> !ri-mp2 aug-cc-pvtz aug-cc-pvtz/c tightscf
|  2> %pal nprocs 16 end
|  3> %maxcore 3800
|  4>
|  5> * xyz 0 1
|  6> C      0.707742   -0.940168    1.191925
|  7> C      0.805573    0.571081    0.911672
|  8> C      0.286298   -1.294617   -0.248550
|  9> C      1.813009    0.594515   -0.256246
| 10> C     -0.630377    0.862567    0.409362
| 11> C     -0.961973   -0.400731   -0.457716
| 12> C      1.455724   -0.696655   -1.057146
| 13> H     -0.041153   -1.191218    1.943754
| 14> H      1.658013   -1.391146    1.482484
| 15> H      1.098896    1.197400    1.754117
| 16> H      0.105962   -2.349691   -0.452928
| 17> H      2.832978    0.547501    0.127018
| 18> C     -2.278499   -1.071176   -0.071401
| 19> H      2.300532   -1.386094   -1.086752
| 20> H     -1.280255    0.846643    1.290316
| 21> H      1.172461   -0.486382   -2.089154
| 22> C     -0.854203    2.196159   -0.296344
| 23> H      1.744295    1.498504   -0.859168
| 24> H     -1.027284   -0.113838   -1.511063
| 25> H     -3.112889   -0.370708   -0.150666
| 26> H     -2.254833   -1.436327    0.957417
| 27> H     -2.497120   -1.920640   -0.721600
| 28> H     -0.581866    3.037107    0.345146
| 29> H     -1.905142    2.317448   -0.566598
| 30> H     -0.272369    2.275590   -1.215659
| 31> *
| 32>
| 33>                          ****END OF INPUT****

CARTESIAN COORDINATES (ANGSTROEM)
---------------------------------
  C      0.707742   -0.940168    1.191925
  C      0.805573    0.571081    0.911672
  C      0.286298   -1.294617   -0.248550
  C      1.813009    0.594515   -0.256246
  C     -0.630377    0.862567    0.409362
  C     -0.961973   -0.400731   -0.457716
  C      1.455724   -0.696655   -1.057146
  H     -0.041153   -1.191218    1.943754
  H      1.658013   -1.391146    1.482484
  H      1.098896    1.197400    1.754117
  H      0.105962   -2.349691   -0.452928
  H      2.832978    0.547501    0.127018
  C     -2.278499   -1.071176   -0.071401
  H      2.300532   -1.386094   -1.086752
  H     -1.280255    0.846643    1.290316
  H      1.172461   -0.486382   -2.089154
  C     -0.854203    2.196159   -0.296344
  H      1.744295    1.498504   -0.859168
  H     -1.027284   -0.113838   -1.511063
  H     -3.112889   -0.370708   -0.150666
  H     -2.254833   -1.436327    0.957417
  H     -2.497120   -1.920640   -0.721600
  H     -0.581866    3.037107    0.345146
  H     -1.905142    2.317448   -0.566598
  H     -0.272369    2.275590   -1.215659

 Total Charge           Charge          ....    0
 Multiplicity           Mult            ....    1
 Number of Electrons    NEL             ....   70
 Basis Dimension        Dim             ....  782

ORBITAL ENERGIES
----------------

  NO   OCC          E(Eh)            E(eV)
   0   2.0000     -11.216843      -305.2258
   1   2.0000     -11.215985      -305.2025
   2   2.0000     -11.215446      -305.1878
   3   2.0000     -11.215018      -305.1762
   4   2.0000     -11.210758      -305.0602
   5   2.0000     -11.209954      -305.0383
   6   2.0000     -11.208495      -304.9987
   7   2.0000     -11.207316      -304.9666
   8   2.0000     -11.207304      -304.9663
   9   2.0000      -1.163523       -31.6611
  10   2.0000      -1.035078       -28.1659
  11   2.0000      -1.006565       -27.3900
  12   2.0000      -0.955022       -25.9875
  13   2.0000      -0.929393       -25.2901
  14   2.0000      -0.863669       -23.5016
  15   2.0000      -0.795338       -21.6422
  16   2.0000      -0.749962       -20.4075
  17   2.0000      -0.715939       -19.4817
  18   2.0000      -0.668593       -18.1933
  19   2.0000      -0.640402       -17.4262
  20   2.0000      -0.614965       -16.7340
  21   2.0000      -0.573323       -15.6009
  22   2.0000      -0.565814       -15.3966
  23   2.0000      -0.546861       -14.8809
  24   2.0000      -0.545959       -14.8563
  25   2.0000      -0.521724       -14.1968
  26   2.0000      -0.504072       -13.7165
  27   2.0000      -0.488861       -13.3026
  28   2.0000      -0.484160       -13.1747
  29   2.0000      -0.472824       -12.8662
  30   2.0000      -0.452214       -12.3054
  31   2.0000      -0.449708       -12.2372
  32   2.0000      -0.424111       -11.5406
  33   2.0000      -0.419431       -11.4133
  34   2.0000      -0.409692       -11.1483
  35   0.0000       0.029274         0.7966
  36   0.0000       0.033874         0.9218
  37   0.0000       0.034141         0.9290
  38   0.0000       0.035378         0.9627
  39   0.0000       0.047237         1.2854

MULLIKEN ATOMIC CHARGES
-----------------------
   0 C :   -0.728774
   1 C :   -0.599109
   2 C :   -0.463613
   3 C :   -0.629352
   4 C :    0.561228
   5 C :    0.272945
   6 C :   -0.651080
   7 H :    0.129905
   8 H :    0.368690
   9 H :    0.456426
  10 H :    0.473160
  11 H :    0.259166
  12 C :   -1.139861
  13 H :    0.287998
  14 H :    0.358458
  15 H :    0.227426
  16 C :   -1.132128
  17 H :    0.260826
  18 H :    0.272622
  19 H :    0.228864
  20 H :    0.280105
  21 H :    0.213682
  22 H :    0.195362
  23 H :    0.202089
  24 H :    0.294964
Sum of atomic charges:    0.0000000

LOEWDIN ATOMIC CHARGES
----------------------
   0 C :    0.329347
   1 C :    0.041824
   2 C :    0.040489
   3 C :    0.338999
   4 C :    0.020901
   5 C :    0.020130
   6 C :    0.339313
   7 H :   -0.137436
   8 H :   -0.128375
   9 H :   -0.114042
  10 H :   -0.116430
  11 H :   -0.141376
  12 C :    0.602009
  13 H :   -0.142264
  14 H :   -0.133815
  15 H :   -0.145532
  16 C :    0.604577
  17 H :   -0.160693
  18 H :   -0.137035
  19 H :   -0.160313
  20 H :   -0.165306
  21 H :   -0.161615
  22 H :   -0.156373
  23 H :   -0.160111
  24 H :   -0.176873

  Mayer bond orders larger than 0.100000
B(  0-C ,  1-C ) :   1.2312 B(  0-C ,  2-C ) :   0.9866 B(  0-C ,  4-C ) :  -0.1735
B(  0-C ,  7-H ) :   1.0886 B(  0-C ,  8-H ) :   0.8745 B(  1-C ,  3-C ) :   0.8462
B(  1-C ,  4-C ) :   0.9363 B(  1-C ,  5-C ) :   0.1122 B(  1-C ,  9-H ) :   0.7666
B(  2-C ,  5-C ) :   1.1225 B(  2-C ,  6-C ) :   0.9998 B(  2-C , 10-H ) :   0.7438
B(  3-C ,  6-C ) :   1.0577 B(  3-C , 11-H ) :   0.9465 B(  3-C , 17-H ) :   1.0054
B(  4-C ,  5-C ) :   1.1007 B(  4-C , 14-H ) :   0.8899 B(  4-C , 16-C ) :   0.5649
B(  5-C , 12-C ) :   0.4546 B(  5-C , 18-H ) :   0.9568 B(  6-C , 13-H ) :   0.9312
B(  6-C , 15-H ) :   1.0054 B( 12-C , 19-H ) :   1.0584 B( 12-C , 20-H ) :   1.0249
B( 12-C , 21-H ) :   1.0874 B( 16-C , 22-H ) :   1.0994 B( 16-C , 23-H ) :   1.1186
B( 16-C , 24-H ) :   1.0015

MP2 TOTAL ENERGY:     -351.822034565 Eh
FINAL SINGLE POINT ENERGY      -351.822034564744

DIPOLE MOMENT
-------------
                                X             Y             Z
Electronic contribution:      2.18757      -1.13967       0.81714
Nuclear contribution   :     -2.17978       1.13673      -0.79723
                        -----------------------------------------
Total Dipole Moment    :      0.00779      -0.00293       0.01991
                        -----------------------------------------
Magnitude (a.u.)       :      0.02158
Magnitude (Debye)      :      0.05486

Rotational constants in cm-1:     0.070316     0.058689     0.043716
Rotational constants in MHz :  2108.023226  1759.438003  1310.560457

                             ****ORCA TERMINATED NORMALLY****
TOTAL RUN TIME: 0 days 0 hours 16 minutes 59 seconds 557 msec
