                         Program Version 5.0.3 -  RELEASE  -
|  1> !ri-mp2 aug-cc-pvtz aug-cc-pvtz/c tightscf
|  2> %pal nprocs 16 end
|  3>
|  4> * xyz 0 1
|  5> C     -0.126624    0.767713   -0.173969
|  6> C      0.126624   -0.767713   -0.173969
|  7> C      0.126624    0.763654    1.356240
|  8> C     -0.126624   -0.763654    1.356240
|  9> C      0.714435    1.661716   -1.066390
| 10> C     -0.714435   -1.661716   -1.066390
| 11> H     -1.188759    0.949185   -0.364152
| 12> H      1.188759   -0.949185   -0.364152
| 13> H      1.167412    0.999661    1.584849
| 14> H     -0.514312    1.387012    1.978811
| 15> H     -1.167412   -0.999661    1.584849
| 16> H      0.514312   -1.387012    1.978811
| 17> H      1.780030    1.498868   -0.888391
| 18> H      0.519941    1.467661   -2.123812
| 19> H      0.505264    2.718063   -0.882589
| 20> H     -1.780030   -1.498868   -0.888391
| 21> H     -0.519941   -1.467661   -2.123812
| 22> H     -0.505264   -2.718063   -0.882589
| 23> *
| 24>
| 25>                          ****END OF INPUT****

CARTESIAN COORDINATES (ANGSTROEM)
---------------------------------
  C     -0.126624    0.767713   -0.173969
  C      0.126624   -0.767713   -0.173969
  C      0.126624    0.763654    1.356240
  C     -0.126624   -0.763654    1.356240
  C      0.714435    1.661716   -1.066390
  C     -0.714435   -1.661716   -1.066390
  H     -1.188759    0.949185   -0.364152
  H      1.188759   -0.949185   -0.364152
  H      1.167412    0.999661    1.584849
  H     -0.514312    1.387012    1.978811
  H     -1.167412   -0.999661    1.584849
  H      0.514312   -1.387012    1.978811
  H      1.780030    1.498868   -0.888391
  H      0.519941    1.467661   -2.123812
  H      0.505264    2.718063   -0.882589
  H     -1.780030   -1.498868   -0.888391
  H     -0.519941   -1.467661   -2.123812
  H     -0.505264   -2.718063   -0.882589

 Total Charge           Charge          ....    0
 Multiplicity           Mult            ....    1
 Number of Electrons    NEL             ....   48
 Basis Dimension        Dim             ....  552

ORBITAL ENERGIES
----------------

  NO   OCC          E(Eh)            E(eV)
   0   2.0000     -11.219002      -305.2846
   1   2.0000     -11.218457      -305.2697
   2   2.0000     -11.212315      -305.1026
   3   2.0000     -11.211760      -305.0875
   4   2.0000     -11.208160      -304.9895
   5   2.0000     -11.208158      -304.9895
   6   2.0000      -1.133737       -30.8505
   7   2.0000      -0.987905       -26.8823
   8   2.0000      -0.969239       -26.3743
   9   2.0000      -0.846013       -23.0212
  10   2.0000      -0.830964       -22.6117
  11   2.0000      -0.738417       -20.0934
  12   2.0000      -0.622525       -16.9398
  13   2.0000      -0.621832       -16.9209
  14   2.0000      -0.582460       -15.8495
  15   2.0000      -0.562117       -15.2960
  16   2.0000      -0.560952       -15.2643
  17   2.0000      -0.544030       -14.8038
  18   2.0000      -0.506457       -13.7814
  19   2.0000      -0.496019       -13.4974
  20   2.0000      -0.451378       -12.2826
  21   2.0000      -0.445622       -12.1260
  22   2.0000      -0.417760       -11.3678
  23   2.0000      -0.414145       -11.2694
  24   0.0000       0.031462         0.8561
  25   0.0000       0.035523         0.9666
  26   0.0000       0.037403         1.0178
  27   0.0000       0.038138         1.0378
  28   0.0000       0.053983         1.4690

MULLIKEN ATOMIC CHARGES
-----------------------
   0 C :    0.013860
   1 C :    0.013860
   2 C :   -0.838745
   3 C :   -0.838745
   4 C :   -0.903135
   5 C :   -0.903135
   6 H :    0.382537
   7 H :    0.382537
   8 H :    0.174601
   9 H :    0.377349
  10 H :    0.174601
  11 H :    0.377349
  12 H :    0.285380
  13 H :    0.258710
  14 H :    0.249443
  15 H :    0.285380
  16 H :    0.258710
  17 H :    0.249443
Sum of atomic charges:    0.0000000

LOEWDIN ATOMIC CHARGES
----------------------
   0 C :   -0.001389
   1 C :   -0.001389
   2 C :    0.337378
   3 C :    0.337378
   4 C :    0.597245
   5 C :    0.597245
   6 H :   -0.131008
   7 H :   -0.131008
   8 H :   -0.150650
   9 H :   -0.146677
  10 H :   -0.150650
  11 H :   -0.146677
  12 H :   -0.170555
  13 H :   -0.167182
  14 H :   -0.167161
  15 H :   -0.170555
  16 H :   -0.167182
  17 H :   -0.167161

  Mayer bond orders larger than 0.100000
B(  0-C ,  1-C ) :   0.9445 B(  0-C ,  2-C ) :   1.1348 B(  0-C ,  3-C ) :  -0.1687
B(  0-C ,  4-C ) :   0.6638 B(  0-C ,  6-H ) :   0.8036 B(  1-C ,  2-C ) :  -0.1687
B(  1-C ,  3-C ) :   1.1348 B(  1-C ,  5-C ) :   0.6638 B(  1-C ,  7-H ) :   0.8036
B(  2-C ,  3-C ) :   1.2652 B(  2-C ,  8-H ) :   1.0198 B(  2-C ,  9-H ) :   0.8447
B(  3-C , 10-H ) :   1.0198 B(  3-C , 11-H ) :   0.8447 B(  4-C , 12-H ) :   0.9549
B(  4-C , 13-H ) :   0.9980 B(  4-C , 14-H ) :   1.0241 B(  5-C , 15-H ) :   0.9549
B(  5-C , 16-H ) :   0.9980 B(  5-C , 17-H ) :   1.0241

MP2 TOTAL ENERGY:     -235.311362928 Eh
FINAL SINGLE POINT ENERGY      -235.311362927561

DIPOLE MOMENT
-------------
                                X             Y             Z
Electronic contribution:      0.00000       0.00000       1.46204
Nuclear contribution   :     -0.00000       0.00000      -1.48946
                        -----------------------------------------
Total Dipole Moment    :      0.00000       0.00000      -0.02743
                        -----------------------------------------
Magnitude (a.u.)       :      0.02743
Magnitude (Debye)      :      0.06971

Rotational constants in cm-1:     0.150337     0.110482     0.071484
Rotational constants in MHz :  4506.983393  3312.171012  2143.027810

                             ****ORCA TERMINATED NORMALLY****
TOTAL RUN TIME: 0 days 0 hours 5 minutes 24 seconds 94 msec
