                         Program Version 5.0.3 -  RELEASE  -
|  1> !ri-mp2 aug-cc-pvtz aug-cc-pvtz/c tightscf
|  2> %pal nprocs 16 end
|  3>
|  4> * xyz 0 1
|  5> C     0.000000     0.000000    0.340441
|  6> F     0.000000     1.256469   -0.128588
|  7> F    -1.088134    -0.628234   -0.128588
|  8> F     1.088134    -0.628234   -0.128588
|  9> H     0.000000     0.000000    1.429227
| 10> *
| 11>
| 12>                          ****END OF INPUT****

CARTESIAN COORDINATES (ANGSTROEM)
---------------------------------
  C      0.000000    0.000000    0.340441
  F      0.000000    1.256469   -0.128588
  F     -1.088134   -0.628234   -0.128588
  F      1.088134   -0.628234   -0.128588
  H      0.000000    0.000000    1.429227

 Total Charge           Charge          ....    0
 Multiplicity           Mult            ....    1
 Number of Electrons    NEL             ....   34
 Basis Dimension        Dim             ....  207

ORBITAL ENERGIES
----------------

  NO   OCC          E(Eh)            E(eV)
   0   2.0000     -26.346979      -716.9378
   1   2.0000     -26.346979      -716.9378
   2   2.0000     -26.346947      -716.9369
   3   2.0000     -11.512218      -313.2634
   4   2.0000      -1.733175       -47.1621
   5   2.0000      -1.640907       -44.6514
   6   2.0000      -1.640907       -44.6514
   7   2.0000      -0.992414       -27.0050
   8   2.0000      -0.847225       -23.0542
   9   2.0000      -0.825447       -22.4616
  10   2.0000      -0.825447       -22.4616
  11   2.0000      -0.713475       -19.4146
  12   2.0000      -0.713475       -19.4146
  13   2.0000      -0.671123       -18.2622
  14   2.0000      -0.671123       -18.2622
  15   2.0000      -0.655674       -17.8418
  16   2.0000      -0.600683       -16.3454
  17   0.0000       0.028118         0.7651
  18   0.0000       0.074384         2.0241
  19   0.0000       0.074384         2.0241
  20   0.0000       0.076356         2.0777
  21   0.0000       0.133983         3.6459

MULLIKEN ATOMIC CHARGES
-----------------------
   0 C :    0.705163
   1 F :   -0.344901
   2 F :   -0.344901
   3 F :   -0.344901
   4 H :    0.329540
Sum of atomic charges:    0.0000000

LOEWDIN ATOMIC CHARGES
----------------------
   0 C :   -1.179976
   1 F :    0.463768
   2 F :    0.463768
   3 F :    0.463768
   4 H :   -0.211329

  Mayer bond orders larger than 0.100000
B(  0-C ,  1-F ) :   0.8734 B(  0-C ,  2-F ) :   0.8734 B(  0-C ,  3-F ) :   0.8734
B(  0-C ,  4-H ) :   0.9215

MP2 TOTAL ENERGY:     -337.846245500 Eh
FINAL SINGLE POINT ENERGY      -337.846245499597

DIPOLE MOMENT
-------------
                                X             Y             Z
Electronic contribution:     -0.00000      -0.00000      -0.91644
Nuclear contribution   :      0.00000      -0.00000       1.65097
                        -----------------------------------------
Total Dipole Moment    :     -0.00000      -0.00000       0.73453
                        -----------------------------------------
Magnitude (a.u.)       :      0.73453
Magnitude (Debye)      :      1.86704

Rotational constants in cm-1:     0.341691     0.341691     0.187355
Rotational constants in MHz : 10243.652650 10243.648948  5616.749486

                             ****ORCA TERMINATED NORMALLY****
TOTAL RUN TIME: 0 days 0 hours 0 minutes 32 seconds 887 msec
