                         Program Version 5.0.3 -  RELEASE  -
|  1> !ri-mp2 aug-cc-pvtz aug-cc-pvtz/c tightscf
|  2> %pal nprocs 16 end
|  3>
|  4> * xyz 0 1
|  5> S      0.340727    1.046092    0.000000
|  6> C     -0.205833   -0.304647    1.150622
|  7> C     -0.205833   -0.304647   -1.150622
|  8> C     -0.205833   -1.328854    0.000000
|  9> H     -1.195905   -0.094659    1.550789
| 10> H      0.484953   -0.493732    1.967693
| 11> H     -1.195905   -0.094659   -1.550789
| 12> H      0.484953   -0.493732   -1.967693
| 13> H     -1.043401   -2.027484    0.000000
| 14> H      0.718680   -1.904316    0.000000
| 15> *
| 16>
| 17>                          ****END OF INPUT****

CARTESIAN COORDINATES (ANGSTROEM)
---------------------------------
  S      0.340727    1.046092    0.000000
  C     -0.205833   -0.304647    1.150622
  C     -0.205833   -0.304647   -1.150622
  C     -0.205833   -1.328854    0.000000
  H     -1.195905   -0.094659    1.550789
  H      0.484953   -0.493732    1.967693
  H     -1.195905   -0.094659   -1.550789
  H      0.484953   -0.493732   -1.967693
  H     -1.043401   -2.027484    0.000000
  H      0.718680   -1.904316    0.000000

 Total Charge           Charge          ....    0
 Multiplicity           Mult            ....    1
 Number of Electrons    NEL             ....   40
 Basis Dimension        Dim             ....  326

ORBITAL ENERGIES
----------------

  NO   OCC          E(Eh)            E(eV)
   0   2.0000     -91.941518     -2501.8559
   1   2.0000     -11.258775      -306.3668
   2   2.0000     -11.258774      -306.3668
   3   2.0000     -11.241180      -305.8881
   4   2.0000      -8.941387      -243.3075
   5   2.0000      -6.622178      -180.1986
   6   2.0000      -6.621805      -180.1885
   7   2.0000      -6.620566      -180.1548
   8   2.0000      -1.125640       -30.6302
   9   2.0000      -0.922413       -25.1001
  10   2.0000      -0.904929       -24.6244
  11   2.0000      -0.758876       -20.6501
  12   2.0000      -0.656349       -17.8602
  13   2.0000      -0.620050       -16.8724
  14   2.0000      -0.569426       -15.4949
  15   2.0000      -0.514134       -13.9903
  16   2.0000      -0.506982       -13.7957
  17   2.0000      -0.460441       -12.5292
  18   2.0000      -0.405505       -11.0343
  19   2.0000      -0.335981        -9.1425
  20   0.0000       0.029799         0.8109
  21   0.0000       0.037227         1.0130
  22   0.0000       0.039702         1.0803
  23   0.0000       0.045282         1.2322
  24   0.0000       0.058316         1.5869

MULLIKEN ATOMIC CHARGES
-----------------------
   0 S :   -0.265542
   1 C :   -0.518097
   2 C :   -0.518097
   3 C :   -0.471023
   4 H :    0.257423
   5 H :    0.324345
   6 H :    0.257423
   7 H :    0.324345
   8 H :    0.340861
   9 H :    0.268362
Sum of atomic charges:   -0.0000000

LOEWDIN ATOMIC CHARGES
----------------------
   0 S :    1.112711
   1 C :   -0.024629
   2 C :   -0.024629
   3 C :    0.161814
   4 H :   -0.224624
   5 H :   -0.222862
   6 H :   -0.224624
   7 H :   -0.222862
   8 H :   -0.159813
   9 H :   -0.170483

  Mayer bond orders larger than 0.100000
B(  0-S ,  1-C ) :   1.0156 B(  0-S ,  2-C ) :   1.0156 B(  1-C ,  3-C ) :   1.0117
B(  1-C ,  4-H ) :   0.9336 B(  1-C ,  5-H ) :   0.8766 B(  2-C ,  3-C ) :   1.0117
B(  2-C ,  6-H ) :   0.9336 B(  2-C ,  7-H ) :   0.8766 B(  3-C ,  8-H ) :   0.8312
B(  3-C ,  9-H ) :   0.9272

MP2 TOTAL ENERGY:     -515.358413624 Eh
FINAL SINGLE POINT ENERGY      -515.358413623607

DIPOLE MOMENT
-------------
                                X             Y             Z
Electronic contribution:      1.46893       4.39514      -0.00000
Nuclear contribution   :     -1.78041      -5.20895       0.00000
                        -----------------------------------------
Total Dipole Moment    :     -0.31148      -0.81380      -0.00000
                        -----------------------------------------
Magnitude (a.u.)       :      0.87138
Magnitude (Debye)      :      2.21486

Rotational constants in cm-1:     0.336402     0.219896     0.145998
Rotational constants in MHz : 10085.067511  6592.307659  4376.899282

                             ****ORCA TERMINATED NORMALLY****
TOTAL RUN TIME: 0 days 0 hours 1 minutes 22 seconds 329 msec
