                         Program Version 5.0.3 -  RELEASE  -
|  1> !ri-mp2 aug-cc-pvtz aug-cc-pvtz/c tightscf
|  2> %pal nprocs 16 end
|  3>
|  4> * xyz 0 1
|  5> C     0.000000     0.000000   -0.320697
|  6> C     0.000000     0.000000    1.160968
|  7> N     0.000000     0.000000    2.307595
|  8> F     0.000000     1.253146   -0.784992
|  9> F     1.085256    -0.626573   -0.784992
| 10> F    -1.085256    -0.626573   -0.784992
| 11> *
| 12>
| 13>                          ****END OF INPUT****

CARTESIAN COORDINATES (ANGSTROEM)
---------------------------------
  C      0.000000    0.000000   -0.320697
  C      0.000000    0.000000    1.160968
  N      0.000000    0.000000    2.307595
  F      0.000000    1.253146   -0.784992
  F      1.085256   -0.626573   -0.784992
  F     -1.085256   -0.626573   -0.784992

 Total Charge           Charge          ....    0
 Multiplicity           Mult            ....    1
 Number of Electrons    NEL             ....   46
 Basis Dimension        Dim             ....  276

ORBITAL ENERGIES
----------------

  NO   OCC          E(Eh)            E(eV)
   0   2.0000     -26.388050      -718.0554
   1   2.0000     -26.388050      -718.0554
   2   2.0000     -26.388018      -718.0545
   3   2.0000     -15.638350      -425.5411
   4   2.0000     -11.589334      -315.3618
   5   2.0000     -11.327481      -308.2364
   6   2.0000      -1.780173       -48.4410
   7   2.0000      -1.684098       -45.8266
   8   2.0000      -1.684098       -45.8266
   9   2.0000      -1.279862       -34.8268
  10   2.0000      -1.066996       -29.0344
  11   2.0000      -0.918455       -24.9924
  12   2.0000      -0.873166       -23.7601
  13   2.0000      -0.873166       -23.7601
  14   2.0000      -0.755483       -20.5577
  15   2.0000      -0.755483       -20.5577
  16   2.0000      -0.710884       -19.3441
  17   2.0000      -0.710884       -19.3441
  18   2.0000      -0.694846       -18.9077
  19   2.0000      -0.694704       -18.9039
  20   2.0000      -0.611329       -16.6351
  21   2.0000      -0.532801       -14.4983
  22   2.0000      -0.532801       -14.4983
  23   0.0000       0.053400         1.4531
  24   0.0000       0.060261         1.6398
  25   0.0000       0.074277         2.0212
  26   0.0000       0.074277         2.0212
  27   0.0000       0.099726         2.7137

MULLIKEN ATOMIC CHARGES
-----------------------
   0 C :    1.492819
   1 C :   -0.249324
   2 N :   -0.247278
   3 F :   -0.332072
   4 F :   -0.332072
   5 F :   -0.332072
Sum of atomic charges:    0.0000000

LOEWDIN ATOMIC CHARGES
----------------------
   0 C :   -1.554242
   1 C :   -0.239554
   2 N :    0.275359
   3 F :    0.506146
   4 F :    0.506146
   5 F :    0.506146

  Mayer bond orders larger than 0.100000
B(  0-C ,  1-C ) :   0.8633 B(  0-C ,  3-F ) :   0.8654 B(  0-C ,  4-F ) :   0.8654
B(  0-C ,  5-F ) :   0.8654 B(  1-C ,  2-N ) :   2.4663

MP2 TOTAL ENERGY:     -429.907608269 Eh
FINAL SINGLE POINT ENERGY      -429.907608268556

DIPOLE MOMENT
-------------
                                X             Y             Z
Electronic contribution:      0.00000      -0.00000      -2.63710
Nuclear contribution   :      0.00000       0.00000       2.12680
                        -----------------------------------------
Total Dipole Moment    :      0.00000      -0.00000      -0.51030
                        -----------------------------------------
Magnitude (a.u.)       :      0.51030
Magnitude (Debye)      :      1.29707

Rotational constants in cm-1:     0.188350     0.098109     0.098109
Rotational constants in MHz :  5646.576675  2941.228906  2941.228524

                             ****ORCA TERMINATED NORMALLY****
TOTAL RUN TIME: 0 days 0 hours 0 minutes 50 seconds 732 msec
