                         Program Version 5.0.3 -  RELEASE  -
|  1> !ri-mp2 aug-cc-pvtz aug-cc-pvtz/c tightscf
|  2> %pal nprocs 16 end
|  3>
|  4> * xyz 0 1
|  5> C     0.000000    0.000000     0.456698
|  6> Cl    0.000000    1.697300    -0.083852
|  7> Cl   -1.469905   -0.848650    -0.083852
|  8> Cl    1.469905   -0.848650    -0.083852
|  9> H     0.000000    0.000000     1.536281
| 10> *
| 11>
| 12>                          ****END OF INPUT****

CARTESIAN COORDINATES (ANGSTROEM)
---------------------------------
  C      0.000000    0.000000    0.456698
  Cl     0.000000    1.697300   -0.083852
  Cl    -1.469905   -0.848650   -0.083852
  Cl     1.469905   -0.848650   -0.083852
  H      0.000000    0.000000    1.536281

 Total Charge           Charge          ....    0
 Multiplicity           Mult            ....    1
 Number of Electrons    NEL             ....   58
 Basis Dimension        Dim             ....  219

ORBITAL ENERGIES
----------------

  NO   OCC          E(Eh)            E(eV)
   0   2.0000    -104.868417     -2853.6147
   1   2.0000    -104.868417     -2853.6147
   2   2.0000    -104.868417     -2853.6147
   3   2.0000     -11.438660      -311.2618
   4   2.0000     -10.592430      -288.2347
   5   2.0000     -10.592430      -288.2347
   6   2.0000     -10.592417      -288.2343
   7   2.0000      -8.059208      -219.3022
   8   2.0000      -8.059207      -219.3022
   9   2.0000      -8.059206      -219.3022
  10   2.0000      -8.057112      -219.2452
  11   2.0000      -8.057112      -219.2452
  12   2.0000      -8.057111      -219.2451
  13   2.0000      -8.057068      -219.2440
  14   2.0000      -8.057068      -219.2440
  15   2.0000      -8.057066      -219.2439
  16   2.0000      -1.236759       -33.6539
  17   2.0000      -1.113771       -30.3072
  18   2.0000      -1.113770       -30.3072
  19   2.0000      -0.877437       -23.8763
  20   2.0000      -0.679287       -18.4843
  21   2.0000      -0.623299       -16.9608
  22   2.0000      -0.623299       -16.9608
  23   2.0000      -0.503920       -13.7124
  24   2.0000      -0.503920       -13.7124
  25   2.0000      -0.469428       -12.7738
  26   2.0000      -0.469428       -12.7738
  27   2.0000      -0.466557       -12.6957
  28   2.0000      -0.453288       -12.3346
  29   0.0000       0.033095         0.9006
  30   0.0000       0.060876         1.6565
  31   0.0000       0.068364         1.8603
  32   0.0000       0.068364         1.8603
  33   0.0000       0.099964         2.7202

MULLIKEN ATOMIC CHARGES
-----------------------
   0 C :    0.239224
   1 Cl:   -0.180200
   2 Cl:   -0.180200
   3 Cl:   -0.180200
   4 H :    0.301376
Sum of atomic charges:    0.0000000

LOEWDIN ATOMIC CHARGES
----------------------
   0 C :   -1.874692
   1 Cl:    0.776032
   2 Cl:    0.776032
   3 Cl:    0.776032
   4 H :   -0.453404

  Mayer bond orders larger than 0.100000
B(  0-C ,  1-Cl) :   0.9087 B(  0-C ,  2-Cl) :   0.9087 B(  0-C ,  3-Cl) :   0.9087
B(  0-C ,  4-H ) :   0.8958

MP2 TOTAL ENERGY:    -1417.758184021 Eh
FINAL SINGLE POINT ENERGY     -1417.758184021401

DIPOLE MOMENT
-------------
                                X             Y             Z
Electronic contribution:      0.00000       0.00000      -1.25218
Nuclear contribution   :      0.00000       0.00000       1.73019
                        -----------------------------------------
Total Dipole Moment    :      0.00000       0.00000       0.47801
                        -----------------------------------------
Magnitude (a.u.)       :      0.47801
Magnitude (Debye)      :      1.21501

Rotational constants in cm-1:     0.106154     0.106154     0.055018
Rotational constants in MHz :  3182.425365  3182.425021  1649.400462

                             ****ORCA TERMINATED NORMALLY****
TOTAL RUN TIME: 0 days 0 hours 0 minutes 43 seconds 500 msec
