                         Program Version 5.0.3 -  RELEASE  -
|  1> !ri-mp2 aug-cc-pvtz aug-cc-pvtz/c tightscf
|  2> %pal nprocs 16 end
|  3>
|  4> * xyz 0 1
|  5> C      0.000000    0.000000    0.000000
|  6> F      0.765982    0.765982    0.765982
|  7> F     -0.765982   -0.765982    0.765982
|  8> F      0.765982   -0.765982   -0.765982
|  9> F     -0.765982    0.765982   -0.765982
| 10> *
| 11>
| 12>                          ****END OF INPUT****

CARTESIAN COORDINATES (ANGSTROEM)
---------------------------------
  C      0.000000    0.000000    0.000000
  F      0.765982    0.765982    0.765982
  F     -0.765982   -0.765982    0.765982
  F      0.765982   -0.765982   -0.765982
  F     -0.765982    0.765982   -0.765982

 Total Charge           Charge          ....    0
 Multiplicity           Mult            ....    1
 Number of Electrons    NEL             ....   42
 Basis Dimension        Dim             ....  230

ORBITAL ENERGIES
----------------

  NO   OCC          E(Eh)            E(eV)
   0   2.0000     -26.378123      -717.7852
   1   2.0000     -26.378123      -717.7852
   2   2.0000     -26.378123      -717.7852
   3   2.0000     -26.378076      -717.7839
   4   2.0000     -11.614324      -316.0418
   5   2.0000      -1.800831       -49.0031
   6   2.0000      -1.678833       -45.6834
   7   2.0000      -1.678833       -45.6834
   8   2.0000      -1.678833       -45.6834
   9   2.0000      -1.011143       -27.5146
  10   2.0000      -0.887113       -24.1396
  11   2.0000      -0.887113       -24.1396
  12   2.0000      -0.887113       -24.1396
  13   2.0000      -0.763824       -20.7847
  14   2.0000      -0.763824       -20.7847
  15   2.0000      -0.712129       -19.3780
  16   2.0000      -0.712129       -19.3780
  17   2.0000      -0.712129       -19.3780
  18   2.0000      -0.685917       -18.6647
  19   2.0000      -0.685917       -18.6647
  20   2.0000      -0.685917       -18.6647
  21   0.0000       0.066943         1.8216
  22   0.0000       0.076304         2.0763
  23   0.0000       0.076304         2.0763
  24   0.0000       0.076304         2.0763
  25   0.0000       0.183427         4.9913

MULLIKEN ATOMIC CHARGES
-----------------------
   0 C :    1.188185
   1 F :   -0.297046
   2 F :   -0.297046
   3 F :   -0.297046
   4 F :   -0.297046
Sum of atomic charges:   -0.0000000

LOEWDIN ATOMIC CHARGES
----------------------
   0 C :   -1.929388
   1 F :    0.482347
   2 F :    0.482347
   3 F :    0.482347
   4 F :    0.482347

  Mayer bond orders larger than 0.100000
B(  0-C ,  1-F ) :   0.9351 B(  0-C ,  2-F ) :   0.9351 B(  0-C ,  3-F ) :   0.9351
B(  0-C ,  4-F ) :   0.9351

MP2 TOTAL ENERGY:     -436.999434858 Eh
FINAL SINGLE POINT ENERGY      -436.999434857926

DIPOLE MOMENT
-------------
                                X             Y             Z
Electronic contribution:      0.00000       0.00000      -0.00000
Nuclear contribution   :      0.00000       0.00000       0.00000
                        -----------------------------------------
Total Dipole Moment    :      0.00000       0.00000      -0.00000
                        -----------------------------------------
Magnitude (a.u.)       :      0.00000
Magnitude (Debye)      :      0.00000

Rotational constants in cm-1:     0.189044     0.189044     0.189044
Rotational constants in MHz :  5667.383550  5667.383550  5667.383550

                             ****ORCA TERMINATED NORMALLY****
TOTAL RUN TIME: 0 days 0 hours 0 minutes 38 seconds 963 msec
