                         Program Version 5.0.3 -  RELEASE  -
|  1> !ri-mp2 aug-cc-pvtz aug-cc-pvtz/c tightscf
|  2> %pal nprocs 16 end
|  3>
|  4> * xyz 0 1
|  5> C      0.000000    1.388631   -0.059542
|  6> C      1.202590   -0.694316   -0.059542
|  7> C     -1.202590   -0.694316   -0.059542
|  8> N      0.000000    0.000000    0.366212
|  9> H     -0.882915    1.895599    0.330609
| 10> H      0.000000    1.499929   -1.158458
| 11> H      0.882915    1.895599    0.330609
| 12> H      2.083094   -0.183172    0.330609
| 13> H      1.298977   -0.749964   -1.158458
| 14> H      1.200179   -1.712426    0.330609
| 15> H     -1.200179   -1.712426    0.330609
| 16> H     -1.298977   -0.749964   -1.158458
| 17> H     -2.083094   -0.183172    0.330609
| 18> *
| 19>
| 20>                          ****END OF INPUT****

CARTESIAN COORDINATES (ANGSTROEM)
---------------------------------
  C      0.000000    1.388631   -0.059542
  C      1.202590   -0.694316   -0.059542
  C     -1.202590   -0.694316   -0.059542
  N      0.000000    0.000000    0.366212
  H     -0.882915    1.895599    0.330609
  H      0.000000    1.499929   -1.158458
  H      0.882915    1.895599    0.330609
  H      2.083094   -0.183172    0.330609
  H      1.298977   -0.749964   -1.158458
  H      1.200179   -1.712426    0.330609
  H     -1.200179   -1.712426    0.330609
  H     -1.298977   -0.749964   -1.158458
  H     -2.083094   -0.183172    0.330609

 Total Charge           Charge          ....    0
 Multiplicity           Mult            ....    1
 Number of Electrons    NEL             ....   34
 Basis Dimension        Dim             ....  391

ORBITAL ENERGIES
----------------

  NO   OCC          E(Eh)            E(eV)
   0   2.0000     -15.545174      -423.0057
   1   2.0000     -11.239323      -305.8375
   2   2.0000     -11.239323      -305.8375
   3   2.0000     -11.239299      -305.8369
   4   2.0000      -1.222747       -33.2726
   5   2.0000      -0.949154       -25.8278
   6   2.0000      -0.949154       -25.8278
   7   2.0000      -0.805257       -21.9122
   8   2.0000      -0.640084       -17.4176
   9   2.0000      -0.628639       -17.1061
  10   2.0000      -0.628639       -17.1061
  11   2.0000      -0.542341       -14.7578
  12   2.0000      -0.542341       -14.7578
  13   2.0000      -0.516721       -14.0607
  14   2.0000      -0.501239       -13.6394
  15   2.0000      -0.501238       -13.6394
  16   2.0000      -0.351576        -9.5669
  17   0.0000       0.030535         0.8309
  18   0.0000       0.040626         1.1055
  19   0.0000       0.040626         1.1055
  20   0.0000       0.045643         1.2420
  21   0.0000       0.059871         1.6292

MULLIKEN ATOMIC CHARGES
-----------------------
   0 C :   -0.955583
   1 C :   -0.955583
   2 C :   -0.955583
   3 N :   -0.002171
   4 H :    0.325712
   5 H :    0.304883
   6 H :    0.325712
   7 H :    0.325712
   8 H :    0.304883
   9 H :    0.325712
  10 H :    0.325712
  11 H :    0.304883
  12 H :    0.325712
Sum of atomic charges:   -0.0000000

LOEWDIN ATOMIC CHARGES
----------------------
   0 C :    0.429429
   1 C :    0.429429
   2 C :    0.429429
   3 N :    0.204473
   4 H :   -0.171570
   5 H :   -0.154446
   6 H :   -0.171570
   7 H :   -0.171570
   8 H :   -0.154446
   9 H :   -0.171571
  10 H :   -0.171571
  11 H :   -0.154446
  12 H :   -0.171570

  Mayer bond orders larger than 0.100000
B(  0-C ,  3-N ) :   0.9299 B(  0-C ,  4-H ) :   0.9219 B(  0-C ,  5-H ) :   0.9066
B(  0-C ,  6-H ) :   0.9219 B(  1-C ,  3-N ) :   0.9299 B(  1-C ,  7-H ) :   0.9219
B(  1-C ,  8-H ) :   0.9066 B(  1-C ,  9-H ) :   0.9219 B(  2-C ,  3-N ) :   0.9299
B(  2-C , 10-H ) :   0.9219 B(  2-C , 11-H ) :   0.9066 B(  2-C , 12-H ) :   0.9219

MP2 TOTAL ENERGY:     -174.100415930 Eh
FINAL SINGLE POINT ENERGY      -174.100415929941

DIPOLE MOMENT
-------------
                                X             Y             Z
Electronic contribution:     -0.00000      -0.00000       1.33927
Nuclear contribution   :      0.00000       0.00000      -1.60908
                        -----------------------------------------
Total Dipole Moment    :     -0.00000      -0.00000      -0.26981
                        -----------------------------------------
Magnitude (a.u.)       :      0.26981
Magnitude (Debye)      :      0.68581

Rotational constants in cm-1:     0.290375     0.290375     0.164092
Rotational constants in MHz :  8705.214634  8705.214571  4919.369301

                             ****ORCA TERMINATED NORMALLY****
TOTAL RUN TIME: 0 days 0 hours 1 minutes 52 seconds 318 msec
