                         Program Version 5.0.3 -  RELEASE  -
|  1> !ri-mp2 aug-cc-pvtz aug-cc-pvtz/c tightscf
|  2> %pal nprocs 16 end
|  3> %maxcore 3800
|  4>
|  5> * xyz 0 1
|  6> C     -2.401528    0.502518   -0.667526
|  7> C     -2.260633   -1.021826   -0.364232
|  8> C     -1.222072    1.126694    0.106636
|  9> C     -0.997200   -1.082851    0.518924
| 10> C     -1.144453    0.209527    1.343374
| 11> C      0.221275   -0.773296   -0.380965
| 12> C      0.094854    0.782700   -0.624847
| 13> C      1.349485    1.451766    0.000179
| 14> C      1.581769   -0.992045    0.255521
| 15> C      2.270694    0.335229    0.459780
| 16> C      2.775082   -0.620972   -0.585328
| 17> H     -3.352715    0.889677   -0.300403
| 18> H     -2.352143    0.725742   -1.733924
| 19> H     -2.158654   -1.624292   -1.267296
| 20> H     -3.129856   -1.394619    0.178895
| 21> H     -1.339901    2.191878    0.303109
| 22> H     -0.899022   -2.008675    1.084603
| 23> H     -0.291880    0.414655    1.989396
| 24> H     -2.051980    0.229391    1.948912
| 25> H      0.145237   -1.338197   -1.312928
| 26> H      0.018474    1.024497   -1.684640
| 27> H      1.840307    2.119123   -0.711691
| 28> H      1.063396    2.066804    0.856481
| 29> H      1.694152   -1.794885    0.972678
| 30> H      2.893858    0.506385    1.327317
| 31> H      2.609293   -0.379963   -1.628590
| 32> H      3.707801   -1.132180   -0.391015
| 33> *
| 34>
| 35>                          ****END OF INPUT****

CARTESIAN COORDINATES (ANGSTROEM)
---------------------------------
  C     -2.401528    0.502518   -0.667526
  C     -2.260633   -1.021826   -0.364232
  C     -1.222072    1.126694    0.106636
  C     -0.997200   -1.082851    0.518924
  C     -1.144453    0.209527    1.343374
  C      0.221275   -0.773296   -0.380965
  C      0.094854    0.782700   -0.624847
  C      1.349485    1.451766    0.000179
  C      1.581769   -0.992045    0.255521
  C      2.270694    0.335229    0.459780
  C      2.775082   -0.620972   -0.585328
  H     -3.352715    0.889677   -0.300403
  H     -2.352143    0.725742   -1.733924
  H     -2.158654   -1.624292   -1.267296
  H     -3.129856   -1.394619    0.178895
  H     -1.339901    2.191878    0.303109
  H     -0.899022   -2.008675    1.084603
  H     -0.291880    0.414655    1.989396
  H     -2.051980    0.229391    1.948912
  H      0.145237   -1.338197   -1.312928
  H      0.018474    1.024497   -1.684640
  H      1.840307    2.119123   -0.711691
  H      1.063396    2.066804    0.856481
  H      1.694152   -1.794885    0.972678
  H      2.893858    0.506385    1.327317
  H      2.609293   -0.379963   -1.628590
  H      3.707801   -1.132180   -0.391015

 Total Charge           Charge          ....    0
 Multiplicity           Mult            ....    1
 Number of Electrons    NEL             ....   82
 Basis Dimension        Dim             ....  874

ORBITAL ENERGIES
----------------

  NO   OCC          E(Eh)            E(eV)
   0   2.0000     -11.220005      -305.3118
   1   2.0000     -11.218136      -305.2610
   2   2.0000     -11.217324      -305.2389
   3   2.0000     -11.216823      -305.2253
   4   2.0000     -11.216548      -305.2178
   5   2.0000     -11.215983      -305.2024
   6   2.0000     -11.214892      -305.1727
   7   2.0000     -11.213254      -305.1281
   8   2.0000     -11.211553      -305.0819
   9   2.0000     -11.211002      -305.0669
  10   2.0000     -11.208366      -304.9951
  11   2.0000      -1.182862       -32.1873
  12   2.0000      -1.134303       -30.8660
  13   2.0000      -1.012928       -27.5632
  14   2.0000      -0.985646       -26.8208
  15   2.0000      -0.945041       -25.7159
  16   2.0000      -0.927285       -25.2327
  17   2.0000      -0.830299       -22.5936
  18   2.0000      -0.773709       -21.0537
  19   2.0000      -0.769973       -20.9520
  20   2.0000      -0.743248       -20.2248
  21   2.0000      -0.717820       -19.5329
  22   2.0000      -0.669130       -18.2080
  23   2.0000      -0.663001       -18.0412
  24   2.0000      -0.642579       -17.4855
  25   2.0000      -0.612447       -16.6655
  26   2.0000      -0.578902       -15.7527
  27   2.0000      -0.558848       -15.2070
  28   2.0000      -0.542078       -14.7507
  29   2.0000      -0.516969       -14.0674
  30   2.0000      -0.493843       -13.4382
  31   2.0000      -0.488894       -13.3035
  32   2.0000      -0.482150       -13.1200
  33   2.0000      -0.481160       -13.0930
  34   2.0000      -0.468246       -12.7416
  35   2.0000      -0.450562       -12.2604
  36   2.0000      -0.430949       -11.7267
  37   2.0000      -0.428796       -11.6681
  38   2.0000      -0.421355       -11.4656
  39   2.0000      -0.391030       -10.6405
  40   2.0000      -0.381359       -10.3773
  41   0.0000       0.027912         0.7595
  42   0.0000       0.032450         0.8830
  43   0.0000       0.033180         0.9029
  44   0.0000       0.033927         0.9232
  45   0.0000       0.044739         1.2174

MULLIKEN ATOMIC CHARGES
-----------------------
   0 C :   -0.716693
   1 C :   -0.696358
   2 C :   -0.326326
   3 C :   -0.528271
   4 C :   -0.694026
   5 C :    0.449991
   6 C :    0.037436
   7 C :   -0.660708
   8 C :   -0.596293
   9 C :   -0.306353
  10 C :   -1.263872
  11 H :    0.276686
  12 H :    0.205299
  13 H :    0.206708
  14 H :    0.276904
  15 H :    0.505023
  16 H :    0.442638
  17 H :    0.125680
  18 H :    0.494111
  19 H :    0.465331
  20 H :    0.440973
  21 H :    0.289691
  22 H :    0.106483
  23 H :    0.431536
  24 H :    0.526048
  25 H :    0.015430
  26 H :    0.492932
Sum of atomic charges:   -0.0000000

LOEWDIN ATOMIC CHARGES
----------------------
   0 C :    0.340933
   1 C :    0.337908
   2 C :    0.039965
   3 C :    0.045197
   4 C :    0.338415
   5 C :    0.069656
   6 C :    0.080823
   7 C :    0.341779
   8 C :    0.087588
   9 C :    0.079331
  10 C :    0.398586
  11 H :   -0.142761
  12 H :   -0.144685
  13 H :   -0.146338
  14 H :   -0.142599
  15 H :   -0.115314
  16 H :   -0.115809
  17 H :   -0.135609
  18 H :   -0.125672
  19 H :   -0.124921
  20 H :   -0.126122
  21 H :   -0.137856
  22 H :   -0.152500
  23 H :   -0.123072
  24 H :   -0.127478
  25 H :   -0.146113
  26 H :   -0.153331

  Mayer bond orders larger than 0.100000
B(  0-C ,  1-C ) :   1.0550 B(  0-C ,  2-C ) :   1.0082 B(  0-C , 11-H ) :   0.9427
B(  0-C , 12-H ) :   1.0640 B(  1-C ,  3-C ) :   1.0305 B(  1-C ,  5-C ) :  -0.1690
B(  1-C , 13-H ) :   1.0695 B(  1-C , 14-H ) :   0.9368 B(  2-C ,  4-C ) :   0.9960
B(  2-C ,  6-C ) :   0.9029 B(  2-C , 15-H ) :   0.7016 B(  3-C ,  4-C ) :   0.9875
B(  3-C ,  5-C ) :   0.9865 B(  3-C , 16-H ) :   0.7937 B(  3-C , 19-H ) :  -0.1086
B(  4-C , 17-H ) :   1.1490 B(  4-C , 18-H ) :   0.7222 B(  5-C ,  6-C ) :   1.0435
B(  5-C ,  8-C ) :   0.7514 B(  5-C , 19-H ) :   0.7885 B(  6-C ,  7-C ) :   0.9905
B(  6-C ,  8-C ) :   0.1682 B(  6-C ,  9-C ) :   0.1120 B(  6-C , 20-H ) :   0.7316
B(  7-C ,  9-C ) :   0.8162 B(  7-C , 21-H ) :   0.9575 B(  7-C , 22-H ) :   1.1210
B(  8-C ,  9-C ) :   0.4587 B(  8-C , 10-C ) :   0.9419 B(  8-C , 19-H ) :  -0.1929
B(  8-C , 23-H ) :   0.6673 B(  9-C , 10-C ) :   1.0302 B(  9-C , 24-H ) :   0.5337
B( 10-C , 23-H ) :  -0.1269 B( 10-C , 24-H ) :  -0.1054 B( 10-C , 25-H ) :   1.3434
B( 10-C , 26-H ) :   0.6126

MP2 TOTAL ENERGY:     -427.852041356 Eh
FINAL SINGLE POINT ENERGY      -427.852041355577

DIPOLE MOMENT
-------------
                                X             Y             Z
Electronic contribution:      1.62443      -0.50433       0.44298
Nuclear contribution   :     -1.66586       0.51456      -0.38342
                        -----------------------------------------
Total Dipole Moment    :     -0.04143       0.01023       0.05957
                        -----------------------------------------
Magnitude (a.u.)       :      0.07328
Magnitude (Debye)      :      0.18626

Rotational constants in cm-1:     0.081854     0.031837     0.028419
Rotational constants in MHz :  2453.931483   954.450739   851.989861

                             ****ORCA TERMINATED NORMALLY****
TOTAL RUN TIME: 0 days 0 hours 25 minutes 12 seconds 832 msec
