                         Program Version 5.0.3 -  RELEASE  -
|  1> !ri-mp2 aug-cc-pvtz aug-cc-pvtz/c tightscf
|  2> %pal nprocs 16 end
|  3> %maxcore 3800
|  4>
|  5> * xyz 0 1
|  6> C     -3.388472   -0.000044    0.286846
|  7> C     -2.807439    0.000148   -0.978192
|  8> C     -2.578343   -0.000206    1.414731
|  9> C     -1.425809    0.000177   -1.109541
| 10> C     -1.192222   -0.000179    1.283865
| 11> C     -0.608039    0.000014    0.021203
| 12> C      1.023124    2.379898   -0.470319
| 13> C      1.023043   -2.379763   -0.470812
| 14> C      2.948244   -0.000221    1.058956
| 15> C      0.905320    0.000039   -0.194792
| 16> O      1.326351    1.086368   -0.980293
| 17> O      1.326380   -1.086139   -0.980478
| 18> O      1.520552   -0.000056    1.068131
| 19> H     -4.465338   -0.000067    0.390194
| 20> H     -3.431913    0.000275   -1.861615
| 21> H     -3.022627   -0.000356    2.401202
| 22> H     -0.970398    0.000327   -2.090355
| 23> H     -0.562616   -0.000306    2.160548
| 24> H      1.487995    3.084722   -1.155242
| 25> H      1.431223    2.525679    0.531882
| 26> H     -0.053609    2.559742   -0.444154
| 27> H      1.430937   -2.525742    0.531445
| 28> H      1.488048   -3.084462   -1.155774
| 29> H     -0.053696   -2.559606   -0.444897
| 30> H      3.344275    0.885053    0.560867
| 31> H      3.344088   -0.886340    0.562212
| 32> H      3.250946    0.000524    2.103146
| 33> *
| 34>
| 35>                          ****END OF INPUT****

CARTESIAN COORDINATES (ANGSTROEM)
---------------------------------
  C     -3.388472   -0.000044    0.286846
  C     -2.807439    0.000148   -0.978192
  C     -2.578343   -0.000206    1.414731
  C     -1.425809    0.000177   -1.109541
  C     -1.192222   -0.000179    1.283865
  C     -0.608039    0.000014    0.021203
  C      1.023124    2.379898   -0.470319
  C      1.023043   -2.379763   -0.470812
  C      2.948244   -0.000221    1.058956
  C      0.905320    0.000039   -0.194792
  O      1.326351    1.086368   -0.980293
  O      1.326380   -1.086139   -0.980478
  O      1.520552   -0.000056    1.068131
  H     -4.465338   -0.000067    0.390194
  H     -3.431913    0.000275   -1.861615
  H     -3.022627   -0.000356    2.401202
  H     -0.970398    0.000327   -2.090355
  H     -0.562616   -0.000306    2.160548
  H      1.487995    3.084722   -1.155242
  H      1.431223    2.525679    0.531882
  H     -0.053609    2.559742   -0.444154
  H      1.430937   -2.525742    0.531445
  H      1.488048   -3.084462   -1.155774
  H     -0.053696   -2.559606   -0.444897
  H      3.344275    0.885053    0.560867
  H      3.344088   -0.886340    0.562212
  H      3.250946    0.000524    2.103146

 Total Charge           Charge          ....    0
 Multiplicity           Mult            ....    1
 Number of Electrons    NEL             ....   98
 Basis Dimension        Dim             ....  920

ORBITAL ENERGIES
----------------

  NO   OCC          E(Eh)            E(eV)
   0   2.0000     -20.567360      -559.6663
   1   2.0000     -20.562262      -559.5276
   2   2.0000     -20.562249      -559.5272
   3   2.0000     -11.396107      -310.1038
   4   2.0000     -11.270585      -306.6882
   5   2.0000     -11.268272      -306.6253
   6   2.0000     -11.268269      -306.6252
   7   2.0000     -11.238425      -305.8131
   8   2.0000     -11.236629      -305.7642
   9   2.0000     -11.234879      -305.7166
  10   2.0000     -11.234399      -305.7035
  11   2.0000     -11.233235      -305.6719
  12   2.0000     -11.233073      -305.6675
  13   2.0000      -1.454931       -39.5907
  14   2.0000      -1.350895       -36.7597
  15   2.0000      -1.347838       -36.6765
  16   2.0000      -1.156700       -31.4754
  17   2.0000      -1.040616       -28.3166
  18   2.0000      -1.016971       -27.6732
  19   2.0000      -0.981059       -26.6960
  20   2.0000      -0.942602       -25.6495
  21   2.0000      -0.911328       -24.7985
  22   2.0000      -0.853234       -23.2177
  23   2.0000      -0.827039       -22.5049
  24   2.0000      -0.781328       -21.2610
  25   2.0000      -0.727163       -19.7871
  26   2.0000      -0.707613       -19.2551
  27   2.0000      -0.700698       -19.0670
  28   2.0000      -0.671249       -18.2656
  29   2.0000      -0.645351       -17.5609
  30   2.0000      -0.628423       -17.1003
  31   2.0000      -0.621595       -16.9145
  32   2.0000      -0.611132       -16.6298
  33   2.0000      -0.600434       -16.3386
  34   2.0000      -0.588805       -16.0222
  35   2.0000      -0.585040       -15.9197
  36   2.0000      -0.563182       -15.3250
  37   2.0000      -0.561850       -15.2887
  38   2.0000      -0.537660       -14.6305
  39   2.0000      -0.512561       -13.9475
  40   2.0000      -0.512219       -13.9382
  41   2.0000      -0.501806       -13.6548
  42   2.0000      -0.494388       -13.4530
  43   2.0000      -0.461784       -12.5658
  44   2.0000      -0.453541       -12.3415
  45   2.0000      -0.446424       -12.1478
  46   2.0000      -0.437322       -11.9001
  47   2.0000      -0.339054        -9.2261
  48   2.0000      -0.337171        -9.1749
  49   0.0000       0.026382         0.7179
  50   0.0000       0.031183         0.8485
  51   0.0000       0.034962         0.9514
  52   0.0000       0.037203         1.0123
  53   0.0000       0.044306         1.2056

MULLIKEN ATOMIC CHARGES
-----------------------
   0 C :   -0.149215
   1 C :   -0.912117
   2 C :   -0.876616
   3 C :   -0.577665
   4 C :   -1.148699
   5 C :    1.510377
   6 C :   -1.014422
   7 C :   -1.014327
   8 C :   -1.129323
   9 C :    2.411509
  10 O :   -0.725375
  11 O :   -0.725529
  12 O :   -0.598847
  13 H :    0.485246
  14 H :    0.468647
  15 H :    0.549310
  16 H :    0.144999
  17 H :    0.024392
  18 H :    0.314007
  19 H :    0.393353
  20 H :    0.393498
  21 H :    0.393376
  22 H :    0.314034
  23 H :    0.393457
  24 H :    0.386556
  25 H :    0.386511
  26 H :    0.302864
Sum of atomic charges:    0.0000000

LOEWDIN ATOMIC CHARGES
----------------------
   0 C :    0.197906
   1 C :    0.206864
   2 C :    0.205034
   3 C :    0.206995
   4 C :    0.216060
   5 C :   -0.143819
   6 C :    0.344024
   7 C :    0.344018
   8 C :    0.348816
   9 C :   -1.107591
  10 O :    0.575285
  11 O :    0.575295
  12 O :    0.575324
  13 H :   -0.184454
  14 H :   -0.183883
  15 H :   -0.184771
  16 H :   -0.165249
  17 H :   -0.196727
  18 H :   -0.179187
  19 H :   -0.180646
  20 H :   -0.179671
  21 H :   -0.180659
  22 H :   -0.179183
  23 H :   -0.179670
  24 H :   -0.184579
  25 H :   -0.184571
  26 H :   -0.180962

  Mayer bond orders larger than 0.100000
B(  0-C ,  1-C ) :   1.1821 B(  0-C ,  2-C ) :   1.1287 B(  0-C ,  4-C ) :  -0.1190
B(  0-C , 13-H ) :   0.7712 B(  1-C ,  2-C ) :   0.1931 B(  1-C ,  3-C ) :   1.3866
B(  1-C , 13-H ) :  -0.1324 B(  1-C , 14-H ) :   0.7605 B(  1-C , 16-H ) :  -0.2061
B(  1-C , 17-H ) :  -0.1003 B(  2-C ,  3-C ) :  -0.1116 B(  2-C ,  4-C ) :   1.4374
B(  2-C ,  5-C ) :   0.1580 B(  2-C , 13-H ) :  -0.1981 B(  2-C , 15-H ) :   0.6576
B(  2-C , 16-H ) :  -0.2127 B(  2-C , 17-H ) :  -0.1033 B(  3-C ,  5-C ) :   0.7198
B(  3-C ,  9-C ) :  -0.2094 B(  3-C , 13-H ) :   0.1023 B(  3-C , 16-H ) :   1.4471
B(  3-C , 17-H ) :   0.2015 B(  4-C ,  5-C ) :  -0.3453 B(  4-C , 13-H ) :   0.1227
B(  4-C , 16-H ) :   0.5857 B(  4-C , 17-H ) :   1.8798 B(  5-C ,  9-C ) :   0.5649
B(  5-C , 12-O ) :   0.1721 B(  5-C , 16-H ) :  -0.2401 B(  5-C , 17-H ) :  -0.3245
B(  6-C ,  9-C ) :  -0.1067 B(  6-C , 10-O ) :   1.0265 B(  6-C , 18-H ) :   0.9936
B(  6-C , 19-H ) :   0.8492 B(  6-C , 20-H ) :   0.8604 B(  7-C ,  9-C ) :  -0.1066
B(  7-C , 11-O ) :   1.0266 B(  7-C , 21-H ) :   0.8492 B(  7-C , 22-H ) :   0.9936
B(  7-C , 23-H ) :   0.8605 B(  8-C ,  9-C ) :  -0.1923 B(  8-C , 12-O ) :   1.0172
B(  8-C , 24-H ) :   0.8569 B(  8-C , 25-H ) :   0.8570 B(  8-C , 26-H ) :   0.9959
B(  9-C , 10-O ) :   0.2527 B(  9-C , 11-O ) :   0.2522 B(  9-C , 12-O ) :   0.5139
B(  9-C , 16-H ) :  -0.2540 B(  9-C , 17-H ) :  -0.1078 B( 12-O , 17-H ) :  -0.1624
B( 16-H , 17-H ) :   0.1463

MP2 TOTAL ENERGY:     -614.005226003 Eh
FINAL SINGLE POINT ENERGY      -614.005226002808

DIPOLE MOMENT
-------------
                                X             Y             Z
Electronic contribution:     -3.48424       0.00046      -1.59013
Nuclear contribution   :      3.31611      -0.00056       2.09625
                        -----------------------------------------
Total Dipole Moment    :     -0.16813      -0.00010       0.50613
                        -----------------------------------------
Magnitude (a.u.)       :      0.53332
Magnitude (Debye)      :      1.35559

Rotational constants in cm-1:     0.043536     0.020024     0.018815
Rotational constants in MHz :  1305.189719   600.302147   564.073804

                             ****ORCA TERMINATED NORMALLY****
TOTAL RUN TIME: 0 days 0 hours 32 minutes 6 seconds 77 msec
