                         Program Version 5.0.3 -  RELEASE  -
|  1> !ri-mp2 aug-cc-pvtz aug-cc-pvtz/c tightscf
|  2> %pal nprocs 16 end
|  3>
|  4> * xyz 0 1
|  5> C      1.198990    0.282455   -0.007474
|  6> C      0.320745    1.512346   -0.137212
|  7> C     -1.130694    1.395994    0.326233
|  8> C     -1.862920    0.229297   -0.332913
|  9> C     -1.354109   -1.115286    0.160621
| 10> O      2.401259    0.353705    0.028692
| 11> S      0.466431   -1.359194   -0.017043
| 12> H      0.844846    2.313553    0.384969
| 13> H      0.347720    1.769982   -1.201227
| 14> H     -1.165948    1.279754    1.413293
| 15> H     -1.641074    2.333623    0.100488
| 16> H     -2.931348    0.287651   -0.110885
| 17> H     -1.760809    0.292350   -1.419347
| 18> H     -1.596178   -1.250293    1.214503
| 19> H     -1.802248   -1.937986   -0.394177
| 20> *
| 21>
| 22>                          ****END OF INPUT****

CARTESIAN COORDINATES (ANGSTROEM)
---------------------------------
  C      1.198990    0.282455   -0.007474
  C      0.320745    1.512346   -0.137212
  C     -1.130694    1.395994    0.326233
  C     -1.862920    0.229297   -0.332913
  C     -1.354109   -1.115286    0.160621
  O      2.401259    0.353705    0.028692
  S      0.466431   -1.359194   -0.017043
  H      0.844846    2.313553    0.384969
  H      0.347720    1.769982   -1.201227
  H     -1.165948    1.279754    1.413293
  H     -1.641074    2.333623    0.100488
  H     -2.931348    0.287651   -0.110885
  H     -1.760809    0.292350   -1.419347
  H     -1.596178   -1.250293    1.214503
  H     -1.802248   -1.937986   -0.394177

 Total Charge           Charge          ....    0
 Multiplicity           Mult            ....    1
 Number of Electrons    NEL             ....   62
 Basis Dimension        Dim             ....  510

ORBITAL ENERGIES
----------------

  NO   OCC          E(Eh)            E(eV)
   0   2.0000     -91.967049     -2502.5506
   1   2.0000     -20.551369      -559.2312
   2   2.0000     -11.361926      -309.1737
   3   2.0000     -11.275167      -306.8129
   4   2.0000     -11.251817      -306.1775
   5   2.0000     -11.249037      -306.1018
   6   2.0000     -11.247391      -306.0571
   7   2.0000      -8.967982      -244.0312
   8   2.0000      -6.649001      -180.9285
   9   2.0000      -6.647988      -180.9009
  10   2.0000      -6.647250      -180.8809
  11   2.0000      -1.400067       -38.0978
  12   2.0000      -1.129327       -30.7306
  13   2.0000      -1.038907       -28.2701
  14   2.0000      -1.000828       -27.2339
  15   2.0000      -0.881067       -23.9751
  16   2.0000      -0.831617       -22.6294
  17   2.0000      -0.726380       -19.7658
  18   2.0000      -0.664541       -18.0831
  19   2.0000      -0.644212       -17.5299
  20   2.0000      -0.631920       -17.1954
  21   2.0000      -0.622061       -16.9271
  22   2.0000      -0.599894       -16.3240
  23   2.0000      -0.575993       -15.6736
  24   2.0000      -0.530076       -14.4241
  25   2.0000      -0.518621       -14.1124
  26   2.0000      -0.497100       -13.5268
  27   2.0000      -0.491308       -13.3692
  28   2.0000      -0.455107       -12.3841
  29   2.0000      -0.397986       -10.8298
  30   2.0000      -0.365388        -9.9427
  31   0.0000       0.022300         0.6068
  32   0.0000       0.031588         0.8596
  33   0.0000       0.034456         0.9376
  34   0.0000       0.040737         1.1085
  35   0.0000       0.052546         1.4299

MULLIKEN ATOMIC CHARGES
-----------------------
   0 C :    0.579537
   1 C :   -0.267824
   2 C :   -0.449665
   3 C :   -0.454834
   4 C :   -0.355492
   5 O :   -0.824538
   6 S :   -0.319257
   7 H :    0.278126
   8 H :    0.224556
   9 H :    0.248698
  10 H :    0.265272
  11 H :    0.278908
  12 H :    0.261503
  13 H :    0.227717
  14 H :    0.307292
Sum of atomic charges:   -0.0000000

LOEWDIN ATOMIC CHARGES
----------------------
   0 C :   -0.909130
   1 C :    0.224834
   2 C :    0.261501
   3 C :    0.215274
   4 C :   -0.038709
   5 O :    0.368822
   6 S :    1.220075
   7 H :   -0.161669
   8 H :   -0.153008
   9 H :   -0.144000
  10 H :   -0.141803
  11 H :   -0.144656
  12 H :   -0.149340
  13 H :   -0.222603
  14 H :   -0.225588

  Mayer bond orders larger than 0.100000
B(  0-C ,  1-C ) :   0.7018 B(  0-C ,  2-C ) :   0.1136 B(  0-C ,  5-O ) :   1.3330
B(  0-C ,  6-S ) :   1.0397 B(  1-C ,  2-C ) :   0.9052 B(  1-C ,  7-H ) :   0.9302
B(  1-C ,  8-H ) :   0.9564 B(  2-C ,  3-C ) :   0.9011 B(  2-C ,  9-H ) :   0.9527
B(  2-C , 10-H ) :   0.9622 B(  3-C ,  4-C ) :   0.9320 B(  3-C , 11-H ) :   0.9346
B(  3-C , 12-H ) :   0.9595 B(  4-C ,  6-S ) :   0.8642 B(  4-C , 13-H ) :   0.9783
B(  4-C , 14-H ) :   0.9157

MP2 TOTAL ENERGY:     -667.774977778 Eh
FINAL SINGLE POINT ENERGY      -667.774977778433

DIPOLE MOMENT
-------------
                                X             Y             Z
Electronic contribution:      7.74952      -4.65169       0.00461
Nuclear contribution   :     -9.70346       5.14776      -0.01143
                        -----------------------------------------
Total Dipole Moment    :     -1.95393       0.49607      -0.00682
                        -----------------------------------------
Magnitude (a.u.)       :      2.01593
Magnitude (Debye)      :      5.12409

Rotational constants in cm-1:     0.105290     0.073600     0.045785
Rotational constants in MHz :  3156.524364  2206.462233  1372.607255

                             ****ORCA TERMINATED NORMALLY****
TOTAL RUN TIME: 0 days 0 hours 5 minutes 39 seconds 245 msec
