                         Program Version 5.0.3 -  RELEASE  -
|  1> !ri-mp2 aug-cc-pvtz aug-cc-pvtz/c tightscf
|  2> %pal nprocs 16 end
|  3>
|  4> * xyz 0 1
|  5> C     0.000000     0.000000   -0.255900
|  6> S     0.000000     0.000000    1.375571
|  7> C     0.000000     1.266131   -1.062046
|  8> C     0.000000    -1.266131   -1.062046
|  9> H     0.000000     2.147096   -0.427764
| 10> H     0.000000    -2.147096   -0.427764
| 11> H     0.875313     1.291889   -1.718417
| 12> H    -0.875313     1.291889   -1.718417
| 13> H    -0.875313    -1.291889   -1.718417
| 14> H     0.875313    -1.291889   -1.718417
| 15> *
| 16>
| 17>                          ****END OF INPUT****

CARTESIAN COORDINATES (ANGSTROEM)
---------------------------------
  C      0.000000    0.000000   -0.255900
  S      0.000000    0.000000    1.375571
  C      0.000000    1.266131   -1.062046
  C      0.000000   -1.266131   -1.062046
  H      0.000000    2.147096   -0.427764
  H      0.000000   -2.147096   -0.427764
  H      0.875313    1.291889   -1.718417
  H     -0.875313    1.291889   -1.718417
  H     -0.875313   -1.291889   -1.718417
  H      0.875313   -1.291889   -1.718417

 Total Charge           Charge          ....    0
 Multiplicity           Mult            ....    1
 Number of Electrons    NEL             ....   40
 Basis Dimension        Dim             ....  326

ORBITAL ENERGIES
----------------

  NO   OCC          E(Eh)            E(eV)
   0   2.0000     -91.927152     -2501.4650
   1   2.0000     -11.325388      -308.1795
   2   2.0000     -11.243064      -305.9393
   3   2.0000     -11.243046      -305.9388
   4   2.0000      -8.929785      -242.9918
   5   2.0000      -6.610631      -179.8844
   6   2.0000      -6.610001      -179.8673
   7   2.0000      -6.608414      -179.8241
   8   2.0000      -1.118842       -30.4452
   9   2.0000      -0.968558       -26.3558
  10   2.0000      -0.947043       -25.7704
  11   2.0000      -0.720118       -19.5954
  12   2.0000      -0.616122       -16.7655
  13   2.0000      -0.610601       -16.6153
  14   2.0000      -0.609747       -16.5921
  15   2.0000      -0.559891       -15.2354
  16   2.0000      -0.529739       -14.4149
  17   2.0000      -0.494751       -13.4629
  18   2.0000      -0.381316       -10.3761
  19   2.0000      -0.333553        -9.0764
  20   0.0000       0.025947         0.7061
  21   0.0000       0.037143         1.0107
  22   0.0000       0.037586         1.0228
  23   0.0000       0.049917         1.3583
  24   0.0000       0.061478         1.6729

MULLIKEN ATOMIC CHARGES
-----------------------
   0 C :    0.346320
   1 S :   -0.509443
   2 C :   -0.852859
   3 C :   -0.852859
   4 H :    0.325955
   5 H :    0.325955
   6 H :    0.304233
   7 H :    0.304233
   8 H :    0.304233
   9 H :    0.304233
Sum of atomic charges:    0.0000000

LOEWDIN ATOMIC CHARGES
----------------------
   0 C :   -0.815411
   1 S :    0.973109
   2 C :    0.470153
   3 C :    0.470153
   4 H :   -0.206972
   5 H :   -0.206972
   6 H :   -0.171015
   7 H :   -0.171015
   8 H :   -0.171015
   9 H :   -0.171015

  Mayer bond orders larger than 0.100000
B(  0-C ,  1-S ) :   1.6925 B(  0-C ,  2-C ) :   0.8512 B(  0-C ,  3-C ) :   0.8512
B(  2-C ,  3-C ) :   0.1183 B(  2-C ,  4-H ) :   0.9459 B(  2-C ,  6-H ) :   0.9210
B(  2-C ,  7-H ) :   0.9210 B(  3-C ,  5-H ) :   0.9459 B(  3-C ,  8-H ) :   0.9210
B(  3-C ,  9-H ) :   0.9210

MP2 TOTAL ENERGY:     -515.368067026 Eh
FINAL SINGLE POINT ENERGY      -515.368067026025

DIPOLE MOMENT
-------------
                                X             Y             Z
Electronic contribution:     -0.00000      -0.00000       6.55022
Nuclear contribution   :      0.00000       0.00000      -7.87457
                        -----------------------------------------
Total Dipole Moment    :     -0.00000      -0.00000      -1.32435
                        -----------------------------------------
Magnitude (a.u.)       :      1.32435
Magnitude (Debye)      :      3.36622

Rotational constants in cm-1:     0.292557     0.163499     0.109076
Rotational constants in MHz :  8770.644975  4901.574165  3270.031122

                             ****ORCA TERMINATED NORMALLY****
TOTAL RUN TIME: 0 days 0 hours 1 minutes 25 seconds 917 msec
