                         Program Version 5.0.3 -  RELEASE  -
|  1> !ri-mp2 aug-cc-pvtz aug-cc-pvtz/c tightscf
|  2> %pal nprocs 16 end
|  3>
|  4> * xyz 0 1
|  5> C      0.639432   -1.264100        0.000000
|  6> C      1.220264   -0.033712        0.000000
|  7> C     -1.203295   -0.069611        0.000000
|  8> N     -0.732370   -1.277174        0.000000
|  9> S      0.000000    1.184691        0.000000
| 10> H      1.176233   -2.200416        0.000000
| 11> H      2.266607    0.216808        0.000000
| 12> H     -2.254655    0.173318        0.000000
| 13> *
| 14>
| 15>                          ****END OF INPUT****

CARTESIAN COORDINATES (ANGSTROEM)
---------------------------------
  C      0.639432   -1.264100    0.000000
  C      1.220264   -0.033712    0.000000
  C     -1.203295   -0.069611    0.000000
  N     -0.732370   -1.277174    0.000000
  S      0.000000    1.184691    0.000000
  H      1.176233   -2.200416    0.000000
  H      2.266607    0.216808    0.000000
  H     -2.254655    0.173318    0.000000

 Total Charge           Charge          ....    0
 Multiplicity           Mult            ....    1
 Number of Electrons    NEL             ....   44
 Basis Dimension        Dim             ....  303

ORBITAL ENERGIES
----------------

  NO   OCC          E(Eh)            E(eV)
   0   2.0000     -92.000674     -2503.4656
   1   2.0000     -15.576090      -423.8470
   2   2.0000     -11.312916      -307.8401
   3   2.0000     -11.272703      -306.7458
   4   2.0000     -11.270133      -306.6759
   5   2.0000      -9.001280      -244.9373
   6   2.0000      -6.682151      -181.8306
   7   2.0000      -6.681651      -181.8170
   8   2.0000      -6.680936      -181.7975
   9   2.0000      -1.286506       -35.0076
  10   2.0000      -1.068934       -29.0872
  11   2.0000      -1.006531       -27.3891
  12   2.0000      -0.808353       -21.9964
  13   2.0000      -0.776791       -21.1376
  14   2.0000      -0.700068       -19.0498
  15   2.0000      -0.601085       -16.3563
  16   2.0000      -0.570356       -15.5202
  17   2.0000      -0.564527       -15.3616
  18   2.0000      -0.508596       -13.8396
  19   2.0000      -0.433989       -11.8094
  20   2.0000      -0.394135       -10.7249
  21   2.0000      -0.346369        -9.4252
  22   0.0000       0.029180         0.7940
  23   0.0000       0.034915         0.9501
  24   0.0000       0.041427         1.1273
  25   0.0000       0.068837         1.8731
  26   0.0000       0.081951         2.2300

MULLIKEN ATOMIC CHARGES
-----------------------
   0 C :   -0.583465
   1 C :   -0.291308
   2 C :   -0.412879
   3 N :   -0.274456
   4 S :   -0.024529
   5 H :    0.536136
   6 H :    0.498941
   7 H :    0.551559
Sum of atomic charges:   -0.0000000

LOEWDIN ATOMIC CHARGES
----------------------
   0 C :   -0.129850
   1 C :   -0.215729
   2 C :   -0.381969
   3 N :    0.253960
   4 S :    1.218872
   5 H :   -0.207968
   6 H :   -0.270899
   7 H :   -0.266417

  Mayer bond orders larger than 0.100000
B(  0-C ,  1-C ) :   1.3713 B(  0-C ,  3-N ) :   0.9208 B(  0-C ,  5-H ) :   0.7157
B(  1-C ,  3-N ) :  -0.1205 B(  1-C ,  4-S ) :   1.1437 B(  1-C ,  6-H ) :   0.7696
B(  2-C ,  3-N ) :   1.5810 B(  2-C ,  4-S ) :   1.2466 B(  2-C ,  7-H ) :   0.6313

MP2 TOTAL ENERGY:     -568.247872453 Eh
FINAL SINGLE POINT ENERGY      -568.247872452521

DIPOLE MOMENT
-------------
                                X             Y             Z
Electronic contribution:     -0.78793       2.26582      -0.00000
Nuclear contribution   :      1.14927      -1.80013       0.00000
                        -----------------------------------------
Total Dipole Moment    :      0.36134       0.46569      -0.00000
                        -----------------------------------------
Magnitude (a.u.)       :      0.58943
Magnitude (Debye)      :      1.49822

Rotational constants in cm-1:     0.284187     0.183058     0.111339
Rotational constants in MHz :  8519.707669  5487.953286  3337.870459

                             ****ORCA TERMINATED NORMALLY****
TOTAL RUN TIME: 0 days 0 hours 1 minutes 5 seconds 372 msec
