                         Program Version 5.0.3 -  RELEASE  -
|  1> !ri-mp2 aug-cc-pvtz aug-cc-pvtz/c tightscf
|  2> %pal nprocs 16 end
|  3>
|  4> * xyz 0 1
|  5> C      1.834252    0.658103   -0.170078
|  6> C      1.649901   -0.833890    0.185441
|  7> C      0.498294    1.346797    0.118872
|  8> N      0.326076   -1.259222   -0.291458
|  9> O     -1.335449   -0.168992    1.339154
| 10> O     -1.629458    0.146059   -1.144584
| 11> S     -0.765053    0.008844    0.017322
| 12> H      2.646117    1.108508    0.400152
| 13> H      2.080033    0.749839   -1.228760
| 14> H      2.410975   -1.464557   -0.268110
| 15> H      1.690040   -0.982698    1.264866
| 16> H      0.427121    1.743751    1.127834
| 17> H      0.219725    2.107908   -0.603766
| 18> H      0.308880   -1.432296   -1.291141
| 19> *
| 20>
| 21>                          ****END OF INPUT****

CARTESIAN COORDINATES (ANGSTROEM)
---------------------------------
  C      1.834252    0.658103   -0.170078
  C      1.649901   -0.833890    0.185441
  C      0.498294    1.346797    0.118872
  N      0.326076   -1.259222   -0.291458
  O     -1.335449   -0.168992    1.339154
  O     -1.629458    0.146059   -1.144584
  S     -0.765053    0.008844    0.017322
  H      2.646117    1.108508    0.400152
  H      2.080033    0.749839   -1.228760
  H      2.410975   -1.464557   -0.268110
  H      1.690040   -0.982698    1.264866
  H      0.427121    1.743751    1.127834
  H      0.219725    2.107908   -0.603766
  H      0.308880   -1.432296   -1.291141

 Total Charge           Charge          ....    0
 Multiplicity           Mult            ....    1
 Number of Electrons    NEL             ....   64
 Basis Dimension        Dim             ....  487

ORBITAL ENERGIES
----------------

  NO   OCC          E(Eh)            E(eV)
   0   2.0000     -92.196988     -2508.8076
   1   2.0000     -20.552198      -559.2537
   2   2.0000     -20.546987      -559.1119
   3   2.0000     -15.604838      -424.6292
   4   2.0000     -11.295464      -307.3652
   5   2.0000     -11.285936      -307.1059
   6   2.0000     -11.269354      -306.6547
   7   2.0000      -9.163927      -249.3631
   8   2.0000      -6.848974      -186.3701
   9   2.0000      -6.848120      -186.3468
  10   2.0000      -6.847820      -186.3386
  11   2.0000      -1.456957       -39.6458
  12   2.0000      -1.339501       -36.4497
  13   2.0000      -1.253916       -34.1208
  14   2.0000      -1.088441       -29.6180
  15   2.0000      -0.993653       -27.0387
  16   2.0000      -0.861433       -23.4408
  17   2.0000      -0.827841       -22.5267
  18   2.0000      -0.725434       -19.7401
  19   2.0000      -0.698846       -19.0166
  20   2.0000      -0.663366       -18.0511
  21   2.0000      -0.655042       -17.8246
  22   2.0000      -0.629232       -17.1223
  23   2.0000      -0.612098       -16.6560
  24   2.0000      -0.585575       -15.9343
  25   2.0000      -0.547454       -14.8970
  26   2.0000      -0.533575       -14.5193
  27   2.0000      -0.505713       -13.7612
  28   2.0000      -0.496625       -13.5139
  29   2.0000      -0.475382       -12.9358
  30   2.0000      -0.450381       -12.2555
  31   2.0000      -0.435358       -11.8467
  32   0.0000       0.018626         0.5068
  33   0.0000       0.030604         0.8328
  34   0.0000       0.033054         0.8994
  35   0.0000       0.042234         1.1493
  36   0.0000       0.054566         1.4848

MULLIKEN ATOMIC CHARGES
-----------------------
   0 C :   -0.586897
   1 C :   -0.243037
   2 C :   -0.513520
   3 N :   -0.499044
   4 O :   -0.964662
   5 O :   -0.955788
   6 S :    1.949279
   7 H :    0.338401
   8 H :    0.245197
   9 H :    0.350312
  10 H :    0.308909
  11 H :    0.238135
  12 H :    0.305825
  13 H :    0.026891
Sum of atomic charges:   -0.0000000

LOEWDIN ATOMIC CHARGES
----------------------
   0 C :    0.272320
   1 C :    0.134596
   2 C :    0.249486
   3 N :    0.433065
   4 O :    0.027672
   5 O :    0.024015
   6 S :    0.208706
   7 H :   -0.146462
   8 H :   -0.153792
   9 H :   -0.145632
  10 H :   -0.151966
  11 H :   -0.193969
  12 H :   -0.188682
  13 H :   -0.369358

  Mayer bond orders larger than 0.100000
B(  0-C ,  1-C ) :   0.9593 B(  0-C ,  2-C ) :   0.9464 B(  0-C ,  7-H ) :   0.8697
B(  0-C ,  8-H ) :   0.9747 B(  1-C ,  3-N ) :   0.6888 B(  1-C ,  9-H ) :   0.9030
B(  1-C , 10-H ) :   0.9332 B(  2-C ,  6-S ) :   0.8490 B(  2-C , 11-H ) :   0.9664
B(  2-C , 12-H ) :   0.8845 B(  3-N ,  6-S ) :   1.0174 B(  3-N , 13-H ) :   0.9537
B(  4-O ,  6-S ) :   1.3041 B(  5-O ,  6-S ) :   1.1761

MP2 TOTAL ENERGY:     -720.881965147 Eh
FINAL SINGLE POINT ENERGY      -720.881965146642

DIPOLE MOMENT
-------------
                                X             Y             Z
Electronic contribution:     -7.24096      -1.28059       0.15203
Nuclear contribution   :      9.68454       1.80803      -0.59338
                        -----------------------------------------
Total Dipole Moment    :      2.44358       0.52744      -0.44135
                        -----------------------------------------
Magnitude (a.u.)       :      2.53851
Magnitude (Debye)      :      6.45238

Rotational constants in cm-1:     0.128339     0.068682     0.064827
Rotational constants in MHz :  3847.495399  2059.043944  1943.465787

                             ****ORCA TERMINATED NORMALLY****
TOTAL RUN TIME: 0 days 0 hours 4 minutes 17 seconds 233 msec
