                         Program Version 5.0.3 -  RELEASE  -
|  1> !ri-mp2 aug-cc-pvtz aug-cc-pvtz/c tightscf
|  2> %pal nprocs 16 end
|  3>
|  4> * xyz 0 1
|  5> C     0.135333     0.760964    0.664678
|  6> C    -0.135333    -0.760964    0.664678
|  7> C    -0.135333    -0.760964   -0.664678
|  8> C     0.135333     0.760964   -0.664678
|  9> F    -0.135333     1.670444    1.579297
| 10> F     0.135333    -1.670444    1.579297
| 11> F     0.135333    -1.670444   -1.579297
| 12> F    -0.135333     1.670444   -1.579297
| 13> *
| 14>
| 15>                          ****END OF INPUT****

CARTESIAN COORDINATES (ANGSTROEM)
---------------------------------
  C      0.135333    0.760964    0.664678
  C     -0.135333   -0.760964    0.664678
  C     -0.135333   -0.760964   -0.664678
  C      0.135333    0.760964   -0.664678
  F     -0.135333    1.670444    1.579297
  F      0.135333   -1.670444    1.579297
  F      0.135333   -1.670444   -1.579297
  F     -0.135333    1.670444   -1.579297

 Total Charge           Charge          ....    0
 Multiplicity           Mult            ....    1
 Number of Electrons    NEL             ....   60
 Basis Dimension        Dim             ....  368

ORBITAL ENERGIES
----------------

  NO   OCC          E(Eh)            E(eV)
   0   2.0000     -26.364944      -717.4266
   1   2.0000     -26.364943      -717.4266
   2   2.0000     -26.364943      -717.4266
   3   2.0000     -26.364943      -717.4266
   4   2.0000     -11.386018      -309.8293
   5   2.0000     -11.385500      -309.8152
   6   2.0000     -11.384279      -309.7820
   7   2.0000     -11.383777      -309.7683
   8   2.0000      -1.688584       -45.9487
   9   2.0000      -1.683723       -45.8164
  10   2.0000      -1.681077       -45.7444
  11   2.0000      -1.677576       -45.6492
  12   2.0000      -1.248832       -33.9825
  13   2.0000      -0.989503       -26.9257
  14   2.0000      -0.919191       -25.0125
  15   2.0000      -0.848674       -23.0936
  16   2.0000      -0.837426       -22.7875
  17   2.0000      -0.804520       -21.8921
  18   2.0000      -0.780764       -21.2457
  19   2.0000      -0.766368       -20.8539
  20   2.0000      -0.751813       -20.4579
  21   2.0000      -0.742889       -20.2150
  22   2.0000      -0.733693       -19.9648
  23   2.0000      -0.727963       -19.8089
  24   2.0000      -0.723515       -19.6879
  25   2.0000      -0.694316       -18.8933
  26   2.0000      -0.608038       -16.5456
  27   2.0000      -0.547867       -14.9082
  28   2.0000      -0.502817       -13.6823
  29   2.0000      -0.333902        -9.0859
  30   0.0000       0.039608         1.0778
  31   0.0000       0.050844         1.3835
  32   0.0000       0.055157         1.5009
  33   0.0000       0.056387         1.5344
  34   0.0000       0.077106         2.0982

MULLIKEN ATOMIC CHARGES
-----------------------
   0 C :    0.321626
   1 C :    0.321626
   2 C :    0.321626
   3 C :    0.321626
   4 F :   -0.321626
   5 F :   -0.321626
   6 F :   -0.321626
   7 F :   -0.321626
Sum of atomic charges:   -0.0000000

LOEWDIN ATOMIC CHARGES
----------------------
   0 C :   -0.498062
   1 C :   -0.498062
   2 C :   -0.498062
   3 C :   -0.498062
   4 F :    0.498062
   5 F :    0.498062
   6 F :    0.498062
   7 F :    0.498062

  Mayer bond orders larger than 0.100000
B(  0-C ,  1-C ) :   1.0885 B(  0-C ,  2-C ) :  -0.1216 B(  0-C ,  3-C ) :   1.6368
B(  0-C ,  4-F ) :   0.7405 B(  1-C ,  2-C ) :   1.6368 B(  1-C ,  3-C ) :  -0.1216
B(  1-C ,  5-F ) :   0.7405 B(  2-C ,  3-C ) :   1.0885 B(  2-C ,  6-F ) :   0.7405
B(  3-C ,  7-F ) :   0.7405

MP2 TOTAL ENERGY:     -550.862892622 Eh
FINAL SINGLE POINT ENERGY      -550.862892621931

DIPOLE MOMENT
-------------
                                X             Y             Z
Electronic contribution:      0.00000       0.00000       0.00000
Nuclear contribution   :      0.00000       0.00000       0.00000
                        -----------------------------------------
Total Dipole Moment    :      0.00000       0.00000       0.00000
                        -----------------------------------------
Magnitude (a.u.)       :      0.00000
Magnitude (Debye)      :      0.00000

Rotational constants in cm-1:     0.079365     0.069620     0.037357
Rotational constants in MHz :  2379.297200  2087.144627  1119.932655

                             ****ORCA TERMINATED NORMALLY****
TOTAL RUN TIME: 0 days 0 hours 1 minutes 48 seconds 133 msec
