                         Program Version 5.0.3 -  RELEASE  -
|  1> !ri-mp2 aug-cc-pvtz aug-cc-pvtz/c tightscf
|  2> %pal nprocs 16 end
|  3>
|  4> * xyz 0 1
|  5> C      0.000000    0.000000    0.681974
|  6> C      0.000000    0.000000   -0.681974
|  7> C      0.000000    1.213865    1.428575
|  8> C      0.000000   -1.213865    1.428575
|  9> C      0.000000    1.213865   -1.428575
| 10> C      0.000000   -1.213865   -1.428575
| 11> N      0.000000    2.183501    2.049472
| 12> N      0.000000   -2.183501    2.049472
| 13> N      0.000000    2.183501   -2.049472
| 14> N      0.000000   -2.183501   -2.049472
| 15> *
| 16>
| 17>                          ****END OF INPUT****

CARTESIAN COORDINATES (ANGSTROEM)
---------------------------------
  C      0.000000    0.000000    0.681974
  C      0.000000    0.000000   -0.681974
  C      0.000000    1.213865    1.428575
  C      0.000000   -1.213865    1.428575
  C      0.000000    1.213865   -1.428575
  C      0.000000   -1.213865   -1.428575
  N      0.000000    2.183501    2.049472
  N      0.000000   -2.183501    2.049472
  N      0.000000    2.183501   -2.049472
  N      0.000000   -2.183501   -2.049472

 Total Charge           Charge          ....    0
 Multiplicity           Mult            ....    1
 Number of Electrons    NEL             ....   64
 Basis Dimension        Dim             ....  460

ORBITAL ENERGIES
----------------

  NO   OCC          E(Eh)            E(eV)
   0   2.0000     -15.652140      -425.9164
   1   2.0000     -15.652140      -425.9164
   2   2.0000     -15.652140      -425.9164
   3   2.0000     -15.652139      -425.9164
   4   2.0000     -11.429266      -311.0061
   5   2.0000     -11.427806      -310.9664
   6   2.0000     -11.346238      -308.7468
   7   2.0000     -11.346231      -308.7466
   8   2.0000     -11.346228      -308.7466
   9   2.0000     -11.346221      -308.7464
  10   2.0000      -1.321077       -35.9483
  11   2.0000      -1.296480       -35.2790
  12   2.0000      -1.289878       -35.0994
  13   2.0000      -1.286309       -35.0022
  14   2.0000      -1.223588       -33.2955
  15   2.0000      -1.069371       -29.0991
  16   2.0000      -0.920107       -25.0374
  17   2.0000      -0.840073       -22.8595
  18   2.0000      -0.811224       -22.0745
  19   2.0000      -0.660043       -17.9607
  20   2.0000      -0.633040       -17.2259
  21   2.0000      -0.632838       -17.2204
  22   2.0000      -0.630378       -17.1534
  23   2.0000      -0.622297       -16.9336
  24   2.0000      -0.575328       -15.6555
  25   2.0000      -0.554036       -15.0761
  26   2.0000      -0.551275       -15.0010
  27   2.0000      -0.546367       -14.8674
  28   2.0000      -0.543653       -14.7936
  29   2.0000      -0.537429       -14.6242
  30   2.0000      -0.523148       -14.2356
  31   2.0000      -0.441915       -12.0251
  32   0.0000      -0.064732        -1.7615
  33   0.0000       0.033367         0.9080
  34   0.0000       0.044581         1.2131
  35   0.0000       0.055594         1.5128
  36   0.0000       0.058461         1.5908

MULLIKEN ATOMIC CHARGES
-----------------------
   0 C :    1.295985
   1 C :    1.295985
   2 C :   -0.004245
   3 C :   -0.004245
   4 C :   -0.004245
   5 C :   -0.004245
   6 N :   -0.643748
   7 N :   -0.643748
   8 N :   -0.643748
   9 N :   -0.643748
Sum of atomic charges:    0.0000000

LOEWDIN ATOMIC CHARGES
----------------------
   0 C :   -0.224386
   1 C :   -0.224386
   2 C :   -0.227987
   3 C :   -0.227987
   4 C :   -0.227987
   5 C :   -0.227987
   6 N :    0.340180
   7 N :    0.340180
   8 N :    0.340180
   9 N :    0.340180

  Mayer bond orders larger than 0.100000
B(  0-C ,  1-C ) :   1.2895 B(  0-C ,  2-C ) :   0.1655 B(  0-C ,  3-C ) :   0.1655
B(  1-C ,  4-C ) :   0.1655 B(  1-C ,  5-C ) :   0.1655 B(  2-C ,  3-C ) :   0.4781
B(  2-C ,  5-C ) :   0.1247 B(  2-C ,  6-N ) :   2.0496 B(  3-C ,  4-C ) :   0.1247
B(  3-C ,  7-N ) :   2.0496 B(  4-C ,  5-C ) :   0.4781 B(  4-C ,  8-N ) :   2.0496
B(  5-C ,  9-N ) :   2.0496

MP2 TOTAL ENERGY:     -446.722716125 Eh
FINAL SINGLE POINT ENERGY      -446.722716124845

DIPOLE MOMENT
-------------
                                X             Y             Z
Electronic contribution:      0.00000       0.00000       0.00000
Nuclear contribution   :      0.00000       0.00000       0.00000
                        -----------------------------------------
Total Dipole Moment    :      0.00000       0.00000       0.00000
                        -----------------------------------------
Magnitude (a.u.)       :      0.00000
Magnitude (Debye)      :      0.00000

Rotational constants in cm-1:     0.049887     0.048925     0.024701
Rotational constants in MHz :  1495.583025  1466.746245   740.512140

                             ****ORCA TERMINATED NORMALLY****
TOTAL RUN TIME: 0 days 0 hours 3 minutes 44 seconds 414 msec
