                         Program Version 5.0.3 -  RELEASE  -
|  1> !ri-mp2 aug-cc-pvtz aug-cc-pvtz/c tightscf
|  2> %pal nprocs 16 end
|  3>
|  4> * xyz 0 1
|  5> C      0.000000    0.336443    0.000000
|  6> C     -0.894961   -0.655241    0.000000
|  7> C      1.437530    0.059783    0.000000
|  8> C     -2.376114   -0.496353    0.000000
|  9> O      2.302239    0.907893    0.000000
| 10> H     -0.296890    1.379137    0.000000
| 11> H     -0.520454   -1.676347    0.000000
| 12> H      1.704005   -1.017594    0.000000
| 13> H     -2.814656   -0.983507    0.874815
| 14> H     -2.814656   -0.983507   -0.874815
| 15> H     -2.673991    0.550880    0.000000
| 16> *
| 17>
| 18>                          ****END OF INPUT****

CARTESIAN COORDINATES (ANGSTROEM)
---------------------------------
  C      0.000000    0.336443    0.000000
  C     -0.894961   -0.655241    0.000000
  C      1.437530    0.059783    0.000000
  C     -2.376114   -0.496353    0.000000
  O      2.302239    0.907893    0.000000
  H     -0.296890    1.379137    0.000000
  H     -0.520454   -1.676347    0.000000
  H      1.704005   -1.017594    0.000000
  H     -2.814656   -0.983507    0.874815
  H     -2.814656   -0.983507   -0.874815
  H     -2.673991    0.550880    0.000000

 Total Charge           Charge          ....    0
 Multiplicity           Mult            ....    1
 Number of Electrons    NEL             ....   38
 Basis Dimension        Dim             ....  368

ORBITAL ENERGIES
----------------

  NO   OCC          E(Eh)            E(eV)
   0   2.0000     -20.549567      -559.1821
   1   2.0000     -11.328898      -308.2750
   2   2.0000     -11.275351      -306.8179
   3   2.0000     -11.246444      -306.0313
   4   2.0000     -11.242729      -305.9302
   5   2.0000      -1.384910       -37.6853
   6   2.0000      -1.109435       -30.1892
   7   2.0000      -0.989315       -26.9206
   8   2.0000      -0.838156       -22.8074
   9   2.0000      -0.782479       -21.2923
  10   2.0000      -0.678809       -18.4713
  11   2.0000      -0.647525       -17.6200
  12   2.0000      -0.594083       -16.1658
  13   2.0000      -0.593496       -16.1499
  14   2.0000      -0.567153       -15.4330
  15   2.0000      -0.535594       -14.5743
  16   2.0000      -0.532443       -14.4885
  17   2.0000      -0.423943       -11.5361
  18   2.0000      -0.383727       -10.4417
  19   0.0000       0.023479         0.6389
  20   0.0000       0.033093         0.9005
  21   0.0000       0.040735         1.1085
  22   0.0000       0.041600         1.1320
  23   0.0000       0.055997         1.5238

MULLIKEN ATOMIC CHARGES
-----------------------
   0 C :   -0.293598
   1 C :   -0.292070
   2 C :   -0.112377
   3 C :   -0.737165
   4 O :   -0.727408
   5 H :    0.378939
   6 H :    0.345046
   7 H :    0.552510
   8 H :    0.293256
   9 H :    0.293256
  10 H :    0.299610
Sum of atomic charges:    0.0000000

LOEWDIN ATOMIC CHARGES
----------------------
   0 C :    0.184721
   1 C :    0.198943
   2 C :   -0.276966
   3 C :    0.570872
   4 O :    0.414396
   5 H :   -0.196096
   6 H :   -0.181607
   7 H :   -0.195335
   8 H :   -0.170943
   9 H :   -0.170943
  10 H :   -0.177043

  Mayer bond orders larger than 0.100000
B(  0-C ,  1-C ) :   1.2539 B(  0-C ,  2-C ) :   0.8417 B(  0-C ,  5-H ) :   0.8683
B(  1-C ,  3-C ) :   0.7916 B(  1-C ,  6-H ) :   0.9505 B(  2-C ,  4-O ) :   1.6365
B(  2-C ,  7-H ) :   0.6457 B(  3-C ,  8-H ) :   0.9577 B(  3-C ,  9-H ) :   0.9577
B(  3-C , 10-H ) :   0.9441 B(  4-O ,  7-H ) :  -0.1111

MP2 TOTAL ENERGY:     -230.786799453 Eh
FINAL SINGLE POINT ENERGY      -230.786799452511

DIPOLE MOMENT
-------------
                                X             Y             Z
Electronic contribution:      5.98538       1.80277      -0.00000
Nuclear contribution   :     -7.51468      -2.76607       0.00000
                        -----------------------------------------
Total Dipole Moment    :     -1.52930      -0.96331      -0.00000
                        -----------------------------------------
Magnitude (a.u.)       :      1.80741
Magnitude (Debye)      :      4.59407

Rotational constants in cm-1:     1.110886     0.072877     0.069258
Rotational constants in MHz : 33303.526914  2184.803321  2076.290147

                             ****ORCA TERMINATED NORMALLY****
TOTAL RUN TIME: 0 days 0 hours 1 minutes 38 seconds 664 msec
