                         Program Version 5.0.3 -  RELEASE  -
|  1> !ri-mp2 aug-cc-pvtz aug-cc-pvtz/c tightscf
|  2> %pal nprocs 16 end
|  3>
|  4> * xyz 0 1
|  5> C      0.000000    0.000000    0.000000
|  6> Cl     1.030607    1.030607    1.030607
|  7> Cl    -1.030607   -1.030607    1.030607
|  8> Cl     1.030607   -1.030607   -1.030607
|  9> Cl    -1.030607    1.030607   -1.030607
| 10> *
| 11>
| 12>                          ****END OF INPUT****

CARTESIAN COORDINATES (ANGSTROEM)
---------------------------------
  C      0.000000    0.000000    0.000000
  Cl     1.030607    1.030607    1.030607
  Cl    -1.030607   -1.030607    1.030607
  Cl     1.030607   -1.030607   -1.030607
  Cl    -1.030607    1.030607   -1.030607

 Total Charge           Charge          ....    0
 Multiplicity           Mult            ....    1
 Number of Electrons    NEL             ....   74
 Basis Dimension        Dim             ....  246

ORBITAL ENERGIES
----------------

  NO   OCC          E(Eh)            E(eV)
   0   2.0000    -104.880049     -2853.9312
   1   2.0000    -104.880049     -2853.9312
   2   2.0000    -104.880049     -2853.9312
   3   2.0000    -104.880048     -2853.9312
   4   2.0000     -11.504115      -313.0429
   5   2.0000     -10.604030      -288.5503
   6   2.0000     -10.604030      -288.5503
   7   2.0000     -10.604030      -288.5503
   8   2.0000     -10.604011      -288.5498
   9   2.0000      -8.070767      -219.6167
  10   2.0000      -8.070766      -219.6167
  11   2.0000      -8.070766      -219.6167
  12   2.0000      -8.070766      -219.6167
  13   2.0000      -8.068514      -219.5554
  14   2.0000      -8.068514      -219.5554
  15   2.0000      -8.068512      -219.5554
  16   2.0000      -8.068512      -219.5554
  17   2.0000      -8.068512      -219.5554
  18   2.0000      -8.068510      -219.5553
  19   2.0000      -8.068510      -219.5553
  20   2.0000      -8.068510      -219.5553
  21   2.0000      -1.274414       -34.6786
  22   2.0000      -1.126097       -30.6427
  23   2.0000      -1.126097       -30.6427
  24   2.0000      -1.126097       -30.6427
  25   2.0000      -0.834386       -22.7048
  26   2.0000      -0.653855       -17.7923
  27   2.0000      -0.653855       -17.7923
  28   2.0000      -0.653855       -17.7923
  29   2.0000      -0.530827       -14.4445
  30   2.0000      -0.530827       -14.4445
  31   2.0000      -0.488790       -13.3007
  32   2.0000      -0.488790       -13.3007
  33   2.0000      -0.488790       -13.3007
  34   2.0000      -0.462224       -12.5777
  35   2.0000      -0.462224       -12.5777
  36   2.0000      -0.462224       -12.5777
  37   0.0000       0.046807         1.2737
  38   0.0000       0.070104         1.9076
  39   0.0000       0.070104         1.9076
  40   0.0000       0.070104         1.9076
  41   0.0000       0.081725         2.2238

MULLIKEN ATOMIC CHARGES
-----------------------
   0 C :    0.474938
   1 Cl:   -0.118734
   2 Cl:   -0.118734
   3 Cl:   -0.118734
   4 Cl:   -0.118734
Sum of atomic charges:    0.0000000

LOEWDIN ATOMIC CHARGES
----------------------
   0 C :   -2.846217
   1 Cl:    0.711554
   2 Cl:    0.711554
   3 Cl:    0.711554
   4 Cl:    0.711554

  Mayer bond orders larger than 0.100000
B(  0-C ,  1-Cl) :   0.8821 B(  0-C ,  2-Cl) :   0.8821 B(  0-C ,  3-Cl) :   0.8821
B(  0-C ,  4-Cl) :   0.8821

MP2 TOTAL ENERGY:    -1876.866567255 Eh
FINAL SINGLE POINT ENERGY     -1876.866567254993

DIPOLE MOMENT
-------------
                                X             Y             Z
Electronic contribution:      0.00000      -0.00000      -0.00000
Nuclear contribution   :      0.00000       0.00000       0.00000
                        -----------------------------------------
Total Dipole Moment    :      0.00000      -0.00000      -0.00000
                        -----------------------------------------
Magnitude (a.u.)       :      0.00000
Magnitude (Debye)      :      0.00000

Rotational constants in cm-1:     0.055959     0.055959     0.055959
Rotational constants in MHz :  1677.600127  1677.600127  1677.600127

                             ****ORCA TERMINATED NORMALLY****
TOTAL RUN TIME: 0 days 0 hours 0 minutes 49 seconds 141 msec
