                         Program Version 5.0.3 -  RELEASE  -
|  1> !ri-mp2 aug-cc-pvtz aug-cc-pvtz/c tightscf
|  2> %pal nprocs 16 end
|  3> %maxcore 3800
|  4>
|  5> * xyz 0 1
|  6> C      1.016390    2.717163    0.000000
|  7> C      1.881445    1.628485    0.000000
|  8> C     -0.351319    2.489477    0.000000
|  9> C      1.378116    0.335664    0.000000
| 10> C     -0.850314    1.189521    0.000000
| 11> C      0.000795    0.083541    0.000000
| 12> C      0.000795   -2.093932    1.258284
| 13> C      0.000795   -2.093932   -1.258284
| 14> C     -2.048330   -1.439541    0.000000
| 15> C     -0.514092   -1.363859    0.000000
| 16> H      1.405258    3.726594    0.000000
| 17> H      2.952226    1.785794    0.000000
| 18> H     -1.040642    3.323885    0.000000
| 19> H      2.076582   -0.490211    0.000000
| 20> H     -1.921023    1.051194    0.000000
| 21> H     -0.357843   -3.125177    1.270861
| 22> H      1.089525   -2.120203    1.294620
| 23> H     -0.351283   -1.601521    2.165820
| 24> H      1.089525   -2.120203   -1.294620
| 25> H     -0.357843   -3.125177   -1.270861
| 26> H     -0.351283   -1.601521   -2.165820
| 27> H     -2.361319   -2.484481    0.000000
| 28> H     -2.478782   -0.967247    0.883628
| 29> H     -2.478782   -0.967247   -0.883628
| 30> *
| 31>
| 32>                          ****END OF INPUT****

CARTESIAN COORDINATES (ANGSTROEM)
---------------------------------
  C      1.016390    2.717163    0.000000
  C      1.881445    1.628485    0.000000
  C     -0.351319    2.489477    0.000000
  C      1.378116    0.335664    0.000000
  C     -0.850314    1.189521    0.000000
  C      0.000795    0.083541    0.000000
  C      0.000795   -2.093932    1.258284
  C      0.000795   -2.093932   -1.258284
  C     -2.048330   -1.439541    0.000000
  C     -0.514092   -1.363859    0.000000
  H      1.405258    3.726594    0.000000
  H      2.952226    1.785794    0.000000
  H     -1.040642    3.323885    0.000000
  H      2.076582   -0.490211    0.000000
  H     -1.921023    1.051194    0.000000
  H     -0.357843   -3.125177    1.270861
  H      1.089525   -2.120203    1.294620
  H     -0.351283   -1.601521    2.165820
  H      1.089525   -2.120203   -1.294620
  H     -0.357843   -3.125177   -1.270861
  H     -0.351283   -1.601521   -2.165820
  H     -2.361319   -2.484481    0.000000
  H     -2.478782   -0.967247    0.883628
  H     -2.478782   -0.967247   -0.883628

 Total Charge           Charge          ....    0
 Multiplicity           Mult            ....    1
 Number of Electrons    NEL             ....   74
 Basis Dimension        Dim             ....  782

ORBITAL ENERGIES
----------------

  NO   OCC          E(Eh)            E(eV)
   0   2.0000     -11.244061      -305.9665
   1   2.0000     -11.236428      -305.7588
   2   2.0000     -11.230032      -305.5847
   3   2.0000     -11.229464      -305.5692
   4   2.0000     -11.226343      -305.4843
   5   2.0000     -11.225865      -305.4713
   6   2.0000     -11.225219      -305.4537
   7   2.0000     -11.212619      -305.1109
   8   2.0000     -11.212400      -305.1049
   9   2.0000     -11.212385      -305.1045
  10   2.0000      -1.156994       -31.4834
  11   2.0000      -1.097397       -29.8617
  12   2.0000      -1.011295       -27.5187
  13   2.0000      -0.997401       -27.1407
  14   2.0000      -0.933633       -25.4054
  15   2.0000      -0.932117       -25.3642
  16   2.0000      -0.834458       -22.7068
  17   2.0000      -0.818633       -22.2761
  18   2.0000      -0.749554       -20.3964
  19   2.0000      -0.694758       -18.9053
  20   2.0000      -0.631048       -17.1717
  21   2.0000      -0.628629       -17.1059
  22   2.0000      -0.613803       -16.7024
  23   2.0000      -0.601080       -16.3562
  24   2.0000      -0.586157       -15.9502
  25   2.0000      -0.577956       -15.7270
  26   2.0000      -0.547278       -14.8922
  27   2.0000      -0.531311       -14.4577
  28   2.0000      -0.523435       -14.2434
  29   2.0000      -0.515456       -14.0263
  30   2.0000      -0.498045       -13.5525
  31   2.0000      -0.495776       -13.4907
  32   2.0000      -0.464595       -12.6423
  33   2.0000      -0.458941       -12.4884
  34   2.0000      -0.452059       -12.3011
  35   2.0000      -0.332896        -9.0586
  36   2.0000      -0.323723        -8.8090
  37   0.0000       0.027989         0.7616
  38   0.0000       0.032060         0.8724
  39   0.0000       0.033226         0.9041
  40   0.0000       0.039561         1.0765
  41   0.0000       0.044938         1.2228

MULLIKEN ATOMIC CHARGES
-----------------------
   0 C :   -0.267692
   1 C :   -1.027739
   2 C :   -0.796043
   3 C :   -0.676054
   4 C :   -0.709661
   5 C :    2.187132
   6 C :   -1.212403
   7 C :   -1.212402
   8 C :   -1.304253
   9 C :    1.294400
  10 H :    0.472453
  11 H :    0.545106
  12 H :    0.650743
  13 H :   -0.009058
  14 H :   -0.307970
  15 H :    0.180972
  16 H :    0.319518
  17 H :    0.304506
  18 H :    0.319518
  19 H :    0.180973
  20 H :    0.304506
  21 H :    0.218899
  22 H :    0.272274
  23 H :    0.272274
Sum of atomic charges:    0.0000000

LOEWDIN ATOMIC CHARGES
----------------------
   0 C :    0.193391
   1 C :    0.204302
   2 C :    0.203729
   3 C :    0.213740
   4 C :    0.224672
   5 C :   -0.071673
   6 C :    0.589788
   7 C :    0.589788
   8 C :    0.566986
   9 C :   -0.335933
  10 H :   -0.187340
  11 H :   -0.183309
  12 H :   -0.183597
  13 H :   -0.188291
  14 H :   -0.204679
  15 H :   -0.157682
  16 H :   -0.169766
  17 H :   -0.150971
  18 H :   -0.169766
  19 H :   -0.157682
  20 H :   -0.150971
  21 H :   -0.157948
  22 H :   -0.158394
  23 H :   -0.158394

  Mayer bond orders larger than 0.100000
B(  0-C ,  1-C ) :   1.2212 B(  0-C ,  2-C ) :   1.1053 B(  0-C ,  3-C ) :  -0.1276
B(  0-C ,  4-C ) :  -0.2125 B(  0-C ,  5-C ) :   0.1084 B(  0-C , 10-H ) :   0.7786
B(  1-C ,  2-C ) :   0.3416 B(  1-C ,  3-C ) :   1.4634 B(  1-C , 10-H ) :  -0.2644
B(  1-C , 11-H ) :   0.5869 B(  1-C , 13-H ) :  -0.1265 B(  2-C ,  4-C ) :   1.0258
B(  2-C ,  5-C ) :   0.3548 B(  2-C , 10-H ) :  -0.2364 B(  2-C , 12-H ) :   0.4169
B(  2-C , 14-H ) :  -0.1717 B(  3-C ,  4-C ) :  -0.6767 B(  3-C ,  5-C ) :   0.1866
B(  3-C ,  9-C ) :   0.2799 B(  3-C , 13-H ) :   1.5329 B(  3-C , 14-H ) :   0.1160
B(  4-C ,  5-C ) :  -0.1567 B(  4-C ,  9-C ) :   0.1696 B(  4-C , 10-H ) :   0.2749
B(  4-C , 11-H ) :  -0.1181 B(  4-C , 12-H ) :  -0.2029 B(  4-C , 13-H ) :   0.3211
B(  4-C , 14-H ) :   2.4494 B(  5-C ,  9-C ) :   0.8257 B(  5-C , 10-H ) :  -0.1275
B(  5-C , 11-H ) :   0.1167 B(  5-C , 12-H ) :   0.1454 B(  5-C , 13-H ) :  -0.3994
B(  5-C , 14-H ) :  -0.5656 B(  6-C ,  7-C ) :   0.1371 B(  6-C ,  9-C ) :   0.5010
B(  6-C , 15-H ) :   1.0997 B(  6-C , 16-H ) :   0.9753 B(  6-C , 17-H ) :   0.9941
B(  7-C ,  9-C ) :   0.5010 B(  7-C , 18-H ) :   0.9753 B(  7-C , 19-H ) :   1.0997
B(  7-C , 20-H ) :   0.9941 B(  8-C ,  9-C ) :   0.3219 B(  8-C , 21-H ) :   1.0993
B(  8-C , 22-H ) :   1.0626 B(  8-C , 23-H ) :   1.0626 B(  9-C , 13-H ) :  -0.1104
B(  9-C , 21-H ) :  -0.1161 B( 11-H , 14-H ) :  -0.1014 B( 12-H , 14-H ) :  -0.1256
B( 13-H , 14-H ) :   0.1368

MP2 TOTAL ENERGY:     -388.656236964 Eh
FINAL SINGLE POINT ENERGY      -388.656236964138

DIPOLE MOMENT
-------------
                                X             Y             Z
Electronic contribution:      3.13757       8.85497      -0.00000
Nuclear contribution   :     -3.19501      -9.02431      -0.00000
                        -----------------------------------------
Total Dipole Moment    :     -0.05743      -0.16934      -0.00000
                        -----------------------------------------
Magnitude (a.u.)       :      0.17881
Magnitude (Debye)      :      0.45450

Rotational constants in cm-1:     0.085556     0.031584     0.027217
Rotational constants in MHz :  2564.894076   946.865200   815.946056

                             ****ORCA TERMINATED NORMALLY****
TOTAL RUN TIME: 0 days 0 hours 17 minutes 45 seconds 280 msec
