                         Program Version 5.0.3 -  RELEASE  -
|  1> !ri-mp2 aug-cc-pvtz aug-cc-pvtz/c tightscf
|  2> %pal nprocs 16 end
|  3>
|  4> * xyz 0 1
|  5> C      0.000000    0.000000   -0.316883
|  6> S      0.000000    0.000000    1.353097
|  7> N      0.000000    1.146987   -1.046835
|  8> N      0.000000   -1.146987   -1.046835
|  9> H      0.128543    2.000926   -0.533905
| 10> H      0.285536    1.143343   -2.012373
| 11> H     -0.128543   -2.000926   -0.533905
| 12> H     -0.285536   -1.143343   -2.012373
| 13> *
| 14>
| 15>                          ****END OF INPUT****

CARTESIAN COORDINATES (ANGSTROEM)
---------------------------------
  C      0.000000    0.000000   -0.316883
  S      0.000000    0.000000    1.353097
  N      0.000000    1.146987   -1.046835
  N      0.000000   -1.146987   -1.046835
  H      0.128543    2.000926   -0.533905
  H      0.285536    1.143343   -2.012373
  H     -0.128543   -2.000926   -0.533905
  H     -0.285536   -1.143343   -2.012373

 Total Charge           Charge          ....    0
 Multiplicity           Mult            ....    1
 Number of Electrons    NEL             ....   40
 Basis Dimension        Dim             ....  280

ORBITAL ENERGIES
----------------

  NO   OCC          E(Eh)            E(eV)
   0   2.0000     -91.889500     -2500.4404
   1   2.0000     -15.605824      -424.6560
   2   2.0000     -15.605798      -424.6554
   3   2.0000     -11.383657      -309.7651
   4   2.0000      -8.892949      -241.9894
   5   2.0000      -6.574557      -178.9028
   6   2.0000      -6.572581      -178.8490
   7   2.0000      -6.571991      -178.8330
   8   2.0000      -1.310128       -35.6504
   9   2.0000      -1.198286       -32.6070
  10   2.0000      -0.978494       -26.6262
  11   2.0000      -0.828106       -22.5339
  12   2.0000      -0.748175       -20.3589
  13   2.0000      -0.730858       -19.8877
  14   2.0000      -0.660036       -17.9605
  15   2.0000      -0.582011       -15.8373
  16   2.0000      -0.513011       -13.9597
  17   2.0000      -0.443416       -12.0660
  18   2.0000      -0.328212        -8.9311
  19   2.0000      -0.323454        -8.8016
  20   0.0000       0.016190         0.4406
  21   0.0000       0.031731         0.8634
  22   0.0000       0.046992         1.2787
  23   0.0000       0.058208         1.5839
  24   0.0000       0.084143         2.2897

MULLIKEN ATOMIC CHARGES
-----------------------
   0 C :    0.374635
   1 S :   -0.459828
   2 N :   -0.253568
   3 N :   -0.253568
   4 H :    0.158234
   5 H :    0.137930
   6 H :    0.158234
   7 H :    0.137930
Sum of atomic charges:   -0.0000000

LOEWDIN ATOMIC CHARGES
----------------------
   0 C :   -1.084717
   1 S :    0.800060
   2 N :    0.769865
   3 N :    0.769865
   4 H :   -0.330746
   5 H :   -0.296790
   6 H :   -0.330746
   7 H :   -0.296790

  Mayer bond orders larger than 0.100000
B(  0-C ,  1-S ) :   1.4486 B(  0-C ,  2-N ) :   1.0760 B(  0-C ,  3-N ) :   1.0760
B(  2-N ,  4-H ) :   1.0190 B(  2-N ,  5-H ) :   1.0231 B(  3-N ,  6-H ) :   1.0190
B(  3-N ,  7-H ) :   1.0231

MP2 TOTAL ENERGY:     -547.484137484 Eh
FINAL SINGLE POINT ENERGY      -547.484137484470

DIPOLE MOMENT
-------------
                                X             Y             Z
Electronic contribution:     -0.00000      -0.00000       2.90925
Nuclear contribution   :      0.00000       0.00000      -5.07938
                        -----------------------------------------
Total Dipole Moment    :     -0.00000      -0.00000      -2.17014
                        -----------------------------------------
Magnitude (a.u.)       :      2.17014
Magnitude (Debye)      :      5.51605

Rotational constants in cm-1:     0.352972     0.169993     0.114999
Rotational constants in MHz : 10581.832770  5096.254093  3447.592685

                             ****ORCA TERMINATED NORMALLY****
TOTAL RUN TIME: 0 days 0 hours 1 minutes 9 seconds 593 msec
