                         Program Version 5.0.3 -  RELEASE  -
|  1> !ri-mp2 aug-cc-pvtz aug-cc-pvtz/c tightscf
|  2> %pal nprocs 16 end
|  3>
|  4> * xyz 0 1
|  5> C     -0.091009    0.344069    0.762763
|  6> C     -0.091009    0.344069   -0.762763
|  7> C     -1.274798    0.863593    0.000000
|  8> C      1.043254    1.383282    0.782434
|  9> C     -0.091009   -1.088216    1.246819
| 10> C      1.043254    1.383282   -0.782434
| 11> C     -0.091009   -1.088216   -1.246819
| 12> C     -0.542343   -1.905205    0.000000
| 13> H     -2.164538    0.249662    0.000000
| 14> H     -1.477867    1.927933    0.000000
| 15> H      1.969402    0.987255    1.196949
| 16> H      0.820737    2.329837    1.278331
| 17> H     -0.731511   -1.283950    2.109647
| 18> H      0.926511   -1.368063    1.532126
| 19> H      0.820737    2.329837   -1.278331
| 20> H      1.969402    0.987255   -1.196949
| 21> H      0.926511   -1.368063   -1.532126
| 22> H     -0.731511   -1.283950   -2.109647
| 23> H     -1.627719   -2.012526    0.000000
| 24> H     -0.132150   -2.915184    0.000000
| 25> *
| 26>
| 27>                          ****END OF INPUT****

CARTESIAN COORDINATES (ANGSTROEM)
---------------------------------
  C     -0.091009    0.344069    0.762763
  C     -0.091009    0.344069   -0.762763
  C     -1.274798    0.863593    0.000000
  C      1.043254    1.383282    0.782434
  C     -0.091009   -1.088216    1.246819
  C      1.043254    1.383282   -0.782434
  C     -0.091009   -1.088216   -1.246819
  C     -0.542343   -1.905205    0.000000
  H     -2.164538    0.249662    0.000000
  H     -1.477867    1.927933    0.000000
  H      1.969402    0.987255    1.196949
  H      0.820737    2.329837    1.278331
  H     -0.731511   -1.283950    2.109647
  H      0.926511   -1.368063    1.532126
  H      0.820737    2.329837   -1.278331
  H      1.969402    0.987255   -1.196949
  H      0.926511   -1.368063   -1.532126
  H     -0.731511   -1.283950   -2.109647
  H     -1.627719   -2.012526    0.000000
  H     -0.132150   -2.915184    0.000000

 Total Charge           Charge          ....    0
 Multiplicity           Mult            ....    1
 Number of Electrons    NEL             ....   60
 Basis Dimension        Dim             ....  644

ORBITAL ENERGIES
----------------

  NO   OCC          E(Eh)            E(eV)
   0   2.0000     -11.222357      -305.3759
   1   2.0000     -11.222147      -305.3701
   2   2.0000     -11.221629      -305.3560
   3   2.0000     -11.219906      -305.3092
   4   2.0000     -11.219801      -305.3063
   5   2.0000     -11.218506      -305.2711
   6   2.0000     -11.217592      -305.2462
   7   2.0000     -11.216988      -305.2298
   8   2.0000      -1.204625       -32.7795
   9   2.0000      -1.049288       -28.5526
  10   2.0000      -0.972893       -26.4738
  11   2.0000      -0.962390       -26.1880
  12   2.0000      -0.848937       -23.1007
  13   2.0000      -0.835993       -22.7485
  14   2.0000      -0.762462       -20.7476
  15   2.0000      -0.668392       -18.1879
  16   2.0000      -0.668067       -18.1790
  17   2.0000      -0.631199       -17.1758
  18   2.0000      -0.603847       -16.4315
  19   2.0000      -0.566844       -15.4246
  20   2.0000      -0.564902       -15.3718
  21   2.0000      -0.540169       -14.6988
  22   2.0000      -0.532562       -14.4917
  23   2.0000      -0.506840       -13.7918
  24   2.0000      -0.474858       -12.9215
  25   2.0000      -0.469882       -12.7862
  26   2.0000      -0.450574       -12.2607
  27   2.0000      -0.441318       -12.0089
  28   2.0000      -0.392175       -10.6716
  29   2.0000      -0.332514        -9.0482
  30   0.0000       0.030717         0.8359
  31   0.0000       0.035671         0.9707
  32   0.0000       0.036407         0.9907
  33   0.0000       0.038049         1.0354
  34   0.0000       0.049633         1.3506

MULLIKEN ATOMIC CHARGES
-----------------------
   0 C :    0.627414
   1 C :    0.627414
   2 C :   -1.350998
   3 C :   -0.786240
   4 C :   -0.581118
   5 C :   -0.786240
   6 C :   -0.581118
   7 C :   -0.455972
   8 H :    0.333136
   9 H :    0.423949
  10 H :    0.221562
  11 H :    0.289849
  12 H :    0.305266
  13 H :    0.175989
  14 H :    0.289849
  15 H :    0.221562
  16 H :    0.175989
  17 H :    0.305266
  18 H :    0.160337
  19 H :    0.384106
Sum of atomic charges:   -0.0000000

LOEWDIN ATOMIC CHARGES
----------------------
   0 C :   -0.200495
   1 C :   -0.200495
   2 C :    0.414947
   3 C :    0.370814
   4 C :    0.346645
   5 C :    0.370814
   6 C :    0.346645
   7 C :    0.324633
   8 H :   -0.149319
   9 H :   -0.140205
  10 H :   -0.150691
  11 H :   -0.148348
  12 H :   -0.145054
  13 H :   -0.146411
  14 H :   -0.148348
  15 H :   -0.150691
  16 H :   -0.146411
  17 H :   -0.145054
  18 H :   -0.157241
  19 H :   -0.145738

  Mayer bond orders larger than 0.100000
B(  0-C ,  1-C ) :   0.4055 B(  0-C ,  2-C ) :   0.9221 B(  0-C ,  3-C ) :   0.7783
B(  0-C ,  4-C ) :   0.5288 B(  1-C ,  2-C ) :   0.9221 B(  1-C ,  5-C ) :   0.7783
B(  1-C ,  6-C ) :   0.5288 B(  2-C ,  8-H ) :   0.9109 B(  2-C ,  9-H ) :   0.7989
B(  3-C ,  5-C ) :   1.2187 B(  3-C , 10-H ) :   1.0216 B(  3-C , 11-H ) :   0.9319
B(  4-C ,  6-C ) :   0.1382 B(  4-C ,  7-C ) :   0.9967 B(  4-C , 12-H ) :   0.9491
B(  4-C , 13-H ) :   1.0482 B(  5-C , 14-H ) :   0.9319 B(  5-C , 15-H ) :   1.0216
B(  6-C ,  7-C ) :   0.9967 B(  6-C , 16-H ) :   1.0482 B(  6-C , 17-H ) :   0.9491
B(  7-C , 18-H ) :   1.0351 B(  7-C , 19-H ) :   0.8384

MP2 TOTAL ENERGY:     -311.325857890 Eh
FINAL SINGLE POINT ENERGY      -311.325857889892

DIPOLE MOMENT
-------------
                                X             Y             Z
Electronic contribution:     -0.49775       1.33536      -0.00000
Nuclear contribution   :      0.59163      -1.47902       0.00000
                        -----------------------------------------
Total Dipole Moment    :      0.09389      -0.14366      -0.00000
                        -----------------------------------------
Magnitude (a.u.)       :      0.17162
Magnitude (Debye)      :      0.43622

Rotational constants in cm-1:     0.119877     0.070995     0.062750
Rotational constants in MHz :  3593.813470  2128.384386  1881.182869

                             ****ORCA TERMINATED NORMALLY****
TOTAL RUN TIME: 0 days 0 hours 9 minutes 38 seconds 752 msec
