                         Program Version 5.0.3 -  RELEASE  -
|  1> !ri-mp2 aug-cc-pvtz aug-cc-pvtz/c tightscf
|  2> %pal nprocs 16 end
|  3>
|  4> * xyz 0 1
|  5> C      0.085896    0.594059    0.000000
|  6> C     -0.294386   -0.910548    0.000000
|  7> O      0.812941   -1.659252    0.000000
|  8> O     -1.420191   -1.307503    0.000000
|  9> F     -1.007987    1.348927    0.000000
| 10> F      0.812941    0.893583    1.087792
| 11> F      0.812941    0.893583   -1.087792
| 12> H      0.547878   -2.591865    0.000000
| 13> *
| 14>
| 15>                          ****END OF INPUT****

CARTESIAN COORDINATES (ANGSTROEM)
---------------------------------
  C      0.085896    0.594059    0.000000
  C     -0.294386   -0.910548    0.000000
  O      0.812941   -1.659252    0.000000
  O     -1.420191   -1.307503    0.000000
  F     -1.007987    1.348927    0.000000
  F      0.812941    0.893583    1.087792
  F      0.812941    0.893583   -1.087792
  H      0.547878   -2.591865    0.000000

 Total Charge           Charge          ....    0
 Multiplicity           Mult            ....    1
 Number of Electrons    NEL             ....   56
 Basis Dimension        Dim             ....  345

ORBITAL ENERGIES
----------------

  NO   OCC          E(Eh)            E(eV)
   0   2.0000     -26.364657      -717.4188
   1   2.0000     -26.364636      -717.4182
   2   2.0000     -26.362467      -717.3592
   3   2.0000     -20.658574      -562.1484
   4   2.0000     -20.603491      -560.6495
   5   2.0000     -11.543162      -314.1054
   6   2.0000     -11.440686      -311.3169
   7   2.0000      -1.754483       -47.7419
   8   2.0000      -1.659802       -45.1655
   9   2.0000      -1.659051       -45.1451
  10   2.0000      -1.515051       -41.2266
  11   2.0000      -1.417812       -38.5806
  12   2.0000      -1.047101       -28.4931
  13   2.0000      -0.920740       -25.0546
  14   2.0000      -0.850792       -23.1512
  15   2.0000      -0.847835       -23.0708
  16   2.0000      -0.820191       -22.3185
  17   2.0000      -0.747264       -20.3341
  18   2.0000      -0.735049       -20.0017
  19   2.0000      -0.731439       -19.9035
  20   2.0000      -0.695514       -18.9259
  21   2.0000      -0.691255       -18.8100
  22   2.0000      -0.686429       -18.6787
  23   2.0000      -0.672094       -18.2886
  24   2.0000      -0.663716       -18.0606
  25   2.0000      -0.617941       -16.8150
  26   2.0000      -0.529893       -14.4191
  27   2.0000      -0.506103       -13.7718
  28   0.0000       0.022921         0.6237
  29   0.0000       0.061706         1.6791
  30   0.0000       0.074863         2.0371
  31   0.0000       0.076168         2.0726
  32   0.0000       0.095609         2.6016

MULLIKEN ATOMIC CHARGES
-----------------------
   0 C :    1.523703
   1 C :    0.188573
   2 O :   -0.313674
   3 O :   -0.557894
   4 F :   -0.354141
   5 F :   -0.363443
   6 F :   -0.363443
   7 H :    0.240318
Sum of atomic charges:    0.0000000

LOEWDIN ATOMIC CHARGES
----------------------
   0 C :   -1.510714
   1 C :   -0.818314
   2 O :    0.827128
   3 O :    0.452128
   4 F :    0.512445
   5 F :    0.494173
   6 F :    0.494173
   7 H :   -0.451019

  Mayer bond orders larger than 0.100000
B(  0-C ,  1-C ) :   0.6689 B(  0-C ,  4-F ) :   0.8402 B(  0-C ,  5-F ) :   0.7934
B(  0-C ,  6-F ) :   0.7934 B(  1-C ,  2-O ) :   1.1176 B(  1-C ,  3-O ) :   1.6743
B(  2-O ,  7-H ) :   0.9405

MP2 TOTAL ENERGY:     -526.141134545 Eh
FINAL SINGLE POINT ENERGY      -526.141134544612

DIPOLE MOMENT
-------------
                                X             Y             Z
Electronic contribution:      0.53185       4.50540      -0.00000
Nuclear contribution   :     -0.06634      -5.29062       0.00000
                        -----------------------------------------
Total Dipole Moment    :      0.46551      -0.78522      -0.00000
                        -----------------------------------------
Magnitude (a.u.)       :      0.91284
Magnitude (Debye)      :      2.32025

Rotational constants in cm-1:     0.128193     0.082596     0.068617
Rotational constants in MHz :  3843.128777  2476.178764  2057.081273

                             ****ORCA TERMINATED NORMALLY****
TOTAL RUN TIME: 0 days 0 hours 1 minutes 28 seconds 547 msec
