                         Program Version 5.0.3 -  RELEASE  -
|  1> !ri-mp2 aug-cc-pvtz aug-cc-pvtz/c tightscf
|  2> %pal nprocs 16 end
|  3>
|  4> * xyz 0 1
|  5> C      0.000000    0.000000    2.819994
|  6> C      0.000000    0.000000   -2.819994
|  7> C      0.000000    1.212111    0.691573
|  8> C      0.000000    1.212111   -0.691573
|  9> C      0.000000   -1.212111    0.691573
| 10> C      0.000000   -1.212111   -0.691573
| 11> C      0.000000    0.000000    1.390135
| 12> C      0.000000    0.000000   -1.390135
| 13> N      0.000000    0.000000    3.971955
| 14> N      0.000000    0.000000   -3.971955
| 15> H      0.000000    2.144546    1.236677
| 16> H      0.000000    2.144546   -1.236677
| 17> H      0.000000   -2.144546    1.236677
| 18> H      0.000000   -2.144546   -1.236677
| 19> *
| 20>
| 21>                          ****END OF INPUT****

CARTESIAN COORDINATES (ANGSTROEM)
---------------------------------
  C      0.000000    0.000000    2.819994
  C      0.000000    0.000000   -2.819994
  C      0.000000    1.212111    0.691573
  C      0.000000    1.212111   -0.691573
  C      0.000000   -1.212111    0.691573
  C      0.000000   -1.212111   -0.691573
  C      0.000000    0.000000    1.390135
  C      0.000000    0.000000   -1.390135
  N      0.000000    0.000000    3.971955
  N      0.000000    0.000000   -3.971955
  H      0.000000    2.144546    1.236677
  H      0.000000    2.144546   -1.236677
  H      0.000000   -2.144546    1.236677
  H      0.000000   -2.144546   -1.236677

 Total Charge           Charge          ....    0
 Multiplicity           Mult            ....    1
 Number of Electrons    NEL             ....   66
 Basis Dimension        Dim             ....  552

ORBITAL ENERGIES
----------------

  NO   OCC          E(Eh)            E(eV)
   0   2.0000     -15.593969      -424.3335
   1   2.0000     -15.593969      -424.3335
   2   2.0000     -11.320762      -308.0536
   3   2.0000     -11.320743      -308.0531
   4   2.0000     -11.296546      -307.3946
   5   2.0000     -11.296485      -307.3930
   6   2.0000     -11.295230      -307.3588
   7   2.0000     -11.295221      -307.3586
   8   2.0000     -11.295172      -307.3573
   9   2.0000     -11.295162      -307.3570
  10   2.0000      -1.252349       -34.0782
  11   2.0000      -1.244734       -33.8709
  12   2.0000      -1.212050       -32.9816
  13   2.0000      -1.106319       -30.1045
  14   2.0000      -1.079418       -29.3724
  15   2.0000      -0.946465       -25.7546
  16   2.0000      -0.892914       -24.2974
  17   2.0000      -0.795836       -21.6558
  18   2.0000      -0.786909       -21.4129
  19   2.0000      -0.701826       -19.0976
  20   2.0000      -0.669838       -18.2272
  21   2.0000      -0.647804       -17.6276
  22   2.0000      -0.614983       -16.7345
  23   2.0000      -0.590996       -16.0818
  24   2.0000      -0.579149       -15.7595
  25   2.0000      -0.567155       -15.4331
  26   2.0000      -0.564274       -15.3547
  27   2.0000      -0.535733       -14.5780
  28   2.0000      -0.489790       -13.3279
  29   2.0000      -0.489257       -13.3134
  30   2.0000      -0.484288       -13.1781
  31   2.0000      -0.394792       -10.7428
  32   2.0000      -0.378532       -10.3004
  33   0.0000       0.020853         0.5674
  34   0.0000       0.021381         0.5818
  35   0.0000       0.026350         0.7170
  36   0.0000       0.039000         1.0613
  37   0.0000       0.046908         1.2764

MULLIKEN ATOMIC CHARGES
-----------------------
   0 C :    0.612920
   1 C :    0.612920
   2 C :   -1.156552
   3 C :   -1.156552
   4 C :   -1.156552
   5 C :   -1.156552
   6 C :    2.295683
   7 C :    2.295683
   8 N :   -0.840821
   9 N :   -0.840821
  10 H :    0.122661
  11 H :    0.122661
  12 H :    0.122661
  13 H :    0.122661
Sum of atomic charges:    0.0000000

LOEWDIN ATOMIC CHARGES
----------------------
   0 C :   -0.228331
   1 C :   -0.228331
   2 C :    0.229087
   3 C :    0.229087
   4 C :    0.229087
   5 C :    0.229087
   6 C :   -0.181129
   7 C :   -0.181129
   8 N :    0.281942
   9 N :    0.281942
  10 H :   -0.165328
  11 H :   -0.165328
  12 H :   -0.165328
  13 H :   -0.165328

  Mayer bond orders larger than 0.100000
B(  0-C ,  1-C ) :   0.4317 B(  0-C ,  2-C ) :   0.3781 B(  0-C ,  3-C ) :  -0.2888
B(  0-C ,  4-C ) :   0.3781 B(  0-C ,  5-C ) :  -0.2888 B(  0-C ,  6-C ) :   0.5579
B(  0-C ,  7-C ) :   0.4004 B(  0-C ,  8-N ) :   1.5260 B(  1-C ,  2-C ) :  -0.2888
B(  1-C ,  3-C ) :   0.3781 B(  1-C ,  4-C ) :  -0.2888 B(  1-C ,  5-C ) :   0.3781
B(  1-C ,  6-C ) :   0.4004 B(  1-C ,  7-C ) :   0.5579 B(  1-C ,  9-N ) :   1.5260
B(  2-C ,  3-C ) :   1.7216 B(  2-C ,  4-C ) :  -0.1686 B(  2-C ,  5-C ) :   0.3294
B(  2-C ,  7-C ) :  -0.3086 B(  2-C ,  8-N ) :   0.1161 B(  2-C , 10-H ) :   1.4997
B(  2-C , 12-H ) :   0.1208 B(  3-C ,  4-C ) :   0.3294 B(  3-C ,  5-C ) :  -0.1686
B(  3-C ,  6-C ) :  -0.3086 B(  3-C ,  9-N ) :   0.1161 B(  3-C , 11-H ) :   1.4997
B(  3-C , 13-H ) :   0.1208 B(  4-C ,  5-C ) :   1.7216 B(  4-C ,  7-C ) :  -0.3086
B(  4-C ,  8-N ) :   0.1161 B(  4-C , 10-H ) :   0.1208 B(  4-C , 12-H ) :   1.4997
B(  5-C ,  6-C ) :  -0.3086 B(  5-C ,  9-N ) :   0.1161 B(  5-C , 11-H ) :   0.1208
B(  5-C , 13-H ) :   1.4997 B(  6-C ,  7-C ) :   0.3887 B(  6-C , 10-H ) :  -0.3291
B(  6-C , 11-H ) :  -0.2286 B(  6-C , 12-H ) :  -0.3291 B(  6-C , 13-H ) :  -0.2286
B(  7-C , 10-H ) :  -0.2286 B(  7-C , 11-H ) :  -0.3291 B(  7-C , 12-H ) :  -0.2286
B(  7-C , 13-H ) :  -0.3291 B( 10-H , 12-H ) :   0.1210 B( 11-H , 13-H ) :   0.1210

MP2 TOTAL ENERGY:     -415.921793182 Eh
FINAL SINGLE POINT ENERGY      -415.921793181526

DIPOLE MOMENT
-------------
                                X             Y             Z
Electronic contribution:     -0.00000      -0.00000       0.00000
Nuclear contribution   :      0.00000       0.00000       0.00000
                        -----------------------------------------
Total Dipole Moment    :     -0.00000      -0.00000       0.00000
                        -----------------------------------------
Magnitude (a.u.)       :      0.00000
Magnitude (Debye)      :      0.00000

Rotational constants in cm-1:     0.189135     0.023791     0.021133
Rotational constants in MHz :  5670.116393   713.249626   633.554207

                             ****ORCA TERMINATED NORMALLY****
TOTAL RUN TIME: 0 days 0 hours 6 minutes 26 seconds 912 msec
