                         Program Version 5.0.3 -  RELEASE  -
|  1> !ri-mp2 aug-cc-pvtz aug-cc-pvtz/c tightscf
|  2> %pal nprocs 16 end
|  3>
|  4> * xyz 0 1
|  5> C      0.328492    0.194175    0.000000
|  6> O     -1.058695    0.337244    0.000000
|  7> F      0.765646    1.447109    0.000000
|  8> F      0.765646   -0.443615    1.077970
|  9> F      0.765646   -0.443615   -1.077970
| 10> F     -1.574869   -0.989103    0.000000
| 11> *
| 12>
| 13>                          ****END OF INPUT****

CARTESIAN COORDINATES (ANGSTROEM)
---------------------------------
  C      0.328492    0.194175    0.000000
  O     -1.058695    0.337244    0.000000
  F      0.765646    1.447109    0.000000
  F      0.765646   -0.443615    1.077970
  F      0.765646   -0.443615   -1.077970
  F     -1.574869   -0.989103    0.000000

 Total Charge           Charge          ....    0
 Multiplicity           Mult            ....    1
 Number of Electrons    NEL             ....   50
 Basis Dimension        Dim             ....  276

ORBITAL ENERGIES
----------------

  NO   OCC          E(Eh)            E(eV)
   0   2.0000     -26.398934      -718.3515
   1   2.0000     -26.387462      -718.0393
   2   2.0000     -26.381871      -717.8872
   3   2.0000     -26.381847      -717.8866
   4   2.0000     -20.749442      -564.6210
   5   2.0000     -11.603383      -315.7441
   6   2.0000      -1.789063       -48.6829
   7   2.0000      -1.695263       -46.1304
   8   2.0000      -1.685576       -45.8669
   9   2.0000      -1.680763       -45.7359
  10   2.0000      -1.394980       -37.9593
  11   2.0000      -0.999527       -27.1985
  12   2.0000      -0.883309       -24.0361
  13   2.0000      -0.882427       -24.0121
  14   2.0000      -0.878011       -23.8919
  15   2.0000      -0.780452       -21.2372
  16   2.0000      -0.766713       -20.8633
  17   2.0000      -0.741048       -20.1649
  18   2.0000      -0.737654       -20.0726
  19   2.0000      -0.712798       -19.3962
  20   2.0000      -0.703956       -19.1556
  21   2.0000      -0.697021       -18.9669
  22   2.0000      -0.690920       -18.8009
  23   2.0000      -0.638966       -17.3872
  24   2.0000      -0.592812       -16.1312
  25   0.0000       0.065236         1.7752
  26   0.0000       0.071185         1.9370
  27   0.0000       0.075814         2.0630
  28   0.0000       0.076355         2.0777
  29   0.0000       0.115034         3.1302

MULLIKEN ATOMIC CHARGES
-----------------------
   0 C :    1.269691
   1 O :   -0.121875
   2 F :   -0.300075
   3 F :   -0.320605
   4 F :   -0.320605
   5 F :   -0.206531
Sum of atomic charges:   -0.0000000

LOEWDIN ATOMIC CHARGES
----------------------
   0 C :   -1.876580
   1 O :    0.180101
   2 F :    0.503778
   3 F :    0.496575
   4 F :    0.496575
   5 F :    0.199552

  Mayer bond orders larger than 0.100000
B(  0-C ,  1-O ) :   0.8593 B(  0-C ,  2-F ) :   0.9217 B(  0-C ,  3-F ) :   0.8815
B(  0-C ,  4-F ) :   0.8815 B(  1-O ,  5-F ) :   0.8315

MP2 TOTAL ENERGY:     -511.983099091 Eh
FINAL SINGLE POINT ENERGY      -511.983099091495

DIPOLE MOMENT
-------------
                                X             Y             Z
Electronic contribution:      0.76522      -0.27743       0.00000
Nuclear contribution   :     -0.65893       0.38754       0.00000
                        -----------------------------------------
Total Dipole Moment    :      0.10628       0.11011       0.00000
                        -----------------------------------------
Magnitude (a.u.)       :      0.15304
Magnitude (Debye)      :      0.38899

Rotational constants in cm-1:     0.183878     0.102480     0.100420
Rotational constants in MHz :  5512.512944  3072.270089  3010.513577

                             ****ORCA TERMINATED NORMALLY****
TOTAL RUN TIME: 0 days 0 hours 0 minutes 50 seconds 955 msec
