                         Program Version 5.0.3 -  RELEASE  -
|  1> !ri-mp2 aug-cc-pvtz aug-cc-pvtz/c tightscf
|  2> %pal nprocs 16 end
|  3>
|  4> * xyz 0 1
|  5> C      0.000002   -0.367307    0.256085
|  6> O     -0.000002    0.965131    0.702169
|  7> C     -0.000007    1.956470   -0.327711
|  8> O     -1.098087   -0.677695   -0.536994
|  9> C     -2.334659   -0.671033    0.163443
| 10> O      1.098092   -0.677688   -0.536995
| 11> C      2.334663   -0.671026    0.163443
| 12> H      0.000003   -0.955286    1.185152
| 13> H     -0.000019    2.916553    0.181998
| 14> H      0.887101    1.876333   -0.957416
| 15> H     -0.887109    1.876316   -0.957423
| 16> H     -2.319311   -1.383477    0.994703
| 17> H     -2.574558    0.320771    0.552376
| 18> H     -3.094725   -0.974563   -0.551733
| 19> H      2.574558    0.320777    0.552383
| 20> H      2.319318   -1.383476    0.994698
| 21> H      3.094731   -0.974549   -0.551734
| 22> *
| 23>
| 24>                          ****END OF INPUT****

CARTESIAN COORDINATES (ANGSTROEM)
---------------------------------
  C      0.000002   -0.367307    0.256085
  O     -0.000002    0.965131    0.702169
  C     -0.000007    1.956470   -0.327711
  O     -1.098087   -0.677695   -0.536994
  C     -2.334659   -0.671033    0.163443
  O      1.098092   -0.677688   -0.536995
  C      2.334663   -0.671026    0.163443
  H      0.000003   -0.955286    1.185152
  H     -0.000019    2.916553    0.181998
  H      0.887101    1.876333   -0.957416
  H     -0.887109    1.876316   -0.957423
  H     -2.319311   -1.383477    0.994703
  H     -2.574558    0.320771    0.552376
  H     -3.094725   -0.974563   -0.551733
  H      2.574558    0.320777    0.552383
  H      2.319318   -1.383476    0.994698
  H      3.094731   -0.974549   -0.551734

 Total Charge           Charge          ....    0
 Multiplicity           Mult            ....    1
 Number of Electrons    NEL             ....   58
 Basis Dimension        Dim             ....  552

ORBITAL ENERGIES
----------------

  NO   OCC          E(Eh)            E(eV)
   0   2.0000     -20.566125      -559.6327
   1   2.0000     -20.566111      -559.6323
   2   2.0000     -20.564254      -559.5818
   3   2.0000     -11.383602      -309.7635
   4   2.0000     -11.275121      -306.8116
   5   2.0000     -11.275120      -306.8116
   6   2.0000     -11.267828      -306.6132
   7   2.0000      -1.454516       -39.5794
   8   2.0000      -1.355907       -36.8961
   9   2.0000      -1.349204       -36.7137
  10   2.0000      -0.991425       -26.9781
  11   2.0000      -0.944707       -25.7068
  12   2.0000      -0.917374       -24.9630
  13   2.0000      -0.823347       -22.4044
  14   2.0000      -0.720401       -19.6031
  15   2.0000      -0.706547       -19.2261
  16   2.0000      -0.698986       -19.0204
  17   2.0000      -0.641401       -17.4534
  18   2.0000      -0.615730       -16.7549
  19   2.0000      -0.603023       -16.4091
  20   2.0000      -0.593691       -16.1552
  21   2.0000      -0.569823       -15.5057
  22   2.0000      -0.556175       -15.1343
  23   2.0000      -0.532376       -14.4867
  24   2.0000      -0.516140       -14.0449
  25   2.0000      -0.468954       -12.7609
  26   2.0000      -0.453697       -12.3457
  27   2.0000      -0.445775       -12.1302
  28   2.0000      -0.445657       -12.1269
  29   0.0000       0.029457         0.8016
  30   0.0000       0.035734         0.9724
  31   0.0000       0.037573         1.0224
  32   0.0000       0.042273         1.1503
  33   0.0000       0.053978         1.4688

MULLIKEN ATOMIC CHARGES
-----------------------
   0 C :    0.983162
   1 O :   -0.613164
   2 C :   -0.921975
   3 O :   -0.644017
   4 C :   -0.920910
   5 O :   -0.644018
   6 C :   -0.920909
   7 H :    0.546389
   8 H :    0.343684
   9 H :    0.359420
  10 H :    0.359421
  11 H :    0.329608
  12 H :    0.376867
  13 H :    0.329983
  14 H :    0.376867
  15 H :    0.329608
  16 H :    0.329983
Sum of atomic charges:   -0.0000000

LOEWDIN ATOMIC CHARGES
----------------------
   0 C :   -0.854906
   1 O :    0.551808
   2 C :    0.332569
   3 O :    0.558382
   4 C :    0.333853
   5 O :    0.558383
   6 C :    0.333853
   7 H :   -0.165973
   8 H :   -0.188109
   9 H :   -0.185491
  10 H :   -0.185491
  11 H :   -0.177744
  12 H :   -0.181761
  13 H :   -0.184934
  14 H :   -0.181760
  15 H :   -0.177745
  16 H :   -0.184934

  Mayer bond orders larger than 0.100000
B(  0-C ,  1-O ) :   0.5855 B(  0-C ,  3-O ) :   0.6066 B(  0-C ,  5-O ) :   0.6066
B(  0-C ,  7-H ) :   0.8294 B(  1-O ,  2-C ) :   0.9328 B(  2-C ,  8-H ) :   0.9348
B(  2-C ,  9-H ) :   0.8733 B(  2-C , 10-H ) :   0.8733 B(  3-O ,  4-C ) :   1.0431
B(  4-C , 11-H ) :   0.8967 B(  4-C , 12-H ) :   0.8515 B(  4-C , 13-H ) :   0.9522
B(  5-O ,  6-C ) :   1.0431 B(  6-C , 14-H ) :   0.8515 B(  6-C , 15-H ) :   0.8967
B(  6-C , 16-H ) :   0.9522

MP2 TOTAL ENERGY:     -383.432072941 Eh
FINAL SINGLE POINT ENERGY      -383.432072941109

DIPOLE MOMENT
-------------
                                X             Y             Z
Electronic contribution:      0.00001      -1.51120      -1.00733
Nuclear contribution   :     -0.00001       1.67645       1.47516
                        -----------------------------------------
Total Dipole Moment    :     -0.00000       0.16525       0.46783
                        -----------------------------------------
Magnitude (a.u.)       :      0.49615
Magnitude (Debye)      :      1.26112

Rotational constants in cm-1:     0.123143     0.070063     0.051785
Rotational constants in MHz :  3691.745095  2100.440576  1552.489351

                             ****ORCA TERMINATED NORMALLY****
TOTAL RUN TIME: 0 days 0 hours 5 minutes 25 seconds 264 msec
