                         Program Version 5.0.3 -  RELEASE  -
|  1> !ri-mp2 aug-cc-pvtz aug-cc-pvtz/c tightscf
|  2> %pal nprocs 16 end
|  3>
|  4> * xyz 0 1
|  5> C      0.000000    0.711523   -1.267123
|  6> C      0.000000   -0.711523   -1.267123
|  7> C      0.000000    1.238059   -0.009487
|  8> C      0.000000   -1.238059   -0.009487
|  9> S      0.000000    0.000000    1.192594
| 10> H      0.000000    1.314467   -2.162845
| 11> H      0.000000   -1.314467   -2.162845
| 12> H      0.000000    2.274447    0.281757
| 13> H      0.000000   -2.274447    0.281757
| 14> *
| 15>
| 16>                          ****END OF INPUT****

CARTESIAN COORDINATES (ANGSTROEM)
---------------------------------
  C      0.000000    0.711523   -1.267123
  C      0.000000   -0.711523   -1.267123
  C      0.000000    1.238059   -0.009487
  C      0.000000   -1.238059   -0.009487
  S      0.000000    0.000000    1.192594
  H      0.000000    1.314467   -2.162845
  H      0.000000   -1.314467   -2.162845
  H      0.000000    2.274447    0.281757
  H      0.000000   -2.274447    0.281757

 Total Charge           Charge          ....    0
 Multiplicity           Mult            ....    1
 Number of Electrons    NEL             ....   44
 Basis Dimension        Dim             ....  326

ORBITAL ENERGIES
----------------

  NO   OCC          E(Eh)            E(eV)
   0   2.0000     -91.984547     -2503.0268
   1   2.0000     -11.262798      -306.4763
   2   2.0000     -11.262768      -306.4755
   3   2.0000     -11.239120      -305.8320
   4   2.0000     -11.238089      -305.8040
   5   2.0000      -8.984749      -244.4875
   6   2.0000      -6.665735      -181.3839
   7   2.0000      -6.665244      -181.3705
   8   2.0000      -6.664526      -181.3510
   9   2.0000      -1.171171       -31.8692
  10   2.0000      -0.985393       -26.8139
  11   2.0000      -0.984261       -26.7831
  12   2.0000      -0.768791       -20.9199
  13   2.0000      -0.750833       -20.4312
  14   2.0000      -0.698706       -19.0128
  15   2.0000      -0.578021       -15.7287
  16   2.0000      -0.552811       -15.0428
  17   2.0000      -0.526746       -14.3335
  18   2.0000      -0.523179       -14.2364
  19   2.0000      -0.473823       -12.8934
  20   2.0000      -0.346759        -9.4358
  21   2.0000      -0.329078        -8.9547
  22   0.0000       0.029964         0.8154
  23   0.0000       0.034571         0.9407
  24   0.0000       0.039338         1.0704
  25   0.0000       0.049964         1.3596
  26   0.0000       0.072517         1.9733

MULLIKEN ATOMIC CHARGES
-----------------------
   0 C :   -0.581241
   1 C :   -0.581241
   2 C :   -0.330428
   3 C :   -0.330428
   4 S :   -0.129487
   5 H :    0.478666
   6 H :    0.478666
   7 H :    0.497747
   8 H :    0.497747
Sum of atomic charges:   -0.0000000

LOEWDIN ATOMIC CHARGES
----------------------
   0 C :    0.057438
   1 C :    0.057438
   2 C :   -0.200628
   3 C :   -0.200628
   4 S :    1.216572
   5 H :   -0.198437
   6 H :   -0.198437
   7 H :   -0.266659
   8 H :   -0.266659

  Mayer bond orders larger than 0.100000
B(  0-C ,  1-C ) :   1.3342 B(  0-C ,  2-C ) :   1.4307 B(  0-C ,  5-H ) :   0.8247
B(  1-C ,  3-C ) :   1.4307 B(  1-C ,  6-H ) :   0.8247 B(  2-C ,  3-C ) :   0.1079
B(  2-C ,  4-S ) :   1.1894 B(  2-C ,  7-H ) :   0.7748 B(  3-C ,  4-S ) :   1.1894
B(  3-C ,  8-H ) :   0.7748

MP2 TOTAL ENERGY:     -552.207445341 Eh
FINAL SINGLE POINT ENERGY      -552.207445340920

DIPOLE MOMENT
-------------
                                X             Y             Z
Electronic contribution:     -0.00000       0.00000       3.42354
Nuclear contribution   :      0.00000       0.00000      -3.73121
                        -----------------------------------------
Total Dipole Moment    :     -0.00000       0.00000      -0.30767
                        -----------------------------------------
Magnitude (a.u.)       :      0.30767
Magnitude (Debye)      :      0.78203

Rotational constants in cm-1:     0.268031     0.180119     0.107726
Rotational constants in MHz :  8035.357507  5399.845286  3229.552097

                             ****ORCA TERMINATED NORMALLY****
TOTAL RUN TIME: 0 days 0 hours 1 minutes 29 seconds 512 msec
