                         Program Version 5.0.3 -  RELEASE  -
|  1> !ri-mp2 aug-cc-pvtz aug-cc-pvtz/c tightscf
|  2> %pal nprocs 16 end
|  3>
|  4> * xyz 0 1
|  5> C      0.000000    1.212629    0.508884
|  6> C      1.216393    1.420165   -0.356202
|  7> C      0.000000    0.000000    1.437632
|  8> C     -0.001233    0.749275   -0.932390
|  9> C      0.001233   -0.749275   -0.932390
| 10> C     -1.216393   -1.420165   -0.356202
| 11> H     -0.565029    2.087185    0.799175
| 12> H      2.090716    0.811351   -0.162580
| 13> H      1.434669    2.428532   -0.679316
| 14> H     -0.877843    0.008372    2.088558
| 15> H      0.877843   -0.008372    2.088558
| 16> H     -0.578811    1.277641   -1.680483
| 17> H      0.578811   -1.277641   -1.680483
| 18> H     -1.434669   -2.428532   -0.679316
| 19> H     -2.090716   -0.811351   -0.162580
| 20> C      0.000000   -1.212629    0.508884
| 21> H      0.565029   -2.087185    0.799175
| 22> *
| 23>
| 24>                          ****END OF INPUT****

CARTESIAN COORDINATES (ANGSTROEM)
---------------------------------
  C      0.000000    1.212629    0.508884
  C      1.216393    1.420165   -0.356202
  C      0.000000    0.000000    1.437632
  C     -0.001233    0.749275   -0.932390
  C      0.001233   -0.749275   -0.932390
  C     -1.216393   -1.420165   -0.356202
  H     -0.565029    2.087185    0.799175
  H      2.090716    0.811351   -0.162580
  H      1.434669    2.428532   -0.679316
  H     -0.877843    0.008372    2.088558
  H      0.877843   -0.008372    2.088558
  H     -0.578811    1.277641   -1.680483
  H      0.578811   -1.277641   -1.680483
  H     -1.434669   -2.428532   -0.679316
  H     -2.090716   -0.811351   -0.162580
  C      0.000000   -1.212629    0.508884
  H      0.565029   -2.087185    0.799175

 Total Charge           Charge          ....    0
 Multiplicity           Mult            ....    1
 Number of Electrons    NEL             ....   52
 Basis Dimension        Dim             ....  552

ORBITAL ENERGIES
----------------

  NO   OCC          E(Eh)            E(eV)
   0   2.0000     -11.224934      -305.4460
   1   2.0000     -11.224456      -305.4330
   2   2.0000     -11.223979      -305.4200
   3   2.0000     -11.223738      -305.4134
   4   2.0000     -11.220509      -305.3256
   5   2.0000     -11.217907      -305.2548
   6   2.0000     -11.217901      -305.2546
   7   2.0000      -1.192014       -32.4363
   8   2.0000      -1.095895       -29.8208
   9   2.0000      -0.973136       -26.4804
  10   2.0000      -0.852716       -23.2036
  11   2.0000      -0.816529       -22.2189
  12   2.0000      -0.753012       -20.4905
  13   2.0000      -0.746882       -20.3237
  14   2.0000      -0.686890       -18.6912
  15   2.0000      -0.648938       -17.6585
  16   2.0000      -0.588691       -16.0191
  17   2.0000      -0.566429       -15.4133
  18   2.0000      -0.557169       -15.1613
  19   2.0000      -0.526136       -14.3169
  20   2.0000      -0.495286       -13.4774
  21   2.0000      -0.471135       -12.8202
  22   2.0000      -0.446771       -12.1572
  23   2.0000      -0.418878       -11.3983
  24   2.0000      -0.375903       -10.2288
  25   2.0000      -0.374500       -10.1907
  26   0.0000       0.029604         0.8056
  27   0.0000       0.033869         0.9216
  28   0.0000       0.036506         0.9934
  29   0.0000       0.036851         1.0028
  30   0.0000       0.050617         1.3774

MULLIKEN ATOMIC CHARGES
-----------------------
   0 C :   -0.347783
   1 C :   -1.171971
   2 C :   -0.273067
   3 C :   -0.212965
   4 C :   -0.212964
   5 C :   -1.171971
   6 H :    0.558932
   7 H :    0.206655
   8 H :    0.430920
   9 H :    0.236202
  10 H :    0.236202
  11 H :    0.436542
  12 H :    0.436542
  13 H :    0.430920
  14 H :    0.206655
  15 C :   -0.347783
  16 H :    0.558932
Sum of atomic charges:    0.0000000

LOEWDIN ATOMIC CHARGES
----------------------
   0 C :    0.076549
   1 C :    0.393965
   2 C :    0.331630
   3 C :    0.072029
   4 C :    0.072029
   5 C :    0.393965
   6 H :   -0.131498
   7 H :   -0.148059
   8 H :   -0.155495
   9 H :   -0.146024
  10 H :   -0.146024
  11 H :   -0.127282
  12 H :   -0.127282
  13 H :   -0.155495
  14 H :   -0.148059
  15 C :    0.076549
  16 H :   -0.131498

  Mayer bond orders larger than 0.100000
B(  0-C ,  1-C ) :   1.0033 B(  0-C ,  2-C ) :   0.7916 B(  0-C ,  3-C ) :   0.5727
B(  0-C ,  6-H ) :   0.5140 B(  0-C , 15-C ) :   0.3006 B(  1-C ,  3-C ) :   1.0310
B(  1-C ,  6-H ) :  -0.1322 B(  1-C ,  7-H ) :   1.0725 B(  1-C ,  8-H ) :   0.7062
B(  2-C ,  9-H ) :   0.9677 B(  2-C , 10-H ) :   0.9677 B(  2-C , 15-C ) :   0.7916
B(  3-C ,  4-C ) :   0.9466 B(  3-C , 11-H ) :   0.6545 B(  4-C ,  5-C ) :   1.0310
B(  4-C , 12-H ) :   0.6545 B(  4-C , 15-C ) :   0.5727 B(  5-C , 13-H ) :   0.7062
B(  5-C , 14-H ) :   1.0725 B(  5-C , 15-C ) :   1.0033 B(  5-C , 16-H ) :  -0.1322
B( 15-C , 16-H ) :   0.5140

MP2 TOTAL ENERGY:     -272.109395684 Eh
FINAL SINGLE POINT ENERGY      -272.109395683905

DIPOLE MOMENT
-------------
                                X             Y             Z
Electronic contribution:      0.00000       0.00000      -0.74002
Nuclear contribution   :     -0.00000      -0.00000       0.75789
                        -----------------------------------------
Total Dipole Moment    :      0.00000       0.00000       0.01787
                        -----------------------------------------
Magnitude (a.u.)       :      0.01787
Magnitude (Debye)      :      0.04543

Rotational constants in cm-1:     0.170432     0.096924     0.077161
Rotational constants in MHz :  5109.421058  2905.699900  2313.224541

                             ****ORCA TERMINATED NORMALLY****
TOTAL RUN TIME: 0 days 0 hours 6 minutes 0 seconds 388 msec
