                         Program Version 5.0.3 -  RELEASE  -
|  1> !ri-mp2 aug-cc-pvtz aug-cc-pvtz/c tightscf
|  2> %pal nprocs 16 end
|  3>
|  4> * xyz 0 1
|  5> C      0.000000    0.000000    0.000000
|  6> C      0.856146    0.856146    0.856146
|  7> C     -0.856146   -0.856146    0.856146
|  8> C     -0.856146    0.856146   -0.856146
|  9> C      0.856146   -0.856146   -0.856146
| 10> N      1.518318    1.518318    1.518318
| 11> N     -1.518318   -1.518318    1.518318
| 12> N     -1.518318    1.518318   -1.518318
| 13> N      1.518318   -1.518318   -1.518318
| 14> *
| 15>
| 16>                          ****END OF INPUT****

CARTESIAN COORDINATES (ANGSTROEM)
---------------------------------
  C      0.000000    0.000000    0.000000
  C      0.856146    0.856146    0.856146
  C     -0.856146   -0.856146    0.856146
  C     -0.856146    0.856146   -0.856146
  C      0.856146   -0.856146   -0.856146
  N      1.518318    1.518318    1.518318
  N     -1.518318   -1.518318    1.518318
  N     -1.518318    1.518318   -1.518318
  N      1.518318   -1.518318   -1.518318

 Total Charge           Charge          ....    0
 Multiplicity           Mult            ....    1
 Number of Electrons    NEL             ....   58
 Basis Dimension        Dim             ....  414

ORBITAL ENERGIES
----------------

  NO   OCC          E(Eh)            E(eV)
   0   2.0000     -15.658756      -426.0964
   1   2.0000     -15.658756      -426.0964
   2   2.0000     -15.658756      -426.0964
   3   2.0000     -15.658754      -426.0964
   4   2.0000     -11.494942      -312.7933
   5   2.0000     -11.358623      -309.0839
   6   2.0000     -11.358623      -309.0839
   7   2.0000     -11.358623      -309.0839
   8   2.0000     -11.358613      -309.0836
   9   2.0000      -1.338107       -36.4117
  10   2.0000      -1.298017       -35.3208
  11   2.0000      -1.298017       -35.3208
  12   2.0000      -1.298017       -35.3208
  13   2.0000      -1.208672       -32.8896
  14   2.0000      -0.878180       -23.8965
  15   2.0000      -0.878180       -23.8965
  16   2.0000      -0.878180       -23.8965
  17   2.0000      -0.641906       -17.4671
  18   2.0000      -0.636822       -17.3288
  19   2.0000      -0.636822       -17.3288
  20   2.0000      -0.636822       -17.3288
  21   2.0000      -0.577623       -15.7179
  22   2.0000      -0.577623       -15.7179
  23   2.0000      -0.551053       -14.9949
  24   2.0000      -0.551053       -14.9949
  25   2.0000      -0.551053       -14.9949
  26   2.0000      -0.535982       -14.5848
  27   2.0000      -0.535982       -14.5848
  28   2.0000      -0.535982       -14.5848
  29   0.0000       0.027151         0.7388
  30   0.0000       0.051478         1.4008
  31   0.0000       0.051478         1.4008
  32   0.0000       0.051478         1.4008
  33   0.0000       0.074496         2.0271

MULLIKEN ATOMIC CHARGES
-----------------------
   0 C :    0.556945
   1 C :    0.401253
   2 C :    0.401253
   3 C :    0.401253
   4 C :    0.401253
   5 N :   -0.540489
   6 N :   -0.540489
   7 N :   -0.540489
   8 N :   -0.540489
Sum of atomic charges:   -0.0000000

LOEWDIN ATOMIC CHARGES
----------------------
   0 C :   -0.496679
   1 C :   -0.215071
   2 C :   -0.215071
   3 C :   -0.215071
   4 C :   -0.215071
   5 N :    0.339241
   6 N :    0.339241
   7 N :    0.339241
   8 N :    0.339241

  Mayer bond orders larger than 0.100000
B(  0-C ,  1-C ) :   0.9073 B(  0-C ,  2-C ) :   0.9073 B(  0-C ,  3-C ) :   0.9073
B(  0-C ,  4-C ) :   0.9073 B(  1-C ,  5-N ) :   2.3509 B(  2-C ,  6-N ) :   2.3509
B(  3-C ,  7-N ) :   2.3509 B(  4-C ,  8-N ) :   2.3509

MP2 TOTAL ENERGY:     -408.682059964 Eh
FINAL SINGLE POINT ENERGY      -408.682059963507

DIPOLE MOMENT
-------------
                                X             Y             Z
Electronic contribution:     -0.00000       0.00000       0.00000
Nuclear contribution   :      0.00000       0.00000       0.00000
                        -----------------------------------------
Total Dipole Moment    :     -0.00000       0.00000       0.00000
                        -----------------------------------------
Magnitude (a.u.)       :      0.00000
Magnitude (Debye)      :      0.00000

Rotational constants in cm-1:     0.051278     0.051278     0.051278
Rotational constants in MHz :  1537.263443  1537.263443  1537.263443

                             ****ORCA TERMINATED NORMALLY****
TOTAL RUN TIME: 0 days 0 hours 2 minutes 27 seconds 572 msec
