                         Program Version 5.0.3 -  RELEASE  -
|  1> !ri-mp2 aug-cc-pvtz aug-cc-pvtz/c tightscf
|  2> %pal nprocs 16 end
|  3>
|  4> * xyz 0 1
|  5> S      2.050341    0.742508   -0.499891
|  6> S     -2.050342   -0.742503   -0.499907
|  7> N      3.923970   -0.715598    1.081612
|  8> N     -3.923966    0.715581    1.081626
|  9> C      0.603325   -0.276815   -0.332055
| 10> C     -0.603328    0.276827   -0.332072
| 11> C      3.140682   -0.141456    0.456341
| 12> C     -3.140681    0.141447    0.456343
| 13> H      0.769347   -1.345261   -0.318590
| 14> H     -0.769353    1.345273   -0.318638
| 15> *
| 16>
| 17>                          ****END OF INPUT****

CARTESIAN COORDINATES (ANGSTROEM)
---------------------------------
  S      2.050341    0.742508   -0.499891
  S     -2.050342   -0.742503   -0.499907
  N      3.923970   -0.715598    1.081612
  N     -3.923966    0.715581    1.081626
  C      0.603325   -0.276815   -0.332055
  C     -0.603328    0.276827   -0.332072
  C      3.140682   -0.141456    0.456341
  C     -3.140681    0.141447    0.456343
  H      0.769347   -1.345261   -0.318590
  H     -0.769353    1.345273   -0.318638

 Total Charge           Charge          ....    0
 Multiplicity           Mult            ....    1
 Number of Electrons    NEL             ....   72
 Basis Dimension        Dim             ....  422

ORBITAL ENERGIES
----------------

  NO   OCC          E(Eh)            E(eV)
   0   2.0000     -92.052736     -2504.8823
   1   2.0000     -92.052735     -2504.8823
   2   2.0000     -15.603939      -424.6048
   3   2.0000     -15.603939      -424.6048
   4   2.0000     -11.334410      -308.4250
   5   2.0000     -11.332642      -308.3769
   6   2.0000     -11.316410      -307.9352
   7   2.0000     -11.316410      -307.9352
   8   2.0000      -9.051772      -246.3112
   9   2.0000      -9.051770      -246.3112
  10   2.0000      -6.733198      -183.2196
  11   2.0000      -6.733197      -183.2196
  12   2.0000      -6.731773      -183.1808
  13   2.0000      -6.731772      -183.1808
  14   2.0000      -6.730767      -183.1535
  15   2.0000      -6.730766      -183.1535
  16   2.0000      -1.252107       -34.0716
  17   2.0000      -1.251015       -34.0418
  18   2.0000      -1.175235       -31.9798
  19   2.0000      -1.100779       -29.9537
  20   2.0000      -1.011223       -27.5168
  21   2.0000      -0.836966       -22.7750
  22   2.0000      -0.756115       -20.5749
  23   2.0000      -0.692131       -18.8339
  24   2.0000      -0.678754       -18.4698
  25   2.0000      -0.607221       -16.5233
  26   2.0000      -0.583439       -15.8762
  27   2.0000      -0.571030       -15.5385
  28   2.0000      -0.569186       -15.4883
  29   2.0000      -0.548915       -14.9367
  30   2.0000      -0.548324       -14.9206
  31   2.0000      -0.493290       -13.4231
  32   2.0000      -0.488635       -13.2964
  33   2.0000      -0.475185       -12.9304
  34   2.0000      -0.425601       -11.5812
  35   2.0000      -0.373075       -10.1519
  36   0.0000       0.023984         0.6527
  37   0.0000       0.031784         0.8649
  38   0.0000       0.045755         1.2450
  39   0.0000       0.057519         1.5652
  40   0.0000       0.058604         1.5947

MULLIKEN ATOMIC CHARGES
-----------------------
   0 S :    0.056690
   1 S :    0.056685
   2 N :   -0.434503
   3 N :   -0.434504
   4 C :   -0.309698
   5 C :   -0.309708
   6 C :    0.211048
   7 C :    0.211055
   8 H :    0.476467
   9 H :    0.476468
Sum of atomic charges:    0.0000000

LOEWDIN ATOMIC CHARGES
----------------------
   0 S :    1.146080
   1 S :    1.146077
   2 N :    0.149939
   3 N :    0.149938
   4 C :   -0.283878
   5 C :   -0.283877
   6 C :   -0.743322
   7 C :   -0.743321
   8 H :   -0.268818
   9 H :   -0.268818

  Mayer bond orders larger than 0.100000
B(  0-S ,  4-C ) :   0.9059 B(  0-S ,  6-C ) :   1.1050 B(  1-S ,  5-C ) :   0.9059
B(  1-S ,  7-C ) :   1.1050 B(  2-N ,  6-C ) :   2.4461 B(  3-N ,  7-C ) :   2.4461
B(  4-C ,  5-C ) :   1.4403 B(  4-C ,  8-H ) :   0.7467 B(  5-C ,  9-H ) :   0.7467

MP2 TOTAL ENERGY:    -1057.998150975 Eh
FINAL SINGLE POINT ENERGY     -1057.998150974915

DIPOLE MOMENT
-------------
                                X             Y             Z
Electronic contribution:      0.00002      -0.00000      -0.72846
Nuclear contribution   :     -0.00001       0.00001      -0.56457
                        -----------------------------------------
Total Dipole Moment    :      0.00001       0.00001      -1.29303
                        -----------------------------------------
Magnitude (a.u.)       :      1.29303
Magnitude (Debye)      :      3.28663

Rotational constants in cm-1:     0.150098     0.016800     0.016783
Rotational constants in MHz :  4499.839513   503.640370   503.143602

                             ****ORCA TERMINATED NORMALLY****
TOTAL RUN TIME: 0 days 0 hours 2 minutes 41 seconds 504 msec
