                         Program Version 5.0.3 -  RELEASE  -
|  1> !ri-mp2 aug-cc-pvtz aug-cc-pvtz/c tightscf
|  2> %pal nprocs 16 end
|  3>
|  4> * xyz 0 1
|  5> C      0.542207   -0.688625    0.000000
|  6> C      0.081178    0.798349    0.000000
|  7> O      0.821365    1.714338    0.000000
|  8> F      1.870099   -0.749751    0.000000
|  9> F      0.081178   -1.316809    1.087399
| 10> F      0.081178   -1.316809   -1.087399
| 11> Cl    -1.682548    0.945722    0.000000
| 12> *
| 13>
| 14>                          ****END OF INPUT****

CARTESIAN COORDINATES (ANGSTROEM)
---------------------------------
  C      0.542207   -0.688625    0.000000
  C      0.081178    0.798349    0.000000
  O      0.821365    1.714338    0.000000
  F      1.870099   -0.749751    0.000000
  F      0.081178   -1.316809    1.087399
  F      0.081178   -1.316809   -1.087399
  Cl    -1.682548    0.945722    0.000000

 Total Charge           Charge          ....    0
 Multiplicity           Mult            ....    1
 Number of Electrons    NEL             ....   64
 Basis Dimension        Dim             ....  326

ORBITAL ENERGIES
----------------

  NO   OCC          E(Eh)            E(eV)
   0   2.0000    -104.890604     -2854.2184
   1   2.0000     -26.377969      -717.7810
   2   2.0000     -26.377948      -717.7805
   3   2.0000     -26.375077      -717.7023
   4   2.0000     -20.641945      -561.6959
   5   2.0000     -11.559183      -314.5414
   6   2.0000     -11.453947      -311.6777
   7   2.0000     -10.614687      -288.8403
   8   2.0000      -8.081403      -219.9062
   9   2.0000      -8.079449      -219.8530
  10   2.0000      -8.079298      -219.8489
  11   2.0000      -1.768594       -48.1259
  12   2.0000      -1.673735       -45.5447
  13   2.0000      -1.672915       -45.5223
  14   2.0000      -1.495566       -40.6964
  15   2.0000      -1.177280       -32.0354
  16   2.0000      -1.044473       -28.4216
  17   2.0000      -0.912920       -24.8418
  18   2.0000      -0.861739       -23.4491
  19   2.0000      -0.860690       -23.4206
  20   2.0000      -0.786006       -21.3883
  21   2.0000      -0.747501       -20.3405
  22   2.0000      -0.745909       -20.2972
  23   2.0000      -0.706799       -19.2330
  24   2.0000      -0.702299       -19.1105
  25   2.0000      -0.689323       -18.7574
  26   2.0000      -0.684530       -18.6270
  27   2.0000      -0.679123       -18.4799
  28   2.0000      -0.630486       -17.1564
  29   2.0000      -0.508106       -13.8263
  30   2.0000      -0.501830       -13.6555
  31   2.0000      -0.499473       -13.5914
  32   0.0000       0.053012         1.4425
  33   0.0000       0.062360         1.6969
  34   0.0000       0.069063         1.8793
  35   0.0000       0.071018         1.9325
  36   0.0000       0.080613         2.1936

MULLIKEN ATOMIC CHARGES
-----------------------
   0 C :    1.371151
   1 C :    0.282569
   2 O :   -0.468498
   3 F :   -0.348506
   4 F :   -0.353917
   5 F :   -0.353917
   6 Cl:   -0.128881
Sum of atomic charges:   -0.0000000

LOEWDIN ATOMIC CHARGES
----------------------
   0 C :   -1.621394
   1 C :   -1.163748
   2 O :    0.392211
   3 F :    0.509140
   4 F :    0.487289
   5 F :    0.487289
   6 Cl:    0.909213

  Mayer bond orders larger than 0.100000
B(  0-C ,  1-C ) :   0.8260 B(  0-C ,  3-F ) :   0.8576 B(  0-C ,  4-F ) :   0.8162
B(  0-C ,  5-F ) :   0.8162 B(  1-C ,  2-O ) :   1.7489 B(  1-C ,  3-F ) :   0.1010
B(  1-C ,  6-Cl) :   0.9738

MP2 TOTAL ENERGY:     -910.111174497 Eh
FINAL SINGLE POINT ENERGY      -910.111174496659

DIPOLE MOMENT
-------------
                                X             Y             Z
Electronic contribution:     -0.73113      -1.98654       0.00000
Nuclear contribution   :      0.37462       1.82870       0.00000
                        -----------------------------------------
Total Dipole Moment    :     -0.35651      -0.15784       0.00000
                        -----------------------------------------
Magnitude (a.u.)       :      0.38989
Magnitude (Debye)      :      0.99102

Rotational constants in cm-1:     0.111370     0.058419     0.048155
Rotational constants in MHz :  3338.775221  1751.365828  1443.635876

                             ****ORCA TERMINATED NORMALLY****
TOTAL RUN TIME: 0 days 0 hours 1 minutes 15 seconds 104 msec
