                         Program Version 5.0.3 -  RELEASE  -
|  1> !ri-mp2 aug-cc-pvtz aug-cc-pvtz/c tightscf
|  2> %pal nprocs 16 end
|  3>
|  4> * xyz 0 1
|  5> S    -1.101935    0.129883    0.766287
|  6> S     1.586860   -1.013699    0.024402
|  7> N    -3.556241    0.444182   -0.651748
|  8> C    -0.110750   -0.717112   -0.552454
|  9> C    -2.556688    0.312656   -0.085241
| 10> C     2.264315    0.527879   -0.112470
| 11> C     2.817305    1.593553   -0.189220
| 12> H    -0.109558   -0.111181   -1.451631
| 13> H    -0.538550   -1.696769   -0.745449
| 14> H     3.297908    2.537882   -0.255392
| 15> *
| 16>
| 17>                          ****END OF INPUT****

CARTESIAN COORDINATES (ANGSTROEM)
---------------------------------
  S     -1.101935    0.129883    0.766287
  S      1.586860   -1.013699    0.024402
  N     -3.556241    0.444182   -0.651748
  C     -0.110750   -0.717112   -0.552454
  C     -2.556688    0.312656   -0.085241
  C      2.264315    0.527879   -0.112470
  C      2.817305    1.593553   -0.189220
  H     -0.109558   -0.111181   -1.451631
  H     -0.538550   -1.696769   -0.745449
  H      3.297908    2.537882   -0.255392

 Total Charge           Charge          ....    0
 Multiplicity           Mult            ....    1
 Number of Electrons    NEL             ....   66
 Basis Dimension        Dim             ....  399

ORBITAL ENERGIES
----------------

  NO   OCC          E(Eh)            E(eV)
   0   2.0000     -92.028951     -2504.2351
   1   2.0000     -92.023126     -2504.0766
   2   2.0000     -15.589684      -424.2169
   3   2.0000     -11.340873      -308.6009
   4   2.0000     -11.303258      -307.5773
   5   2.0000     -11.278275      -306.8975
   6   2.0000     -11.260739      -306.4203
   7   2.0000      -9.028171      -245.6690
   8   2.0000      -9.022113      -245.5042
   9   2.0000      -6.709518      -182.5753
  10   2.0000      -6.707915      -182.5317
  11   2.0000      -6.706905      -182.5042
  12   2.0000      -6.703535      -182.4125
  13   2.0000      -6.702262      -182.3778
  14   2.0000      -6.701308      -182.3519
  15   2.0000      -1.237303       -33.6687
  16   2.0000      -1.143375       -31.1128
  17   2.0000      -1.076265       -29.2867
  18   2.0000      -1.011158       -27.5150
  19   2.0000      -0.906700       -24.6726
  20   2.0000      -0.746751       -20.3201
  21   2.0000      -0.699090       -19.0232
  22   2.0000      -0.681560       -18.5462
  23   2.0000      -0.624923       -17.0050
  24   2.0000      -0.580177       -15.7874
  25   2.0000      -0.551566       -15.0089
  26   2.0000      -0.534335       -14.5400
  27   2.0000      -0.526022       -14.3138
  28   2.0000      -0.495419       -13.4810
  29   2.0000      -0.464510       -12.6400
  30   2.0000      -0.419376       -11.4118
  31   2.0000      -0.393999       -10.7213
  32   2.0000      -0.364135        -9.9086
  33   0.0000       0.024812         0.6752
  34   0.0000       0.030674         0.8347
  35   0.0000       0.045482         1.2376
  36   0.0000       0.054987         1.4963
  37   0.0000       0.059541         1.6202

MULLIKEN ATOMIC CHARGES
-----------------------
   0 S :    0.162862
   1 S :   -0.260065
   2 N :   -0.411089
   3 C :   -0.373267
   4 C :    0.149422
   5 C :    1.111907
   6 C :   -1.538615
   7 H :    0.282762
   8 H :    0.292431
   9 H :    0.583652
Sum of atomic charges:    0.0000000

LOEWDIN ATOMIC CHARGES
----------------------
   0 S :    1.089838
   1 S :    1.089606
   2 N :    0.139262
   3 C :   -0.403245
   4 C :   -0.774351
   5 C :   -0.536695
   6 C :    0.283718
   7 H :   -0.287082
   8 H :   -0.297845
   9 H :   -0.303207

  Mayer bond orders larger than 0.100000
B(  0-S ,  3-C ) :   0.9605 B(  0-S ,  4-C ) :   1.0544 B(  1-S ,  3-C ) :   1.0457
B(  1-S ,  5-C ) :   0.9604 B(  2-N ,  4-C ) :   2.5086 B(  3-C ,  7-H ) :   0.9143
B(  3-C ,  8-H ) :   0.9121 B(  5-C ,  6-C ) :   0.6346 B(  6-C ,  9-H ) :   0.6267

MP2 TOTAL ENERGY:    -1003.905159230 Eh
FINAL SINGLE POINT ENERGY     -1003.905159230134

DIPOLE MOMENT
-------------
                                X             Y             Z
Electronic contribution:     -1.18385      -0.87355       2.35938
Nuclear contribution   :      2.50790       0.72898      -2.38004
                        -----------------------------------------
Total Dipole Moment    :      1.32405      -0.14457      -0.02066
                        -----------------------------------------
Magnitude (a.u.)       :      1.33208
Magnitude (Debye)      :      3.38588

Rotational constants in cm-1:     0.142267     0.029287     0.026739
Rotational constants in MHz :  4265.062307   877.995107   801.610567

                             ****ORCA TERMINATED NORMALLY****
TOTAL RUN TIME: 0 days 0 hours 2 minutes 31 seconds 353 msec
