                         Program Version 5.0.3 -  RELEASE  -
|  1> !ri-mp2 aug-cc-pvtz aug-cc-pvtz/c tightscf
|  2> %pal nprocs 16 end
|  3>
|  4> * xyz 0 1
|  5> S     -0.904941   -0.785080   -0.000054
|  6> O      2.696807    0.929615    0.000054
|  7> O      1.923496   -1.150439   -0.000102
|  8> N     -3.304099    0.760189    0.000086
|  9> C      0.294332    0.611111    0.000040
| 10> C      1.693547    0.022896   -0.000011
| 11> C     -2.320544    0.152967    0.000030
| 12> H      0.138262    1.224382    0.886861
| 13> H      0.138251    1.224511   -0.886690
| 14> H      2.364788    1.835806    0.000127
| 15> *
| 16>
| 17>                          ****END OF INPUT****

CARTESIAN COORDINATES (ANGSTROEM)
---------------------------------
  S     -0.904941   -0.785080   -0.000054
  O      2.696807    0.929615    0.000054
  O      1.923496   -1.150439   -0.000102
  N     -3.304099    0.760189    0.000086
  C      0.294332    0.611111    0.000040
  C      1.693547    0.022896   -0.000011
  C     -2.320544    0.152967    0.000030
  H      0.138262    1.224382    0.886861
  H      0.138251    1.224511   -0.886690
  H      2.364788    1.835806    0.000127

 Total Charge           Charge          ....    0
 Multiplicity           Mult            ....    1
 Number of Electrons    NEL             ....   60
 Basis Dimension        Dim             ....  395

ORBITAL ENERGIES
----------------

  NO   OCC          E(Eh)            E(eV)
   0   2.0000     -92.036852     -2504.4501
   1   2.0000     -20.648884      -561.8847
   2   2.0000     -20.584001      -560.1191
   3   2.0000     -15.594150      -424.3384
   4   2.0000     -11.428172      -310.9764
   5   2.0000     -11.333700      -308.4056
   6   2.0000     -11.307538      -307.6938
   7   2.0000      -9.035620      -245.8717
   8   2.0000      -6.716847      -182.7747
   9   2.0000      -6.715337      -182.7336
  10   2.0000      -6.714232      -182.7035
  11   2.0000      -1.498260       -40.7697
  12   2.0000      -1.405073       -38.2340
  13   2.0000      -1.242488       -33.8098
  14   2.0000      -1.126909       -30.6648
  15   2.0000      -0.996497       -27.1161
  16   2.0000      -0.866149       -23.5691
  17   2.0000      -0.763403       -20.7733
  18   2.0000      -0.711724       -19.3670
  19   2.0000      -0.703750       -19.1500
  20   2.0000      -0.684436       -18.6245
  21   2.0000      -0.625207       -17.0127
  22   2.0000      -0.613819       -16.7029
  23   2.0000      -0.575287       -15.6543
  24   2.0000      -0.552133       -15.0243
  25   2.0000      -0.532196       -14.4818
  26   2.0000      -0.516804       -14.0629
  27   2.0000      -0.496106       -13.4997
  28   2.0000      -0.468202       -12.7404
  29   2.0000      -0.399514       -10.8713
  30   0.0000       0.011167         0.3039
  31   0.0000       0.034395         0.9359
  32   0.0000       0.040819         1.1108
  33   0.0000       0.055011         1.4969
  34   0.0000       0.064865         1.7651

MULLIKEN ATOMIC CHARGES
-----------------------
   0 S :    0.228827
   1 O :   -0.386154
   2 O :   -0.625787
   3 N :   -0.452791
   4 C :   -0.201641
   5 C :    0.448050
   6 C :    0.129643
   7 H :    0.320660
   8 H :    0.320661
   9 H :    0.218531
Sum of atomic charges:   -0.0000000

LOEWDIN ATOMIC CHARGES
----------------------
   0 S :    1.169939
   1 O :    0.835993
   2 O :    0.432814
   3 N :    0.142356
   4 C :   -0.052481
   5 C :   -0.868232
   6 C :   -0.757168
   7 H :   -0.214408
   8 H :   -0.214407
   9 H :   -0.474405

  Mayer bond orders larger than 0.100000
B(  0-S ,  4-C ) :   0.9830 B(  0-S ,  6-C ) :   1.0182 B(  1-O ,  5-C ) :   0.9589
B(  1-O ,  9-H ) :   0.9570 B(  2-O ,  5-C ) :   1.5573 B(  3-N ,  6-C ) :   2.4495
B(  4-C ,  5-C ) :   0.7197 B(  4-C ,  7-H ) :   0.8846 B(  4-C ,  8-H ) :   0.8846

MP2 TOTAL ENERGY:     -718.504330401 Eh
FINAL SINGLE POINT ENERGY      -718.504330401475

DIPOLE MOMENT
-------------
                                X             Y             Z
Electronic contribution:     -1.82739      -2.88016      -0.00020
Nuclear contribution   :      2.61951       4.14661       0.00029
                        -----------------------------------------
Total Dipole Moment    :      0.79212       1.26645       0.00009
                        -----------------------------------------
Magnitude (a.u.)       :      1.49377
Magnitude (Debye)      :      3.79686

Rotational constants in cm-1:     0.223519     0.036477     0.031545
Rotational constants in MHz :  6700.931449  1093.553838   945.707939

                             ****ORCA TERMINATED NORMALLY****
TOTAL RUN TIME: 0 days 0 hours 2 minutes 16 seconds 806 msec
