                         Program Version 5.0.3 -  RELEASE  -
|  1> !ri-mp2 aug-cc-pvtz aug-cc-pvtz/c tightscf
|  2> %pal nprocs 16 end
|  3>
|  4> * xyz 0 1
|  5> C     -0.389046   -0.000005    0.034711
|  6> O      0.738307   -0.064366   -0.877245
|  7> O      1.978654    0.098687   -0.135089
|  8> C     -1.568549   -0.139826   -0.926939
|  9> C     -0.342451   -1.161836    1.025628
| 10> C     -0.410298    1.351768    0.745235
| 11> H      2.385379   -0.765132   -0.282112
| 12> H     -1.561837    0.664179   -1.661962
| 13> H     -2.504086   -0.091572   -0.369874
| 14> H     -1.529057   -1.092846   -1.453933
| 15> H     -0.427183    2.162831    0.017417
| 16> H      0.469173    1.471463    1.374999
| 17> H     -1.297114    1.433058    1.375024
| 18> H     -0.300458   -2.114938    0.496791
| 19> H     -1.234525   -1.159418    1.652852
| 20> H      0.526087   -1.082798    1.677660
| 21> *
| 22>
| 23>                          ****END OF INPUT****

CARTESIAN COORDINATES (ANGSTROEM)
---------------------------------
  C     -0.389046   -0.000005    0.034711
  O      0.738307   -0.064366   -0.877245
  O      1.978654    0.098687   -0.135089
  C     -1.568549   -0.139826   -0.926939
  C     -0.342451   -1.161836    1.025628
  C     -0.410298    1.351768    0.745235
  H      2.385379   -0.765132   -0.282112
  H     -1.561837    0.664179   -1.661962
  H     -2.504086   -0.091572   -0.369874
  H     -1.529057   -1.092846   -1.453933
  H     -0.427183    2.162831    0.017417
  H      0.469173    1.471463    1.374999
  H     -1.297114    1.433058    1.375024
  H     -0.300458   -2.114938    0.496791
  H     -1.234525   -1.159418    1.652852
  H      0.526087   -1.082798    1.677660

 Total Charge           Charge          ....    0
 Multiplicity           Mult            ....    1
 Number of Electrons    NEL             ....   50
 Basis Dimension        Dim             ....  506

ORBITAL ENERGIES
----------------

  NO   OCC          E(Eh)            E(eV)
   0   2.0000     -20.615523      -560.9769
   1   2.0000     -20.613938      -560.9338
   2   2.0000     -11.292738      -307.2910
   3   2.0000     -11.217658      -305.2480
   4   2.0000     -11.216990      -305.2298
   5   2.0000     -11.211172      -305.0715
   6   2.0000      -1.460728       -39.7484
   7   2.0000      -1.226552       -33.3762
   8   2.0000      -1.055843       -28.7310
   9   2.0000      -0.944146       -25.6915
  10   2.0000      -0.941713       -25.6253
  11   2.0000      -0.764504       -20.8032
  12   2.0000      -0.705868       -19.2076
  13   2.0000      -0.655341       -17.8327
  14   2.0000      -0.641986       -17.4693
  15   2.0000      -0.609815       -16.5939
  16   2.0000      -0.577606       -15.7175
  17   2.0000      -0.550847       -14.9893
  18   2.0000      -0.545019       -14.8307
  19   2.0000      -0.532774       -14.4975
  20   2.0000      -0.519944       -14.1484
  21   2.0000      -0.506452       -13.7813
  22   2.0000      -0.482728       -13.1357
  23   2.0000      -0.462229       -12.5779
  24   2.0000      -0.436504       -11.8779
  25   0.0000       0.028869         0.7856
  26   0.0000       0.035588         0.9684
  27   0.0000       0.038634         1.0513
  28   0.0000       0.041243         1.1223
  29   0.0000       0.056798         1.5456

MULLIKEN ATOMIC CHARGES
-----------------------
   0 C :    1.645106
   1 O :   -0.627032
   2 O :   -0.364930
   3 C :   -1.086890
   4 C :   -1.184238
   5 C :   -1.131595
   6 H :    0.207711
   7 H :    0.283121
   8 H :    0.298102
   9 H :    0.275793
  10 H :    0.267817
  11 H :    0.314282
  12 H :    0.270227
  13 H :    0.259616
  14 H :    0.258945
  15 H :    0.313964
Sum of atomic charges:   -0.0000000

LOEWDIN ATOMIC CHARGES
----------------------
   0 C :   -0.641155
   1 O :    0.382219
   2 O :    0.589003
   3 C :    0.567773
   4 C :    0.572727
   5 C :    0.574678
   6 H :   -0.546365
   7 H :   -0.164691
   8 H :   -0.160968
   9 H :   -0.164931
  10 H :   -0.162404
  11 H :   -0.179318
  12 H :   -0.162867
  13 H :   -0.164496
  14 H :   -0.161989
  15 H :   -0.177215

  Mayer bond orders larger than 0.100000
B(  0-C ,  1-O ) :   0.1394 B(  0-C ,  2-O ) :  -0.1305 B(  0-C ,  3-C ) :   0.5047
B(  0-C ,  4-C ) :   0.6764 B(  0-C ,  5-C ) :   0.6976 B(  1-O ,  2-O ) :   0.8752
B(  1-O ,  4-C ) :   0.1236 B(  1-O ,  5-C ) :   0.1177 B(  2-O ,  6-H ) :   0.9946
B(  3-C ,  7-H ) :   0.9922 B(  3-C ,  8-H ) :   0.9785 B(  3-C ,  9-H ) :   1.0007
B(  4-C ,  5-C ) :   0.1209 B(  4-C , 13-H ) :   0.9959 B(  4-C , 14-H ) :   0.9891
B(  4-C , 15-H ) :   0.9470 B(  5-C , 10-H ) :   0.9931 B(  5-C , 11-H ) :   0.9491
B(  5-C , 12-H ) :   0.9665

MP2 TOTAL ENERGY:     -308.252207914 Eh
FINAL SINGLE POINT ENERGY      -308.252207913584

DIPOLE MOMENT
-------------
                                X             Y             Z
Electronic contribution:      5.29799       0.08291      -2.55960
Nuclear contribution   :     -5.65868      -0.59874       2.92885
                        -----------------------------------------
Total Dipole Moment    :     -0.36068      -0.51584       0.36926
                        -----------------------------------------
Magnitude (a.u.)       :      0.72975
Magnitude (Debye)      :      1.85487

Rotational constants in cm-1:     0.148264     0.091820     0.091733
Rotational constants in MHz :  4444.856361  2752.702924  2750.097739

                             ****ORCA TERMINATED NORMALLY****
TOTAL RUN TIME: 0 days 0 hours 4 minutes 34 seconds 269 msec
