                         Program Version 5.0.3 -  RELEASE  -
|  1> !ri-mp2 aug-cc-pvtz aug-cc-pvtz/c tightscf
|  2> %pal nprocs 16 end
|  3>
|  4> * xyz 0 1
|  5> C     -0.621065    1.325981    0.000000
|  6> C      0.020904    0.729584    1.256731
|  7> C      0.020904    0.729584   -1.256731
|  8> C      0.020904   -0.794091    1.182195
|  9> C      0.020904   -0.794091   -1.182195
| 10> O      0.655923   -1.267487    0.000000
| 11> H     -1.692321    1.099091    0.000000
| 12> H     -0.531769    2.413763    0.000000
| 13> H      1.053246    1.077801    1.346976
| 14> H     -0.509437    1.050894    2.156429
| 15> H     -0.509437    1.050894   -2.156429
| 16> H      1.053246    1.077801   -1.346976
| 17> H      0.568763   -1.234712    2.014395
| 18> H     -1.011867   -1.171361    1.218225
| 19> H     -1.011867   -1.171361   -1.218225
| 20> H      0.568763   -1.234712   -2.014395
| 21> *
| 22>
| 23>                          ****END OF INPUT****

CARTESIAN COORDINATES (ANGSTROEM)
---------------------------------
  C     -0.621065    1.325981    0.000000
  C      0.020904    0.729584    1.256731
  C      0.020904    0.729584   -1.256731
  C      0.020904   -0.794091    1.182195
  C      0.020904   -0.794091   -1.182195
  O      0.655923   -1.267487    0.000000
  H     -1.692321    1.099091    0.000000
  H     -0.531769    2.413763    0.000000
  H      1.053246    1.077801    1.346976
  H     -0.509437    1.050894    2.156429
  H     -0.509437    1.050894   -2.156429
  H      1.053246    1.077801   -1.346976
  H      0.568763   -1.234712    2.014395
  H     -1.011867   -1.171361    1.218225
  H     -1.011867   -1.171361   -1.218225
  H      0.568763   -1.234712   -2.014395

 Total Charge           Charge          ....    0
 Multiplicity           Mult            ....    1
 Number of Electrons    NEL             ....   48
 Basis Dimension        Dim             ....  506

ORBITAL ENERGIES
----------------

  NO   OCC          E(Eh)            E(eV)
   0   2.0000     -20.547747      -559.1326
   1   2.0000     -11.268213      -306.6237
   2   2.0000     -11.268196      -306.6232
   3   2.0000     -11.222206      -305.3717
   4   2.0000     -11.219189      -305.2897
   5   2.0000     -11.219120      -305.2878
   6   2.0000      -1.365721       -37.1631
   7   2.0000      -1.075488       -29.2655
   8   2.0000      -1.023890       -27.8615
   9   2.0000      -0.877406       -23.8754
  10   2.0000      -0.858364       -23.3573
  11   2.0000      -0.768809       -20.9204
  12   2.0000      -0.673547       -18.3281
  13   2.0000      -0.634926       -17.2772
  14   2.0000      -0.626006       -17.0345
  15   2.0000      -0.609893       -16.5960
  16   2.0000      -0.571333       -15.5468
  17   2.0000      -0.540159       -14.6985
  18   2.0000      -0.536944       -14.6110
  19   2.0000      -0.496794       -13.5184
  20   2.0000      -0.480931       -13.0868
  21   2.0000      -0.457385       -12.4461
  22   2.0000      -0.444563       -12.0972
  23   2.0000      -0.402958       -10.9650
  24   0.0000       0.029922         0.8142
  25   0.0000       0.036034         0.9805
  26   0.0000       0.037901         1.0313
  27   0.0000       0.039981         1.0879
  28   0.0000       0.053525         1.4565

MULLIKEN ATOMIC CHARGES
-----------------------
   0 C :   -0.425295
   1 C :   -0.554222
   2 C :   -0.554222
   3 C :   -0.270424
   4 C :   -0.270424
   5 O :   -0.718816
   6 H :    0.209669
   7 H :    0.283028
   8 H :    0.205092
   9 H :    0.327922
  10 H :    0.327922
  11 H :    0.205092
  12 H :    0.373074
  13 H :    0.244265
  14 H :    0.244265
  15 H :    0.373074
Sum of atomic charges:   -0.0000000

LOEWDIN ATOMIC CHARGES
----------------------
   0 C :    0.280006
   1 C :    0.285086
   2 C :    0.285086
   3 C :    0.036001
   4 C :    0.036001
   5 O :    0.569119
   6 H :   -0.145770
   7 H :   -0.144617
   8 H :   -0.145602
   9 H :   -0.145368
  10 H :   -0.145368
  11 H :   -0.145602
  12 H :   -0.159080
  13 H :   -0.150406
  14 H :   -0.150406
  15 H :   -0.159080

  Mayer bond orders larger than 0.100000
B(  0-C ,  1-C ) :   0.8685 B(  0-C ,  2-C ) :   0.8685 B(  0-C ,  6-H ) :   0.9893
B(  0-C ,  7-H ) :   0.9473 B(  1-C ,  3-C ) :   0.9521 B(  1-C ,  8-H ) :   1.0037
B(  1-C ,  9-H ) :   0.8849 B(  2-C ,  4-C ) :   0.9521 B(  2-C , 10-H ) :   0.8849
B(  2-C , 11-H ) :   1.0037 B(  3-C ,  5-O ) :   0.8360 B(  3-C , 12-H ) :   0.9072
B(  3-C , 13-H ) :   0.9845 B(  4-C ,  5-O ) :   0.8360 B(  4-C , 14-H ) :   0.9845
B(  4-C , 15-H ) :   0.9072

MP2 TOTAL ENERGY:     -271.230562625 Eh
FINAL SINGLE POINT ENERGY      -271.230562625116

DIPOLE MOMENT
-------------
                                X             Y             Z
Electronic contribution:      1.65751      -2.60028       0.00000
Nuclear contribution   :     -2.10611       3.07502      -0.00000
                        -----------------------------------------
Total Dipole Moment    :     -0.44860       0.47474       0.00000
                        -----------------------------------------
Magnitude (a.u.)       :      0.65317
Magnitude (Debye)      :      1.66021

Rotational constants in cm-1:     0.155354     0.150121     0.086353
Rotational constants in MHz :  4657.388683  4500.528816  2588.812186

                             ****ORCA TERMINATED NORMALLY****
TOTAL RUN TIME: 0 days 0 hours 4 minutes 21 seconds 922 msec
