                         Program Version 5.0.3 -  RELEASE  -
|  1> !ri-mp2 aug-cc-pvtz aug-cc-pvtz/c tightscf
|  2> %pal nprocs 16 end
|  3>
|  4> * xyz 0 1
|  5> C     -1.136499   -0.015675   -0.013358
|  6> C     -0.351177    1.282015   -0.109345
|  7> C      1.121374    1.196395    0.288033
|  8> C      1.730375   -0.061094   -0.320692
|  9> C      0.967631   -1.274376    0.171548
| 10> O     -2.337675   -0.038845    0.011767
| 11> O     -0.460963   -1.190435   -0.035842
| 12> H     -0.435798    1.586810   -1.156969
| 13> H     -0.898296    2.025035    0.467869
| 14> H      1.649445    2.092882   -0.038416
| 15> H      1.214168    1.154900    1.376777
| 16> H      1.688686   -0.010986   -1.412045
| 17> H      2.779640   -0.174267   -0.041841
| 18> H      1.269887   -2.184408   -0.342725
| 19> H      1.131141   -1.419315    1.242831
| 20> *
| 21>
| 22>                          ****END OF INPUT****

CARTESIAN COORDINATES (ANGSTROEM)
---------------------------------
  C     -1.136499   -0.015675   -0.013358
  C     -0.351177    1.282015   -0.109345
  C      1.121374    1.196395    0.288033
  C      1.730375   -0.061094   -0.320692
  C      0.967631   -1.274376    0.171548
  O     -2.337675   -0.038845    0.011767
  O     -0.460963   -1.190435   -0.035842
  H     -0.435798    1.586810   -1.156969
  H     -0.898296    2.025035    0.467869
  H      1.649445    2.092882   -0.038416
  H      1.214168    1.154900    1.376777
  H      1.688686   -0.010986   -1.412045
  H      2.779640   -0.174267   -0.041841
  H      1.269887   -2.184408   -0.342725
  H      1.131141   -1.419315    1.242831

 Total Charge           Charge          ....    0
 Multiplicity           Mult            ....    1
 Number of Electrons    NEL             ....   54
 Basis Dimension        Dim             ....  506

ORBITAL ENERGIES
----------------

  NO   OCC          E(Eh)            E(eV)
   0   2.0000     -20.596188      -560.4508
   1   2.0000     -20.531300      -558.6851
   2   2.0000     -11.375543      -309.5443
   3   2.0000     -11.302066      -307.5449
   4   2.0000     -11.250942      -306.1537
   5   2.0000     -11.248233      -306.0800
   6   2.0000     -11.246970      -306.0456
   7   2.0000      -1.448051       -39.4035
   8   2.0000      -1.353132       -36.8206
   9   2.0000      -1.110151       -30.2087
  10   2.0000      -1.032509       -28.0960
  11   2.0000      -0.915905       -24.9230
  12   2.0000      -0.859667       -23.3927
  13   2.0000      -0.752889       -20.4871
  14   2.0000      -0.696537       -18.9537
  15   2.0000      -0.669028       -18.2052
  16   2.0000      -0.665871       -18.1193
  17   2.0000      -0.632579       -17.2133
  18   2.0000      -0.615834       -16.7577
  19   2.0000      -0.597996       -16.2723
  20   2.0000      -0.568854       -15.4793
  21   2.0000      -0.519807       -14.1447
  22   2.0000      -0.508388       -13.8339
  23   2.0000      -0.504193       -13.7198
  24   2.0000      -0.486932       -13.2501
  25   2.0000      -0.444416       -12.0932
  26   2.0000      -0.428529       -11.6609
  27   0.0000       0.021880         0.5954
  28   0.0000       0.031803         0.8654
  29   0.0000       0.033301         0.9062
  30   0.0000       0.039935         1.0867
  31   0.0000       0.052245         1.4217

MULLIKEN ATOMIC CHARGES
-----------------------
   0 C :    0.441096
   1 C :   -0.200298
   2 C :   -0.435973
   3 C :   -0.508482
   4 C :   -0.274841
   5 O :   -0.842362
   6 O :   -0.379545
   7 H :    0.194722
   8 H :    0.308931
   9 H :    0.292060
  10 H :    0.222833
  11 H :    0.244853
  12 H :    0.316343
  13 H :    0.371430
  14 H :    0.249232
Sum of atomic charges:    0.0000000

LOEWDIN ATOMIC CHARGES
----------------------
   0 C :   -0.790208
   1 C :    0.290150
   2 C :    0.282220
   3 C :    0.280212
   4 C :    0.086864
   5 O :    0.432954
   6 O :    0.583140
   7 H :   -0.146202
   8 H :   -0.155884
   9 H :   -0.138965
  10 H :   -0.142275
  11 H :   -0.139029
  12 H :   -0.138476
  13 H :   -0.154713
  14 H :   -0.149790

  Mayer bond orders larger than 0.100000
B(  0-C ,  1-C ) :   0.5744 B(  0-C ,  5-O ) :   1.4250 B(  0-C ,  6-O ) :   1.0314
B(  1-C ,  2-C ) :   0.9043 B(  1-C ,  7-H ) :   0.9842 B(  1-C ,  8-H ) :   0.9148
B(  2-C ,  3-C ) :   0.8720 B(  2-C ,  9-H ) :   0.9418 B(  2-C , 10-H ) :   0.9881
B(  3-C ,  4-C ) :   0.9256 B(  3-C , 11-H ) :   0.9719 B(  3-C , 12-H ) :   0.9025
B(  4-C ,  6-O ) :   0.6700 B(  4-C , 13-H ) :   0.8851 B(  4-C , 14-H ) :   0.9714
B(  5-O ,  6-O ) :  -0.1237

MP2 TOTAL ENERGY:     -345.180597094 Eh
FINAL SINGLE POINT ENERGY      -345.180597093857

DIPOLE MOMENT
-------------
                                X             Y             Z
Electronic contribution:     -6.39538      -2.53976      -0.06318
Nuclear contribution   :      8.46315       3.09086       0.09634
                        -----------------------------------------
Total Dipole Moment    :      2.06778       0.55110       0.03316
                        -----------------------------------------
Magnitude (a.u.)       :      2.14021
Magnitude (Debye)      :      5.43999

Rotational constants in cm-1:     0.155714     0.085037     0.058808
Rotational constants in MHz :  4668.195150  2549.354549  1763.015210

                             ****ORCA TERMINATED NORMALLY****
TOTAL RUN TIME: 0 days 0 hours 5 minutes 10 seconds 190 msec
