                         Program Version 5.0.3 -  RELEASE  -
|  1> !ri-mp2 aug-cc-pvtz aug-cc-pvtz/c tightscf
|  2> %pal nprocs 16 end
|  3>
|  4> * xyz 0 1
|  5> C      1.612095   -0.729797    0.125254
|  6> C      1.612095    0.729797    0.125254
|  7> C      0.390198   -1.266356    0.004379
|  8> C      0.390198    1.266356    0.004379
|  9> O     -2.034840    0.000000    0.503621
| 10> S     -0.812350    0.000000   -0.367403
| 11> H      2.522887   -1.308036    0.196077
| 12> H      2.522887    1.308036    0.196077
| 13> H      0.101515   -2.302731   -0.049137
| 14> H      0.101515    2.302731   -0.049137
| 15> *
| 16>
| 17>                          ****END OF INPUT****

CARTESIAN COORDINATES (ANGSTROEM)
---------------------------------
  C      1.612095   -0.729797    0.125254
  C      1.612095    0.729797    0.125254
  C      0.390198   -1.266356    0.004379
  C      0.390198    1.266356    0.004379
  O     -2.034840    0.000000    0.503621
  S     -0.812350    0.000000   -0.367403
  H      2.522887   -1.308036    0.196077
  H      2.522887    1.308036    0.196077
  H      0.101515   -2.302731   -0.049137
  H      0.101515    2.302731   -0.049137

 Total Charge           Charge          ....    0
 Multiplicity           Mult            ....    1
 Number of Electrons    NEL             ....   52
 Basis Dimension        Dim             ....  372

ORBITAL ENERGIES
----------------

  NO   OCC          E(Eh)            E(eV)
   0   2.0000     -92.084076     -2505.7351
   1   2.0000     -20.518804      -558.3451
   2   2.0000     -11.280929      -306.9697
   3   2.0000     -11.280765      -306.9652
   4   2.0000     -11.279155      -306.9214
   5   2.0000     -11.278503      -306.9037
   6   2.0000      -9.070097      -246.8099
   7   2.0000      -6.752000      -183.7313
   8   2.0000      -6.751931      -183.7294
   9   2.0000      -6.750584      -183.6927
  10   2.0000      -1.341944       -36.5161
  11   2.0000      -1.178727       -32.0748
  12   2.0000      -1.021009       -27.7831
  13   2.0000      -0.970568       -26.4105
  14   2.0000      -0.792380       -21.5618
  15   2.0000      -0.778449       -21.1827
  16   2.0000      -0.723877       -19.6977
  17   2.0000      -0.614763       -16.7285
  18   2.0000      -0.599224       -16.3057
  19   2.0000      -0.584135       -15.8951
  20   2.0000      -0.579556       -15.7705
  21   2.0000      -0.565031       -15.3753
  22   2.0000      -0.476616       -12.9694
  23   2.0000      -0.437938       -11.9169
  24   2.0000      -0.368897       -10.0382
  25   2.0000      -0.360691        -9.8149
  26   0.0000       0.021434         0.5832
  27   0.0000       0.030568         0.8318
  28   0.0000       0.037203         1.0123
  29   0.0000       0.047437         1.2908
  30   0.0000       0.047783         1.3002

MULLIKEN ATOMIC CHARGES
-----------------------
   0 C :   -0.525600
   1 C :   -0.525600
   2 C :   -0.385547
   3 C :   -0.385547
   4 O :   -0.899338
   5 S :    0.782890
   6 H :    0.482134
   7 H :    0.482134
   8 H :    0.487236
   9 H :    0.487236
Sum of atomic charges:    0.0000000

LOEWDIN ATOMIC CHARGES
----------------------
   0 C :    0.102114
   1 C :    0.102114
   2 C :    0.017192
   3 C :    0.017192
   4 O :   -0.196763
   5 S :    0.811183
   6 H :   -0.186957
   7 H :   -0.186957
   8 H :   -0.239559
   9 H :   -0.239559

  Mayer bond orders larger than 0.100000
B(  0-C ,  1-C ) :   1.1613 B(  0-C ,  2-C ) :   1.4962 B(  0-C ,  6-H ) :   0.8176
B(  1-C ,  3-C ) :   1.4962 B(  1-C ,  7-H ) :   0.8176 B(  2-C ,  3-C ) :   0.1337
B(  2-C ,  5-S ) :   1.0518 B(  2-C ,  8-H ) :   0.7617 B(  3-C ,  5-S ) :   1.0518
B(  3-C ,  9-H ) :   0.7617 B(  4-O ,  5-S ) :   1.2428

MP2 TOTAL ENERGY:     -627.261107961 Eh
FINAL SINGLE POINT ENERGY      -627.261107960572

DIPOLE MOMENT
-------------
                                X             Y             Z
Electronic contribution:     -3.14156      -0.00000      -0.76137
Nuclear contribution   :      5.11222       0.00000       0.30542
                        -----------------------------------------
Total Dipole Moment    :      1.97067      -0.00000      -0.45596
                        -----------------------------------------
Magnitude (a.u.)       :      2.02273
Magnitude (Debye)      :      5.14137

Rotational constants in cm-1:     0.226902     0.096376     0.072809
Rotational constants in MHz :  6802.346580  2889.292111  2182.755058

                             ****ORCA TERMINATED NORMALLY****
TOTAL RUN TIME: 0 days 0 hours 2 minutes 20 seconds 567 msec
