                         Program Version 5.0.3 -  RELEASE  -
|  1> !ri-mp2 aug-cc-pvtz aug-cc-pvtz/c tightscf
|  2> %pal nprocs 16 end
|  3>
|  4> * xyz 0 1
|  5> S     -0.747974   -1.318207    0.000000
|  6> C      0.805831    1.524574    0.000000
|  7> C      0.139507    1.011430    1.280779
|  8> C      0.139507    1.011430   -1.280779
|  9> C      0.139507   -0.511309    1.383433
| 10> C      0.139507   -0.511309   -1.383433
| 11> H      0.797332    2.616416    0.000000
| 12> H      1.859810    1.225806    0.000000
| 13> H      1.161031   -0.896509    1.416773
| 14> H      1.161031   -0.896509   -1.416773
| 15> H      0.661931    1.421155    2.150299
| 16> H      0.661931    1.421155   -2.150299
| 17> H     -0.890910    1.371982    1.328857
| 18> H     -0.890910    1.371982   -1.328857
| 19> H     -0.368406   -0.846533   -2.286830
| 20> H     -0.368406   -0.846533    2.286830
| 21> *
| 22>
| 23>                          ****END OF INPUT****

CARTESIAN COORDINATES (ANGSTROEM)
---------------------------------
  S     -0.747974   -1.318207    0.000000
  C      0.805831    1.524574    0.000000
  C      0.139507    1.011430    1.280779
  C      0.139507    1.011430   -1.280779
  C      0.139507   -0.511309    1.383433
  C      0.139507   -0.511309   -1.383433
  H      0.797332    2.616416    0.000000
  H      1.859810    1.225806    0.000000
  H      1.161031   -0.896509    1.416773
  H      1.161031   -0.896509   -1.416773
  H      0.661931    1.421155    2.150299
  H      0.661931    1.421155   -2.150299
  H     -0.890910    1.371982    1.328857
  H     -0.890910    1.371982   -1.328857
  H     -0.368406   -0.846533   -2.286830
  H     -0.368406   -0.846533    2.286830

 Total Charge           Charge          ....    0
 Multiplicity           Mult            ....    1
 Number of Electrons    NEL             ....   56
 Basis Dimension        Dim             ....  510

ORBITAL ENERGIES
----------------

  NO   OCC          E(Eh)            E(eV)
   0   2.0000     -91.937042     -2501.7341
   1   2.0000     -11.251665      -306.1734
   2   2.0000     -11.251657      -306.1732
   3   2.0000     -11.226537      -305.4896
   4   2.0000     -11.226455      -305.4874
   5   2.0000     -11.224463      -305.4332
   6   2.0000      -8.937235      -243.1945
   7   2.0000      -6.618463      -180.0975
   8   2.0000      -6.617564      -180.0731
   9   2.0000      -6.616646      -180.0481
  10   2.0000      -1.115923       -30.3658
  11   2.0000      -1.019985       -27.7552
  12   2.0000      -1.003871       -27.3167
  13   2.0000      -0.843238       -22.9457
  14   2.0000      -0.837123       -22.7793
  15   2.0000      -0.754716       -20.5369
  16   2.0000      -0.645793       -17.5729
  17   2.0000      -0.615597       -16.7512
  18   2.0000      -0.611629       -16.6433
  19   2.0000      -0.578979       -15.7548
  20   2.0000      -0.547342       -14.8939
  21   2.0000      -0.526201       -14.3186
  22   2.0000      -0.499499       -13.5921
  23   2.0000      -0.495552       -13.4846
  24   2.0000      -0.473418       -12.8824
  25   2.0000      -0.435544       -11.8518
  26   2.0000      -0.412384       -11.2216
  27   2.0000      -0.331132        -9.0106
  28   0.0000       0.028987         0.7888
  29   0.0000       0.033974         0.9245
  30   0.0000       0.037677         1.0252
  31   0.0000       0.040115         1.0916
  32   0.0000       0.051746         1.4081

MULLIKEN ATOMIC CHARGES
-----------------------
   0 S :   -0.448100
   1 C :   -0.418561
   2 C :   -0.512478
   3 C :   -0.512478
   4 C :   -0.339421
   5 C :   -0.339421
   6 H :    0.258663
   7 H :    0.225038
   8 H :    0.180850
   9 H :    0.180850
  10 H :    0.288625
  11 H :    0.288625
  12 H :    0.249219
  13 H :    0.249219
  14 H :    0.324686
  15 H :    0.324686
Sum of atomic charges:    0.0000000

LOEWDIN ATOMIC CHARGES
----------------------
   0 S :    1.199188
   1 C :    0.264665
   2 C :    0.215821
   3 C :    0.215821
   4 C :   -0.053518
   5 C :   -0.053518
   6 H :   -0.145910
   7 H :   -0.146435
   8 H :   -0.214696
   9 H :   -0.214696
  10 H :   -0.149464
  11 H :   -0.149464
  12 H :   -0.156619
  13 H :   -0.156619
  14 H :   -0.227278
  15 H :   -0.227278

  Mayer bond orders larger than 0.100000
B(  0-S ,  4-C ) :   0.9337 B(  0-S ,  5-C ) :   0.9337 B(  1-C ,  2-C ) :   0.8810
B(  1-C ,  3-C ) :   0.8810 B(  1-C ,  6-H ) :   0.9515 B(  1-C ,  7-H ) :   0.9897
B(  2-C ,  4-C ) :   0.9671 B(  2-C , 10-H ) :   0.9217 B(  2-C , 12-H ) :   0.9613
B(  3-C ,  5-C ) :   0.9671 B(  3-C , 11-H ) :   0.9217 B(  3-C , 13-H ) :   0.9613
B(  4-C ,  8-H ) :   1.0001 B(  4-C , 15-H ) :   0.8903 B(  5-C ,  9-H ) :   1.0001
B(  5-C , 14-H ) :   0.8903

MP2 TOTAL ENERGY:     -593.842190593 Eh
FINAL SINGLE POINT ENERGY      -593.842190592747

DIPOLE MOMENT
-------------
                                X             Y             Z
Electronic contribution:     -3.38284      -5.54972       0.00000
Nuclear contribution   :      3.91843       6.15738       0.00000
                        -----------------------------------------
Total Dipole Moment    :      0.53559       0.60767       0.00000
                        -----------------------------------------
Magnitude (a.u.)       :      0.81001
Magnitude (Debye)      :      2.05888

Rotational constants in cm-1:     0.131962     0.099388     0.063002
Rotational constants in MHz :  3956.119964  2979.566327  1888.755346

                             ****ORCA TERMINATED NORMALLY****
TOTAL RUN TIME: 0 days 0 hours 4 minutes 37 seconds 441 msec
