                         Program Version 5.0.3 -  RELEASE  -
|  1> !ri-mp2 aug-cc-pvtz aug-cc-pvtz/c tightscf
|  2> %pal nprocs 16 end
|  3>
|  4> * xyz 0 1
|  5> Cl     0.000000    1.435076   -0.846417
|  6> C      0.000000    0.000000    0.142885
|  7> Cl     0.000000   -1.435076   -0.846417
|  8> S      0.000000    0.000000    1.745054
|  9> *
| 10>
| 11>                          ****END OF INPUT****

CARTESIAN COORDINATES (ANGSTROEM)
---------------------------------
  Cl     0.000000    1.435076   -0.846417
  C      0.000000    0.000000    0.142885
  Cl     0.000000   -1.435076   -0.846417
  S      0.000000    0.000000    1.745054

 Total Charge           Charge          ....    0
 Multiplicity           Mult            ....    1
 Number of Electrons    NEL             ....   56
 Basis Dimension        Dim             ....  196

ORBITAL ENERGIES
----------------

  NO   OCC          E(Eh)            E(eV)
   0   2.0000    -104.887166     -2854.1249
   1   2.0000    -104.887166     -2854.1249
   2   2.0000     -91.979746     -2502.8961
   3   2.0000     -11.450798      -311.5921
   4   2.0000     -10.610954      -288.7387
   5   2.0000     -10.610941      -288.7384
   6   2.0000      -8.982704      -244.4318
   7   2.0000      -8.077699      -219.8054
   8   2.0000      -8.077697      -219.8053
   9   2.0000      -8.075617      -219.7487
  10   2.0000      -8.075614      -219.7486
  11   2.0000      -8.075444      -219.7440
  12   2.0000      -8.075443      -219.7440
  13   2.0000      -6.663488      -181.3227
  14   2.0000      -6.662484      -181.2954
  15   2.0000      -6.660983      -181.2546
  16   2.0000      -1.239163       -33.7194
  17   2.0000      -1.131475       -30.7890
  18   2.0000      -1.041792       -28.3486
  19   2.0000      -0.770209       -20.9585
  20   2.0000      -0.641936       -17.4680
  21   2.0000      -0.608277       -16.5521
  22   2.0000      -0.583859       -15.8876
  23   2.0000      -0.504499       -13.7281
  24   2.0000      -0.495058       -13.4712
  25   2.0000      -0.476575       -12.9683
  26   2.0000      -0.409456       -11.1419
  27   2.0000      -0.382217       -10.4006
  28   0.0000       0.017311         0.4711
  29   0.0000       0.048438         1.3181
  30   0.0000       0.063148         1.7183
  31   0.0000       0.069137         1.8813
  32   0.0000       0.099704         2.7131

MULLIKEN ATOMIC CHARGES
-----------------------
   0 Cl:   -0.034671
   1 C :    0.062781
   2 Cl:   -0.034671
   3 S :    0.006561
Sum of atomic charges:   -0.0000000

LOEWDIN ATOMIC CHARGES
----------------------
   0 Cl:    0.766619
   1 C :   -2.276005
   2 Cl:    0.766619
   3 S :    0.742766

  Mayer bond orders larger than 0.100000
B(  0-Cl,  1-C ) :   0.9980 B(  1-C ,  2-Cl) :   0.9980 B(  1-C ,  3-S ) :   1.8987

MP2 TOTAL ENERGY:    -1355.150251697 Eh
FINAL SINGLE POINT ENERGY     -1355.150251697441

DIPOLE MOMENT
-------------
                                X             Y             Z
Electronic contribution:      0.00000      -0.00000      -2.41094
Nuclear contribution   :      0.00000       0.00000       2.16608
                        -----------------------------------------
Total Dipole Moment    :      0.00000      -0.00000      -0.24486
                        -----------------------------------------
Magnitude (a.u.)       :      0.24486
Magnitude (Debye)      :      0.62238

Rotational constants in cm-1:     0.115442     0.113424     0.057212
Rotational constants in MHz :  3460.866243  3400.362208  1715.173728

                             ****ORCA TERMINATED NORMALLY****
TOTAL RUN TIME: 0 days 0 hours 0 minutes 49 seconds 410 msec
