                         Program Version 5.0.3 -  RELEASE  -
|  1> !ri-mp2 aug-cc-pvtz aug-cc-pvtz/c tightscf
|  2> %pal nprocs 16 end
|  3>
|  4> * xyz 0 1
|  5> S     -1.849048   -0.498034   -0.251110
|  6> S      2.347895   -0.118777   -0.102268
|  7> N      0.029899    1.184602    0.018376
|  8> N     -1.384596    1.156257    0.116381
|  9> C      0.716388    0.030291    0.085786
| 10> C     -0.237505   -1.118129    0.367886
| 11> H      0.445368    2.022351   -0.358482
| 12> H     -1.620549    1.333484    1.090140
| 13> H      0.061019   -2.005332   -0.179311
| 14> H     -0.257812   -1.340511    1.436386
| 15> *
| 16>
| 17>                          ****END OF INPUT****

CARTESIAN COORDINATES (ANGSTROEM)
---------------------------------
  S     -1.849048   -0.498034   -0.251110
  S      2.347895   -0.118777   -0.102268
  N      0.029899    1.184602    0.018376
  N     -1.384596    1.156257    0.116381
  C      0.716388    0.030291    0.085786
  C     -0.237505   -1.118129    0.367886
  H      0.445368    2.022351   -0.358482
  H     -1.620549    1.333484    1.090140
  H      0.061019   -2.005332   -0.179311
  H     -0.257812   -1.340511    1.436386

 Total Charge           Charge          ....    0
 Multiplicity           Mult            ....    1
 Number of Electrons    NEL             ....   62
 Basis Dimension        Dim             ....  376

ORBITAL ENERGIES
----------------

  NO   OCC          E(Eh)            E(eV)
   0   2.0000     -92.009713     -2503.7116
   1   2.0000     -91.914972     -2501.1336
   2   2.0000     -15.654285      -425.9748
   3   2.0000     -15.651936      -425.9108
   4   2.0000     -11.369665      -309.3843
   5   2.0000     -11.298901      -307.4587
   6   2.0000      -9.007041      -245.0940
   7   2.0000      -8.917881      -242.6679
   8   2.0000      -6.688015      -181.9901
   9   2.0000      -6.686934      -181.9607
  10   2.0000      -6.685647      -181.9257
  11   2.0000      -6.599281      -179.5756
  12   2.0000      -6.597633      -179.5307
  13   2.0000      -6.596739      -179.5064
  14   2.0000      -1.373280       -37.3689
  15   2.0000      -1.154689       -31.4207
  16   2.0000      -1.091676       -29.7060
  17   2.0000      -0.961467       -26.1629
  18   2.0000      -0.882163       -24.0049
  19   2.0000      -0.830912       -22.6103
  20   2.0000      -0.736056       -20.0291
  21   2.0000      -0.668774       -18.1983
  22   2.0000      -0.635059       -17.2808
  23   2.0000      -0.615648       -16.7526
  24   2.0000      -0.556414       -15.1408
  25   2.0000      -0.522058       -14.2059
  26   2.0000      -0.501852       -13.6561
  27   2.0000      -0.464984       -12.6529
  28   2.0000      -0.379532       -10.3276
  29   2.0000      -0.345273        -9.3954
  30   2.0000      -0.335366        -9.1258
  31   0.0000       0.023805         0.6478
  32   0.0000       0.035982         0.9791
  33   0.0000       0.039387         1.0718
  34   0.0000       0.050013         1.3609
  35   0.0000       0.065337         1.7779

MULLIKEN ATOMIC CHARGES
-----------------------
   0 S :    0.005989
   1 S :   -0.536620
   2 N :    0.083011
   3 N :   -0.357388
   4 C :    0.255871
   5 C :   -0.273912
   6 H :    0.095666
   7 H :    0.111542
   8 H :    0.343734
   9 H :    0.272107
Sum of atomic charges:    0.0000000

LOEWDIN ATOMIC CHARGES
----------------------
   0 S :    1.087013
   1 S :    0.868767
   2 N :    0.266932
   3 N :    0.117017
   4 C :   -1.035208
   5 C :   -0.126512
   6 H :   -0.295672
   7 H :   -0.417853
   8 H :   -0.245457
   9 H :   -0.219027

  Mayer bond orders larger than 0.100000
B(  0-S ,  3-N ) :   0.9065 B(  0-S ,  5-C ) :   1.0007 B(  1-S ,  4-C ) :   1.5493
B(  2-N ,  3-N ) :   0.6057 B(  2-N ,  4-C ) :   1.1930 B(  2-N ,  6-H ) :   1.0897
B(  3-N ,  7-H ) :   0.9666 B(  4-C ,  5-C ) :   0.8842 B(  5-C ,  8-H ) :   0.9213
B(  5-C ,  9-H ) :   0.9083

MP2 TOTAL ENERGY:     -983.161028727 Eh
FINAL SINGLE POINT ENERGY      -983.161028727132

DIPOLE MOMENT
-------------
                                X             Y             Z
Electronic contribution:      0.22982       0.14090      -1.31000
Nuclear contribution   :     -1.35181       0.04143       1.93805
                        -----------------------------------------
Total Dipole Moment    :     -1.12199       0.18233       0.62805
                        -----------------------------------------
Magnitude (a.u.)       :      1.29868
Magnitude (Debye)      :      3.30097

Rotational constants in cm-1:     0.207494     0.050988     0.042508
Rotational constants in MHz :  6220.510514  1528.572068  1274.353898

                             ****ORCA TERMINATED NORMALLY****
TOTAL RUN TIME: 0 days 0 hours 2 minutes 10 seconds 14 msec
