                         Program Version 5.0.3 -  RELEASE  -
|  1> !ri-mp2 aug-cc-pvtz aug-cc-pvtz/c tightscf
|  2> %pal nprocs 16 end
|  3> %maxcore 3800
|  4>
|  5> * xyz 0 1
|  6> C      0.000000    2.646312   -0.153625
|  7> C     -0.783823    1.911812   -1.237462
|  8> C     -0.502659    1.272733    0.068369
|  9> C      0.000000    0.000000    0.571930
| 10> C     -1.280621    0.550204    1.125888
| 11> C      0.502659   -1.272733    0.068369
| 12> C      1.280621   -0.550204    1.125888
| 13> C      0.783823   -1.911812   -1.237462
| 14> C      0.000000   -2.646312   -0.153625
| 15> H      1.061695    2.787753   -0.310710
| 16> H     -0.492162    3.465471    0.354450
| 17> H     -1.792102    2.247544   -1.442544
| 18> H     -0.237243    1.571736   -2.107218
| 19> H     -1.270911    0.951885    2.132470
| 20> H     -2.207587    0.066955    0.838743
| 21> H      1.270911   -0.951885    2.132470
| 22> H      2.207587   -0.066955    0.838743
| 23> H      0.237243   -1.571736   -2.107218
| 24> H      1.792102   -2.247544   -1.442544
| 25> H      0.492162   -3.465471    0.354450
| 26> H     -1.061695   -2.787753   -0.310710
| 27> *
| 28>
| 29>                          ****END OF INPUT****

CARTESIAN COORDINATES (ANGSTROEM)
---------------------------------
  C      0.000000    2.646312   -0.153625
  C     -0.783823    1.911812   -1.237462
  C     -0.502659    1.272733    0.068369
  C      0.000000    0.000000    0.571930
  C     -1.280621    0.550204    1.125888
  C      0.502659   -1.272733    0.068369
  C      1.280621   -0.550204    1.125888
  C      0.783823   -1.911812   -1.237462
  C      0.000000   -2.646312   -0.153625
  H      1.061695    2.787753   -0.310710
  H     -0.492162    3.465471    0.354450
  H     -1.792102    2.247544   -1.442544
  H     -0.237243    1.571736   -2.107218
  H     -1.270911    0.951885    2.132470
  H     -2.207587    0.066955    0.838743
  H      1.270911   -0.951885    2.132470
  H      2.207587   -0.066955    0.838743
  H      0.237243   -1.571736   -2.107218
  H      1.792102   -2.247544   -1.442544
  H      0.492162   -3.465471    0.354450
  H     -1.061695   -2.787753   -0.310710

 Total Charge           Charge          ....    0
 Multiplicity           Mult            ....    1
 Number of Electrons    NEL             ....   66
 Basis Dimension        Dim             ....  690

ORBITAL ENERGIES
----------------

  NO   OCC          E(Eh)            E(eV)
   0   2.0000     -11.237247      -305.7810
   1   2.0000     -11.235987      -305.7467
   2   2.0000     -11.235704      -305.7391
   3   2.0000     -11.224315      -305.4291
   4   2.0000     -11.224289      -305.4284
   5   2.0000     -11.224189      -305.4257
   6   2.0000     -11.224188      -305.4257
   7   2.0000     -11.223556      -305.4085
   8   2.0000     -11.223555      -305.4085
   9   2.0000      -1.196166       -32.5493
  10   2.0000      -1.144943       -31.1555
  11   2.0000      -1.074083       -29.2273
  12   2.0000      -1.009001       -27.4563
  13   2.0000      -0.825308       -22.4578
  14   2.0000      -0.823630       -22.4121
  15   2.0000      -0.790908       -21.5217
  16   2.0000      -0.764227       -20.7957
  17   2.0000      -0.704764       -19.1776
  18   2.0000      -0.671109       -18.2618
  19   2.0000      -0.641002       -17.4426
  20   2.0000      -0.638450       -17.3731
  21   2.0000      -0.607878       -16.5412
  22   2.0000      -0.602029       -16.3820
  23   2.0000      -0.526522       -14.3274
  24   2.0000      -0.513187       -13.9645
  25   2.0000      -0.512986       -13.9590
  26   2.0000      -0.479978       -13.0609
  27   2.0000      -0.455585       -12.3971
  28   2.0000      -0.428198       -11.6519
  29   2.0000      -0.426950       -11.6179
  30   2.0000      -0.381896       -10.3919
  31   2.0000      -0.374779       -10.1982
  32   2.0000      -0.370274       -10.0757
  33   0.0000       0.030994         0.8434
  34   0.0000       0.032702         0.8899
  35   0.0000       0.035436         0.9643
  36   0.0000       0.036467         0.9923
  37   0.0000       0.047369         1.2890

MULLIKEN ATOMIC CHARGES
-----------------------
   0 C :   -1.326815
   1 C :   -1.120401
   2 C :    1.350021
   3 C :    1.433275
   4 C :   -1.273968
   5 C :    1.350021
   6 C :   -1.273968
   7 C :   -1.120401
   8 C :   -1.326815
   9 H :    0.274919
  10 H :    0.312487
  11 H :    0.269445
  12 H :    0.331825
  13 H :    0.251310
  14 H :    0.214538
  15 H :    0.251310
  16 H :    0.214538
  17 H :    0.331825
  18 H :    0.269445
  19 H :    0.312487
  20 H :    0.274919
Sum of atomic charges:   -0.0000000

LOEWDIN ATOMIC CHARGES
----------------------
   0 C :    0.403743
   1 C :    0.403802
   2 C :   -0.235010
   3 C :   -0.187847
   4 C :    0.451920
   5 C :   -0.235010
   6 C :    0.451920
   7 C :    0.403802
   8 C :    0.403743
   9 H :   -0.156690
  10 H :   -0.157604
  11 H :   -0.157664
  12 H :   -0.157955
  13 H :   -0.150436
  14 H :   -0.150182
  15 H :   -0.150436
  16 H :   -0.150182
  17 H :   -0.157955
  18 H :   -0.157664
  19 H :   -0.157604
  20 H :   -0.156690

  Mayer bond orders larger than 0.100000
B(  0-C ,  1-C ) :   1.6179 B(  0-C ,  2-C ) :  -0.1849 B(  0-C ,  3-C ) :  -0.2563
B(  0-C ,  5-C ) :   0.1655 B(  0-C ,  7-C ) :  -0.2207 B(  0-C ,  8-C ) :   0.3288
B(  0-C ,  9-H ) :   0.9982 B(  0-C , 10-H ) :   0.9353 B(  1-C ,  2-C ) :  -0.1998
B(  1-C ,  3-C ) :   0.1427 B(  1-C ,  7-C ) :   0.1888 B(  1-C ,  8-C ) :  -0.2207
B(  1-C , 11-H ) :   1.0238 B(  1-C , 12-H ) :   0.9170 B(  2-C ,  3-C ) :  -0.1899
B(  2-C ,  4-C ) :   0.7995 B(  2-C ,  5-C ) :   0.3293 B(  2-C ,  6-C ) :  -0.2577
B(  2-C ,  8-C ) :   0.1655 B(  3-C ,  4-C ) :   0.4587 B(  3-C ,  5-C ) :  -0.1899
B(  3-C ,  6-C ) :   0.4587 B(  3-C ,  7-C ) :   0.1427 B(  3-C ,  8-C ) :  -0.2563
B(  4-C ,  5-C ) :  -0.2577 B(  4-C , 13-H ) :   1.0485 B(  4-C , 14-H ) :   1.0923
B(  5-C ,  6-C ) :   0.7995 B(  5-C ,  7-C ) :  -0.1998 B(  5-C ,  8-C ) :  -0.1849
B(  6-C , 15-H ) :   1.0485 B(  6-C , 16-H ) :   1.0923 B(  7-C ,  8-C ) :   1.6179
B(  7-C , 17-H ) :   0.9170 B(  7-C , 18-H ) :   1.0238 B(  8-C , 19-H ) :   0.9353
B(  8-C , 20-H ) :   0.9982

MP2 TOTAL ENERGY:     -349.256733727 Eh
FINAL SINGLE POINT ENERGY      -349.256733727161

DIPOLE MOMENT
-------------
                                X             Y             Z
Electronic contribution:     -0.00000      -0.00000       1.10315
Nuclear contribution   :      0.00000       0.00000      -1.10306
                        -----------------------------------------
Total Dipole Moment    :     -0.00000      -0.00000       0.00010
                        -----------------------------------------
Magnitude (a.u.)       :      0.00010
Magnitude (Debye)      :      0.00024

Rotational constants in cm-1:     0.106366     0.038162     0.035468
Rotational constants in MHz :  3188.773290  1144.058687  1063.315873

                             ****ORCA TERMINATED NORMALLY****
TOTAL RUN TIME: 0 days 0 hours 10 minutes 59 seconds 599 msec
