                         Program Version 5.0.3 -  RELEASE  -
|  1> !ri-mp2 aug-cc-pvtz aug-cc-pvtz/c tightscf
|  2> %pal nprocs 16 end
|  3>
|  4> * xyz 0 1
|  5> C      0.000000    0.619383    0.000000
|  6> C     -1.485214    0.718099    0.000000
|  7> S      0.874031   -0.744703    0.000000
|  8> H      0.520354    1.577729    0.000000
|  9> H     -1.957612   -0.260850    0.000000
| 10> H     -1.817979    1.286739    0.874315
| 11> H     -1.817979    1.286739   -0.874315
| 12> *
| 13>
| 14>                          ****END OF INPUT****

CARTESIAN COORDINATES (ANGSTROEM)
---------------------------------
  C      0.000000    0.619383    0.000000
  C     -1.485214    0.718099    0.000000
  S      0.874031   -0.744703    0.000000
  H      0.520354    1.577729    0.000000
  H     -1.957612   -0.260850    0.000000
  H     -1.817979    1.286739    0.874315
  H     -1.817979    1.286739   -0.874315

 Total Charge           Charge          ....    0
 Multiplicity           Mult            ....    1
 Number of Electrons    NEL             ....   32
 Basis Dimension        Dim             ....  234

ORBITAL ENERGIES
----------------

  NO   OCC          E(Eh)            E(eV)
   0   2.0000     -91.939876     -2501.8112
   1   2.0000     -11.322535      -308.1018
   2   2.0000     -11.247807      -306.0684
   3   2.0000      -8.942360      -243.3340
   4   2.0000      -6.623136      -180.2247
   5   2.0000      -6.622625      -180.2108
   6   2.0000      -6.620886      -180.1635
   7   2.0000      -1.096513       -29.8376
   8   2.0000      -0.959901       -26.1202
   9   2.0000      -0.772743       -21.0274
  10   2.0000      -0.630612       -17.1598
  11   2.0000      -0.594062       -16.1653
  12   2.0000      -0.570455       -15.5229
  13   2.0000      -0.511089       -13.9074
  14   2.0000      -0.396369       -10.7857
  15   2.0000      -0.342087        -9.3087
  16   0.0000       0.026583         0.7234
  17   0.0000       0.039873         1.0850
  18   0.0000       0.042248         1.1496
  19   0.0000       0.051589         1.4038
  20   0.0000       0.053848         1.4653

MULLIKEN ATOMIC CHARGES
-----------------------
   0 C :   -0.333291
   1 C :   -0.710287
   2 S :   -0.299121
   3 H :    0.401765
   4 H :    0.330897
   5 H :    0.305019
   6 H :    0.305019
Sum of atomic charges:   -0.0000000

LOEWDIN ATOMIC CHARGES
----------------------
   0 C :   -0.523547
   1 C :    0.454878
   2 S :    0.922572
   3 H :   -0.283816
   4 H :   -0.207139
   5 H :   -0.181474
   6 H :   -0.181474

  Mayer bond orders larger than 0.100000
B(  0-C ,  1-C ) :   0.8681 B(  0-C ,  2-S ) :   1.8433 B(  0-C ,  3-H ) :   0.7615
B(  1-C ,  4-H ) :   0.9180 B(  1-C ,  5-H ) :   0.9145 B(  1-C ,  6-H ) :   0.9145

MP2 TOTAL ENERGY:     -476.133716079 Eh
FINAL SINGLE POINT ENERGY      -476.133716078780

DIPOLE MOMENT
-------------
                                X             Y             Z
Electronic contribution:      4.34951      -3.03265       0.00000
Nuclear contribution   :     -5.09886       3.91232       0.00000
                        -----------------------------------------
Total Dipole Moment    :     -0.74934       0.87967       0.00000
                        -----------------------------------------
Magnitude (a.u.)       :      1.15556
Magnitude (Debye)      :      2.93721

Rotational constants in cm-1:     1.653206     0.190507     0.176330
Rotational constants in MHz : 49561.876320  5711.259594  5286.228064

                             ****ORCA TERMINATED NORMALLY****
TOTAL RUN TIME: 0 days 0 hours 0 minutes 38 seconds 977 msec
