                         Program Version 5.0.3 -  RELEASE  -
|  1> !ri-mp2 aug-cc-pvtz aug-cc-pvtz/c tightscf
|  2> %pal nprocs 16 end
|  3> %maxcore 3800
|  4>
|  5> * xyz 0 1
|  6> C     -0.793806    0.000318    0.000712
|  7> C      0.794117   -0.000302   -0.000582
|  8> C     -1.356708   -0.190381   -1.421764
|  9> C     -1.354984   -1.136464    0.877663
| 10> C     -1.354681    1.328013    0.546448
| 11> C      1.357091   -0.075244    1.432659
| 12> C      1.353535   -1.204868   -0.782754
| 13> C      1.355771    1.278820   -0.652338
| 14> H     -2.441884   -0.073265   -1.406406
| 15> H     -1.144492   -1.183517   -1.816507
| 16> H     -0.962417    0.543192   -2.125265
| 17> H     -2.440034   -1.182634    0.768829
| 18> H     -1.142299   -0.980842    1.934840
| 19> H     -0.959235   -2.112026    0.594245
| 20> H     -2.439863    1.257189    0.639872
| 21> H     -1.140724    2.165686   -0.116604
| 22> H     -0.960397    1.570217    1.533667
| 23> H      2.442714    0.035395    1.406956
| 24> H      1.140854   -1.031082    1.908797
| 25> H      0.966525    0.716279    2.072656
| 26> H      2.439259   -1.240178   -0.675973
| 27> H      1.134677   -1.138294   -1.847977
| 28> H      0.961030   -2.153714   -0.416363
| 29> H      2.441259    1.201912   -0.736986
| 30> H      1.139195    2.167901   -0.060992
| 31> H      0.963822    1.438426   -1.657047
| 32> *
| 33>
| 34>                          ****END OF INPUT****

CARTESIAN COORDINATES (ANGSTROEM)
---------------------------------
  C     -0.793806    0.000318    0.000712
  C      0.794117   -0.000302   -0.000582
  C     -1.356708   -0.190381   -1.421764
  C     -1.354984   -1.136464    0.877663
  C     -1.354681    1.328013    0.546448
  C      1.357091   -0.075244    1.432659
  C      1.353535   -1.204868   -0.782754
  C      1.355771    1.278820   -0.652338
  H     -2.441884   -0.073265   -1.406406
  H     -1.144492   -1.183517   -1.816507
  H     -0.962417    0.543192   -2.125265
  H     -2.440034   -1.182634    0.768829
  H     -1.142299   -0.980842    1.934840
  H     -0.959235   -2.112026    0.594245
  H     -2.439863    1.257189    0.639872
  H     -1.140724    2.165686   -0.116604
  H     -0.960397    1.570217    1.533667
  H      2.442714    0.035395    1.406956
  H      1.140854   -1.031082    1.908797
  H      0.966525    0.716279    2.072656
  H      2.439259   -1.240178   -0.675973
  H      1.134677   -1.138294   -1.847977
  H      0.961030   -2.153714   -0.416363
  H      2.441259    1.201912   -0.736986
  H      1.139195    2.167901   -0.060992
  H      0.963822    1.438426   -1.657047

 Total Charge           Charge          ....    0
 Multiplicity           Mult            ....    1
 Number of Electrons    NEL             ....   66
 Basis Dimension        Dim             ....  782

ORBITAL ENERGIES
----------------

  NO   OCC          E(Eh)            E(eV)
   0   2.0000     -11.232828      -305.6608
   1   2.0000     -11.232334      -305.6474
   2   2.0000     -11.204869      -304.9000
   3   2.0000     -11.204863      -304.8998
   4   2.0000     -11.204855      -304.8996
   5   2.0000     -11.204847      -304.8994
   6   2.0000     -11.204830      -304.8989
   7   2.0000     -11.204820      -304.8986
   8   2.0000      -1.121361       -30.5138
   9   2.0000      -1.036893       -28.2153
  10   2.0000      -0.939656       -25.5693
  11   2.0000      -0.939544       -25.5663
  12   2.0000      -0.910569       -24.7779
  13   2.0000      -0.910539       -24.7770
  14   2.0000      -0.803057       -21.8523
  15   2.0000      -0.692311       -18.8387
  16   2.0000      -0.645684       -17.5700
  17   2.0000      -0.603660       -16.4264
  18   2.0000      -0.603628       -16.4256
  19   2.0000      -0.589997       -16.0546
  20   2.0000      -0.589953       -16.0534
  21   2.0000      -0.552628       -15.0378
  22   2.0000      -0.531305       -14.4575
  23   2.0000      -0.531171       -14.4539
  24   2.0000      -0.523554       -14.2466
  25   2.0000      -0.509861       -13.8740
  26   2.0000      -0.509818       -13.8729
  27   2.0000      -0.495754       -13.4902
  28   2.0000      -0.480677       -13.0799
  29   2.0000      -0.480579       -13.0772
  30   2.0000      -0.432334       -11.7644
  31   2.0000      -0.432270       -11.7627
  32   2.0000      -0.422297       -11.4913
  33   0.0000       0.030122         0.8197
  34   0.0000       0.034399         0.9360
  35   0.0000       0.035499         0.9660
  36   0.0000       0.035500         0.9660
  37   0.0000       0.050644         1.3781

MULLIKEN ATOMIC CHARGES
-----------------------
   0 C :    2.153363
   1 C :    2.144708
   2 C :   -1.443265
   3 C :   -1.443007
   4 C :   -1.442964
   5 C :   -1.442777
   6 C :   -1.441845
   7 C :   -1.441974
   8 H :    0.180556
   9 H :    0.231677
  10 H :    0.314164
  11 H :    0.180373
  12 H :    0.231748
  13 H :    0.314662
  14 H :    0.180433
  15 H :    0.232110
  16 H :    0.313745
  17 H :    0.180166
  18 H :    0.232102
  19 H :    0.313509
  20 H :    0.180339
  21 H :    0.231990
  22 H :    0.314037
  23 H :    0.180388
  24 H :    0.232240
  25 H :    0.313521
Sum of atomic charges:   -0.0000000

LOEWDIN ATOMIC CHARGES
----------------------
   0 C :   -0.285102
   1 C :   -0.285038
   2 C :    0.583021
   3 C :    0.583136
   4 C :    0.582825
   5 C :    0.583192
   6 C :    0.583158
   7 C :    0.583185
   8 H :   -0.157610
   9 H :   -0.164596
  10 H :   -0.165790
  11 H :   -0.157659
  12 H :   -0.164490
  13 H :   -0.165925
  14 H :   -0.157644
  15 H :   -0.164596
  16 H :   -0.165593
  17 H :   -0.157718
  18 H :   -0.164628
  19 H :   -0.165730
  20 H :   -0.157527
  21 H :   -0.164775
  22 H :   -0.165935
  23 H :   -0.157658
  24 H :   -0.164795
  25 H :   -0.165707

  Mayer bond orders larger than 0.100000
B(  0-C ,  1-C ) :   1.2772 B(  0-C ,  8-H ) :  -0.1507 B(  0-C ,  9-H ) :  -0.1040
B(  0-C , 10-H ) :  -0.1073 B(  0-C , 11-H ) :  -0.1510 B(  0-C , 12-H ) :  -0.1041
B(  0-C , 13-H ) :  -0.1071 B(  0-C , 14-H ) :  -0.1510 B(  0-C , 15-H ) :  -0.1040
B(  0-C , 16-H ) :  -0.1075 B(  1-C , 17-H ) :  -0.1504 B(  1-C , 18-H ) :  -0.1030
B(  1-C , 19-H ) :  -0.1067 B(  1-C , 20-H ) :  -0.1501 B(  1-C , 21-H ) :  -0.1032
B(  1-C , 22-H ) :  -0.1064 B(  1-C , 23-H ) :  -0.1502 B(  1-C , 24-H ) :  -0.1033
B(  1-C , 25-H ) :  -0.1067 B(  2-C ,  8-H ) :   1.1622 B(  2-C ,  9-H ) :   1.1254
B(  2-C , 10-H ) :   1.0189 B(  3-C , 11-H ) :   1.1629 B(  3-C , 12-H ) :   1.1255
B(  3-C , 13-H ) :   1.0184 B(  4-C , 14-H ) :   1.1628 B(  4-C , 15-H ) :   1.1250
B(  4-C , 16-H ) :   1.0194 B(  5-C , 17-H ) :   1.1628 B(  5-C , 18-H ) :   1.1242
B(  5-C , 19-H ) :   1.0196 B(  6-C , 20-H ) :   1.1627 B(  6-C , 21-H ) :   1.1247
B(  6-C , 22-H ) :   1.0191 B(  7-C , 23-H ) :   1.1624 B(  7-C , 24-H ) :   1.1247
B(  7-C , 25-H ) :   1.0194

MP2 TOTAL ENERGY:     -314.992994895 Eh
FINAL SINGLE POINT ENERGY      -314.992994894594

DIPOLE MOMENT
-------------
                                X             Y             Z
Electronic contribution:      0.00202      -0.00064       0.00022
Nuclear contribution   :     -0.00218       0.00070      -0.00028
                        -----------------------------------------
Total Dipole Moment    :     -0.00017       0.00006      -0.00006
                        -----------------------------------------
Magnitude (a.u.)       :      0.00019
Magnitude (Debye)      :      0.00047

Rotational constants in cm-1:     0.077291     0.055077     0.055069
Rotational constants in MHz :  2317.113167  1651.153787  1650.912452

                             ****ORCA TERMINATED NORMALLY****
TOTAL RUN TIME: 0 days 0 hours 20 minutes 0 seconds 585 msec
