                         Program Version 5.0.3 -  RELEASE  -
|  1> !ri-mp2 aug-cc-pvtz aug-cc-pvtz/c tightscf
|  2> %pal nprocs 16 end
|  3>
|  4> * xyz 0 1
|  5> S     -1.476701   -0.452025   -0.259302
|  6> C      1.913232   -0.302099   -0.804682
|  7> H      1.265426   -0.226374   -1.678866
|  8> H      2.683844    0.466120   -0.886402
|  9> H      2.406718   -1.274145   -0.844759
| 10> C     -0.015272   -1.169321    0.615996
| 11> H      0.232350   -2.124200    0.156285
| 12> H     -0.282085   -1.344028    1.657022
| 13> C      1.122948   -0.146438    0.496930
| 14> H      1.809247   -0.288791    1.336203
| 15> C     -0.761847    1.249024   -0.311830
| 16> H     -1.519110    1.960559    0.008816
| 17> H     -0.481066    1.483947   -1.337013
| 18> C      0.449983    1.229470    0.621149
| 19> H      0.115459    1.375949    1.649963
| 20> H      1.142169    2.039539    0.382198
| 21> *
| 22>
| 23>                          ****END OF INPUT****

CARTESIAN COORDINATES (ANGSTROEM)
---------------------------------
  S     -1.476701   -0.452025   -0.259302
  C      1.913232   -0.302099   -0.804682
  H      1.265426   -0.226374   -1.678866
  H      2.683844    0.466120   -0.886402
  H      2.406718   -1.274145   -0.844759
  C     -0.015272   -1.169321    0.615996
  H      0.232350   -2.124200    0.156285
  H     -0.282085   -1.344028    1.657022
  C      1.122948   -0.146438    0.496930
  H      1.809247   -0.288791    1.336203
  C     -0.761847    1.249024   -0.311830
  H     -1.519110    1.960559    0.008816
  H     -0.481066    1.483947   -1.337013
  C      0.449983    1.229470    0.621149
  H      0.115459    1.375949    1.649963
  H      1.142169    2.039539    0.382198

 Total Charge           Charge          ....    0
 Multiplicity           Mult            ....    1
 Number of Electrons    NEL             ....   56
 Basis Dimension        Dim             ....  510

ORBITAL ENERGIES
----------------

  NO   OCC          E(Eh)            E(eV)
   0   2.0000     -91.935106     -2501.6814
   1   2.0000     -11.251877      -306.1792
   2   2.0000     -11.250825      -306.1505
   3   2.0000     -11.238541      -305.8162
   4   2.0000     -11.230726      -305.6036
   5   2.0000     -11.216842      -305.2258
   6   2.0000      -8.935268      -243.1410
   7   2.0000      -6.616416      -180.0418
   8   2.0000      -6.615634      -180.0206
   9   2.0000      -6.614667      -179.9942
  10   2.0000      -1.131150       -30.7802
  11   2.0000      -1.008115       -27.4322
  12   2.0000      -0.974088       -26.5063
  13   2.0000      -0.909975       -24.7617
  14   2.0000      -0.782745       -21.2996
  15   2.0000      -0.761181       -20.7128
  16   2.0000      -0.658158       -17.9094
  17   2.0000      -0.635634       -17.2965
  18   2.0000      -0.607389       -16.5279
  19   2.0000      -0.560579       -15.2541
  20   2.0000      -0.549604       -14.9555
  21   2.0000      -0.529367       -14.4048
  22   2.0000      -0.491004       -13.3609
  23   2.0000      -0.473665       -12.8891
  24   2.0000      -0.470333       -12.7984
  25   2.0000      -0.466009       -12.6807
  26   2.0000      -0.415851       -11.3159
  27   2.0000      -0.329670        -8.9708
  28   0.0000       0.027056         0.7362
  29   0.0000       0.035513         0.9664
  30   0.0000       0.036842         1.0025
  31   0.0000       0.041605         1.1321
  32   0.0000       0.054560         1.4846

MULLIKEN ATOMIC CHARGES
-----------------------
   0 S :   -0.383926
   1 C :   -0.996798
   2 H :    0.295697
   3 H :    0.258664
   4 H :    0.267312
   5 C :   -0.541569
   6 H :    0.282316
   7 H :    0.241759
   8 C :    0.136657
   9 H :    0.403091
  10 C :   -0.418024
  11 H :    0.343583
  12 H :    0.196412
  13 C :   -0.600621
  14 H :    0.210413
  15 H :    0.305033
Sum of atomic charges:   -0.0000000

LOEWDIN ATOMIC CHARGES
----------------------
   0 S :    1.184970
   1 C :    0.578284
   2 H :   -0.173884
   3 H :   -0.162880
   4 H :   -0.164583
   5 C :   -0.026556
   6 H :   -0.221326
   7 H :   -0.218005
   8 C :   -0.102205
   9 H :   -0.133891
  10 C :   -0.038082
  11 H :   -0.223976
  12 H :   -0.226435
  13 C :    0.221078
  14 H :   -0.148906
  15 H :   -0.143604

  Mayer bond orders larger than 0.100000
B(  0-S ,  5-C ) :   0.9588 B(  0-S , 10-C ) :   0.9215 B(  0-S , 13-C ) :   0.1010
B(  1-C ,  2-H ) :   0.9641 B(  1-C ,  3-H ) :   0.9790 B(  1-C ,  4-H ) :   0.9831
B(  1-C ,  8-C ) :   0.7018 B(  5-C ,  6-H ) :   0.9380 B(  5-C ,  7-H ) :   0.9983
B(  5-C ,  8-C ) :   0.9659 B(  8-C ,  9-H ) :   0.7891 B(  8-C , 13-C ) :   0.9640
B( 10-C , 11-H ) :   0.8806 B( 10-C , 12-H ) :   1.0131 B( 10-C , 13-C ) :   1.0101
B( 13-C , 14-H ) :   1.0091 B( 13-C , 15-H ) :   0.8938

MP2 TOTAL ENERGY:     -593.841791465 Eh
FINAL SINGLE POINT ENERGY      -593.841791464604

DIPOLE MOMENT
-------------
                                X             Y             Z
Electronic contribution:     -6.84752      -1.80818      -0.17319
Nuclear contribution   :      7.63463       2.14319       0.46460
                        -----------------------------------------
Total Dipole Moment    :      0.78711       0.33501       0.29141
                        -----------------------------------------
Magnitude (a.u.)       :      0.90371
Magnitude (Debye)      :      2.29705

Rotational constants in cm-1:     0.142427     0.085571     0.069728
Rotational constants in MHz :  4269.864503  2565.364091  2090.382380

                             ****ORCA TERMINATED NORMALLY****
TOTAL RUN TIME: 0 days 0 hours 4 minutes 59 seconds 771 msec
