                         Program Version 5.0.3 -  RELEASE  -
|  1> !ri-mp2 aug-cc-pvtz aug-cc-pvtz/c tightscf
|  2> %pal nprocs 16 end
|  3>
|  4> * xyz 0 1
|  5> C      1.387883   -0.811682    0.479852
|  6> C      1.678206    0.633319    0.061765
|  7> C      0.258572   -1.279223   -0.428050
|  8> C      0.330814    1.347067   -0.089120
|  9> O     -1.798582   -0.049523    0.835116
| 10> S     -1.000813    0.079000   -0.439396
| 11> H      2.269472   -1.447422    0.387147
| 12> H      1.059693   -0.849628    1.519688
| 13> H      2.312291    1.147645    0.784708
| 14> H      2.210285    0.636734   -0.891921
| 15> H      0.589747   -1.411400   -1.460234
| 16> H     -0.266524   -2.172907   -0.098828
| 17> H     -0.021163    1.794675    0.838932
| 18> H      0.315012    2.097602   -0.876757
| 19> *
| 20>
| 21>                          ****END OF INPUT****

CARTESIAN COORDINATES (ANGSTROEM)
---------------------------------
  C      1.387883   -0.811682    0.479852
  C      1.678206    0.633319    0.061765
  C      0.258572   -1.279223   -0.428050
  C      0.330814    1.347067   -0.089120
  O     -1.798582   -0.049523    0.835116
  S     -1.000813    0.079000   -0.439396
  H      2.269472   -1.447422    0.387147
  H      1.059693   -0.849628    1.519688
  H      2.312291    1.147645    0.784708
  H      2.210285    0.636734   -0.891921
  H      0.589747   -1.411400   -1.460234
  H     -0.266524   -2.172907   -0.098828
  H     -0.021163    1.794675    0.838932
  H      0.315012    2.097602   -0.876757

 Total Charge           Charge          ....    0
 Multiplicity           Mult            ....    1
 Number of Electrons    NEL             ....   56
 Basis Dimension        Dim             ....  464

ORBITAL ENERGIES
----------------

  NO   OCC          E(Eh)            E(eV)
   0   2.0000     -92.061076     -2505.1092
   1   2.0000     -20.498574      -557.7946
   2   2.0000     -11.264477      -306.5220
   3   2.0000     -11.263512      -306.4957
   4   2.0000     -11.248495      -306.0871
   5   2.0000     -11.244691      -305.9836
   6   2.0000      -9.047753      -246.2019
   7   2.0000      -6.729147      -183.1094
   8   2.0000      -6.729004      -183.1055
   9   2.0000      -6.727802      -183.0728
  10   2.0000      -1.321722       -35.9659
  11   2.0000      -1.129473       -30.7345
  12   2.0000      -1.001871       -27.2623
  13   2.0000      -0.967159       -26.3177
  14   2.0000      -0.814000       -22.1501
  15   2.0000      -0.793092       -21.5811
  16   2.0000      -0.673769       -18.3342
  17   2.0000      -0.661494       -18.0002
  18   2.0000      -0.620708       -16.8903
  19   2.0000      -0.578257       -15.7352
  20   2.0000      -0.550251       -14.9731
  21   2.0000      -0.540986       -14.7210
  22   2.0000      -0.521064       -14.1789
  23   2.0000      -0.509380       -13.8609
  24   2.0000      -0.501745       -13.6532
  25   2.0000      -0.492397       -13.3988
  26   2.0000      -0.400317       -10.8932
  27   2.0000      -0.360779        -9.8173
  28   0.0000       0.023329         0.6348
  29   0.0000       0.033606         0.9145
  30   0.0000       0.034192         0.9304
  31   0.0000       0.043058         1.1717
  32   0.0000       0.053033         1.4431

MULLIKEN ATOMIC CHARGES
-----------------------
   0 C :   -0.440272
   1 C :   -0.522690
   2 C :   -0.480245
   3 C :   -0.450601
   4 O :   -0.953192
   5 S :    0.567236
   6 H :    0.308776
   7 H :    0.273507
   8 H :    0.337831
   9 H :    0.213721
  10 H :    0.275369
  11 H :    0.305658
  12 H :    0.233898
  13 H :    0.331003
Sum of atomic charges:    0.0000000

LOEWDIN ATOMIC CHARGES
----------------------
   0 C :    0.228986
   1 C :    0.239665
   2 C :    0.124902
   3 C :    0.154480
   4 O :   -0.201357
   5 S :    0.883669
   6 H :   -0.144822
   7 H :   -0.148873
   8 H :   -0.145521
   9 H :   -0.154970
  10 H :   -0.204010
  11 H :   -0.203505
  12 H :   -0.217879
  13 H :   -0.210763

  Mayer bond orders larger than 0.100000
B(  0-C ,  1-C ) :   0.9323 B(  0-C ,  2-C ) :   0.9482 B(  0-C ,  6-H ) :   0.9084
B(  0-C ,  7-H ) :   0.9560 B(  1-C ,  3-C ) :   0.9508 B(  1-C ,  8-H ) :   0.8862
B(  1-C ,  9-H ) :   0.9934 B(  2-C ,  5-S ) :   0.8930 B(  2-C , 10-H ) :   0.9639
B(  2-C , 11-H ) :   0.8883 B(  3-C ,  5-S ) :   0.8695 B(  3-C , 12-H ) :   0.9641
B(  3-C , 13-H ) :   0.9021 B(  4-O ,  5-S ) :   1.3079

MP2 TOTAL ENERGY:     -629.711006165 Eh
FINAL SINGLE POINT ENERGY      -629.711006165320

DIPOLE MOMENT
-------------
                                X             Y             Z
Electronic contribution:     -6.80022       0.26185      -1.07695
Nuclear contribution   :      8.55308      -0.20993       0.23167
                        -----------------------------------------
Total Dipole Moment    :      1.75286       0.05193      -0.84527
                        -----------------------------------------
Magnitude (a.u.)       :      1.94672
Magnitude (Debye)      :      4.94816

Rotational constants in cm-1:     0.162981     0.088994     0.072386
Rotational constants in MHz :  4886.056560  2667.976522  2170.062834

                             ****ORCA TERMINATED NORMALLY****
TOTAL RUN TIME: 0 days 0 hours 3 minutes 49 seconds 752 msec
