                         Program Version 5.0.3 -  RELEASE  -
|  1> !ri-mp2 aug-cc-pvtz aug-cc-pvtz/c tightscf
|  2> %pal nprocs 16 end
|  3>
|  4> * xyz 0 1
|  5> S     0.000000     0.000000    0.871858
|  6> C     0.000000     0.738462   -0.803990
|  7> C     0.000000    -0.738462   -0.803990
|  8> H    -0.912020     1.251798   -1.075460
|  9> H     0.912020     1.251798   -1.075460
| 10> H     0.912020    -1.251798   -1.075460
| 11> H    -0.912020    -1.251798   -1.075460
| 12> *
| 13>
| 14>                          ****END OF INPUT****

CARTESIAN COORDINATES (ANGSTROEM)
---------------------------------
  S      0.000000    0.000000    0.871858
  C      0.000000    0.738462   -0.803990
  C      0.000000   -0.738462   -0.803990
  H     -0.912020    1.251798   -1.075460
  H      0.912020    1.251798   -1.075460
  H      0.912020   -1.251798   -1.075460
  H     -0.912020   -1.251798   -1.075460

 Total Charge           Charge          ....    0
 Multiplicity           Mult            ....    1
 Number of Electrons    NEL             ....   32
 Basis Dimension        Dim             ....  234

ORBITAL ENERGIES
----------------

  NO   OCC          E(Eh)            E(eV)
   0   2.0000     -91.945553     -2501.9657
   1   2.0000     -11.277580      -306.8785
   2   2.0000     -11.276793      -306.8571
   3   2.0000      -8.946071      -243.4350
   4   2.0000      -6.627008      -180.3301
   5   2.0000      -6.625911      -180.3002
   6   2.0000      -6.624557      -180.2634
   7   2.0000      -1.138661       -30.9846
   8   2.0000      -0.846260       -23.0279
   9   2.0000      -0.833600       -22.6834
  10   2.0000      -0.672119       -18.2893
  11   2.0000      -0.611470       -16.6389
  12   2.0000      -0.544787       -14.8244
  13   2.0000      -0.442510       -12.0413
  14   2.0000      -0.423014       -11.5108
  15   2.0000      -0.346482        -9.4283
  16   0.0000       0.030136         0.8201
  17   0.0000       0.038068         1.0359
  18   0.0000       0.040400         1.0993
  19   0.0000       0.059136         1.6092
  20   0.0000       0.059297         1.6136

MULLIKEN ATOMIC CHARGES
-----------------------
   0 S :   -0.131447
   1 C :   -0.629301
   2 C :   -0.629301
   3 H :    0.347512
   4 H :    0.347512
   5 H :    0.347512
   6 H :    0.347512
Sum of atomic charges:    0.0000000

LOEWDIN ATOMIC CHARGES
----------------------
   0 S :    1.059905
   1 C :   -0.074193
   2 C :   -0.074193
   3 H :   -0.227880
   4 H :   -0.227880
   5 H :   -0.227880
   6 H :   -0.227880

  Mayer bond orders larger than 0.100000
B(  0-S ,  1-C ) :   0.9568 B(  0-S ,  2-C ) :   0.9568 B(  1-C ,  2-C ) :   1.0355
B(  1-C ,  3-H ) :   0.8361 B(  1-C ,  4-H ) :   0.8361 B(  2-C ,  5-H ) :   0.8361
B(  2-C ,  6-H ) :   0.8361

MP2 TOTAL ENERGY:     -476.136586892 Eh
FINAL SINGLE POINT ENERGY      -476.136586891939

DIPOLE MOMENT
-------------
                                X             Y             Z
Electronic contribution:      0.00000       0.00000       3.43826
Nuclear contribution   :      0.00000       0.00000      -4.32762
                        -----------------------------------------
Total Dipole Moment    :      0.00000       0.00000      -0.88935
                        -----------------------------------------
Magnitude (a.u.)       :      0.88935
Magnitude (Debye)      :      2.26055

Rotational constants in cm-1:     0.740289     0.354099     0.264760
Rotational constants in MHz : 22193.313659 10615.627938  7937.314616

                             ****ORCA TERMINATED NORMALLY****
TOTAL RUN TIME: 0 days 0 hours 0 minutes 48 seconds 988 msec
