                         Program Version 5.0.3 -  RELEASE  -
|  1> !ri-mp2 aug-cc-pvtz aug-cc-pvtz/c tightscf
|  2> %pal nprocs 16 end
|  3>
|  4> * xyz 0 1
|  5> H      0.727709    2.103092    0.342737
|  6> H     -0.986957    1.809222    0.025908
|  7> C      0.000000    1.349368    0.050917
|  8> H      1.422074    0.557865   -1.364380
|  9> H      0.016317    1.302538   -2.122147
| 10> C      0.340403    0.685094   -1.282406
| 11> H     -0.016317   -1.302538   -2.122147
| 12> H     -1.422074   -0.557865   -1.364380
| 13> C     -0.340403   -0.685094   -1.282406
| 14> H      0.986957   -1.809222    0.025908
| 15> H     -0.727709   -2.103092    0.342737
| 16> C      0.000000   -1.349368    0.050917
| 17> S      0.000000    0.000000    1.313352
| 18> *
| 19>
| 20>                          ****END OF INPUT****

CARTESIAN COORDINATES (ANGSTROEM)
---------------------------------
  H      0.727709    2.103092    0.342737
  H     -0.986957    1.809222    0.025908
  C      0.000000    1.349368    0.050917
  H      1.422074    0.557865   -1.364380
  H      0.016317    1.302538   -2.122147
  C      0.340403    0.685094   -1.282406
  H     -0.016317   -1.302538   -2.122147
  H     -1.422074   -0.557865   -1.364380
  C     -0.340403   -0.685094   -1.282406
  H      0.986957   -1.809222    0.025908
  H     -0.727709   -2.103092    0.342737
  C      0.000000   -1.349368    0.050917
  S      0.000000    0.000000    1.313352

 Total Charge           Charge          ....    0
 Multiplicity           Mult            ....    1
 Number of Electrons    NEL             ....   48
 Basis Dimension        Dim             ....  418

ORBITAL ENERGIES
----------------

  NO   OCC          E(Eh)            E(eV)
   0   2.0000     -91.935721     -2501.6982
   1   2.0000     -11.252796      -306.2042
   2   2.0000     -11.252786      -306.2039
   3   2.0000     -11.233180      -305.6704
   4   2.0000     -11.232568      -305.6537
   5   2.0000      -8.935904      -243.1583
   6   2.0000      -6.617040      -180.0588
   7   2.0000      -6.616268      -180.0378
   8   2.0000      -6.615292      -180.0113
   9   2.0000      -1.122634       -30.5484
  10   2.0000      -0.984026       -26.7767
  11   2.0000      -0.962678       -26.1958
  12   2.0000      -0.793419       -21.5900
  13   2.0000      -0.781358       -21.2618
  14   2.0000      -0.655380       -17.8338
  15   2.0000      -0.636607       -17.3230
  16   2.0000      -0.598271       -16.2798
  17   2.0000      -0.546207       -14.8630
  18   2.0000      -0.504573       -13.7301
  19   2.0000      -0.491696       -13.3797
  20   2.0000      -0.480663       -13.0795
  21   2.0000      -0.472612       -12.8604
  22   2.0000      -0.418451       -11.3866
  23   2.0000      -0.330185        -8.9848
  24   0.0000       0.028664         0.7800
  25   0.0000       0.036734         0.9996
  26   0.0000       0.038615         1.0508
  27   0.0000       0.042674         1.1612
  28   0.0000       0.056960         1.5500

MULLIKEN ATOMIC CHARGES
-----------------------
   0 H :    0.297216
   1 H :    0.232871
   2 C :   -0.431950
   3 H :    0.249484
   4 H :    0.310609
   5 C :   -0.482377
   6 H :    0.310609
   7 H :    0.249484
   8 C :   -0.482377
   9 H :    0.232871
  10 H :    0.297216
  11 C :   -0.431950
  12 S :   -0.351706
Sum of atomic charges:   -0.0000000

LOEWDIN ATOMIC CHARGES
----------------------
   0 H :   -0.226390
   1 H :   -0.223951
   2 C :   -0.042158
   3 H :   -0.152854
   4 H :   -0.147267
   5 C :    0.206741
   6 H :   -0.147267
   7 H :   -0.152854
   8 C :    0.206741
   9 H :   -0.223951
  10 H :   -0.226390
  11 C :   -0.042158
  12 S :    1.171756

  Mayer bond orders larger than 0.100000
B(  0-H ,  2-C ) :   0.9255 B(  1-H ,  2-C ) :   0.9776 B(  2-C ,  5-C ) :   0.9511
B(  2-C , 12-S ) :   0.9453 B(  3-H ,  5-C ) :   0.9628 B(  4-H ,  5-C ) :   0.9056
B(  5-C ,  8-C ) :   0.9235 B(  6-H ,  8-C ) :   0.9056 B(  7-H ,  8-C ) :   0.9628
B(  8-C , 11-C ) :   0.9511 B(  9-H , 11-C ) :   0.9776 B( 10-H , 11-C ) :   0.9255
B( 11-C , 12-S ) :   0.9453

MP2 TOTAL ENERGY:     -554.613662320 Eh
FINAL SINGLE POINT ENERGY      -554.613662320052

DIPOLE MOMENT
-------------
                                X             Y             Z
Electronic contribution:     -0.00000      -0.00000       5.51825
Nuclear contribution   :     -0.00000       0.00000      -6.41720
                        -----------------------------------------
Total Dipole Moment    :     -0.00000      -0.00000      -0.89895
                        -----------------------------------------
Magnitude (a.u.)       :      0.89895
Magnitude (Debye)      :      2.28495

Rotational constants in cm-1:     0.199570     0.144457     0.092236
Rotational constants in MHz :  5982.963851  4330.716241  2765.156215

                             ****ORCA TERMINATED NORMALLY****
TOTAL RUN TIME: 0 days 0 hours 2 minutes 35 seconds 297 msec
