                         Program Version 5.0.3 -  RELEASE  -
|  1> !ri-mp2 aug-cc-pvtz aug-cc-pvtz/c tightscf
|  2> %pal nprocs 16 end
|  3>
|  4> * xyz 0 1
|  5> C      0.000000    0.766501   -0.994198
|  6> C      0.000000   -0.766501   -0.994198
|  7> C      0.461326    1.081053    0.428368
|  8> C     -0.461326   -1.081053    0.428368
|  9> O      0.000000    0.000000    1.249603
| 10> H      0.652460    1.198961   -1.751443
| 11> H     -1.009869    1.145990   -1.159921
| 12> H     -0.652460   -1.198961   -1.751443
| 13> H      1.009869   -1.145990   -1.159921
| 14> H      1.553740    1.135699    0.488606
| 15> H      0.050023    2.012637    0.819323
| 16> H     -1.553740   -1.135699    0.488606
| 17> H     -0.050023   -2.012637    0.819323
| 18> *
| 19>
| 20>                          ****END OF INPUT****

CARTESIAN COORDINATES (ANGSTROEM)
---------------------------------
  C      0.000000    0.766501   -0.994198
  C      0.000000   -0.766501   -0.994198
  C      0.461326    1.081053    0.428368
  C     -0.461326   -1.081053    0.428368
  O      0.000000    0.000000    1.249603
  H      0.652460    1.198961   -1.751443
  H     -1.009869    1.145990   -1.159921
  H     -0.652460   -1.198961   -1.751443
  H      1.009869   -1.145990   -1.159921
  H      1.553740    1.135699    0.488606
  H      0.050023    2.012637    0.819323
  H     -1.553740   -1.135699    0.488606
  H     -0.050023   -2.012637    0.819323

 Total Charge           Charge          ....    0
 Multiplicity           Mult            ....    1
 Number of Electrons    NEL             ....   40
 Basis Dimension        Dim             ....  414

ORBITAL ENERGIES
----------------

  NO   OCC          E(Eh)            E(eV)
   0   2.0000     -20.543661      -559.0214
   1   2.0000     -11.268601      -306.6342
   2   2.0000     -11.268579      -306.6336
   3   2.0000     -11.225799      -305.4695
   4   2.0000     -11.225195      -305.4531
   5   2.0000      -1.361704       -37.0539
   6   2.0000      -1.059037       -28.8179
   7   2.0000      -0.990358       -26.9490
   8   2.0000      -0.809800       -22.0358
   9   2.0000      -0.808600       -22.0031
  10   2.0000      -0.682073       -18.5602
  11   2.0000      -0.670649       -18.2493
  12   2.0000      -0.590092       -16.0572
  13   2.0000      -0.589232       -16.0338
  14   2.0000      -0.560348       -15.2478
  15   2.0000      -0.502238       -13.6666
  16   2.0000      -0.493161       -13.4196
  17   2.0000      -0.475601       -12.9418
  18   2.0000      -0.463924       -12.6240
  19   2.0000      -0.407430       -11.0867
  20   0.0000       0.029493         0.8025
  21   0.0000       0.038081         1.0362
  22   0.0000       0.038270         1.0414
  23   0.0000       0.041911         1.1404
  24   0.0000       0.058359         1.5880

MULLIKEN ATOMIC CHARGES
-----------------------
   0 C :   -0.521110
   1 C :   -0.521110
   2 C :   -0.351269
   3 C :   -0.351269
   4 O :   -0.648671
   5 H :    0.326440
   6 H :    0.256461
   7 H :    0.326440
   8 H :    0.256461
   9 H :    0.272147
  10 H :    0.341667
  11 H :    0.272147
  12 H :    0.341667
Sum of atomic charges:   -0.0000000

LOEWDIN ATOMIC CHARGES
----------------------
   0 C :    0.286417
   1 C :    0.286417
   2 C :    0.048948
   3 C :    0.048948
   4 O :    0.557971
   5 H :   -0.147409
   6 H :   -0.148676
   7 H :   -0.147409
   8 H :   -0.148676
   9 H :   -0.156851
  10 H :   -0.161415
  11 H :   -0.156851
  12 H :   -0.161415

  Mayer bond orders larger than 0.100000
B(  0-C ,  1-C ) :   0.9021 B(  0-C ,  2-C ) :   0.9696 B(  0-C ,  5-H ) :   0.8975
B(  0-C ,  6-H ) :   0.9434 B(  1-C ,  3-C ) :   0.9696 B(  1-C ,  7-H ) :   0.8975
B(  1-C ,  8-H ) :   0.9434 B(  2-C ,  4-O ) :   0.7985 B(  2-C ,  9-H ) :   0.9695
B(  2-C , 10-H ) :   0.9110 B(  3-C ,  4-O ) :   0.7985 B(  3-C , 11-H ) :   0.9695
B(  3-C , 12-H ) :   0.9110

MP2 TOTAL ENERGY:     -231.997905462 Eh
FINAL SINGLE POINT ENERGY      -231.997905462225

DIPOLE MOMENT
-------------
                                X             Y             Z
Electronic contribution:     -0.00000       0.00000       2.54786
Nuclear contribution   :     -0.00000       0.00000      -3.32048
                        -----------------------------------------
Total Dipole Moment    :     -0.00000       0.00000      -0.77262
                        -----------------------------------------
Magnitude (a.u.)       :      0.77262
Magnitude (Debye)      :      1.96384

Rotational constants in cm-1:     0.236108     0.233673     0.133042
Rotational constants in MHz :  7078.340302  7005.344776  3988.494368

                             ****ORCA TERMINATED NORMALLY****
TOTAL RUN TIME: 0 days 0 hours 2 minutes 23 seconds 965 msec
