                         Program Version 5.0.3 -  RELEASE  -
|  1> !ri-mp2 aug-cc-pvtz aug-cc-pvtz/c tightscf
|  2> %pal nprocs 16 end
|  3>
|  4> * xyz 0 1
|  5> C     -2.277189    0.125824    0.212360
|  6> H     -2.220830    0.016412    1.295791
|  7> H     -2.855694    1.024383   -0.016248
|  8> H     -2.824192   -0.729215   -0.185129
|  9> S      0.123265   -1.298216   -0.068974
| 10> C      1.676730   -0.364875    0.283148
| 11> H      2.502112   -0.834989   -0.246639
| 12> H      1.880084   -0.410297    1.352120
| 13> C     -0.886248    0.229699   -0.395836
| 14> H     -0.974067    0.321657   -1.479581
| 15> C      1.420648    1.071535   -0.176011
| 16> H      1.587312    1.148737   -1.252546
| 17> H      2.105520    1.766873    0.312872
| 18> C     -0.039816    1.384131    0.141919
| 19> H     -0.360577    2.332565   -0.294901
| 20> H     -0.176661    1.457447    1.224367
| 21> *
| 22>
| 23>                          ****END OF INPUT****

CARTESIAN COORDINATES (ANGSTROEM)
---------------------------------
  C     -2.277189    0.125824    0.212360
  H     -2.220830    0.016412    1.295791
  H     -2.855694    1.024383   -0.016248
  H     -2.824192   -0.729215   -0.185129
  S      0.123265   -1.298216   -0.068974
  C      1.676730   -0.364875    0.283148
  H      2.502112   -0.834989   -0.246639
  H      1.880084   -0.410297    1.352120
  C     -0.886248    0.229699   -0.395836
  H     -0.974067    0.321657   -1.479581
  C      1.420648    1.071535   -0.176011
  H      1.587312    1.148737   -1.252546
  H      2.105520    1.766873    0.312872
  C     -0.039816    1.384131    0.141919
  H     -0.360577    2.332565   -0.294901
  H     -0.176661    1.457447    1.224367

 Total Charge           Charge          ....    0
 Multiplicity           Mult            ....    1
 Number of Electrons    NEL             ....   56
 Basis Dimension        Dim             ....  510

ORBITAL ENERGIES
----------------

  NO   OCC          E(Eh)            E(eV)
   0   2.0000     -91.932718     -2501.6164
   1   2.0000     -11.259019      -306.3735
   2   2.0000     -11.251784      -306.1766
   3   2.0000     -11.231874      -305.6348
   4   2.0000     -11.229725      -305.5763
   5   2.0000     -11.219275      -305.2920
   6   2.0000      -8.933065      -243.0810
   7   2.0000      -6.614156      -179.9803
   8   2.0000      -6.613413      -179.9601
   9   2.0000      -6.612468      -179.9344
  10   2.0000      -1.128669       -30.7126
  11   2.0000      -1.024307       -27.8728
  12   2.0000      -0.964669       -26.2500
  13   2.0000      -0.901535       -24.5320
  14   2.0000      -0.792340       -21.5607
  15   2.0000      -0.759638       -20.6708
  16   2.0000      -0.651872       -17.7383
  17   2.0000      -0.629520       -17.1301
  18   2.0000      -0.604897       -16.4601
  19   2.0000      -0.570337       -15.5197
  20   2.0000      -0.558411       -15.1951
  21   2.0000      -0.518180       -14.1004
  22   2.0000      -0.495154       -13.4738
  23   2.0000      -0.478342       -13.0164
  24   2.0000      -0.477200       -12.9853
  25   2.0000      -0.455032       -12.3821
  26   2.0000      -0.412395       -11.2218
  27   2.0000      -0.328988        -8.9522
  28   0.0000       0.028782         0.7832
  29   0.0000       0.034345         0.9346
  30   0.0000       0.038085         1.0363
  31   0.0000       0.040932         1.1138
  32   0.0000       0.053001         1.4422

MULLIKEN ATOMIC CHARGES
-----------------------
   0 C :   -1.015490
   1 H :    0.299066
   2 H :    0.270438
   3 H :    0.296343
   4 S :   -0.456187
   5 C :   -0.451674
   6 H :    0.300515
   7 H :    0.225759
   8 C :    0.193553
   9 H :    0.284731
  10 C :   -0.551135
  11 H :    0.222702
  12 H :    0.317730
  13 C :   -0.519797
  14 H :    0.325209
  15 H :    0.258238
Sum of atomic charges:   -0.0000000

LOEWDIN ATOMIC CHARGES
----------------------
   0 C :    0.512612
   1 H :   -0.180972
   2 H :   -0.168589
   3 H :   -0.179620
   4 S :    1.210844
   5 C :   -0.032671
   6 H :   -0.225545
   7 H :   -0.222920
   8 C :   -0.352836
   9 H :   -0.204017
  10 C :    0.214921
  11 H :   -0.151786
  12 H :   -0.146033
  13 C :    0.213598
  14 H :   -0.138220
  15 H :   -0.148766

  Mayer bond orders larger than 0.100000
B(  0-C ,  1-H ) :   0.9560 B(  0-C ,  2-H ) :   0.9562 B(  0-C ,  3-H ) :   0.9856
B(  0-C ,  8-C ) :   0.7637 B(  4-S ,  5-C ) :   0.9463 B(  4-S ,  8-C ) :   0.8989
B(  4-S , 13-C ) :   0.1189 B(  5-C ,  6-H ) :   0.9230 B(  5-C ,  7-H ) :   0.9805
B(  5-C , 10-C ) :   0.9602 B(  8-C ,  9-H ) :   0.9377 B(  8-C , 13-C ) :   0.9024
B( 10-C , 11-H ) :   0.9769 B( 10-C , 12-H ) :   0.9160 B( 10-C , 13-C ) :   1.0001
B( 13-C , 14-H ) :   0.8872 B( 13-C , 15-H ) :   0.9449

MP2 TOTAL ENERGY:     -593.842926457 Eh
FINAL SINGLE POINT ENERGY      -593.842926456886

DIPOLE MOMENT
-------------
                                X             Y             Z
Electronic contribution:      1.52772      -5.44461      -0.73218
Nuclear contribution   :     -1.37986       6.31231       0.73298
                        -----------------------------------------
Total Dipole Moment    :      0.14787       0.86770       0.00081
                        -----------------------------------------
Magnitude (a.u.)       :      0.88021
Magnitude (Debye)      :      2.23732

Rotational constants in cm-1:     0.139515     0.092263     0.060854
Rotational constants in MHz :  4182.563957  2765.973836  1824.351987

                             ****ORCA TERMINATED NORMALLY****
TOTAL RUN TIME: 0 days 0 hours 4 minutes 21 seconds 621 msec
