                         Program Version 5.0.3 -  RELEASE  -
|  1> !ri-mp2 aug-cc-pvtz aug-cc-pvtz/c tightscf
|  2> %pal nprocs 16 end
|  3> %maxcore 3800
|  4>
|  5> * xyz 0 1
|  6> C     -0.176910   -0.999418    0.000000
|  7> C      0.539789    0.364342    0.000000
|  8> C      0.254060   -1.777499    1.254087
|  9> C     -1.706916   -0.860851    0.000000
| 10> C      0.254060    1.442946    1.082409
| 11> C      0.254060   -1.777499   -1.254087
| 12> C      0.486107    2.526258    0.000000
| 13> H     -0.178689    3.388865    0.000000
| 14> H      0.895719    1.457716    1.962608
| 15> C      0.254060    1.442946   -1.082409
| 16> H      0.895719    1.457716   -1.962608
| 17> H     -2.173656   -1.847725    0.000000
| 18> H     -0.206452   -2.767279   -1.276969
| 19> H     -0.785006    1.429853    1.411389
| 20> H     -0.785006    1.429853   -1.411389
| 21> H      1.615876    0.164339    0.000000
| 22> H     -0.038955   -1.254061   -2.165956
| 23> H     -2.067434   -0.330830    0.882403
| 24> H     -2.067434   -0.330830   -0.882403
| 25> H     -0.206452   -2.767279    1.276969
| 26> H      1.337322   -1.913005   -1.279707
| 27> H      1.516228    2.882374    0.000000
| 28> H      1.337322   -1.913005    1.279707
| 29> H     -0.038955   -1.254061    2.165956
| 30> *
| 31>
| 32>                          ****END OF INPUT****

CARTESIAN COORDINATES (ANGSTROEM)
---------------------------------
  C     -0.176910   -0.999418    0.000000
  C      0.539789    0.364342    0.000000
  C      0.254060   -1.777499    1.254087
  C     -1.706916   -0.860851    0.000000
  C      0.254060    1.442946    1.082409
  C      0.254060   -1.777499   -1.254087
  C      0.486107    2.526258    0.000000
  H     -0.178689    3.388865    0.000000
  H      0.895719    1.457716    1.962608
  C      0.254060    1.442946   -1.082409
  H      0.895719    1.457716   -1.962608
  H     -2.173656   -1.847725    0.000000
  H     -0.206452   -2.767279   -1.276969
  H     -0.785006    1.429853    1.411389
  H     -0.785006    1.429853   -1.411389
  H      1.615876    0.164339    0.000000
  H     -0.038955   -1.254061   -2.165956
  H     -2.067434   -0.330830    0.882403
  H     -2.067434   -0.330830   -0.882403
  H     -0.206452   -2.767279    1.276969
  H      1.337322   -1.913005   -1.279707
  H      1.516228    2.882374    0.000000
  H      1.337322   -1.913005    1.279707
  H     -0.038955   -1.254061    2.165956

 Total Charge           Charge          ....    0
 Multiplicity           Mult            ....    1
 Number of Electrons    NEL             ....   64
 Basis Dimension        Dim             ....  736

ORBITAL ENERGIES
----------------

  NO   OCC          E(Eh)            E(eV)
   0   2.0000     -11.228766      -305.5502
   1   2.0000     -11.218619      -305.2741
   2   2.0000     -11.214480      -305.1615
   3   2.0000     -11.212552      -305.1091
   4   2.0000     -11.212446      -305.1062
   5   2.0000     -11.206096      -304.9334
   6   2.0000     -11.206078      -304.9329
   7   2.0000     -11.205708      -304.9228
   8   2.0000      -1.136540       -30.9268
   9   2.0000      -1.072816       -29.1928
  10   2.0000      -0.928977       -25.2787
  11   2.0000      -0.927696       -25.2439
  12   2.0000      -0.889421       -24.2024
  13   2.0000      -0.888930       -24.1890
  14   2.0000      -0.772305       -21.0155
  15   2.0000      -0.716209       -19.4890
  16   2.0000      -0.645840       -17.5742
  17   2.0000      -0.640701       -17.4344
  18   2.0000      -0.595492       -16.2042
  19   2.0000      -0.594687       -16.1823
  20   2.0000      -0.561098       -15.2683
  21   2.0000      -0.545778       -14.8514
  22   2.0000      -0.532768       -14.4974
  23   2.0000      -0.530994       -14.4491
  24   2.0000      -0.507441       -13.8082
  25   2.0000      -0.494061       -13.4441
  26   2.0000      -0.482658       -13.1338
  27   2.0000      -0.466535       -12.6951
  28   2.0000      -0.457913       -12.4604
  29   2.0000      -0.434693       -11.8286
  30   2.0000      -0.419812       -11.4237
  31   2.0000      -0.409735       -11.1495
  32   0.0000       0.029770         0.8101
  33   0.0000       0.034209         0.9309
  34   0.0000       0.035558         0.9676
  35   0.0000       0.035717         0.9719
  36   0.0000       0.049404         1.3444

MULLIKEN ATOMIC CHARGES
-----------------------
   0 C :    2.086774
   1 C :    0.674153
   2 C :   -1.472037
   3 C :   -1.270601
   4 C :   -1.185747
   5 C :   -1.472037
   6 C :   -0.720640
   7 H :    0.376927
   8 H :    0.355691
   9 C :   -1.185747
  10 H :    0.355691
  11 H :    0.206588
  12 H :    0.218949
  13 H :    0.181653
  14 H :    0.181653
  15 H :    0.792161
  16 H :    0.272427
  17 H :    0.284044
  18 H :    0.284044
  19 H :    0.218949
  20 H :    0.207966
  21 H :    0.128751
  22 H :    0.207966
  23 H :    0.272427
Sum of atomic charges:    0.0000000

LOEWDIN ATOMIC CHARGES
----------------------
   0 C :   -0.332389
   1 C :    0.022854
   2 C :    0.585766
   3 C :    0.586907
   4 C :    0.338534
   5 C :    0.585766
   6 C :    0.337070
   7 H :   -0.150519
   8 H :   -0.141097
   9 C :    0.338534
  10 H :   -0.141097
  11 H :   -0.157128
  12 H :   -0.157775
  13 H :   -0.160336
  14 H :   -0.160336
  15 H :   -0.130214
  16 H :   -0.155466
  17 H :   -0.166012
  18 H :   -0.166012
  19 H :   -0.157775
  20 H :   -0.155719
  21 H :   -0.152373
  22 H :   -0.155719
  23 H :   -0.155466

  Mayer bond orders larger than 0.100000
B(  0-C ,  1-C ) :   1.0067 B(  0-C ,  2-C ) :   0.2000 B(  0-C ,  3-C ) :   0.2928
B(  0-C ,  5-C ) :   0.2000 B(  0-C , 11-H ) :  -0.1098 B(  0-C , 12-H ) :  -0.1053
B(  0-C , 19-H ) :  -0.1053 B(  0-C , 20-H ) :  -0.1122 B(  0-C , 22-H ) :  -0.1122
B(  1-C ,  3-C ) :   0.1366 B(  1-C ,  4-C ) :   0.4448 B(  1-C ,  6-C ) :  -0.7244
B(  1-C ,  9-C ) :   0.4448 B(  1-C , 15-H ) :   0.8140 B(  2-C ,  3-C ) :   0.1128
B(  2-C ,  5-C ) :   0.1120 B(  2-C , 19-H ) :   1.0878 B(  2-C , 22-H ) :   1.1453
B(  2-C , 23-H ) :   1.0383 B(  3-C ,  5-C ) :   0.1128 B(  3-C , 11-H ) :   1.1244
B(  3-C , 17-H ) :   1.0122 B(  3-C , 18-H ) :   1.0122 B(  4-C ,  6-C ) :   1.3466
B(  4-C ,  8-H ) :   0.8772 B(  4-C ,  9-C ) :   0.4699 B(  4-C , 13-H ) :   1.0503
B(  4-C , 15-H ) :  -0.4207 B(  4-C , 21-H ) :   0.1164 B(  5-C , 12-H ) :   1.0878
B(  5-C , 16-H ) :   1.0383 B(  5-C , 20-H ) :   1.1453 B(  6-C ,  7-H ) :   0.8402
B(  6-C ,  9-C ) :   1.3466 B(  6-C , 15-H ) :  -0.1160 B(  6-C , 21-H ) :   1.0707
B(  9-C , 10-H ) :   0.8772 B(  9-C , 14-H ) :   1.0503 B(  9-C , 15-H ) :  -0.4207
B(  9-C , 21-H ) :   0.1164

MP2 TOTAL ENERGY:     -313.764744836 Eh
FINAL SINGLE POINT ENERGY      -313.764744836165

DIPOLE MOMENT
-------------
                                X             Y             Z
Electronic contribution:      1.03277       2.31871       0.00000
Nuclear contribution   :     -1.01741      -2.32150      -0.00000
                        -----------------------------------------
Total Dipole Moment    :      0.01536      -0.00278       0.00000
                        -----------------------------------------
Magnitude (a.u.)       :      0.01561
Magnitude (Debye)      :      0.03969

Rotational constants in cm-1:     0.107025     0.047787     0.043684
Rotational constants in MHz :  3208.539777  1432.613099  1309.608069

                             ****ORCA TERMINATED NORMALLY****
TOTAL RUN TIME: 0 days 0 hours 14 minutes 21 seconds 512 msec
