                         Program Version 5.0.3 -  RELEASE  -
|  1> !ri-mp2 aug-cc-pvtz aug-cc-pvtz/c tightscf
|  2> %pal nprocs 16 end
|  3>
|  4> * xyz 0 1
|  5> C      0.000000    0.000000    0.000000
|  6> N      0.447266   -1.152752    0.927023
|  7> O      1.211160   -0.804270    1.793232
|  8> N     -0.447266    1.152752    0.927023
|  9> O      0.000000    2.247297    0.698711
| 10> O     -1.211160    0.804270    1.793232
| 11> N     -1.152752   -0.447266   -0.927023
| 12> O     -2.247297    0.000000   -0.698711
| 13> O     -0.804270   -1.211160   -1.793232
| 14> N      1.152752    0.447266   -0.927023
| 15> O      0.804270    1.211160   -1.793232
| 16> O      2.247297    0.000000   -0.698711
| 17> O      0.000000   -2.247297    0.698711
| 18> *
| 19>
| 20>                          ****END OF INPUT****

CARTESIAN COORDINATES (ANGSTROEM)
---------------------------------
  C      0.000000    0.000000    0.000000
  N      0.447266   -1.152752    0.927023
  O      1.211160   -0.804270    1.793232
  N     -0.447266    1.152752    0.927023
  O      0.000000    2.247297    0.698711
  O     -1.211160    0.804270    1.793232
  N     -1.152752   -0.447266   -0.927023
  O     -2.247297    0.000000   -0.698711
  O     -0.804270   -1.211160   -1.793232
  N      1.152752    0.447266   -0.927023
  O      0.804270    1.211160   -1.793232
  O      2.247297    0.000000   -0.698711
  O      0.000000   -2.247297    0.698711

 Total Charge           Charge          ....    0
 Multiplicity           Mult            ....    1
 Number of Electrons    NEL             ....   98
 Basis Dimension        Dim             ....  598

ORBITAL ENERGIES
----------------

  NO   OCC          E(Eh)            E(eV)
   0   2.0000     -20.695002      -563.1396
   1   2.0000     -20.695002      -563.1396
   2   2.0000     -20.695001      -563.1396
   3   2.0000     -20.695001      -563.1396
   4   2.0000     -20.690480      -563.0166
   5   2.0000     -20.690480      -563.0166
   6   2.0000     -20.690478      -563.0165
   7   2.0000     -20.690477      -563.0165
   8   2.0000     -15.951712      -434.0681
   9   2.0000     -15.951712      -434.0681
  10   2.0000     -15.951711      -434.0681
  11   2.0000     -15.951693      -434.0676
  12   2.0000     -11.559161      -314.5408
  13   2.0000      -1.728880       -47.0452
  14   2.0000      -1.700805       -46.2813
  15   2.0000      -1.698484       -46.2181
  16   2.0000      -1.698484       -46.2181
  17   2.0000      -1.510264       -41.0964
  18   2.0000      -1.502962       -40.8977
  19   2.0000      -1.502962       -40.8977
  20   2.0000      -1.501644       -40.8618
  21   2.0000      -1.275597       -34.7108
  22   2.0000      -1.054181       -28.6857
  23   2.0000      -1.045300       -28.4441
  24   2.0000      -1.045300       -28.4441
  25   2.0000      -0.903525       -24.5862
  26   2.0000      -0.886631       -24.1265
  27   2.0000      -0.878443       -23.9036
  28   2.0000      -0.878443       -23.9036
  29   2.0000      -0.814372       -22.1602
  30   2.0000      -0.814208       -22.1557
  31   2.0000      -0.807056       -21.9611
  32   2.0000      -0.807056       -21.9611
  33   2.0000      -0.805088       -21.9076
  34   2.0000      -0.797158       -21.6918
  35   2.0000      -0.785651       -21.3787
  36   2.0000      -0.785651       -21.3787
  37   2.0000      -0.639550       -17.4030
  38   2.0000      -0.608024       -16.5452
  39   2.0000      -0.590293       -16.0627
  40   2.0000      -0.590293       -16.0627
  41   2.0000      -0.581150       -15.8139
  42   2.0000      -0.563930       -15.3453
  43   2.0000      -0.563930       -15.3453
  44   2.0000      -0.553592       -15.0640
  45   2.0000      -0.543464       -14.7884
  46   2.0000      -0.525693       -14.3048
  47   2.0000      -0.521653       -14.1949
  48   2.0000      -0.521653       -14.1949
  49   0.0000      -0.010643        -0.2896
  50   0.0000       0.002153         0.0586
  51   0.0000       0.002153         0.0586
  52   0.0000       0.012132         0.3301
  53   0.0000       0.058992         1.6053

MULLIKEN ATOMIC CHARGES
-----------------------
   0 C :    0.944996
   1 N :    1.156512
   2 O :   -0.720856
   3 N :    1.156512
   4 O :   -0.671905
   5 O :   -0.720856
   6 N :    1.156512
   7 O :   -0.671905
   8 O :   -0.720856
   9 N :    1.156512
  10 O :   -0.720856
  11 O :   -0.671905
  12 O :   -0.671905
Sum of atomic charges:    0.0000000

LOEWDIN ATOMIC CHARGES
----------------------
   0 C :   -0.590667
   1 N :   -0.718597
   2 O :    0.432670
   3 N :   -0.718597
   4 O :    0.433594
   5 O :    0.432670
   6 N :   -0.718597
   7 O :    0.433594
   8 O :    0.432670
   9 N :   -0.718597
  10 O :    0.432670
  11 O :    0.433594
  12 O :    0.433594

  Mayer bond orders larger than 0.100000
B(  0-C ,  1-N ) :   0.8274 B(  0-C ,  3-N ) :   0.8274 B(  0-C ,  4-O ) :   0.1397
B(  0-C ,  6-N ) :   0.8274 B(  0-C ,  7-O ) :   0.1397 B(  0-C ,  9-N ) :   0.8274
B(  0-C , 11-O ) :   0.1397 B(  0-C , 12-O ) :   0.1397 B(  1-N ,  2-O ) :   1.0044
B(  1-N , 12-O ) :   0.9828 B(  2-O , 12-O ) :   0.1973 B(  3-N ,  4-O ) :   0.9828
B(  3-N ,  5-O ) :   1.0044 B(  4-O ,  5-O ) :   0.1973 B(  6-N ,  7-O ) :   0.9828
B(  6-N ,  8-O ) :   1.0044 B(  7-O ,  8-O ) :   0.1973 B(  9-N , 10-O ) :   1.0044
B(  9-N , 11-O ) :   0.9828 B( 10-O , 11-O ) :   0.1973

MP2 TOTAL ENERGY:     -857.274181291 Eh
FINAL SINGLE POINT ENERGY      -857.274181291368

DIPOLE MOMENT
-------------
                                X             Y             Z
Electronic contribution:      0.00000      -0.00000      -0.00000
Nuclear contribution   :      0.00000       0.00000       0.00000
                        -----------------------------------------
Total Dipole Moment    :      0.00000      -0.00000      -0.00000
                        -----------------------------------------
Magnitude (a.u.)       :      0.00000
Magnitude (Debye)      :      0.00000

Rotational constants in cm-1:     0.030981     0.030252     0.030252
Rotational constants in MHz :   928.777234   906.917996   906.917996

                             ****ORCA TERMINATED NORMALLY****
TOTAL RUN TIME: 0 days 0 hours 7 minutes 44 seconds 609 msec
