                         Program Version 5.0.3 -  RELEASE  -
|  1> !ri-mp2 aug-cc-pvtz aug-cc-pvtz/c tightscf
|  2> %pal nprocs 16 end
|  3>
|  4> * xyz 0 1
|  5> C     0.000000     0.830500       0.000000
|  6> C     0.719234    -0.415250       0.000000
|  7> C    -0.719234    -0.415250       0.000000
|  8> C     0.000000     2.159401       0.000000
|  9> C     1.870096    -1.079700       0.000000
| 10> C    -1.870096    -1.079700       0.000000
| 11> H    -0.925056     2.719957       0.000000
| 12> H     0.925056     2.719957       0.000000
| 13> H     2.818080    -0.558856       0.000000
| 14> H     1.893024    -2.161100       0.000000
| 15> H    -1.893024    -2.161100       0.000000
| 16> H    -2.818080    -0.558856       0.000000
| 17> *
| 18>
| 19>                          ****END OF INPUT****

CARTESIAN COORDINATES (ANGSTROEM)
---------------------------------
  C      0.000000    0.830500    0.000000
  C      0.719234   -0.415250    0.000000
  C     -0.719234   -0.415250    0.000000
  C      0.000000    2.159401    0.000000
  C      1.870096   -1.079700    0.000000
  C     -1.870096   -1.079700    0.000000
  H     -0.925056    2.719957    0.000000
  H      0.925056    2.719957    0.000000
  H      2.818080   -0.558856    0.000000
  H      1.893024   -2.161100    0.000000
  H     -1.893024   -2.161100    0.000000
  H     -2.818080   -0.558856    0.000000

 Total Charge           Charge          ....    0
 Multiplicity           Mult            ....    1
 Number of Electrons    NEL             ....   42
 Basis Dimension        Dim             ....  414

ORBITAL ENERGIES
----------------

  NO   OCC          E(Eh)            E(eV)
   0   2.0000     -11.258290      -306.3537
   1   2.0000     -11.256923      -306.3165
   2   2.0000     -11.256923      -306.3165
   3   2.0000     -11.242542      -305.9251
   4   2.0000     -11.242542      -305.9251
   5   2.0000     -11.242542      -305.9251
   6   2.0000      -1.189057       -32.3559
   7   2.0000      -1.007135       -27.4055
   8   2.0000      -1.007135       -27.4055
   9   2.0000      -0.940985       -25.6055
  10   2.0000      -0.710919       -19.3451
  11   2.0000      -0.710919       -19.3451
  12   2.0000      -0.655871       -17.8472
  13   2.0000      -0.620069       -16.8729
  14   2.0000      -0.620069       -16.8729
  15   2.0000      -0.591684       -16.1005
  16   2.0000      -0.519973       -14.1492
  17   2.0000      -0.451896       -12.2967
  18   2.0000      -0.451896       -12.2967
  19   2.0000      -0.338251        -9.2043
  20   2.0000      -0.338251        -9.2043
  21   0.0000       0.029974         0.8156
  22   0.0000       0.031930         0.8689
  23   0.0000       0.034411         0.9364
  24   0.0000       0.034411         0.9364
  25   0.0000       0.050852         1.3838

MULLIKEN ATOMIC CHARGES
-----------------------
   0 C :    0.423148
   1 C :    0.423157
   2 C :    0.423157
   3 C :   -1.023072
   4 C :   -1.023068
   5 C :   -1.023066
   6 H :    0.299957
   7 H :    0.299957
   8 H :    0.299957
   9 H :    0.299957
  10 H :    0.299957
  11 H :    0.299958
Sum of atomic charges:    0.0000000

LOEWDIN ATOMIC CHARGES
----------------------
   0 C :   -0.107161
   1 C :   -0.107161
   2 C :   -0.107161
   3 C :    0.562236
   4 C :    0.562236
   5 C :    0.562236
   6 H :   -0.227538
   7 H :   -0.227538
   8 H :   -0.227537
   9 H :   -0.227538
  10 H :   -0.227538
  11 H :   -0.227537

  Mayer bond orders larger than 0.100000
B(  0-C ,  1-C ) :   1.0845 B(  0-C ,  2-C ) :   1.0845 B(  0-C ,  3-C ) :   1.0402
B(  1-C ,  2-C ) :   1.0845 B(  1-C ,  4-C ) :   1.0402 B(  2-C ,  5-C ) :   1.0402
B(  3-C ,  4-C ) :   0.1990 B(  3-C ,  5-C ) :   0.1990 B(  3-C ,  6-H ) :   0.9797
B(  3-C ,  7-H ) :   0.9797 B(  4-C ,  5-C ) :   0.1990 B(  4-C ,  8-H ) :   0.9797
B(  4-C ,  9-H ) :   0.9797 B(  5-C , 10-H ) :   0.9797 B(  5-C , 11-H ) :   0.9797

MP2 TOTAL ENERGY:     -231.594357835 Eh
FINAL SINGLE POINT ENERGY      -231.594357835303

DIPOLE MOMENT
-------------
                                X             Y             Z
Electronic contribution:      0.00000      -0.00000       0.00000
Nuclear contribution   :      0.00000       0.00000       0.00000
                        -----------------------------------------
Total Dipole Moment    :      0.00000      -0.00000       0.00000
                        -----------------------------------------
Magnitude (a.u.)       :      0.00000
Magnitude (Debye)      :      0.00000

Rotational constants in cm-1:     0.138863     0.138863     0.069432
Rotational constants in MHz :  4163.015986  4163.015313  2081.507825

                             ****ORCA TERMINATED NORMALLY****
TOTAL RUN TIME: 0 days 0 hours 2 minutes 26 seconds 361 msec
