                         Program Version 5.0.3 -  RELEASE  -
|  1> !ri-mp2 aug-cc-pvtz aug-cc-pvtz/c tightscf
|  2> %pal nprocs 16 end
|  3>
|  4> * xyz 0 1
|  5> C     -0.299347    2.755142    0.647638
|  6> C      2.535697   -1.118329    0.647638
|  7> C     -2.236350   -1.636813    0.647638
|  8> C      0.000000    0.000000    0.150368
|  9> S      0.610957    1.615429   -0.447444
| 10> S      1.093524   -1.336819   -0.447444
| 11> S     -1.704481   -0.278610   -0.447444
| 12> H      0.000000    3.759716    0.355248
| 13> H     -0.029337    2.594355    1.690157
| 14> H     -1.372452    2.645233    0.513627
| 15> H      2.261446   -1.271771    1.690157
| 16> H      2.977065   -0.134038    0.513627
| 17> H      3.256010   -1.879858    0.355248
| 18> H     -3.256010   -1.879858    0.355248
| 19> H     -2.232109   -1.322585    1.690157
| 20> H     -1.604613   -2.511195    0.513627
| 21> H      0.000000    0.000000    1.240520
| 22> *
| 23>
| 24>                          ****END OF INPUT****

CARTESIAN COORDINATES (ANGSTROEM)
---------------------------------
  C     -0.299347    2.755142    0.647638
  C      2.535697   -1.118329    0.647638
  C     -2.236350   -1.636813    0.647638
  C      0.000000    0.000000    0.150368
  S      0.610957    1.615429   -0.447444
  S      1.093524   -1.336819   -0.447444
  S     -1.704481   -0.278610   -0.447444
  H      0.000000    3.759716    0.355248
  H     -0.029337    2.594355    1.690157
  H     -1.372452    2.645233    0.513627
  H      2.261446   -1.271771    1.690157
  H      2.977065   -0.134038    0.513627
  H      3.256010   -1.879858    0.355248
  H     -3.256010   -1.879858    0.355248
  H     -2.232109   -1.322585    1.690157
  H     -1.604613   -2.511195    0.513627
  H      0.000000    0.000000    1.240520

 Total Charge           Charge          ....    0
 Multiplicity           Mult            ....    1
 Number of Electrons    NEL             ....   82
 Basis Dimension        Dim             ....  564

ORBITAL ENERGIES
----------------

  NO   OCC          E(Eh)            E(eV)
   0   2.0000     -91.957924     -2502.3023
   1   2.0000     -91.957924     -2502.3023
   2   2.0000     -91.957923     -2502.3023
   3   2.0000     -11.321931      -308.0854
   4   2.0000     -11.255365      -306.2741
   5   2.0000     -11.255365      -306.2741
   6   2.0000     -11.255365      -306.2741
   7   2.0000      -8.957695      -243.7513
   8   2.0000      -8.957695      -243.7513
   9   2.0000      -8.957690      -243.7511
  10   2.0000      -6.638807      -180.6511
  11   2.0000      -6.638805      -180.6511
  12   2.0000      -6.638805      -180.6511
  13   2.0000      -6.637806      -180.6239
  14   2.0000      -6.637806      -180.6239
  15   2.0000      -6.637801      -180.6238
  16   2.0000      -6.636807      -180.5967
  17   2.0000      -6.636807      -180.5967
  18   2.0000      -6.636806      -180.5967
  19   2.0000      -1.114642       -30.3310
  20   2.0000      -1.029675       -28.0189
  21   2.0000      -1.029674       -28.0189
  22   2.0000      -0.952475       -25.9182
  23   2.0000      -0.853152       -23.2155
  24   2.0000      -0.853152       -23.2155
  25   2.0000      -0.761213       -20.7137
  26   2.0000      -0.613793       -16.7022
  27   2.0000      -0.606315       -16.4987
  28   2.0000      -0.606315       -16.4987
  29   2.0000      -0.591326       -16.0908
  30   2.0000      -0.591326       -16.0908
  31   2.0000      -0.579855       -15.7787
  32   2.0000      -0.574655       -15.6371
  33   2.0000      -0.517070       -14.0702
  34   2.0000      -0.517070       -14.0702
  35   2.0000      -0.441835       -12.0229
  36   2.0000      -0.441835       -12.0229
  37   2.0000      -0.437402       -11.9023
  38   2.0000      -0.350229        -9.5302
  39   2.0000      -0.350229        -9.5302
  40   2.0000      -0.340614        -9.2686
  41   0.0000       0.025155         0.6845
  42   0.0000       0.034158         0.9295
  43   0.0000       0.034158         0.9295
  44   0.0000       0.040301         1.0967
  45   0.0000       0.052748         1.4353

MULLIKEN ATOMIC CHARGES
-----------------------
   0 C :   -0.817004
   1 C :   -0.817003
   2 C :   -0.817006
   3 C :    0.371988
   4 S :   -0.273804
   5 S :   -0.273805
   6 S :   -0.273805
   7 H :    0.305119
   8 H :    0.270876
   9 H :    0.311527
  10 H :    0.270875
  11 H :    0.311525
  12 H :    0.305120
  13 H :    0.305122
  14 H :    0.270876
  15 H :    0.311525
  16 H :    0.237874
Sum of atomic charges:   -0.0000000

LOEWDIN ATOMIC CHARGES
----------------------
   0 C :    0.214611
   1 C :    0.214611
   2 C :    0.214611
   3 C :   -1.157522
   4 S :    1.061773
   5 S :    1.061773
   6 S :    1.061773
   7 H :   -0.259559
   8 H :   -0.246635
   9 H :   -0.264693
  10 H :   -0.246635
  11 H :   -0.264693
  12 H :   -0.259559
  13 H :   -0.259559
  14 H :   -0.246636
  15 H :   -0.264693
  16 H :   -0.358966

  Mayer bond orders larger than 0.100000
B(  0-C ,  4-S ) :   0.9539 B(  0-C ,  7-H ) :   0.9324 B(  0-C ,  8-H ) :   0.9200
B(  0-C ,  9-H ) :   0.9184 B(  1-C ,  5-S ) :   0.9539 B(  1-C , 10-H ) :   0.9200
B(  1-C , 11-H ) :   0.9184 B(  1-C , 12-H ) :   0.9324 B(  2-C ,  6-S ) :   0.9539
B(  2-C , 13-H ) :   0.9324 B(  2-C , 14-H ) :   0.9200 B(  2-C , 15-H ) :   0.9184
B(  3-C ,  4-S ) :   0.9362 B(  3-C ,  5-S ) :   0.9362 B(  3-C ,  6-S ) :   0.9362
B(  3-C , 16-H ) :   0.8966

MP2 TOTAL ENERGY:    -1351.243563173 Eh
FINAL SINGLE POINT ENERGY     -1351.243563173048

DIPOLE MOMENT
-------------
                                X             Y             Z
Electronic contribution:      0.00000       0.00000      -7.55837
Nuclear contribution   :     -0.00000      -0.00000       8.94150
                        -----------------------------------------
Total Dipole Moment    :      0.00000       0.00000       1.38313
                        -----------------------------------------
Magnitude (a.u.)       :      1.38313
Magnitude (Debye)      :      3.51564

Rotational constants in cm-1:     0.045280     0.045280     0.025792
Rotational constants in MHz :  1357.467309  1357.467107   773.225074

                             ****ORCA TERMINATED NORMALLY****
TOTAL RUN TIME: 0 days 0 hours 6 minutes 1 seconds 862 msec
