                         Program Version 5.0.3 -  RELEASE  -
|  1> !ri-mp2 aug-cc-pvtz aug-cc-pvtz/c tightscf
|  2> %pal nprocs 16 end
|  3>
|  4> * xyz 0 1
|  5> N     -1.772399    1.554665    0.469600
|  6> C     -1.366140    0.325170    0.092859
|  7> S     -2.456819   -0.860510   -0.315837
|  8> C      0.106704    0.129865    0.044612
|  9> C      0.966492    1.187191   -0.276202
| 10> C      2.340741    0.991999   -0.324842
| 11> C      2.877285   -0.257721   -0.040450
| 12> C      2.030458   -1.315064    0.278402
| 13> C      0.657396   -1.126729    0.311776
| 14> H     -2.760372    1.733207    0.530743
| 15> H     -1.135771    2.217677    0.877192
| 16> H      0.563130    2.157313   -0.533805
| 17> H      2.990082    1.814218   -0.593305
| 18> H      3.947644   -0.409333   -0.073904
| 19> H      2.441819   -2.290833    0.498199
| 20> H     -0.008244   -1.945015    0.544143
| 21> *
| 22>
| 23>                          ****END OF INPUT****

CARTESIAN COORDINATES (ANGSTROEM)
---------------------------------
  N     -1.772399    1.554665    0.469600
  C     -1.366140    0.325170    0.092859
  S     -2.456819   -0.860510   -0.315837
  C      0.106704    0.129865    0.044612
  C      0.966492    1.187191   -0.276202
  C      2.340741    0.991999   -0.324842
  C      2.877285   -0.257721   -0.040450
  C      2.030458   -1.315064    0.278402
  C      0.657396   -1.126729    0.311776
  H     -2.760372    1.733207    0.530743
  H     -1.135771    2.217677    0.877192
  H      0.563130    2.157313   -0.533805
  H      2.990082    1.814218   -0.593305
  H      3.947644   -0.409333   -0.073904
  H      2.441819   -2.290833    0.498199
  H     -0.008244   -1.945015    0.544143

 Total Charge           Charge          ....    0
 Multiplicity           Mult            ....    1
 Number of Electrons    NEL             ....   72
 Basis Dimension        Dim             ....  579

ORBITAL ENERGIES
----------------

  NO   OCC          E(Eh)            E(eV)
   0   2.0000     -91.898718     -2500.6913
   1   2.0000     -15.609737      -424.7626
   2   2.0000     -11.356083      -309.0147
   3   2.0000     -11.264003      -306.5091
   4   2.0000     -11.259228      -306.3792
   5   2.0000     -11.254463      -306.2495
   6   2.0000     -11.250839      -306.1509
   7   2.0000     -11.250475      -306.1410
   8   2.0000     -11.247327      -306.0553
   9   2.0000      -8.901733      -242.2285
  10   2.0000      -6.583096      -179.1351
  11   2.0000      -6.581565      -179.0935
  12   2.0000      -6.580700      -179.0700
  13   2.0000      -1.272896       -34.6373
  14   2.0000      -1.172022       -31.8923
  15   2.0000      -1.058930       -28.8149
  16   2.0000      -1.034972       -28.1630
  17   2.0000      -0.982346       -26.7310
  18   2.0000      -0.869409       -23.6578
  19   2.0000      -0.843664       -22.9573
  20   2.0000      -0.789544       -21.4846
  21   2.0000      -0.749581       -20.3971
  22   2.0000      -0.706785       -19.2326
  23   2.0000      -0.668102       -18.1800
  24   2.0000      -0.642597       -17.4859
  25   2.0000      -0.614034       -16.7087
  26   2.0000      -0.604790       -16.4572
  27   2.0000      -0.550143       -14.9702
  28   2.0000      -0.539495       -14.6804
  29   2.0000      -0.514604       -14.0031
  30   2.0000      -0.507455       -13.8085
  31   2.0000      -0.492414       -13.3993
  32   2.0000      -0.367554       -10.0016
  33   2.0000      -0.354975        -9.6594
  34   2.0000      -0.331634        -9.0242
  35   2.0000      -0.318246        -8.6599
  36   0.0000       0.020743         0.5645
  37   0.0000       0.028033         0.7628
  38   0.0000       0.034078         0.9273
  39   0.0000       0.043998         1.1972
  40   0.0000       0.044889         1.2215

MULLIKEN ATOMIC CHARGES
-----------------------
   0 N :   -0.533842
   1 C :    0.673941
   2 S :   -0.586899
   3 C :    1.826921
   4 C :   -0.958377
   5 C :   -0.790215
   6 C :   -0.246559
   7 C :   -0.590203
   8 C :   -1.086624
   9 H :    0.141183
  10 H :    0.128627
  11 H :    0.326878
  12 H :    0.337232
  13 H :    0.586119
  14 H :    0.359995
  15 H :    0.411823
Sum of atomic charges:   -0.0000000

LOEWDIN ATOMIC CHARGES
----------------------
   0 N :    0.774827
   1 C :   -0.912199
   2 S :    0.899623
   3 C :   -0.210093
   4 C :    0.203087
   5 C :    0.207716
   6 C :    0.206871
   7 C :    0.212402
   8 C :    0.179765
   9 H :   -0.310046
  10 H :   -0.304143
  11 H :   -0.187353
  12 H :   -0.183417
  13 H :   -0.179602
  14 H :   -0.181649
  15 H :   -0.215788

  Mayer bond orders larger than 0.100000
B(  0-N ,  1-C ) :   0.8521 B(  0-N ,  9-H ) :   1.0148 B(  0-N , 10-H ) :   1.0660
B(  1-C ,  2-S ) :   1.4134 B(  1-C ,  3-C ) :   0.3370 B(  1-C ,  4-C ) :   0.1046
B(  1-C ,  6-C ) :   0.1326 B(  1-C ,  8-C ) :   0.1639 B(  3-C ,  4-C ) :   0.4272
B(  3-C ,  5-C ) :  -0.1930 B(  3-C ,  7-C ) :  -0.1235 B(  3-C ,  8-C ) :   0.3991
B(  4-C ,  5-C ) :   1.3374 B(  4-C ,  7-C ) :   0.1184 B(  4-C ,  8-C ) :   0.1606
B(  4-C , 11-H ) :   1.0753 B(  5-C ,  6-C ) :   1.1918 B(  5-C ,  8-C ) :   0.1021
B(  5-C , 12-H ) :   0.9947 B(  5-C , 13-H ) :  -0.1508 B(  6-C ,  7-C ) :   1.0966
B(  6-C , 13-H ) :   0.6244 B(  7-C ,  8-C ) :   1.2907 B(  7-C , 13-H ) :  -0.1360
B(  7-C , 14-H ) :   1.0079 B(  8-C , 15-H ) :   0.9026

MP2 TOTAL ENERGY:     -722.772799786 Eh
FINAL SINGLE POINT ENERGY      -722.772799786443

DIPOLE MOMENT
-------------
                                X             Y             Z
Electronic contribution:     -4.75822      -1.92504      -0.66528
Nuclear contribution   :      6.01566       3.26513       1.24357
                        -----------------------------------------
Total Dipole Moment    :      1.25744       1.34009       0.57828
                        -----------------------------------------
Magnitude (a.u.)       :      1.92650
Magnitude (Debye)      :      4.89678

Rotational constants in cm-1:     0.103676     0.030982     0.024759
Rotational constants in MHz :  3108.139701   928.821524   742.260500

                             ****ORCA TERMINATED NORMALLY****
TOTAL RUN TIME: 0 days 0 hours 8 minutes 39 seconds 183 msec
