                         Program Version 5.0.3 -  RELEASE  -
|  1> !ri-mp2 aug-cc-pvtz aug-cc-pvtz/c tightscf
|  2> %pal nprocs 16 end
|  3>
|  4> * xyz 0 1
|  5> C      0.038452    0.035580    0.000000
|  6> C      0.922994   -1.233024    0.000000
|  7> O      0.496614   -2.344783    0.000000
|  8> Cl    -1.683707   -0.338809    0.000000
|  9> Cl     0.496614    0.961332    1.470611
| 10> Cl     0.496614    0.961332   -1.470611
| 11> H      1.996540   -0.982605    0.000000
| 12> *
| 13>
| 14>                          ****END OF INPUT****

CARTESIAN COORDINATES (ANGSTROEM)
---------------------------------
  C      0.038452    0.035580    0.000000
  C      0.922994   -1.233024    0.000000
  O      0.496614   -2.344783    0.000000
  Cl    -1.683707   -0.338809    0.000000
  Cl     0.496614    0.961332    1.470611
  Cl     0.496614    0.961332   -1.470611
  H      1.996540   -0.982605    0.000000

 Total Charge           Charge          ....    0
 Multiplicity           Mult            ....    1
 Number of Electrons    NEL             ....   72
 Basis Dimension        Dim             ....  311

ORBITAL ENERGIES
----------------

  NO   OCC          E(Eh)            E(eV)
   0   2.0000    -104.883458     -2854.0240
   1   2.0000    -104.883457     -2854.0240
   2   2.0000    -104.876682     -2853.8396
   3   2.0000     -20.607422      -560.7565
   4   2.0000     -11.459161      -311.8196
   5   2.0000     -11.383718      -309.7667
   6   2.0000     -10.607293      -288.6391
   7   2.0000     -10.607285      -288.6389
   8   2.0000     -10.600597      -288.4569
   9   2.0000      -8.074008      -219.7049
  10   2.0000      -8.074007      -219.7049
  11   2.0000      -8.071888      -219.6472
  12   2.0000      -8.071887      -219.6472
  13   2.0000      -8.071877      -219.6469
  14   2.0000      -8.071876      -219.6469
  15   2.0000      -8.067418      -219.5256
  16   2.0000      -8.065194      -219.4651
  17   2.0000      -8.065130      -219.4633
  18   2.0000      -1.450732       -39.4764
  19   2.0000      -1.254740       -34.1432
  20   2.0000      -1.127891       -30.6915
  21   2.0000      -1.126808       -30.6620
  22   2.0000      -0.961420       -26.1616
  23   2.0000      -0.807962       -21.9858
  24   2.0000      -0.717399       -19.5214
  25   2.0000      -0.693261       -18.8646
  26   2.0000      -0.652231       -17.7481
  27   2.0000      -0.624305       -16.9882
  28   2.0000      -0.567322       -15.4376
  29   2.0000      -0.523571       -14.2471
  30   2.0000      -0.514267       -13.9939
  31   2.0000      -0.511848       -13.9281
  32   2.0000      -0.479334       -13.0434
  33   2.0000      -0.477499       -12.9934
  34   2.0000      -0.464539       -12.6407
  35   2.0000      -0.455190       -12.3863
  36   0.0000       0.032603         0.8872
  37   0.0000       0.057897         1.5754
  38   0.0000       0.058985         1.6051
  39   0.0000       0.068757         1.8710
  40   0.0000       0.085443         2.3250

MULLIKEN ATOMIC CHARGES
-----------------------
   0 C :    0.687338
   1 C :    0.107439
   2 O :   -0.604126
   3 Cl:   -0.224312
   4 Cl:   -0.263546
   5 Cl:   -0.263546
   6 H :    0.560753
Sum of atomic charges:   -0.0000000

LOEWDIN ATOMIC CHARGES
----------------------
   0 C :   -2.159587
   1 C :   -0.532109
   2 O :    0.422643
   3 Cl:    0.859813
   4 Cl:    0.822161
   5 Cl:    0.822161
   6 H :   -0.235081

  Mayer bond orders larger than 0.100000
B(  0-C ,  1-C ) :   0.8184 B(  0-C ,  3-Cl) :   0.8800 B(  0-C ,  4-Cl) :   0.8587
B(  0-C ,  5-Cl) :   0.8587 B(  1-C ,  2-O ) :   1.7322 B(  1-C ,  6-H ) :   0.6291

MP2 TOTAL ENERGY:    -1530.898770519 Eh
FINAL SINGLE POINT ENERGY     -1530.898770518548

DIPOLE MOMENT
-------------
                                X             Y             Z
Electronic contribution:     -2.25317       3.55458       0.00000
Nuclear contribution   :      2.74520      -3.01430       0.00000
                        -----------------------------------------
Total Dipole Moment    :      0.49204       0.54028       0.00000
                        -----------------------------------------
Magnitude (a.u.)       :      0.73075
Magnitude (Debye)      :      1.85743

Rotational constants in cm-1:     0.059911     0.053878     0.049845
Rotational constants in MHz :  1796.080718  1615.231745  1494.317491

                             ****ORCA TERMINATED NORMALLY****
TOTAL RUN TIME: 0 days 0 hours 1 minutes 24 seconds 840 msec
