                         Program Version 5.0.3 -  RELEASE  -
|  1> !ri-mp2 aug-cc-pvtz aug-cc-pvtz/c tightscf
|  2> %pal nprocs 16 end
|  3>
|  4> * xyz 0 1
|  5> C     -1.897971   -0.000097    0.008691
|  6> C     -1.196697    1.200136    0.001975
|  7> C     -1.196435   -1.200271    0.001973
|  8> C      0.193419    1.197285   -0.008982
|  9> C      0.193595   -1.197195   -0.008976
| 10> C      0.910843    0.000147   -0.011486
| 11> C      2.417290    0.000075    0.009328
| 12> H     -2.979553   -0.000212    0.014466
| 13> H     -1.731919    2.140543    0.001706
| 14> H     -1.731521   -2.140756    0.001687
| 15> H      0.729597    2.138337   -0.018405
| 16> H      0.729920   -2.138174   -0.018405
| 17> H      2.822376   -0.877771   -0.494005
| 18> H      2.822189    0.887290   -0.477332
| 19> H      2.794646   -0.009730    1.035147
| 20> *
| 21>
| 22>                          ****END OF INPUT****

CARTESIAN COORDINATES (ANGSTROEM)
---------------------------------
  C     -1.897971   -0.000097    0.008691
  C     -1.196697    1.200136    0.001975
  C     -1.196435   -1.200271    0.001973
  C      0.193419    1.197285   -0.008982
  C      0.193595   -1.197195   -0.008976
  C      0.910843    0.000147   -0.011486
  C      2.417290    0.000075    0.009328
  H     -2.979553   -0.000212    0.014466
  H     -1.731919    2.140543    0.001706
  H     -1.731521   -2.140756    0.001687
  H      0.729597    2.138337   -0.018405
  H      0.729920   -2.138174   -0.018405
  H      2.822376   -0.877771   -0.494005
  H      2.822189    0.887290   -0.477332
  H      2.794646   -0.009730    1.035147

 Total Charge           Charge          ....    0
 Multiplicity           Mult            ....    1
 Number of Electrons    NEL             ....   50
 Basis Dimension        Dim             ....  506

ORBITAL ENERGIES
----------------

  NO   OCC          E(Eh)            E(eV)
   0   2.0000     -11.240291      -305.8639
   1   2.0000     -11.231980      -305.6377
   2   2.0000     -11.231812      -305.6332
   3   2.0000     -11.227697      -305.5212
   4   2.0000     -11.227283      -305.5099
   5   2.0000     -11.227192      -305.5074
   6   2.0000     -11.223121      -305.3966
   7   2.0000      -1.153251       -31.3816
   8   2.0000      -1.044539       -28.4234
   9   2.0000      -1.011738       -27.5308
  10   2.0000      -0.932959       -25.3871
  11   2.0000      -0.824766       -22.4430
  12   2.0000      -0.797817       -21.7097
  13   2.0000      -0.693353       -18.8671
  14   2.0000      -0.633395       -17.2356
  15   2.0000      -0.630811       -17.1652
  16   2.0000      -0.583076       -15.8663
  17   2.0000      -0.575888       -15.6707
  18   2.0000      -0.566932       -15.4270
  19   2.0000      -0.539400       -14.6778
  20   2.0000      -0.489128       -13.3099
  21   2.0000      -0.487204       -13.2575
  22   2.0000      -0.485313       -13.2060
  23   2.0000      -0.334688        -9.1073
  24   2.0000      -0.324295        -8.8245
  25   0.0000       0.030166         0.8209
  26   0.0000       0.032980         0.8974
  27   0.0000       0.034922         0.9503
  28   0.0000       0.046568         1.2672
  29   0.0000       0.047556         1.2941

MULLIKEN ATOMIC CHARGES
-----------------------
   0 C :   -0.275827
   1 C :   -0.505455
   2 C :   -0.509034
   3 C :   -0.985180
   4 C :   -0.986466
   5 C :    1.334327
   6 C :   -0.809808
   7 H :    0.404928
   8 H :    0.521045
   9 H :    0.517335
  10 H :    0.216476
  11 H :    0.223066
  12 H :    0.272799
  13 H :    0.272161
  14 H :    0.309633
Sum of atomic charges:   -0.0000000

LOEWDIN ATOMIC CHARGES
----------------------
   0 C :    0.188625
   1 C :    0.192485
   2 C :    0.192458
   3 C :    0.208565
   4 C :    0.208525
   5 C :   -0.127182
   6 C :    0.576779
   7 H :   -0.189313
   8 H :   -0.185774
   9 H :   -0.185779
  10 H :   -0.181417
  11 H :   -0.181224
  12 H :   -0.176255
  13 H :   -0.176579
  14 H :   -0.163914

  Mayer bond orders larger than 0.100000
B(  0-C ,  1-C ) :   1.0880 B(  0-C ,  2-C ) :   1.0877 B(  0-C ,  7-H ) :   0.8929
B(  1-C ,  2-C ) :   0.1386 B(  1-C ,  3-C ) :   1.1870 B(  1-C ,  7-H ) :  -0.1507
B(  1-C ,  8-H ) :   0.7098 B(  2-C ,  4-C ) :   1.1895 B(  2-C ,  7-H ) :  -0.1505
B(  2-C ,  9-H ) :   0.7156 B(  3-C ,  5-C ) :   0.6434 B(  3-C ,  7-H ) :   0.1233
B(  3-C , 10-H ) :   1.2137 B(  4-C ,  5-C ) :   0.6472 B(  4-C ,  7-H ) :   0.1208
B(  4-C , 11-H ) :   1.2007 B(  5-C ,  6-C ) :   0.4882 B(  5-C , 10-H ) :  -0.1215
B(  5-C , 11-H ) :  -0.1208 B(  6-C , 12-H ) :   0.9900 B(  6-C , 13-H ) :   0.9901
B(  6-C , 14-H ) :   0.9366

MP2 TOTAL ENERGY:     -270.974239822 Eh
FINAL SINGLE POINT ENERGY      -270.974239822035

DIPOLE MOMENT
-------------
                                X             Y             Z
Electronic contribution:     -3.36391       0.00009      -0.03348
Nuclear contribution   :      3.52184      -0.00048       0.04572
                        -----------------------------------------
Total Dipole Moment    :      0.15793      -0.00039       0.01224
                        -----------------------------------------
Magnitude (a.u.)       :      0.15840
Magnitude (Debye)      :      0.40263

Rotational constants in cm-1:     0.186017     0.084228     0.058606
Rotational constants in MHz :  5576.652657  2525.105337  1756.975433

                             ****ORCA TERMINATED NORMALLY****
TOTAL RUN TIME: 0 days 0 hours 4 minutes 39 seconds 124 msec
