                         Program Version 5.0.3 -  RELEASE  -
|  1> !ri-mp2 aug-cc-pvtz aug-cc-pvtz/c tightscf
|  2> %pal nprocs 16 end
|  3>
|  4> * xyz 0 1
|  5> N     -0.051147    1.703848    0.244380
|  6> C     -0.043314    0.431492   -0.483504
|  7> C     -1.376086   -0.303235   -0.228367
|  8> O     -1.530938   -1.479219   -0.435919
|  9> O     -2.351637    0.487074    0.227525
| 10> H     -1.928124    1.363089    0.369080
| 11> C      1.141533   -0.499575   -0.166921
| 12> O      1.167043   -0.778126    1.238261
| 13> C      2.485110    0.099679   -0.539476
| 14> H     -0.035888    0.649255   -1.555103
| 15> H      0.984216   -1.425674   -0.722324
| 16> H      0.509733   -1.457032    1.425652
| 17> H      3.279834   -0.613026   -0.325853
| 18> H      2.518013    0.345316   -1.601845
| 19> H      2.686599    1.005623    0.033605
| 20> H      0.347974    1.576034    1.168534
| 21> H      0.476463    2.421484   -0.231731
| 22> *
| 23>
| 24>                          ****END OF INPUT****

CARTESIAN COORDINATES (ANGSTROEM)
---------------------------------
  N     -0.051147    1.703848    0.244380
  C     -0.043314    0.431492   -0.483504
  C     -1.376086   -0.303235   -0.228367
  O     -1.530938   -1.479219   -0.435919
  O     -2.351637    0.487074    0.227525
  H     -1.928124    1.363089    0.369080
  C      1.141533   -0.499575   -0.166921
  O      1.167043   -0.778126    1.238261
  C      2.485110    0.099679   -0.539476
  H     -0.035888    0.649255   -1.555103
  H      0.984216   -1.425674   -0.722324
  H      0.509733   -1.457032    1.425652
  H      3.279834   -0.613026   -0.325853
  H      2.518013    0.345316   -1.601845
  H      2.686599    1.005623    0.033605
  H      0.347974    1.576034    1.168534
  H      0.476463    2.421484   -0.231731

 Total Charge           Charge          ....    0
 Multiplicity           Mult            ....    1
 Number of Electrons    NEL             ....   64
 Basis Dimension        Dim             ....  575

ORBITAL ENERGIES
----------------

  NO   OCC          E(Eh)            E(eV)
   0   2.0000     -20.601363      -560.5916
   1   2.0000     -20.572254      -559.7995
   2   2.0000     -20.543599      -559.0198
   3   2.0000     -15.582141      -424.0116
   4   2.0000     -11.381705      -309.7119
   5   2.0000     -11.300311      -307.4971
   6   2.0000     -11.294731      -307.3453
   7   2.0000     -11.231662      -305.6291
   8   2.0000      -1.458449       -39.6864
   9   2.0000      -1.376986       -37.4697
  10   2.0000      -1.362122       -37.0652
  11   2.0000      -1.221953       -33.2510
  12   2.0000      -1.049738       -28.5648
  13   2.0000      -0.970420       -26.4065
  14   2.0000      -0.842600       -22.9283
  15   2.0000      -0.804533       -21.8925
  16   2.0000      -0.745772       -20.2935
  17   2.0000      -0.722890       -19.6708
  18   2.0000      -0.701935       -19.1006
  19   2.0000      -0.672028       -18.2868
  20   2.0000      -0.634522       -17.2662
  21   2.0000      -0.625305       -17.0154
  22   2.0000      -0.602030       -16.3821
  23   2.0000      -0.591045       -16.0832
  24   2.0000      -0.561225       -15.2717
  25   2.0000      -0.546900       -14.8819
  26   2.0000      -0.540341       -14.7034
  27   2.0000      -0.500113       -13.6088
  28   2.0000      -0.487137       -13.2557
  29   2.0000      -0.474589       -12.9142
  30   2.0000      -0.460049       -12.5186
  31   2.0000      -0.418596       -11.3906
  32   0.0000       0.020260         0.5513
  33   0.0000       0.032964         0.8970
  34   0.0000       0.035466         0.9651
  35   0.0000       0.040275         1.0959
  36   0.0000       0.055240         1.5032

MULLIKEN ATOMIC CHARGES
-----------------------
   0 N :   -0.632186
   1 C :    0.483313
   2 C :    0.529051
   3 O :   -0.807633
   4 O :   -0.546198
   5 H :    0.242303
   6 C :    0.563085
   7 O :   -0.777971
   8 C :   -1.059985
   9 H :    0.433020
  10 H :    0.437465
  11 H :    0.154768
  12 H :    0.264755
  13 H :    0.257082
  14 H :    0.296870
  15 H :    0.109228
  16 H :    0.053034
Sum of atomic charges:    0.0000000

LOEWDIN ATOMIC CHARGES
----------------------
   0 N :    0.867977
   1 C :   -0.101339
   2 C :   -0.778502
   3 O :    0.442927
   4 O :    0.845191
   5 H :   -0.583012
   6 C :   -0.266150
   7 O :    0.837133
   8 C :    0.590323
   9 H :   -0.131044
  10 H :   -0.150549
  11 H :   -0.484874
  12 H :   -0.164143
  13 H :   -0.164297
  14 H :   -0.170603
  15 H :   -0.298444
  16 H :   -0.290596

  Mayer bond orders larger than 0.100000
B(  0-N ,  1-C ) :   0.5153 B(  0-N ,  2-C ) :   0.1581 B(  0-N ,  5-H ) :   0.1117
B(  0-N , 15-H ) :   0.9927 B(  0-N , 16-H ) :   1.0820 B(  1-C ,  2-C ) :   0.6340
B(  1-C ,  4-O ) :   0.1088 B(  1-C ,  6-C ) :   0.9985 B(  1-C ,  9-H ) :   0.8363
B(  2-C ,  3-O ) :   1.3862 B(  2-C ,  4-O ) :   0.7312 B(  4-O ,  5-H ) :   0.8741
B(  6-C ,  7-O ) :   0.5337 B(  6-C ,  8-C ) :   0.6907 B(  6-C , 10-H ) :   0.8209
B(  7-O , 11-H ) :   1.0102 B(  8-C , 12-H ) :   1.0102 B(  8-C , 13-H ) :   0.9949
B(  8-C , 14-H ) :   0.9525

MP2 TOTAL ENERGY:     -437.568661685 Eh
FINAL SINGLE POINT ENERGY      -437.568661685162

DIPOLE MOMENT
-------------
                                X             Y             Z
Electronic contribution:     -7.63332      -2.60936       1.08988
Nuclear contribution   :      8.87521       3.88194      -1.43517
                        -----------------------------------------
Total Dipole Moment    :      1.24190       1.27258      -0.34529
                        -----------------------------------------
Magnitude (a.u.)       :      1.81135
Magnitude (Debye)      :      4.60408

Rotational constants in cm-1:     0.107007     0.050266     0.041972
Rotational constants in MHz :  3207.986600  1506.946575  1258.297475

                             ****ORCA TERMINATED NORMALLY****
TOTAL RUN TIME: 0 days 0 hours 7 minutes 2 seconds 368 msec
