                         Program Version 5.0.3 -  RELEASE  -
|  1> !ri-mp2 aug-cc-pvtz aug-cc-pvtz/c tightscf
|  2> %pal nprocs 16 end
|  3>
|  4> * xyz 0 1
|  5> C      0.015025    0.360286    0.000000
|  6> C      0.501815   -1.106329    0.000000
|  7> O     -0.245494   -2.035813    0.000000
|  8> F     -1.307957    0.464386    0.000000
|  9> F      0.501815    0.987853    1.088479
| 10> F      0.501815    0.987853   -1.088479
| 11> H      1.601854   -1.198064    0.000000
| 12> *
| 13>
| 14>                          ****END OF INPUT****

CARTESIAN COORDINATES (ANGSTROEM)
---------------------------------
  C      0.015025    0.360286    0.000000
  C      0.501815   -1.106329    0.000000
  O     -0.245494   -2.035813    0.000000
  F     -1.307957    0.464386    0.000000
  F      0.501815    0.987853    1.088479
  F      0.501815    0.987853   -1.088479
  H      1.601854   -1.198064    0.000000

 Total Charge           Charge          ....    0
 Multiplicity           Mult            ....    1
 Number of Electrons    NEL             ....   48
 Basis Dimension        Dim             ....  299

ORBITAL ENERGIES
----------------

  NO   OCC          E(Eh)            E(eV)
   0   2.0000     -26.365996      -717.4552
   1   2.0000     -26.365975      -717.4546
   2   2.0000     -26.364060      -717.4025
   3   2.0000     -20.620662      -561.1167
   4   2.0000     -11.536065      -313.9123
   5   2.0000     -11.387789      -309.8775
   6   2.0000      -1.753481       -47.7146
   7   2.0000      -1.661043       -45.1993
   8   2.0000      -1.658956       -45.1425
   9   2.0000      -1.457846       -39.6700
  10   2.0000      -1.044543       -28.4235
  11   2.0000      -0.915253       -24.9053
  12   2.0000      -0.849543       -23.1172
  13   2.0000      -0.846780       -23.0421
  14   2.0000      -0.800867       -21.7927
  15   2.0000      -0.735627       -20.0174
  16   2.0000      -0.733048       -19.9473
  17   2.0000      -0.706897       -19.2356
  18   2.0000      -0.689003       -18.7487
  19   2.0000      -0.684275       -18.6201
  20   2.0000      -0.673532       -18.3277
  21   2.0000      -0.653961       -17.7952
  22   2.0000      -0.579512       -15.7693
  23   2.0000      -0.483330       -13.1521
  24   0.0000       0.027461         0.7473
  25   0.0000       0.060902         1.6572
  26   0.0000       0.061023         1.6605
  27   0.0000       0.073354         1.9961
  28   0.0000       0.095638         2.6024

MULLIKEN ATOMIC CHARGES
-----------------------
   0 C :    1.380159
   1 C :   -0.239467
   2 O :   -0.543653
   3 F :   -0.350675
   4 F :   -0.372909
   5 F :   -0.372909
   6 H :    0.499453
Sum of atomic charges:    0.0000000

LOEWDIN ATOMIC CHARGES
----------------------
   0 C :   -1.511520
   1 C :   -0.222523
   2 O :    0.452692
   3 F :    0.509728
   4 F :    0.480741
   5 F :    0.480741
   6 H :   -0.189859

  Mayer bond orders larger than 0.100000
B(  0-C ,  1-C ) :   0.7935 B(  0-C ,  3-F ) :   0.8497 B(  0-C ,  4-F ) :   0.8004
B(  0-C ,  5-F ) :   0.8004 B(  1-C ,  2-O ) :   1.7806 B(  1-C ,  6-H ) :   0.6362

MP2 TOTAL ENERGY:     -450.977986251 Eh
FINAL SINGLE POINT ENERGY      -450.977986251069

DIPOLE MOMENT
-------------
                                X             Y             Z
Electronic contribution:     -0.94777       3.40463      -0.00000
Nuclear contribution   :      1.74600      -3.34752       0.00000
                        -----------------------------------------
Total Dipole Moment    :      0.79823       0.05711      -0.00000
                        -----------------------------------------
Magnitude (a.u.)       :      0.80027
Magnitude (Debye)      :      2.03413

Rotational constants in cm-1:     0.181219     0.098768     0.097068
Rotational constants in MHz :  5432.821521  2960.995265  2910.032000

                             ****ORCA TERMINATED NORMALLY****
TOTAL RUN TIME: 0 days 0 hours 1 minutes 8 seconds 972 msec
