                         Program Version 5.0.3 -  RELEASE  -
|  1> !ri-mp2 aug-cc-pvtz aug-cc-pvtz/c tightscf
|  2> %pal nprocs 16 end
|  3> %maxcore 3800
|  4>
|  5> * xyz 0 1
|  6> C     0.000000     0.851770    0.000000
|  7> C     0.737655    -0.425885    0.000000
|  8> C    -0.737655    -0.425885    0.000000
|  9> C     1.836386    -1.060238    0.763078
| 10> C     1.836386    -1.060238   -0.763078
| 11> C     0.000000     2.120476   -0.763078
| 12> C     0.000000     2.120476    0.763078
| 13> C    -1.836386    -1.060238   -0.763078
| 14> C    -1.836386    -1.060238    0.763078
| 15> H     2.551440    -0.422252    1.266347
| 16> H     1.641401    -1.998486    1.266347
| 17> H     1.641401    -1.998486   -1.266347
| 18> H     2.551440    -0.422252   -1.266347
| 19> H    -0.910039     2.420738   -1.266347
| 20> H     0.910039     2.420738   -1.266347
| 21> H     0.910039     2.420738    1.266347
| 22> H    -0.910039     2.420738    1.266347
| 23> H    -2.551440    -0.422252   -1.266347
| 24> H    -1.641401    -1.998486   -1.266347
| 25> H    -1.641401    -1.998486    1.266347
| 26> H    -2.551440    -0.422252    1.266347
| 27> *
| 28>
| 29>                          ****END OF INPUT****

CARTESIAN COORDINATES (ANGSTROEM)
---------------------------------
  C      0.000000    0.851770    0.000000
  C      0.737655   -0.425885    0.000000
  C     -0.737655   -0.425885    0.000000
  C      1.836386   -1.060238    0.763078
  C      1.836386   -1.060238   -0.763078
  C      0.000000    2.120476   -0.763078
  C      0.000000    2.120476    0.763078
  C     -1.836386   -1.060238   -0.763078
  C     -1.836386   -1.060238    0.763078
  H      2.551440   -0.422252    1.266347
  H      1.641401   -1.998486    1.266347
  H      1.641401   -1.998486   -1.266347
  H      2.551440   -0.422252   -1.266347
  H     -0.910039    2.420738   -1.266347
  H      0.910039    2.420738   -1.266347
  H      0.910039    2.420738    1.266347
  H     -0.910039    2.420738    1.266347
  H     -2.551440   -0.422252   -1.266347
  H     -1.641401   -1.998486   -1.266347
  H     -1.641401   -1.998486    1.266347
  H     -2.551440   -0.422252    1.266347

 Total Charge           Charge          ....    0
 Multiplicity           Mult            ....    1
 Number of Electrons    NEL             ....   66
 Basis Dimension        Dim             ....  690

ORBITAL ENERGIES
----------------

  NO   OCC          E(Eh)            E(eV)
   0   2.0000     -11.237517      -305.7884
   1   2.0000     -11.236407      -305.7582
   2   2.0000     -11.236407      -305.7582
   3   2.0000     -11.224412      -305.4318
   4   2.0000     -11.224411      -305.4317
   5   2.0000     -11.224411      -305.4317
   6   2.0000     -11.223823      -305.4158
   7   2.0000     -11.223823      -305.4158
   8   2.0000     -11.223815      -305.4155
   9   2.0000      -1.199786       -32.6478
  10   2.0000      -1.114831       -30.3361
  11   2.0000      -1.114831       -30.3361
  12   2.0000      -0.988082       -26.8871
  13   2.0000      -0.835164       -22.7260
  14   2.0000      -0.817229       -22.2379
  15   2.0000      -0.817229       -22.2379
  16   2.0000      -0.722962       -19.6728
  17   2.0000      -0.722962       -19.6728
  18   2.0000      -0.670821       -18.2540
  19   2.0000      -0.652390       -17.7524
  20   2.0000      -0.652390       -17.7524
  21   2.0000      -0.621013       -16.8986
  22   2.0000      -0.534517       -14.5450
  23   2.0000      -0.516786       -14.0625
  24   2.0000      -0.516786       -14.0625
  25   2.0000      -0.508655       -13.8412
  26   2.0000      -0.501168       -13.6375
  27   2.0000      -0.501168       -13.6375
  28   2.0000      -0.435300       -11.8451
  29   2.0000      -0.387078       -10.5329
  30   2.0000      -0.387078       -10.5329
  31   2.0000      -0.376342       -10.2408
  32   2.0000      -0.376342       -10.2408
  33   0.0000       0.031280         0.8512
  34   0.0000       0.033627         0.9150
  35   0.0000       0.033627         0.9151
  36   0.0000       0.037800         1.0286
  37   0.0000       0.049629         1.3505

MULLIKEN ATOMIC CHARGES
-----------------------
   0 C :    1.582883
   1 C :    1.582906
   2 C :    1.582914
   3 C :   -1.360681
   4 C :   -1.360693
   5 C :   -1.360660
   6 C :   -1.360640
   7 C :   -1.360675
   8 C :   -1.360696
   9 H :    0.284607
  10 H :    0.284614
  11 H :    0.284606
  12 H :    0.284613
  13 H :    0.284601
  14 H :    0.284621
  15 H :    0.284617
  16 H :    0.284612
  17 H :    0.284609
  18 H :    0.284621
  19 H :    0.284611
  20 H :    0.284609
Sum of atomic charges:    0.0000000

LOEWDIN ATOMIC CHARGES
----------------------
   0 C :   -0.192538
   1 C :   -0.192538
   2 C :   -0.192538
   3 C :    0.408577
   4 C :    0.408577
   5 C :    0.408578
   6 C :    0.408578
   7 C :    0.408577
   8 C :    0.408577
   9 H :   -0.156154
  10 H :   -0.156154
  11 H :   -0.156154
  12 H :   -0.156154
  13 H :   -0.156154
  14 H :   -0.156154
  15 H :   -0.156154
  16 H :   -0.156154
  17 H :   -0.156154
  18 H :   -0.156154
  19 H :   -0.156154
  20 H :   -0.156154

  Mayer bond orders larger than 0.100000
B(  0-C ,  1-C ) :   0.1929 B(  0-C ,  2-C ) :   0.1929 B(  0-C ,  3-C ) :  -0.2146
B(  0-C ,  4-C ) :  -0.2147 B(  0-C ,  5-C ) :  -0.1167 B(  0-C ,  6-C ) :  -0.1167
B(  0-C ,  7-C ) :  -0.2146 B(  0-C ,  8-C ) :  -0.2146 B(  1-C ,  2-C ) :   0.1930
B(  1-C ,  3-C ) :  -0.1167 B(  1-C ,  4-C ) :  -0.1167 B(  1-C ,  5-C ) :  -0.2146
B(  1-C ,  6-C ) :  -0.2146 B(  1-C ,  7-C ) :  -0.2146 B(  1-C ,  8-C ) :  -0.2147
B(  2-C ,  3-C ) :  -0.2147 B(  2-C ,  4-C ) :  -0.2147 B(  2-C ,  5-C ) :  -0.2146
B(  2-C ,  6-C ) :  -0.2146 B(  2-C ,  7-C ) :  -0.1167 B(  2-C ,  8-C ) :  -0.1167
B(  3-C ,  4-C ) :   1.7151 B(  3-C ,  9-H ) :   0.9989 B(  3-C , 10-H ) :   0.9989
B(  4-C , 11-H ) :   0.9989 B(  4-C , 12-H ) :   0.9989 B(  5-C ,  6-C ) :   1.7151
B(  5-C , 13-H ) :   0.9989 B(  5-C , 14-H ) :   0.9989 B(  6-C , 15-H ) :   0.9989
B(  6-C , 16-H ) :   0.9989 B(  7-C ,  8-C ) :   1.7151 B(  7-C , 17-H ) :   0.9989
B(  7-C , 18-H ) :   0.9989 B(  8-C , 19-H ) :   0.9989 B(  8-C , 20-H ) :   0.9989

MP2 TOTAL ENERGY:     -349.257400853 Eh
FINAL SINGLE POINT ENERGY      -349.257400853148

DIPOLE MOMENT
-------------
                                X             Y             Z
Electronic contribution:      0.00000       0.00000       0.00000
Nuclear contribution   :     -0.00000       0.00000       0.00000
                        -----------------------------------------
Total Dipole Moment    :      0.00000       0.00000       0.00000
                        -----------------------------------------
Magnitude (a.u.)       :      0.00000
Magnitude (Debye)      :      0.00000

Rotational constants in cm-1:     0.060880     0.060880     0.039106
Rotational constants in MHz :  1825.125221  1825.125218  1172.353717

                             ****ORCA TERMINATED NORMALLY****
TOTAL RUN TIME: 0 days 0 hours 11 minutes 33 seconds 391 msec
