                         Program Version 5.0.3 -  RELEASE  -
|  1> !ri-mp2 aug-cc-pvtz aug-cc-pvtz/c tightscf
|  2> %pal nprocs 16 end
|  3>
|  4> * xyz 0 1
|  5> C      0.000000    0.770224   -1.780388
|  6> C      0.000000   -0.770224   -1.780388
|  7> C     -0.597986    1.220604   -0.448931
|  8> C      0.597986   -1.220604   -0.448931
|  9> O     -1.137264   -0.551302    1.517439
| 10> O      1.137264    0.551302    1.517439
| 11> S      0.000000    0.000000    0.784354
| 12> H      1.022518    1.140282   -1.873334
| 13> H     -0.569407    1.169658   -2.618789
| 14> H     -1.022518   -1.140282   -1.873334
| 15> H      0.569407   -1.169658   -2.618789
| 16> H     -0.277102    2.202041   -0.111847
| 17> H     -1.683808    1.153218   -0.434458
| 18> H      0.277102   -2.202041   -0.111847
| 19> H      1.683808   -1.153218   -0.434458
| 20> *
| 21>
| 22>                          ****END OF INPUT****

CARTESIAN COORDINATES (ANGSTROEM)
---------------------------------
  C      0.000000    0.770224   -1.780388
  C      0.000000   -0.770224   -1.780388
  C     -0.597986    1.220604   -0.448931
  C      0.597986   -1.220604   -0.448931
  O     -1.137264   -0.551302    1.517439
  O      1.137264    0.551302    1.517439
  S      0.000000    0.000000    0.784354
  H      1.022518    1.140282   -1.873334
  H     -0.569407    1.169658   -2.618789
  H     -1.022518   -1.140282   -1.873334
  H      0.569407   -1.169658   -2.618789
  H     -0.277102    2.202041   -0.111847
  H     -1.683808    1.153218   -0.434458
  H      0.277102   -2.202041   -0.111847
  H      1.683808   -1.153218   -0.434458

 Total Charge           Charge          ....    0
 Multiplicity           Mult            ....    1
 Number of Electrons    NEL             ....   64
 Basis Dimension        Dim             ....  510

ORBITAL ENERGIES
----------------

  NO   OCC          E(Eh)            E(eV)
   0   2.0000     -92.171845     -2508.1234
   1   2.0000     -20.540011      -558.9221
   2   2.0000     -20.539990      -558.9215
   3   2.0000     -11.277960      -306.8889
   4   2.0000     -11.277943      -306.8884
   5   2.0000     -11.264749      -306.5294
   6   2.0000     -11.264163      -306.5135
   7   2.0000      -9.142293      -248.7744
   8   2.0000      -6.826701      -185.7640
   9   2.0000      -6.826183      -185.7499
  10   2.0000      -6.826061      -185.7466
  11   2.0000      -1.435558       -39.0635
  12   2.0000      -1.325496       -36.0686
  13   2.0000      -1.148971       -31.2651
  14   2.0000      -1.027191       -27.9513
  15   2.0000      -0.970762       -26.4158
  16   2.0000      -0.837494       -22.7894
  17   2.0000      -0.800988       -21.7960
  18   2.0000      -0.698989       -19.0205
  19   2.0000      -0.689739       -18.7688
  20   2.0000      -0.637800       -17.3554
  21   2.0000      -0.637497       -17.3472
  22   2.0000      -0.617865       -16.8129
  23   2.0000      -0.613506       -16.6943
  24   2.0000      -0.561094       -15.2682
  25   2.0000      -0.542007       -14.7487
  26   2.0000      -0.527276       -14.3479
  27   2.0000      -0.520896       -14.1743
  28   2.0000      -0.482742       -13.1361
  29   2.0000      -0.476310       -12.9610
  30   2.0000      -0.462637       -12.5890
  31   2.0000      -0.418620       -11.3912
  32   0.0000       0.020082         0.5465
  33   0.0000       0.031041         0.8447
  34   0.0000       0.034555         0.9403
  35   0.0000       0.040395         1.0992
  36   0.0000       0.054324         1.4782

MULLIKEN ATOMIC CHARGES
-----------------------
   0 C :   -0.496177
   1 C :   -0.496177
   2 C :   -0.556810
   3 C :   -0.556810
   4 O :   -1.012824
   5 O :   -1.012824
   6 S :    1.954777
   7 H :    0.237821
   8 H :    0.323739
   9 H :    0.237821
  10 H :    0.323739
  11 H :    0.327161
  12 H :    0.199701
  13 H :    0.327161
  14 H :    0.199701
Sum of atomic charges:    0.0000000

LOEWDIN ATOMIC CHARGES
----------------------
   0 C :    0.256813
   1 C :    0.256813
   2 C :    0.239069
   3 C :    0.239069
   4 O :    0.007300
   5 O :    0.007300
   6 S :    0.322446
   7 H :   -0.146603
   8 H :   -0.142757
   9 H :   -0.146603
  10 H :   -0.142757
  11 H :   -0.185641
  12 H :   -0.189404
  13 H :   -0.185641
  14 H :   -0.189404

  Mayer bond orders larger than 0.100000
B(  0-C ,  1-C ) :   0.9350 B(  0-C ,  2-C ) :   0.9303 B(  0-C ,  7-H ) :   0.9866
B(  0-C ,  8-H ) :   0.8974 B(  1-C ,  3-C ) :   0.9303 B(  1-C ,  9-H ) :   0.9866
B(  1-C , 10-H ) :   0.8974 B(  2-C ,  6-S ) :   0.9173 B(  2-C , 11-H ) :   0.8751
B(  2-C , 12-H ) :   0.9873 B(  3-C ,  6-S ) :   0.9173 B(  3-C , 13-H ) :   0.8751
B(  3-C , 14-H ) :   0.9873 B(  4-O ,  6-S ) :   1.1529 B(  5-O ,  6-S ) :   1.1529

MP2 TOTAL ENERGY:     -704.847679600 Eh
FINAL SINGLE POINT ENERGY      -704.847679600382

DIPOLE MOMENT
-------------
                                X             Y             Z
Electronic contribution:     -0.00000      -0.00000       7.68688
Nuclear contribution   :      0.00000       0.00000     -10.05578
                        -----------------------------------------
Total Dipole Moment    :     -0.00000      -0.00000      -2.36890
                        -----------------------------------------
Magnitude (a.u.)       :      2.36890
Magnitude (Debye)      :      6.02127

Rotational constants in cm-1:     0.123763     0.066542     0.061840
Rotational constants in MHz :  3710.317509  1994.893857  1853.910640

                             ****ORCA TERMINATED NORMALLY****
TOTAL RUN TIME: 0 days 0 hours 4 minutes 59 seconds 581 msec
