                         Program Version 5.0.3 -  RELEASE  -
|  1> !ri-mp2 aug-cc-pvtz aug-cc-pvtz/c tightscf
|  2> %pal nprocs 16 end
|  3> %maxcore 3800
|  4>
|  5> * xyz 0 1
|  6> N      2.144383    0.943689    1.387392
|  7> C      1.971739   -0.048913    0.317057
|  8> C      3.347538   -0.585408   -0.126533
|  9> O      3.499669   -1.288634   -1.089817
| 10> O      4.357944   -0.224123    0.675223
| 11> H      3.948061    0.342244    1.365987
| 12> C      1.161509    0.438981   -0.901876
| 13> C     -0.257433    0.783250   -0.580119
| 14> C     -0.805706    2.035533   -0.532908
| 15> N     -2.138822    1.958860   -0.185729
| 16> C     -2.481917    0.638427   -0.006198
| 17> C     -1.318044   -0.133672   -0.246754
| 18> C     -1.401983   -1.529651   -0.146912
| 19> C     -2.612554   -2.107991    0.190616
| 20> C     -3.751206   -1.320897    0.431315
| 21> C     -3.702578    0.059180    0.334532
| 22> H      1.461495   -0.911416    0.750748
| 23> H      1.667652    1.311632   -1.324861
| 24> H      1.212237   -0.340971   -1.662152
| 25> H     -0.349483    2.989906   -0.737807
| 26> H     -2.764965    2.739256   -0.115895
| 27> H     -0.538307   -2.151734   -0.341881
| 28> H     -2.688793   -3.183992    0.266850
| 29> H     -4.683614   -1.802505    0.692328
| 30> H     -4.582950    0.662376    0.513597
| 31> H      2.105789    1.887369    1.020285
| 32> H      1.416855    0.869019    2.084595
| 33> *
| 34>
| 35>                          ****END OF INPUT****

CARTESIAN COORDINATES (ANGSTROEM)
---------------------------------
  N      2.144383    0.943689    1.387392
  C      1.971739   -0.048913    0.317057
  C      3.347538   -0.585408   -0.126533
  O      3.499669   -1.288634   -1.089817
  O      4.357944   -0.224123    0.675223
  H      3.948061    0.342244    1.365987
  C      1.161509    0.438981   -0.901876
  C     -0.257433    0.783250   -0.580119
  C     -0.805706    2.035533   -0.532908
  N     -2.138822    1.958860   -0.185729
  C     -2.481917    0.638427   -0.006198
  C     -1.318044   -0.133672   -0.246754
  C     -1.401983   -1.529651   -0.146912
  C     -2.612554   -2.107991    0.190616
  C     -3.751206   -1.320897    0.431315
  C     -3.702578    0.059180    0.334532
  H      1.461495   -0.911416    0.750748
  H      1.667652    1.311632   -1.324861
  H      1.212237   -0.340971   -1.662152
  H     -0.349483    2.989906   -0.737807
  H     -2.764965    2.739256   -0.115895
  H     -0.538307   -2.151734   -0.341881
  H     -2.688793   -3.183992    0.266850
  H     -4.683614   -1.802505    0.692328
  H     -4.582950    0.662376    0.513597
  H      2.105789    1.887369    1.020285
  H      1.416855    0.869019    2.084595

 Total Charge           Charge          ....    0
 Multiplicity           Mult            ....    1
 Number of Electrons    NEL             ....  108
 Basis Dimension        Dim             ....  966

ORBITAL ENERGIES
----------------

  NO   OCC          E(Eh)            E(eV)
   0   2.0000     -20.592550      -560.3518
   1   2.0000     -20.532404      -558.7151
   2   2.0000     -15.613012      -424.8517
   3   2.0000     -15.578422      -423.9104
   4   2.0000     -11.371219      -309.4266
   5   2.0000     -11.290710      -307.2358
   6   2.0000     -11.279947      -306.9430
   7   2.0000     -11.277188      -306.8679
   8   2.0000     -11.245981      -306.0187
   9   2.0000     -11.240691      -305.8748
  10   2.0000     -11.240381      -305.8663
  11   2.0000     -11.238348      -305.8110
  12   2.0000     -11.236595      -305.7633
  13   2.0000     -11.235594      -305.7360
  14   2.0000     -11.229893      -305.5809
  15   2.0000      -1.447822       -39.3972
  16   2.0000      -1.352483       -36.8029
  17   2.0000      -1.308199       -35.5979
  18   2.0000      -1.219956       -33.1967
  19   2.0000      -1.143086       -31.1050
  20   2.0000      -1.093208       -29.7477
  21   2.0000      -1.024367       -27.8745
  22   2.0000      -1.007781       -27.4231
  23   2.0000      -0.985267       -26.8105
  24   2.0000      -0.904586       -24.6150
  25   2.0000      -0.854123       -23.2419
  26   2.0000      -0.819910       -22.3109
  27   2.0000      -0.801503       -21.8100
  28   2.0000      -0.773310       -21.0428
  29   2.0000      -0.737932       -20.0801
  30   2.0000      -0.733812       -19.9680
  31   2.0000      -0.689135       -18.7523
  32   2.0000      -0.675991       -18.3946
  33   2.0000      -0.664104       -18.0712
  34   2.0000      -0.656059       -17.8523
  35   2.0000      -0.628851       -17.1119
  36   2.0000      -0.613815       -16.7028
  37   2.0000      -0.611914       -16.6510
  38   2.0000      -0.606780       -16.5113
  39   2.0000      -0.600708       -16.3461
  40   2.0000      -0.589682       -16.0461
  41   2.0000      -0.568287       -15.4639
  42   2.0000      -0.553686       -15.0666
  43   2.0000      -0.536597       -14.6016
  44   2.0000      -0.530535       -14.4366
  45   2.0000      -0.508807       -13.8453
  46   2.0000      -0.487376       -13.2622
  47   2.0000      -0.477491       -12.9932
  48   2.0000      -0.464090       -12.6285
  49   2.0000      -0.461189       -12.5496
  50   2.0000      -0.420459       -11.4413
  51   2.0000      -0.388346       -10.5674
  52   2.0000      -0.312559        -8.5052
  53   2.0000      -0.294895        -8.0245
  54   0.0000       0.014959         0.4071
  55   0.0000       0.025412         0.6915
  56   0.0000       0.029160         0.7935
  57   0.0000       0.035681         0.9709
  58   0.0000       0.040401         1.0994

MULLIKEN ATOMIC CHARGES
-----------------------
   0 N :   -0.629434
   1 C :    0.599392
   2 C :    0.410404
   3 O :   -0.819402
   4 O :   -0.573065
   5 H :    0.254643
   6 C :   -0.289684
   7 C :    0.093465
   8 C :   -0.910134
   9 N :   -0.222142
  10 C :   -0.508857
  11 C :    2.340918
  12 C :   -0.711105
  13 C :   -0.709466
  14 C :   -0.301720
  15 C :   -1.101618
  16 H :    0.407441
  17 H :    0.269744
  18 H :    0.158427
  19 H :    0.698906
  20 H :   -0.008949
  21 H :   -0.110137
  22 H :    0.556992
  23 H :    0.538279
  24 H :    0.395768
  25 H :    0.105253
  26 H :    0.066080
Sum of atomic charges:   -0.0000000

LOEWDIN ATOMIC CHARGES
----------------------
   0 N :    0.875385
   1 C :   -0.098594
   2 C :   -0.769866
   3 O :    0.439411
   4 O :    0.840275
   5 H :   -0.592757
   6 C :    0.290535
   7 C :   -0.081881
   8 C :    0.171123
   9 N :    0.551596
  10 C :   -0.213725
  11 C :   -0.100784
  12 C :    0.232244
  13 C :    0.194269
  14 C :    0.188372
  15 C :    0.240049
  16 H :   -0.140994
  17 H :   -0.141659
  18 H :   -0.156600
  19 H :   -0.158159
  20 H :   -0.249420
  21 H :   -0.176012
  22 H :   -0.192646
  23 H :   -0.188844
  24 H :   -0.181492
  25 H :   -0.292317
  26 H :   -0.287508

  Mayer bond orders larger than 0.100000
B(  0-N ,  1-C ) :   0.4936 B(  0-N ,  2-C ) :   0.1601 B(  0-N ,  5-H ) :   0.1138
B(  0-N , 25-H ) :   0.9775 B(  0-N , 26-H ) :   1.0517 B(  1-C ,  2-C ) :   0.5559
B(  1-C ,  4-O ) :   0.1097 B(  1-C ,  6-C ) :   0.9515 B(  1-C , 16-H ) :   0.8992
B(  2-C ,  3-O ) :   1.3786 B(  2-C ,  4-O ) :   0.7323 B(  2-C , 16-H ) :  -0.1150
B(  3-O , 18-H ) :   0.1283 B(  4-O ,  5-H ) :   0.8559 B(  6-C ,  7-C ) :   0.8181
B(  6-C ,  8-C ) :  -0.1584 B(  6-C , 12-C ) :  -0.1307 B(  6-C , 17-H ) :   1.0003
B(  6-C , 18-H ) :   1.0981 B(  7-C ,  8-C ) :   0.3413 B(  7-C ,  9-N ) :  -0.2019
B(  7-C , 10-C ) :   0.8724 B(  7-C , 11-C ) :   0.9213 B(  7-C , 12-C ) :  -0.2154
B(  7-C , 13-C ) :   0.4049 B(  7-C , 15-C ) :   0.3165 B(  7-C , 19-H ) :   0.1486
B(  7-C , 21-H ) :  -0.2282 B(  7-C , 23-H ) :   0.1047 B(  7-C , 24-H ) :  -0.1858
B(  8-C ,  9-N ) :   1.0335 B(  8-C , 10-C ) :   0.2608 B(  8-C , 11-C ) :  -0.1750
B(  8-C , 12-C ) :   0.1483 B(  8-C , 15-C ) :  -0.1178 B(  8-C , 19-H ) :   0.2962
B(  8-C , 21-H ) :  -0.1456 B(  8-C , 22-H ) :   0.1919 B(  8-C , 23-H ) :  -0.1720
B(  8-C , 24-H ) :   0.1508 B(  9-N , 10-C ) :   0.7920 B(  9-N , 11-C ) :  -0.5327
B(  9-N , 12-C ) :   0.1441 B(  9-N , 20-H ) :   1.3107 B( 10-C , 11-C ) :  -0.8193
B( 10-C , 12-C ) :  -1.0049 B( 10-C , 13-C ) :   0.3515 B( 10-C , 14-C ) :  -0.3838
B( 10-C , 15-C ) :   0.8039 B( 10-C , 21-H ) :   0.3449 B( 10-C , 22-H ) :  -0.1364
B( 10-C , 23-H ) :   0.3449 B( 10-C , 24-H ) :  -0.2309 B( 11-C , 12-C ) :   0.9336
B( 11-C , 13-C ) :  -0.4024 B( 11-C , 14-C ) :   0.1971 B( 11-C , 15-C ) :  -0.1364
B( 11-C , 21-H ) :  -0.2667 B( 11-C , 22-H ) :  -0.1004 B( 11-C , 24-H ) :   0.2267
B( 12-C , 13-C ) :   1.2905 B( 12-C , 14-C ) :  -0.1303 B( 12-C , 21-H ) :   2.0276
B( 13-C , 14-C ) :   1.1522 B( 13-C , 15-C ) :   0.1379 B( 13-C , 22-H ) :   0.5936
B( 13-C , 23-H ) :  -0.2127 B( 14-C , 15-C ) :   1.3398 B( 14-C , 23-H ) :   0.5893
B( 15-C , 23-H ) :  -0.1816 B( 15-C , 24-H ) :   0.9008

MP2 TOTAL ENERGY:     -685.111090887 Eh
FINAL SINGLE POINT ENERGY      -685.111090886517

DIPOLE MOMENT
-------------
                                X             Y             Z
Electronic contribution:      1.73519      -0.46141      -1.50926
Nuclear contribution   :     -3.64700       2.38792       2.49512
                        -----------------------------------------
Total Dipole Moment    :     -1.91181       1.92651       0.98586
                        -----------------------------------------
Magnitude (a.u.)       :      2.88762
Magnitude (Debye)      :      7.33976

Rotational constants in cm-1:     0.042335     0.010896     0.009563
Rotational constants in MHz :  1269.172289   326.646243   286.684196

                             ****ORCA TERMINATED NORMALLY****
TOTAL RUN TIME: 0 days 0 hours 40 minutes 1 seconds 108 msec
