                         Program Version 5.0.3 -  RELEASE  -
|  1> !ri-mp2 aug-cc-pvtz aug-cc-pvtz/c tightscf
|  2> %pal nprocs 16 end
|  3>
|  4> * xyz 0 1
|  5> C      0.001401    0.023882    0.000000
|  6> O     -1.039480    0.879467    0.000000
|  7> F      1.127698    0.728595    0.000000
|  8> F      0.001401   -0.784388    1.081319
|  9> F      0.001401   -0.784388   -1.081319
| 10> H     -1.867070    0.382602    0.000000
| 11> *
| 12>
| 13>                          ****END OF INPUT****

CARTESIAN COORDINATES (ANGSTROEM)
---------------------------------
  C      0.001401    0.023882    0.000000
  O     -1.039480    0.879467    0.000000
  F      1.127698    0.728595    0.000000
  F      0.001401   -0.784388    1.081319
  F      0.001401   -0.784388   -1.081319
  H     -1.867070    0.382602    0.000000

 Total Charge           Charge          ....    0
 Multiplicity           Mult            ....    1
 Number of Electrons    NEL             ....   42
 Basis Dimension        Dim             ....  253

ORBITAL ENERGIES
----------------

  NO   OCC          E(Eh)            E(eV)
   0   2.0000     -26.355356      -717.1657
   1   2.0000     -26.351696      -717.0661
   2   2.0000     -26.351672      -717.0655
   3   2.0000     -20.640457      -561.6554
   4   2.0000     -11.572034      -314.8911
   5   2.0000      -1.750706       -47.6391
   6   2.0000      -1.653006       -44.9806
   7   2.0000      -1.645646       -44.7803
   8   2.0000      -1.460127       -39.7321
   9   2.0000      -0.979399       -26.6508
  10   2.0000      -0.869340       -23.6559
  11   2.0000      -0.846956       -23.0468
  12   2.0000      -0.838592       -22.8192
  13   2.0000      -0.735980       -20.0270
  14   2.0000      -0.726245       -19.7621
  15   2.0000      -0.697497       -18.9799
  16   2.0000      -0.675568       -18.3831
  17   2.0000      -0.675374       -18.3779
  18   2.0000      -0.662047       -18.0152
  19   2.0000      -0.627152       -17.0657
  20   2.0000      -0.576792       -15.6953
  21   0.0000       0.024519         0.6672
  22   0.0000       0.076820         2.0904
  23   0.0000       0.078239         2.1290
  24   0.0000       0.078561         2.1378
  25   0.0000       0.114415         3.1134

MULLIKEN ATOMIC CHARGES
-----------------------
   0 C :    1.214031
   1 O :   -0.404192
   2 F :   -0.308277
   3 F :   -0.353086
   4 F :   -0.353086
   5 H :    0.204610
Sum of atomic charges:   -0.0000000

LOEWDIN ATOMIC CHARGES
----------------------
   0 C :   -1.776060
   1 O :    0.803715
   2 F :    0.496761
   3 F :    0.469377
   4 F :    0.469377
   5 H :   -0.463169

  Mayer bond orders larger than 0.100000
B(  0-C ,  1-O ) :   1.0369 B(  0-C ,  2-F ) :   0.9027 B(  0-C ,  3-F ) :   0.8280
B(  0-C ,  4-F ) :   0.8280 B(  1-O ,  5-H ) :   0.9536

MP2 TOTAL ENERGY:     -412.991117507 Eh
FINAL SINGLE POINT ENERGY      -412.991117506670

DIPOLE MOMENT
-------------
                                X             Y             Z
Electronic contribution:      1.92629      -1.23185      -0.00000
Nuclear contribution   :     -2.75114       1.12453       0.00000
                        -----------------------------------------
Total Dipole Moment    :     -0.82486      -0.10732      -0.00000
                        -----------------------------------------
Magnitude (a.u.)       :      0.83181
Magnitude (Debye)      :      2.11429

Rotational constants in cm-1:     0.188934     0.186353     0.185591
Rotational constants in MHz :  5664.092526  5586.733866  5563.887995

                             ****ORCA TERMINATED NORMALLY****
TOTAL RUN TIME: 0 days 0 hours 0 minutes 39 seconds 685 msec
