                         Program Version 5.0.3 -  RELEASE  -
|  1> !ri-mp2 aug-cc-pvtz aug-cc-pvtz/c tightscf
|  2> %pal nprocs 16 end
|  3> %maxcore 3800
|  4>
|  5> * xyz 0 1
|  6> C    -0.225728     0.731655    2.543314
|  7> C     0.225728    -0.731655    2.543314
|  8> C     0.225728     1.456661    1.272775
|  9> C    -0.225728    -1.456661    1.272775
| 10> C    -0.231499     0.735086    0.000000
| 11> C     0.231499    -0.735086    0.000000
| 12> C     0.225728     1.456661   -1.272775
| 13> C    -0.225728     0.731655   -2.543314
| 14> C     0.225728    -0.731655   -2.543314
| 15> C    -0.225728    -1.456661   -1.272775
| 16> H     0.156998     1.245982   -3.427820
| 17> H    -0.156998    -1.245982    3.427820
| 18> H     0.150668    -2.483241   -1.270085
| 19> H    -0.156998    -1.245982   -3.427820
| 20> H     1.318123    -0.770907   -2.610688
| 21> H    -0.150668     2.483241    1.270085
| 22> H     0.156998     1.245982    3.427820
| 23> H    -0.150668     2.483241   -1.270085
| 24> H     0.150668    -2.483241    1.270085
| 25> H    -1.318123     0.770907    2.610688
| 26> H     1.319276     1.529769   -1.266570
| 27> H     1.319276     1.529769    1.266570
| 28> H     1.318123    -0.770907    2.610688
| 29> H    -1.318123     0.770907   -2.610688
| 30> H    -1.319276    -1.529769    1.266570
| 31> H    -1.319276    -1.529769   -1.266570
| 32> H    -1.330699     0.726592    0.000000
| 33> H     1.330699    -0.726592    0.000000
| 34> *
| 35>
| 36>                          ****END OF INPUT****

CARTESIAN COORDINATES (ANGSTROEM)
---------------------------------
  C     -0.225728    0.731655    2.543314
  C      0.225728   -0.731655    2.543314
  C      0.225728    1.456661    1.272775
  C     -0.225728   -1.456661    1.272775
  C     -0.231499    0.735086    0.000000
  C      0.231499   -0.735086    0.000000
  C      0.225728    1.456661   -1.272775
  C     -0.225728    0.731655   -2.543314
  C      0.225728   -0.731655   -2.543314
  C     -0.225728   -1.456661   -1.272775
  H      0.156998    1.245982   -3.427820
  H     -0.156998   -1.245982    3.427820
  H      0.150668   -2.483241   -1.270085
  H     -0.156998   -1.245982   -3.427820
  H      1.318123   -0.770907   -2.610688
  H     -0.150668    2.483241    1.270085
  H      0.156998    1.245982    3.427820
  H     -0.150668    2.483241   -1.270085
  H      0.150668   -2.483241    1.270085
  H     -1.318123    0.770907    2.610688
  H      1.319276    1.529769   -1.266570
  H      1.319276    1.529769    1.266570
  H      1.318123   -0.770907    2.610688
  H     -1.318123    0.770907   -2.610688
  H     -1.319276   -1.529769    1.266570
  H     -1.319276   -1.529769   -1.266570
  H     -1.330699    0.726592    0.000000
  H      1.330699   -0.726592    0.000000

 Total Charge           Charge          ....    0
 Multiplicity           Mult            ....    1
 Number of Electrons    NEL             ....   78
 Basis Dimension        Dim             ....  874

ORBITAL ENERGIES
----------------

  NO   OCC          E(Eh)            E(eV)
   0   2.0000     -11.214238      -305.1549
   1   2.0000     -11.213653      -305.1390
   2   2.0000     -11.211377      -305.0771
   3   2.0000     -11.211375      -305.0770
   4   2.0000     -11.210799      -305.0613
   5   2.0000     -11.210795      -305.0612
   6   2.0000     -11.209523      -305.0266
   7   2.0000     -11.209502      -305.0260
   8   2.0000     -11.209477      -305.0254
   9   2.0000     -11.209444      -305.0245
  10   2.0000      -1.133900       -30.8550
  11   2.0000      -1.071558       -29.1586
  12   2.0000      -1.026253       -27.9258
  13   2.0000      -0.991085       -26.9688
  14   2.0000      -0.960028       -26.1237
  15   2.0000      -0.852335       -23.1932
  16   2.0000      -0.821511       -22.3544
  17   2.0000      -0.805180       -21.9101
  18   2.0000      -0.755825       -20.5670
  19   2.0000      -0.749592       -20.3974
  20   2.0000      -0.633958       -17.2509
  21   2.0000      -0.625179       -17.0120
  22   2.0000      -0.613867       -16.7042
  23   2.0000      -0.592591       -16.1252
  24   2.0000      -0.590319       -16.0634
  25   2.0000      -0.580053       -15.7841
  26   2.0000      -0.564736       -15.3672
  27   2.0000      -0.519560       -14.1380
  28   2.0000      -0.512673       -13.9505
  29   2.0000      -0.495718       -13.4892
  30   2.0000      -0.493597       -13.4315
  31   2.0000      -0.486981       -13.2514
  32   2.0000      -0.474638       -12.9156
  33   2.0000      -0.463731       -12.6188
  34   2.0000      -0.457560       -12.4509
  35   2.0000      -0.449075       -12.2200
  36   2.0000      -0.441470       -12.0130
  37   2.0000      -0.405394       -11.0313
  38   2.0000      -0.400532       -10.8990
  39   0.0000       0.030292         0.8243
  40   0.0000       0.031805         0.8655
  41   0.0000       0.033127         0.9014
  42   0.0000       0.034339         0.9344
  43   0.0000       0.044472         1.2101

MULLIKEN ATOMIC CHARGES
-----------------------
   0 C :   -0.550733
   1 C :   -0.550726
   2 C :   -0.879927
   3 C :   -0.879926
   4 C :    0.626273
   5 C :    0.626271
   6 C :   -0.879927
   7 C :   -0.550727
   8 C :   -0.550731
   9 C :   -0.879924
  10 H :    0.323805
  11 H :    0.323806
  12 H :    0.327006
  13 H :    0.323809
  14 H :    0.088537
  15 H :    0.327008
  16 H :    0.323806
  17 H :    0.327003
  18 H :    0.327002
  19 H :    0.088538
  20 H :    0.133211
  21 H :    0.133209
  22 H :    0.088538
  23 H :    0.088539
  24 H :    0.133210
  25 H :    0.133207
  26 H :    0.489921
  27 H :    0.489921
Sum of atomic charges:    0.0000000

LOEWDIN ATOMIC CHARGES
----------------------
   0 C :    0.299866
   1 C :    0.299866
   2 C :    0.306387
   3 C :    0.306387
   4 C :    0.006349
   5 C :    0.006349
   6 C :    0.306387
   7 C :    0.299866
   8 C :    0.299866
   9 C :    0.306387
  10 H :   -0.142319
  11 H :   -0.142319
  12 H :   -0.135686
  13 H :   -0.142319
  14 H :   -0.140009
  15 H :   -0.135686
  16 H :   -0.142319
  17 H :   -0.135686
  18 H :   -0.135686
  19 H :   -0.140009
  20 H :   -0.133362
  21 H :   -0.133362
  22 H :   -0.140009
  23 H :   -0.140009
  24 H :   -0.133362
  25 H :   -0.133362
  26 H :   -0.116102
  27 H :   -0.116102

  Mayer bond orders larger than 0.100000
B(  0-C ,  1-C ) :   0.8580 B(  0-C ,  2-C ) :   0.9814 B(  0-C , 16-H ) :   0.9145
B(  0-C , 19-H ) :   1.1214 B(  1-C ,  3-C ) :   0.9814 B(  1-C , 11-H ) :   0.9145
B(  1-C , 22-H ) :   1.1214 B(  2-C ,  4-C ) :   0.6334 B(  2-C , 15-H ) :   0.8996
B(  2-C , 21-H ) :   1.1376 B(  3-C ,  5-C ) :   0.6334 B(  3-C , 18-H ) :   0.8996
B(  3-C , 24-H ) :   1.1376 B(  4-C ,  5-C ) :   0.9022 B(  4-C ,  6-C ) :   0.6334
B(  4-C , 26-H ) :   0.7445 B(  5-C ,  9-C ) :   0.6334 B(  5-C , 27-H ) :   0.7445
B(  6-C ,  7-C ) :   0.9814 B(  6-C , 17-H ) :   0.8996 B(  6-C , 20-H ) :   1.1376
B(  7-C ,  8-C ) :   0.8580 B(  7-C , 10-H ) :   0.9145 B(  7-C , 23-H ) :   1.1214
B(  8-C ,  9-C ) :   0.9814 B(  8-C , 13-H ) :   0.9145 B(  8-C , 14-H ) :   1.1214
B(  9-C , 12-H ) :   0.8996 B(  9-C , 25-H ) :   1.1376

MP2 TOTAL ENERGY:     -391.066433658 Eh
FINAL SINGLE POINT ENERGY      -391.066433658300

DIPOLE MOMENT
-------------
                                X             Y             Z
Electronic contribution:     -0.00000      -0.00000       0.00000
Nuclear contribution   :      0.00000       0.00000       0.00000
                        -----------------------------------------
Total Dipole Moment    :     -0.00000      -0.00000       0.00000
                        -----------------------------------------
Magnitude (a.u.)       :      0.00000
Magnitude (Debye)      :      0.00000

Rotational constants in cm-1:     0.080802     0.033700     0.025493
Rotational constants in MHz :  2422.394258  1010.292934   764.274807

                             ****ORCA TERMINATED NORMALLY****
TOTAL RUN TIME: 0 days 0 hours 24 minutes 41 seconds 801 msec
