                         Program Version 5.0.3 -  RELEASE  -
|  1> !ri-mp2 aug-cc-pvtz aug-cc-pvtz/c tightscf
|  2> %pal nprocs 16 end
|  3>
|  4> * xyz 0 1
|  5> C      0.244705    0.078242    1.082742
|  6> C      0.244705    0.078242   -1.082742
|  7> C      0.834997   -0.869296    0.000000
|  8> C     -0.656207    0.731128    0.000000
|  9> C      0.244705   -2.272702    0.000000
| 10> C     -0.820584    2.239722    0.000000
| 11> H     -0.252168   -0.391852    1.932537
| 12> H      0.988396    0.780747    1.462896
| 13> H     -0.252168   -0.391852   -1.932537
| 14> H      0.988396    0.780747   -1.462896
| 15> H      1.923688   -0.935418    0.000000
| 16> H     -1.640735    0.259122    0.000000
| 17> H     -0.847355   -2.246577    0.000000
| 18> H      0.151583    2.738338    0.000000
| 19> H      0.561618   -2.832501   -0.882519
| 20> H      0.561618   -2.832501    0.882519
| 21> H     -1.368402    2.579864   -0.881781
| 22> H     -1.368402    2.579864    0.881781
| 23> *
| 24>
| 25>                          ****END OF INPUT****

CARTESIAN COORDINATES (ANGSTROEM)
---------------------------------
  C      0.244705    0.078242    1.082742
  C      0.244705    0.078242   -1.082742
  C      0.834997   -0.869296    0.000000
  C     -0.656207    0.731128    0.000000
  C      0.244705   -2.272702    0.000000
  C     -0.820584    2.239722    0.000000
  H     -0.252168   -0.391852    1.932537
  H      0.988396    0.780747    1.462896
  H     -0.252168   -0.391852   -1.932537
  H      0.988396    0.780747   -1.462896
  H      1.923688   -0.935418    0.000000
  H     -1.640735    0.259122    0.000000
  H     -0.847355   -2.246577    0.000000
  H      0.151583    2.738338    0.000000
  H      0.561618   -2.832501   -0.882519
  H      0.561618   -2.832501    0.882519
  H     -1.368402    2.579864   -0.881781
  H     -1.368402    2.579864    0.881781

 Total Charge           Charge          ....    0
 Multiplicity           Mult            ....    1
 Number of Electrons    NEL             ....   48
 Basis Dimension        Dim             ....  552

ORBITAL ENERGIES
----------------

  NO   OCC          E(Eh)            E(eV)
   0   2.0000     -11.220110      -305.3147
   1   2.0000     -11.219826      -305.3070
   2   2.0000     -11.210140      -305.0434
   3   2.0000     -11.210107      -305.0425
   4   2.0000     -11.208943      -305.0108
   5   2.0000     -11.208016      -304.9856
   6   2.0000      -1.132154       -30.8075
   7   2.0000      -1.002742       -27.2860
   8   2.0000      -0.931249       -25.3406
   9   2.0000      -0.893105       -24.3026
  10   2.0000      -0.808267       -21.9941
  11   2.0000      -0.721086       -19.6217
  12   2.0000      -0.640700       -17.4343
  13   2.0000      -0.632725       -17.2173
  14   2.0000      -0.582347       -15.8465
  15   2.0000      -0.554639       -15.0925
  16   2.0000      -0.549354       -14.9487
  17   2.0000      -0.532736       -14.4965
  18   2.0000      -0.526516       -14.3272
  19   2.0000      -0.496101       -13.4996
  20   2.0000      -0.446355       -12.1459
  21   2.0000      -0.443112       -12.0577
  22   2.0000      -0.419744       -11.4218
  23   2.0000      -0.412383       -11.2215
  24   0.0000       0.030604         0.8328
  25   0.0000       0.035037         0.9534
  26   0.0000       0.037580         1.0226
  27   0.0000       0.038034         1.0350
  28   0.0000       0.051524         1.4020

MULLIKEN ATOMIC CHARGES
-----------------------
   0 C :   -0.947201
   1 C :   -0.947201
   2 C :   -0.057186
   3 C :    0.295086
   4 C :   -0.946623
   5 C :   -0.994851
   6 H :    0.349088
   7 H :    0.207566
   8 H :    0.349088
   9 H :    0.207566
  10 H :    0.514262
  11 H :    0.421627
  12 H :    0.292220
  13 H :    0.300967
  14 H :    0.241859
  15 H :    0.241859
  16 H :    0.235937
  17 H :    0.235937
Sum of atomic charges:   -0.0000000

LOEWDIN ATOMIC CHARGES
----------------------
   0 C :    0.341213
   1 C :    0.341213
   2 C :    0.004532
   3 C :   -0.006776
   4 C :    0.583750
   5 C :    0.591669
   6 H :   -0.142751
   7 H :   -0.147398
   8 H :   -0.142751
   9 H :   -0.147398
  10 H :   -0.135780
  11 H :   -0.135474
  12 H :   -0.165937
  13 H :   -0.172003
  14 H :   -0.165846
  15 H :   -0.165846
  16 H :   -0.167208
  17 H :   -0.167208

  Mayer bond orders larger than 0.100000
B(  0-C ,  1-C ) :   0.1071 B(  0-C ,  2-C ) :   1.1608 B(  0-C ,  3-C ) :   0.9933
B(  0-C ,  6-H ) :   0.8387 B(  0-C ,  7-H ) :   1.0235 B(  1-C ,  2-C ) :   1.1608
B(  1-C ,  3-C ) :   0.9933 B(  1-C ,  8-H ) :   0.8387 B(  1-C ,  9-H ) :   1.0235
B(  2-C ,  3-C ) :  -0.3243 B(  2-C ,  4-C ) :   0.6797 B(  2-C , 10-H ) :   0.6468
B(  3-C ,  5-C ) :   0.6349 B(  3-C , 11-H ) :   0.7456 B(  4-C , 12-H ) :   0.9549
B(  4-C , 14-H ) :   1.0108 B(  4-C , 15-H ) :   1.0108 B(  5-C , 13-H ) :   0.9484
B(  5-C , 16-H ) :   1.0460 B(  5-C , 17-H ) :   1.0460

MP2 TOTAL ENERGY:     -235.309530570 Eh
FINAL SINGLE POINT ENERGY      -235.309530569614

DIPOLE MOMENT
-------------
                                X             Y             Z
Electronic contribution:      0.59227      -0.10174       0.00000
Nuclear contribution   :     -0.59332       0.09424       0.00000
                        -----------------------------------------
Total Dipole Moment    :     -0.00105      -0.00750       0.00000
                        -----------------------------------------
Magnitude (a.u.)       :      0.00758
Magnitude (Debye)      :      0.01926

Rotational constants in cm-1:     0.261922     0.076574     0.069639
Rotational constants in MHz :  7852.218461  2295.635257  2087.720191

                             ****ORCA TERMINATED NORMALLY****
TOTAL RUN TIME: 0 days 0 hours 5 minutes 19 seconds 920 msec
