                         Program Version 5.0.3 -  RELEASE  -
|  1> !ri-mp2 aug-cc-pvtz aug-cc-pvtz/c tightscf
|  2> %pal nprocs 16 end
|  3>
|  4> * xyz 0 1
|  5> C     0.000000    0.000000     0.251893
|  6> F     0.000000    0.000000     1.591574
|  7> Cl    0.000000    1.691025    -0.310500
|  8> Cl    1.464470   -0.845512    -0.310500
|  9> Cl   -1.464470   -0.845512    -0.310500
| 10> *
| 11>
| 12>                          ****END OF INPUT****

CARTESIAN COORDINATES (ANGSTROEM)
---------------------------------
  C      0.000000    0.000000    0.251893
  F      0.000000    0.000000    1.591574
  Cl     0.000000    1.691025   -0.310500
  Cl     1.464470   -0.845512   -0.310500
  Cl    -1.464470   -0.845512   -0.310500

 Total Charge           Charge          ....    0
 Multiplicity           Mult            ....    1
 Number of Electrons    NEL             ....   66
 Basis Dimension        Dim             ....  242

ORBITAL ENERGIES
----------------

  NO   OCC          E(Eh)            E(eV)
   0   2.0000    -104.881703     -2853.9762
   1   2.0000    -104.881703     -2853.9762
   2   2.0000    -104.881702     -2853.9762
   3   2.0000     -26.366569      -717.4708
   4   2.0000     -11.533120      -313.8322
   5   2.0000     -10.605879      -288.6006
   6   2.0000     -10.605879      -288.6006
   7   2.0000     -10.605864      -288.6002
   8   2.0000      -8.072636      -219.6676
   9   2.0000      -8.072636      -219.6676
  10   2.0000      -8.072635      -219.6676
  11   2.0000      -8.070426      -219.6075
  12   2.0000      -8.070426      -219.6075
  13   2.0000      -8.070424      -219.6074
  14   2.0000      -8.070408      -219.6070
  15   2.0000      -8.070407      -219.6069
  16   2.0000      -8.070407      -219.6069
  17   2.0000      -1.695028       -46.1240
  18   2.0000      -1.237813       -33.6826
  19   2.0000      -1.132051       -30.8047
  20   2.0000      -1.132051       -30.8047
  21   2.0000      -0.901314       -24.5260
  22   2.0000      -0.765730       -20.8366
  23   2.0000      -0.765730       -20.8366
  24   2.0000      -0.740359       -20.1462
  25   2.0000      -0.604883       -16.4597
  26   2.0000      -0.604883       -16.4597
  27   2.0000      -0.524617       -14.2756
  28   2.0000      -0.511019       -13.9055
  29   2.0000      -0.511019       -13.9055
  30   2.0000      -0.479224       -13.0403
  31   2.0000      -0.479224       -13.0403
  32   2.0000      -0.465154       -12.6575
  33   0.0000       0.050581         1.3764
  34   0.0000       0.068700         1.8694
  35   0.0000       0.068700         1.8694
  36   0.0000       0.085028         2.3137
  37   0.0000       0.090528         2.4634

MULLIKEN ATOMIC CHARGES
-----------------------
   0 C :    0.699627
   1 F :   -0.351851
   2 Cl:   -0.115925
   3 Cl:   -0.115925
   4 Cl:   -0.115925
Sum of atomic charges:    0.0000000

LOEWDIN ATOMIC CHARGES
----------------------
   0 C :   -2.610231
   1 F :    0.313012
   2 Cl:    0.765739
   3 Cl:    0.765740
   4 Cl:    0.765740

  Mayer bond orders larger than 0.100000
B(  0-C ,  1-F ) :   0.7460 B(  0-C ,  2-Cl) :   0.9786 B(  0-C ,  3-Cl) :   0.9786
B(  0-C ,  4-Cl) :   0.9786

MP2 TOTAL ENERGY:    -1516.892734606 Eh
FINAL SINGLE POINT ENERGY     -1516.892734606426

DIPOLE MOMENT
-------------
                                X             Y             Z
Electronic contribution:      0.00000      -0.00000       0.02423
Nuclear contribution   :      0.00000      -0.00000      -0.21581
                        -----------------------------------------
Total Dipole Moment    :      0.00000      -0.00000      -0.19158
                        -----------------------------------------
Magnitude (a.u.)       :      0.19158
Magnitude (Debye)      :      0.48695

Rotational constants in cm-1:     0.079815     0.079815     0.055427
Rotational constants in MHz :  2392.783022  2392.782270  1661.665367

                             ****ORCA TERMINATED NORMALLY****
TOTAL RUN TIME: 0 days 0 hours 0 minutes 44 seconds 196 msec
