                         Program Version 5.0.3 -  RELEASE  -
|  1> !ri-mp2 aug-cc-pvtz aug-cc-pvtz/c tightscf
|  2> %pal nprocs 16 end
|  3> %maxcore 3800
|  4>
|  5> * xyz 0 1
|  6> C      0.303046    2.442712   -0.429029
|  7> C     -2.266973   -0.958910   -0.429029
|  8> C      1.963927   -1.483802   -0.429029
|  9> C     -0.336477    1.361557    0.436145
| 10> C     -1.010905   -0.972176    0.436145
| 11> C      1.347381   -0.389381    0.436145
| 12> N      0.000000    0.000000    0.013396
| 13> H      1.392234    2.405845   -0.399061
| 14> H     -0.007763    2.331357   -1.467880
| 15> H      0.000000    3.431615   -0.080419
| 16> H     -2.779640    0.002788   -0.399061
| 17> H     -2.015133   -1.172401   -1.467880
| 18> H     -2.971866   -1.715807   -0.080419
| 19> H      1.387406   -2.408633   -0.399061
| 20> H      2.022896   -1.158955   -1.467880
| 21> H      2.971866   -1.715807   -0.080419
| 22> H     -1.418618    1.473387    0.378135
| 23> H     -0.069001    1.520307    1.495273
| 24> H     -0.566682   -1.965253    0.378135
| 25> H     -1.282124   -0.819910    1.495273
| 26> H      1.985300    0.491866    0.378135
| 27> H      1.351125   -0.700397    1.495273
| 28> *
| 29>
| 30>                          ****END OF INPUT****

CARTESIAN COORDINATES (ANGSTROEM)
---------------------------------
  C      0.303046    2.442712   -0.429029
  C     -2.266973   -0.958910   -0.429029
  C      1.963927   -1.483802   -0.429029
  C     -0.336477    1.361557    0.436145
  C     -1.010905   -0.972176    0.436145
  C      1.347381   -0.389381    0.436145
  N      0.000000    0.000000    0.013396
  H      1.392234    2.405845   -0.399061
  H     -0.007763    2.331357   -1.467880
  H      0.000000    3.431615   -0.080419
  H     -2.779640    0.002788   -0.399061
  H     -2.015133   -1.172401   -1.467880
  H     -2.971866   -1.715807   -0.080419
  H      1.387406   -2.408633   -0.399061
  H      2.022896   -1.158955   -1.467880
  H      2.971866   -1.715807   -0.080419
  H     -1.418618    1.473387    0.378135
  H     -0.069001    1.520307    1.495273
  H     -0.566682   -1.965253    0.378135
  H     -1.282124   -0.819910    1.495273
  H      1.985300    0.491866    0.378135
  H      1.351125   -0.700397    1.495273

 Total Charge           Charge          ....    0
 Multiplicity           Mult            ....    1
 Number of Electrons    NEL             ....   58
 Basis Dimension        Dim             ....  667

ORBITAL ENERGIES
----------------

  NO   OCC          E(Eh)            E(eV)
   0   2.0000     -15.538095      -422.8130
   1   2.0000     -11.242715      -305.9298
   2   2.0000     -11.242715      -305.9298
   3   2.0000     -11.242694      -305.9293
   4   2.0000     -11.207812      -304.9801
   5   2.0000     -11.207812      -304.9801
   6   2.0000     -11.207812      -304.9801
   7   2.0000      -1.220895       -33.2223
   8   2.0000      -1.021961       -27.8090
   9   2.0000      -1.021961       -27.8090
  10   2.0000      -0.955277       -25.9944
  11   2.0000      -0.844303       -22.9747
  12   2.0000      -0.844303       -22.9746
  13   2.0000      -0.769221       -20.9316
  14   2.0000      -0.642962       -17.4959
  15   2.0000      -0.642962       -17.4959
  16   2.0000      -0.621300       -16.9064
  17   2.0000      -0.590841       -16.0776
  18   2.0000      -0.590841       -16.0776
  19   2.0000      -0.548184       -14.9169
  20   2.0000      -0.531428       -14.4609
  21   2.0000      -0.517935       -14.0937
  22   2.0000      -0.517934       -14.0937
  23   2.0000      -0.493582       -13.4311
  24   2.0000      -0.491941       -13.3864
  25   2.0000      -0.491940       -13.3864
  26   2.0000      -0.460208       -12.5229
  27   2.0000      -0.460208       -12.5229
  28   2.0000      -0.346691        -9.4339
  29   0.0000       0.031295         0.8516
  30   0.0000       0.035722         0.9720
  31   0.0000       0.035722         0.9720
  32   0.0000       0.036727         0.9994
  33   0.0000       0.051110         1.3908

MULLIKEN ATOMIC CHARGES
-----------------------
   0 C :   -0.962605
   1 C :   -0.962619
   2 C :   -0.962615
   3 C :   -0.549453
   4 C :   -0.549446
   5 C :   -0.549439
   6 N :    0.136823
   7 H :    0.291585
   8 H :    0.255333
   9 H :    0.242626
  10 H :    0.291582
  11 H :    0.255330
  12 H :    0.242631
  13 H :    0.291583
  14 H :    0.255331
  15 H :    0.242629
  16 H :    0.432415
  17 H :    0.244491
  18 H :    0.432417
  19 H :    0.244494
  20 H :    0.432416
  21 H :    0.244492
Sum of atomic charges:    0.0000000

LOEWDIN ATOMIC CHARGES
----------------------
   0 C :    0.595031
   1 C :    0.595031
   2 C :    0.595031
   3 C :    0.134678
   4 C :    0.134678
   5 C :    0.134678
   6 N :    0.291831
   7 H :   -0.183894
   8 H :   -0.165756
   9 H :   -0.171054
  10 H :   -0.183894
  11 H :   -0.165756
  12 H :   -0.171053
  13 H :   -0.183894
  14 H :   -0.165756
  15 H :   -0.171053
  16 H :   -0.176155
  17 H :   -0.130128
  18 H :   -0.176154
  19 H :   -0.130128
  20 H :   -0.176154
  21 H :   -0.130128

  Mayer bond orders larger than 0.100000
B(  0-C ,  3-C ) :   0.8959 B(  0-C ,  7-H ) :   0.9562 B(  0-C ,  8-H ) :   0.9752
B(  0-C ,  9-H ) :   1.0152 B(  1-C ,  4-C ) :   0.8959 B(  1-C , 10-H ) :   0.9562
B(  1-C , 11-H ) :   0.9752 B(  1-C , 12-H ) :   1.0152 B(  2-C ,  5-C ) :   0.8959
B(  2-C , 13-H ) :   0.9562 B(  2-C , 14-H ) :   0.9752 B(  2-C , 15-H ) :   1.0152
B(  3-C ,  6-N ) :   0.8583 B(  3-C , 16-H ) :   0.8004 B(  3-C , 17-H ) :   1.0203
B(  4-C ,  6-N ) :   0.8583 B(  4-C , 18-H ) :   0.8004 B(  4-C , 19-H ) :   1.0203
B(  5-C ,  6-N ) :   0.8583 B(  5-C , 20-H ) :   0.8004 B(  5-C , 21-H ) :   1.0203

MP2 TOTAL ENERGY:     -291.778694044 Eh
FINAL SINGLE POINT ENERGY      -291.778694043974

DIPOLE MOMENT
-------------
                                X             Y             Z
Electronic contribution:     -0.00000      -0.00000       0.50185
Nuclear contribution   :      0.00000       0.00000      -0.23873
                        -----------------------------------------
Total Dipole Moment    :     -0.00000      -0.00000       0.26312
                        -----------------------------------------
Magnitude (a.u.)       :      0.26312
Magnitude (Debye)      :      0.66879

Rotational constants in cm-1:     0.076686     0.076686     0.043871
Rotational constants in MHz :  2298.980328  2298.979604  1315.212121

                             ****ORCA TERMINATED NORMALLY****
TOTAL RUN TIME: 0 days 0 hours 9 minutes 31 seconds 119 msec
