                         Program Version 5.0.3 -  RELEASE  -
|  1> !ri-mp2 aug-cc-pvtz aug-cc-pvtz/c tightscf
|  2> %pal nprocs 16 end
|  3> %maxcore 3800
|  4>
|  5> * xyz 0 1
|  6> C     0.413406    2.700298   -1.134720
|  7> C     0.000000    3.315092    0.199170
|  8> C    -0.395103    1.934856   -0.158726
|  9> C    -1.657201    1.128232   -0.172530
| 10> C    -0.395289    0.613063    0.456739
| 11> C     0.000000    0.000000    1.767022
| 12> C     0.395289   -0.613063    0.456739
| 13> C     1.657201   -1.128232   -0.172530
| 14> C     0.395103   -1.934856   -0.158726
| 15> C     0.000000   -3.315092    0.199170
| 16> C    -0.413406   -2.700298   -1.134720
| 17> H    -0.070461    3.069979   -2.029417
| 18> H     1.454651    2.435395   -1.262890
| 19> H     0.769193    3.453264    0.948163
| 20> H    -0.755429    4.089910    0.182539
| 21> H    -2.465963    1.433064    0.481413
| 22> H    -1.971867    0.689861   -1.112222
| 23> H     0.765446    0.497373    2.351754
| 24> H    -0.765446   -0.497373    2.351754
| 25> H     1.971867   -0.689861   -1.112222
| 26> H     2.465963   -1.433064    0.481413
| 27> H    -0.769193   -3.453264    0.948163
| 28> H     0.755429   -4.089910    0.182539
| 29> H    -1.454651   -2.435395   -1.262890
| 30> H     0.070461   -3.069979   -2.029417
| 31> *
| 32>
| 33>                          ****END OF INPUT****

CARTESIAN COORDINATES (ANGSTROEM)
---------------------------------
  C      0.413406    2.700298   -1.134720
  C      0.000000    3.315092    0.199170
  C     -0.395103    1.934856   -0.158726
  C     -1.657201    1.128232   -0.172530
  C     -0.395289    0.613063    0.456739
  C      0.000000    0.000000    1.767022
  C      0.395289   -0.613063    0.456739
  C      1.657201   -1.128232   -0.172530
  C      0.395103   -1.934856   -0.158726
  C      0.000000   -3.315092    0.199170
  C     -0.413406   -2.700298   -1.134720
  H     -0.070461    3.069979   -2.029417
  H      1.454651    2.435395   -1.262890
  H      0.769193    3.453264    0.948163
  H     -0.755429    4.089910    0.182539
  H     -2.465963    1.433064    0.481413
  H     -1.971867    0.689861   -1.112222
  H      0.765446    0.497373    2.351754
  H     -0.765446   -0.497373    2.351754
  H      1.971867   -0.689861   -1.112222
  H      2.465963   -1.433064    0.481413
  H     -0.769193   -3.453264    0.948163
  H      0.755429   -4.089910    0.182539
  H     -1.454651   -2.435395   -1.262890
  H      0.070461   -3.069979   -2.029417

 Total Charge           Charge          ....    0
 Multiplicity           Mult            ....    1
 Number of Electrons    NEL             ....   80
 Basis Dimension        Dim             ....  828

ORBITAL ENERGIES
----------------

  NO   OCC          E(Eh)            E(eV)
   0   2.0000     -11.237799      -305.7961
   1   2.0000     -11.237040      -305.7754
   2   2.0000     -11.235787      -305.7413
   3   2.0000     -11.235720      -305.7395
   4   2.0000     -11.224513      -305.4345
   5   2.0000     -11.224508      -305.4344
   6   2.0000     -11.224316      -305.4292
   7   2.0000     -11.224040      -305.4217
   8   2.0000     -11.224040      -305.4217
   9   2.0000     -11.223435      -305.4052
  10   2.0000     -11.223435      -305.4052
  11   2.0000      -1.201088       -32.6833
  12   2.0000      -1.163548       -31.6617
  13   2.0000      -1.107863       -30.1465
  14   2.0000      -1.048062       -28.5192
  15   2.0000      -0.999832       -27.2068
  16   2.0000      -0.825239       -22.4559
  17   2.0000      -0.823331       -22.4040
  18   2.0000      -0.790831       -21.5196
  19   2.0000      -0.786815       -21.4103
  20   2.0000      -0.746532       -20.3142
  21   2.0000      -0.697596       -18.9825
  22   2.0000      -0.674615       -18.3572
  23   2.0000      -0.640032       -17.4162
  24   2.0000      -0.639527       -17.4024
  25   2.0000      -0.613186       -16.6856
  26   2.0000      -0.610255       -16.6059
  27   2.0000      -0.597446       -16.2573
  28   2.0000      -0.535054       -14.5596
  29   2.0000      -0.514275       -13.9941
  30   2.0000      -0.511981       -13.9317
  31   2.0000      -0.494285       -13.4502
  32   2.0000      -0.469511       -12.7760
  33   2.0000      -0.452812       -12.3216
  34   2.0000      -0.429681       -11.6922
  35   2.0000      -0.421327       -11.4649
  36   2.0000      -0.406767       -11.0687
  37   2.0000      -0.370268       -10.0755
  38   2.0000      -0.369479       -10.0540
  39   2.0000      -0.366378        -9.9696
  40   0.0000       0.030504         0.8301
  41   0.0000       0.031676         0.8619
  42   0.0000       0.033961         0.9241
  43   0.0000       0.034485         0.9384
  44   0.0000       0.044676         1.2157

MULLIKEN ATOMIC CHARGES
-----------------------
   0 C :   -1.095584
   1 C :   -1.361505
   2 C :    1.217761
   3 C :   -1.209756
   4 C :    1.494193
   5 C :   -1.648472
   6 C :    1.494191
   7 C :   -1.209756
   8 C :    1.217758
   9 C :   -1.361502
  10 C :   -1.095587
  11 H :    0.263210
  12 H :    0.329161
  13 H :    0.256691
  14 H :    0.306245
  15 H :    0.267849
  16 H :    0.192020
  17 H :    0.163951
  18 H :    0.163951
  19 H :    0.192020
  20 H :    0.267850
  21 H :    0.256692
  22 H :    0.306244
  23 H :    0.329162
  24 H :    0.263210
Sum of atomic charges:   -0.0000000

LOEWDIN ATOMIC CHARGES
----------------------
   0 C :    0.404940
   1 C :    0.404401
   2 C :   -0.233599
   3 C :    0.453711
   4 C :   -0.180116
   5 C :    0.457709
   6 C :   -0.180116
   7 C :    0.453711
   8 C :   -0.233599
   9 C :    0.404401
  10 C :    0.404940
  11 H :   -0.157439
  12 H :   -0.157632
  13 H :   -0.156598
  14 H :   -0.157528
  15 H :   -0.149852
  16 H :   -0.150612
  17 H :   -0.148531
  18 H :   -0.148531
  19 H :   -0.150612
  20 H :   -0.149852
  21 H :   -0.156598
  22 H :   -0.157528
  23 H :   -0.157632
  24 H :   -0.157439

  Mayer bond orders larger than 0.100000
B(  0-C ,  1-C ) :   1.6012 B(  0-C ,  2-C ) :  -0.2500 B(  0-C ,  3-C ) :  -0.1158
B(  0-C ,  4-C ) :   0.1731 B(  0-C ,  6-C ) :   0.1987 B(  0-C ,  7-C ) :   0.1445
B(  0-C ,  8-C ) :  -0.3557 B(  0-C ,  9-C ) :  -0.1155 B(  0-C , 11-H ) :   1.0365
B(  0-C , 12-H ) :   0.9202 B(  1-C ,  2-C ) :  -0.2477 B(  1-C ,  3-C ) :  -0.1160
B(  1-C ,  4-C ) :  -0.2842 B(  1-C ,  5-C ) :  -0.1160 B(  1-C ,  7-C ) :  -0.1515
B(  1-C ,  8-C ) :   0.5653 B(  1-C ,  9-C ) :   0.1495 B(  1-C , 10-C ) :  -0.1155
B(  1-C , 13-H ) :   1.0411 B(  1-C , 14-H ) :   0.9527 B(  2-C ,  3-C ) :   1.0727
B(  2-C ,  4-C ) :  -0.4928 B(  2-C ,  5-C ) :  -0.5243 B(  2-C ,  8-C ) :   0.8131
B(  2-C ,  9-C ) :   0.5653 B(  2-C , 10-C ) :  -0.3557 B(  2-C , 14-H ) :  -0.1207
B(  2-C , 22-H ) :   0.1351 B(  3-C ,  9-C ) :  -0.1515 B(  3-C , 10-C ) :   0.1445
B(  3-C , 15-H ) :   1.0249 B(  3-C , 16-H ) :   1.1584 B(  4-C ,  5-C ) :   0.4898
B(  4-C , 10-C ) :   0.1987 B(  5-C ,  6-C ) :   0.4898 B(  5-C ,  8-C ) :  -0.5243
B(  5-C ,  9-C ) :  -0.1160 B(  5-C , 17-H ) :   1.2464 B(  5-C , 18-H ) :   1.2464
B(  6-C ,  8-C ) :  -0.4928 B(  6-C ,  9-C ) :  -0.2842 B(  6-C , 10-C ) :   0.1731
B(  7-C ,  8-C ) :   1.0727 B(  7-C ,  9-C ) :  -0.1160 B(  7-C , 10-C ) :  -0.1158
B(  7-C , 19-H ) :   1.1584 B(  7-C , 20-H ) :   1.0249 B(  8-C ,  9-C ) :  -0.2477
B(  8-C , 10-C ) :  -0.2500 B(  8-C , 14-H ) :   0.1351 B(  8-C , 22-H ) :  -0.1207
B(  9-C , 10-C ) :   1.6012 B(  9-C , 21-H ) :   1.0411 B(  9-C , 22-H ) :   0.9527
B( 10-C , 23-H ) :   0.9202 B( 10-C , 24-H ) :   1.0365

MP2 TOTAL ENERGY:     -426.468096678 Eh
FINAL SINGLE POINT ENERGY      -426.468096678228

DIPOLE MOMENT
-------------
                                X             Y             Z
Electronic contribution:      0.00000      -0.00000       0.89585
Nuclear contribution   :      0.00000       0.00000      -0.90551
                        -----------------------------------------
Total Dipole Moment    :      0.00000      -0.00000      -0.00966
                        -----------------------------------------
Magnitude (a.u.)       :      0.00966
Magnitude (Debye)      :      0.02455

Rotational constants in cm-1:     0.082231     0.021936     0.021895
Rotational constants in MHz :  2465.221897   657.624921   656.395814

                             ****ORCA TERMINATED NORMALLY****
TOTAL RUN TIME: 0 days 0 hours 19 minutes 56 seconds 451 msec
