                         Program Version 5.0.3 -  RELEASE  -
|  1> !ri-mp2 aug-cc-pvtz aug-cc-pvtz/c tightscf
|  2> %pal nprocs 16 end
|  3>
|  4> * xyz 0 1
|  5> O      0.614839   -0.531311    0.412981
|  6> O     -0.558693   -0.562512   -0.398497
|  7> O      1.453969    0.529309   -0.061717
|  8> C     -1.474009    0.413749    0.097467
|  9> H      1.911049    0.100315   -0.801444
| 10> H     -1.737810    0.202807    1.133973
| 11> H     -2.351255    0.313601   -0.540435
| 12> H     -1.058850    1.416901    0.000969
| 13> *
| 14>
| 15>                          ****END OF INPUT****

CARTESIAN COORDINATES (ANGSTROEM)
---------------------------------
  O      0.614839   -0.531311    0.412981
  O     -0.558693   -0.562512   -0.398497
  O      1.453969    0.529309   -0.061717
  C     -1.474009    0.413749    0.097467
  H      1.911049    0.100315   -0.801444
  H     -1.737810    0.202807    1.133973
  H     -2.351255    0.313601   -0.540435
  H     -1.058850    1.416901    0.000969

 Total Charge           Charge          ....    0
 Multiplicity           Mult            ....    1
 Number of Electrons    NEL             ....   34
 Basis Dimension        Dim             ....  276

ORBITAL ENERGIES
----------------

  NO   OCC          E(Eh)            E(eV)
   0   2.0000     -20.693615      -563.1019
   1   2.0000     -20.642321      -561.7061
   2   2.0000     -20.639229      -561.6220
   3   2.0000     -11.285006      -307.0806
   4   2.0000      -1.541555       -41.9478
   5   2.0000      -1.369307       -37.2607
   6   2.0000      -1.154431       -31.4137
   7   2.0000      -0.927823       -25.2473
   8   2.0000      -0.743058       -20.2196
   9   2.0000      -0.698853       -19.0168
  10   2.0000      -0.693178       -18.8623
  11   2.0000      -0.631732       -17.1903
  12   2.0000      -0.598885       -16.2965
  13   2.0000      -0.567960       -15.4550
  14   2.0000      -0.502163       -13.6646
  15   2.0000      -0.489583       -13.3222
  16   2.0000      -0.471691       -12.8354
  17   0.0000       0.030328         0.8253
  18   0.0000       0.039632         1.0785
  19   0.0000       0.048267         1.3134
  20   0.0000       0.051550         1.4027
  21   0.0000       0.089256         2.4288

MULLIKEN ATOMIC CHARGES
-----------------------
   0 O :   -0.156949
   1 O :   -0.286873
   2 O :   -0.244781
   3 C :   -0.607391
   4 H :    0.267929
   5 H :    0.321448
   6 H :    0.364743
   7 H :    0.341875
Sum of atomic charges:    0.0000000

LOEWDIN ATOMIC CHARGES
----------------------
   0 O :    0.084961
   1 O :    0.260523
   2 O :    0.526801
   3 C :    0.283120
   4 H :   -0.554970
   5 H :   -0.196315
   6 H :   -0.200438
   7 H :   -0.203682

  Mayer bond orders larger than 0.100000
B(  0-O ,  1-O ) :   0.8157 B(  0-O ,  2-O ) :   0.8374 B(  1-O ,  3-C ) :   0.7783
B(  2-O ,  4-H ) :   0.9583 B(  3-C ,  5-H ) :   0.9067 B(  3-C ,  6-H ) :   0.8624
B(  3-C ,  7-H ) :   0.8857

MP2 TOTAL ENERGY:     -265.603435604 Eh
FINAL SINGLE POINT ENERGY      -265.603435603719

DIPOLE MOMENT
-------------
                                X             Y             Z
Electronic contribution:      2.94873      -1.72948      -0.14021
Nuclear contribution   :     -3.20375       2.01886      -0.20708
                        -----------------------------------------
Total Dipole Moment    :     -0.25502       0.28938      -0.34729
                        -----------------------------------------
Magnitude (a.u.)       :      0.51902
Magnitude (Debye)      :      1.31925

Rotational constants in cm-1:     0.654549     0.183228     0.164430
Rotational constants in MHz : 19622.898449  5493.047927  4929.492617

                             ****ORCA TERMINATED NORMALLY****
TOTAL RUN TIME: 0 days 0 hours 0 minutes 46 seconds 852 msec
