                         Program Version 5.0.3 -  RELEASE  -
|  1> !ri-mp2 aug-cc-pvtz aug-cc-pvtz/c tightscf
|  2> %pal nprocs 16 end
|  3>
|  4> * xyz 0 1
|  5> N     -0.726579    1.028726   -0.000001
|  6> C      0.669751    0.895487    0.000064
|  7> O      1.378069    1.884236    0.000131
|  8> C      1.153712   -0.486497    0.000042
|  9> C      2.632341   -0.716781    0.000106
| 10> C      0.240400   -1.474972   -0.000038
| 11> N     -1.115294   -1.239106   -0.000094
| 12> C     -1.675291    0.026086   -0.000082
| 13> O     -2.872270    0.222918   -0.000137
| 14> H     -1.085233    1.972913    0.000012
| 15> H      3.096734   -0.258658    0.874392
| 16> H      2.863608   -1.781203    0.000091
| 17> H      3.096819   -0.258616   -0.874114
| 18> H      0.522304   -2.518618   -0.000059
| 19> H     -1.773003   -2.000335   -0.000157
| 20> *
| 21>
| 22>                          ****END OF INPUT****

CARTESIAN COORDINATES (ANGSTROEM)
---------------------------------
  N     -0.726579    1.028726   -0.000001
  C      0.669751    0.895487    0.000064
  O      1.378069    1.884236    0.000131
  C      1.153712   -0.486497    0.000042
  C      2.632341   -0.716781    0.000106
  C      0.240400   -1.474972   -0.000038
  N     -1.115294   -1.239106   -0.000094
  C     -1.675291    0.026086   -0.000082
  O     -2.872270    0.222918   -0.000137
  H     -1.085233    1.972913    0.000012
  H      3.096734   -0.258658    0.874392
  H      2.863608   -1.781203    0.000091
  H      3.096819   -0.258616   -0.874114
  H      0.522304   -2.518618   -0.000059
  H     -1.773003   -2.000335   -0.000157

 Total Charge           Charge          ....    0
 Multiplicity           Mult            ....    1
 Number of Electrons    NEL             ....   66
 Basis Dimension        Dim             ....  552

ORBITAL ENERGIES
----------------

  NO   OCC          E(Eh)            E(eV)
   0   2.0000     -20.542665      -558.9943
   1   2.0000     -20.542415      -558.9875
   2   2.0000     -15.637020      -425.5050
   3   2.0000     -15.625150      -425.1819
   4   2.0000     -11.413547      -310.5784
   5   2.0000     -11.377931      -309.6092
   6   2.0000     -11.327595      -308.2395
   7   2.0000     -11.259966      -306.3993
   8   2.0000     -11.238238      -305.8080
   9   2.0000      -1.433253       -39.0008
  10   2.0000      -1.400547       -38.1108
  11   2.0000      -1.306799       -35.5598
  12   2.0000      -1.241495       -33.7828
  13   2.0000      -1.108491       -30.1636
  14   2.0000      -0.969891       -26.3921
  15   2.0000      -0.915499       -24.9120
  16   2.0000      -0.893277       -24.3073
  17   2.0000      -0.772557       -21.0223
  18   2.0000      -0.767371       -20.8812
  19   2.0000      -0.708891       -19.2899
  20   2.0000      -0.676382       -18.4053
  21   2.0000      -0.667002       -18.1501
  22   2.0000      -0.641854       -17.4657
  23   2.0000      -0.618542       -16.8314
  24   2.0000      -0.592172       -16.1138
  25   2.0000      -0.570053       -15.5119
  26   2.0000      -0.560723       -15.2581
  27   2.0000      -0.553390       -15.0585
  28   2.0000      -0.512670       -13.9505
  29   2.0000      -0.479396       -13.0450
  30   2.0000      -0.447964       -12.1897
  31   2.0000      -0.435416       -11.8483
  32   2.0000      -0.354366        -9.6428
  33   0.0000       0.016568         0.4508
  34   0.0000       0.030874         0.8401
  35   0.0000       0.039282         1.0689
  36   0.0000       0.043868         1.1937
  37   0.0000       0.049867         1.3570

MULLIKEN ATOMIC CHARGES
-----------------------
   0 N :    0.188363
   1 C :    0.170881
   2 O :   -0.923488
   3 C :    1.177197
   4 C :   -0.791089
   5 C :   -0.710301
   6 N :   -0.015188
   7 C :    0.079095
   8 O :   -0.777093
   9 H :    0.158312
  10 H :    0.280350
  11 H :    0.206209
  12 H :    0.280351
  13 H :    0.558730
  14 H :    0.117672
Sum of atomic charges:    0.0000000

LOEWDIN ATOMIC CHARGES
----------------------
   0 N :    0.564134
   1 C :   -0.654331
   2 O :    0.458725
   3 C :   -0.107828
   4 C :    0.560167
   5 C :    0.158223
   6 N :    0.547667
   7 C :   -0.767434
   8 O :    0.436293
   9 H :   -0.270356
  10 H :   -0.165860
  11 H :   -0.178042
  12 H :   -0.165859
  13 H :   -0.148557
  14 H :   -0.266941

  Mayer bond orders larger than 0.100000
B(  0-N ,  1-C ) :   0.9384 B(  0-N ,  2-O ) :  -0.1198 B(  0-N ,  7-C ) :   0.9613
B(  0-N ,  8-O ) :  -0.1222 B(  0-N ,  9-H ) :   1.0448 B(  1-C ,  2-O ) :   1.1815
B(  1-C ,  3-C ) :   0.3507 B(  1-C ,  5-C ) :   0.4173 B(  1-C ,  7-C ) :  -0.1689
B(  3-C ,  4-C ) :   0.6818 B(  3-C ,  5-C ) :   0.7466 B(  3-C ,  6-N ) :  -0.3120
B(  4-C , 10-H ) :   0.9782 B(  4-C , 11-H ) :   1.0455 B(  4-C , 12-H ) :   0.9782
B(  5-C ,  6-N ) :   1.0032 B(  5-C ,  7-C ) :  -0.2425 B(  5-C , 13-H ) :   0.5778
B(  6-N ,  7-C ) :   1.1152 B(  6-N ,  8-O ) :  -0.1065 B(  6-N , 14-H ) :   1.0894
B(  7-C ,  8-O ) :   1.6847

MP2 TOTAL ENERGY:     -453.357005318 Eh
FINAL SINGLE POINT ENERGY      -453.357005318373

DIPOLE MOMENT
-------------
                                X             Y             Z
Electronic contribution:     -6.11338       2.88548      -0.00020
Nuclear contribution   :      6.57222      -4.73003       0.00016
                        -----------------------------------------
Total Dipole Moment    :      0.45884      -1.84455      -0.00004
                        -----------------------------------------
Magnitude (a.u.)       :      1.90076
Magnitude (Debye)      :      4.83135

Rotational constants in cm-1:     0.107015     0.046847     0.032778
Rotational constants in MHz :  3208.235439  1404.430507   982.673164

                             ****ORCA TERMINATED NORMALLY****
TOTAL RUN TIME: 0 days 0 hours 6 minutes 0 seconds 161 msec
