                         Program Version 5.0.3 -  RELEASE  -
|  1> !ri-mp2 aug-cc-pvtz aug-cc-pvtz/c tightscf
|  2> %pal nprocs 16 end
|  3> %maxcore 3800
|  4>
|  5> * xyz 0 1
|  6> C      0.892185    0.423300   -1.115386
|  7> C      1.127635   -1.387733    0.424444
|  8> C      2.194801    0.827052   -0.845555
|  9> C      2.427792   -0.998183    0.705423
| 10> C      0.332695   -0.688148   -0.487319
| 11> C      2.965844    0.116591    0.068362
| 12> C     -2.186401    0.883216    0.310248
| 13> C     -1.089329   -1.109749   -0.762062
| 14> C     -2.127374   -0.636628    0.291467
| 15> N     -3.490056   -1.105655    0.051276
| 16> O     -2.617114    1.551395   -0.596087
| 17> O      4.254274    0.460267    0.375386
| 18> O     -1.697499    1.415760    1.446528
| 19> H      0.304511    0.985498   -1.829904
| 20> H      0.725773   -2.261652    0.922750
| 21> H      2.610134    1.691457   -1.350405
| 22> H      3.037227   -1.547870    1.408931
| 23> H     -1.411636   -0.739805   -1.736775
| 24> H     -1.153616   -2.200087   -0.793954
| 25> H     -1.814661   -0.977674    1.277619
| 26> H     -3.514304   -2.114400   -0.027753
| 27> H     -3.850384   -0.712728   -0.810813
| 28> H      4.512609    1.239394   -0.126667
| 29> H     -1.759650    2.379779    1.363694
| 30> *
| 31>
| 32>                          ****END OF INPUT****

CARTESIAN COORDINATES (ANGSTROEM)
---------------------------------
  C      0.892185    0.423300   -1.115386
  C      1.127635   -1.387733    0.424444
  C      2.194801    0.827052   -0.845555
  C      2.427792   -0.998183    0.705423
  C      0.332695   -0.688148   -0.487319
  C      2.965844    0.116591    0.068362
  C     -2.186401    0.883216    0.310248
  C     -1.089329   -1.109749   -0.762062
  C     -2.127374   -0.636628    0.291467
  N     -3.490056   -1.105655    0.051276
  O     -2.617114    1.551395   -0.596087
  O      4.254274    0.460267    0.375386
  O     -1.697499    1.415760    1.446528
  H      0.304511    0.985498   -1.829904
  H      0.725773   -2.261652    0.922750
  H      2.610134    1.691457   -1.350405
  H      3.037227   -1.547870    1.408931
  H     -1.411636   -0.739805   -1.736775
  H     -1.153616   -2.200087   -0.793954
  H     -1.814661   -0.977674    1.277619
  H     -3.514304   -2.114400   -0.027753
  H     -3.850384   -0.712728   -0.810813
  H      4.512609    1.239394   -0.126667
  H     -1.759650    2.379779    1.363694

 Total Charge           Charge          ....    0
 Multiplicity           Mult            ....    1
 Number of Electrons    NEL             ....   96
 Basis Dimension        Dim             ....  851

ORBITAL ENERGIES
----------------

  NO   OCC          E(Eh)            E(eV)
   0   2.0000     -20.615070      -560.9646
   1   2.0000     -20.594152      -560.3954
   2   2.0000     -20.550928      -559.2192
   3   2.0000     -15.554212      -423.2516
   4   2.0000     -11.386084      -309.8311
   5   2.0000     -11.305791      -307.6462
   6   2.0000     -11.281871      -306.9953
   7   2.0000     -11.243387      -305.9481
   8   2.0000     -11.243161      -305.9420
   9   2.0000     -11.241780      -305.9044
  10   2.0000     -11.239005      -305.8289
  11   2.0000     -11.237399      -305.7852
  12   2.0000     -11.232701      -305.6573
  13   2.0000      -1.468052       -39.9477
  14   2.0000      -1.408383       -38.3241
  15   2.0000      -1.364999       -37.1435
  16   2.0000      -1.203326       -32.7442
  17   2.0000      -1.159440       -31.5500
  18   2.0000      -1.058580       -28.8054
  19   2.0000      -1.025959       -27.9178
  20   2.0000      -0.983871       -26.7725
  21   2.0000      -0.913845       -24.8670
  22   2.0000      -0.853796       -23.2330
  23   2.0000      -0.819342       -22.2954
  24   2.0000      -0.788970       -21.4690
  25   2.0000      -0.740573       -20.1520
  26   2.0000      -0.726651       -19.7732
  27   2.0000      -0.704026       -19.1575
  28   2.0000      -0.677582       -18.4379
  29   2.0000      -0.656531       -17.8651
  30   2.0000      -0.653311       -17.7775
  31   2.0000      -0.630995       -17.1702
  32   2.0000      -0.617485       -16.8026
  33   2.0000      -0.596111       -16.2210
  34   2.0000      -0.594535       -16.1781
  35   2.0000      -0.590138       -16.0585
  36   2.0000      -0.587939       -15.9986
  37   2.0000      -0.569133       -15.4869
  38   2.0000      -0.555590       -15.1184
  39   2.0000      -0.529106       -14.3977
  40   2.0000      -0.513230       -13.9657
  41   2.0000      -0.494383       -13.4528
  42   2.0000      -0.485440       -13.2095
  43   2.0000      -0.480164       -13.0659
  44   2.0000      -0.452542       -12.3143
  45   2.0000      -0.405853       -11.0438
  46   2.0000      -0.348183        -9.4745
  47   2.0000      -0.313798        -8.5389
  48   0.0000       0.024303         0.6613
  49   0.0000       0.027261         0.7418
  50   0.0000       0.034452         0.9375
  51   0.0000       0.037426         1.0184
  52   0.0000       0.043611         1.1867

MULLIKEN ATOMIC CHARGES
-----------------------
   0 C :   -0.858690
   1 C :   -0.821561
   2 C :   -0.915132
   3 C :   -0.806191
   4 C :    1.598567
   5 C :    1.094074
   6 C :    0.861734
   7 C :   -0.446218
   8 C :    0.868290
   9 N :   -0.825751
  10 O :   -0.978195
  11 O :   -0.834856
  12 O :   -0.541821
  13 H :    0.196703
  14 H :    0.156319
  15 H :    0.431709
  16 H :    0.572410
  17 H :    0.164098
  18 H :    0.239745
  19 H :    0.292614
  20 H :    0.059744
  21 H :    0.091225
  22 H :    0.171394
  23 H :    0.229791
Sum of atomic charges:    0.0000000

LOEWDIN ATOMIC CHARGES
----------------------
   0 C :    0.213244
   1 C :    0.214132
   2 C :    0.221201
   3 C :    0.221147
   4 C :   -0.113849
   5 C :   -0.373992
   6 C :   -0.792554
   7 C :    0.285969
   8 C :   -0.140095
   9 N :    0.856302
  10 O :    0.467933
  11 O :    0.836989
  12 O :    0.850425
  13 H :   -0.170451
  14 H :   -0.169058
  15 H :   -0.183951
  16 H :   -0.181318
  17 H :   -0.153971
  18 H :   -0.148223
  19 H :   -0.154712
  20 H :   -0.315180
  21 H :   -0.326474
  22 H :   -0.481893
  23 H :   -0.461620

  Mayer bond orders larger than 0.100000
B(  0-C ,  1-C ) :  -0.2397 B(  0-C ,  2-C ) :   1.3199 B(  0-C ,  4-C ) :   0.2515
B(  0-C ,  7-C ) :   0.1322 B(  0-C , 13-H ) :   1.2369 B(  0-C , 14-H ) :   0.1429
B(  1-C ,  3-C ) :   1.4220 B(  1-C ,  4-C ) :   0.4512 B(  1-C ,  5-C ) :  -0.1625
B(  1-C ,  7-C ) :   0.1832 B(  1-C , 13-H ) :   0.1620 B(  1-C , 14-H ) :   1.2367
B(  2-C ,  3-C ) :   0.3466 B(  2-C ,  4-C ) :   0.1129 B(  2-C ,  5-C ) :   0.9844
B(  2-C , 13-H ) :  -0.1041 B(  2-C , 15-H ) :   0.7661 B(  3-C ,  4-C ) :   0.1633
B(  3-C ,  5-C ) :   1.0444 B(  3-C , 16-H ) :   0.5213 B(  4-C ,  7-C ) :   0.4664
B(  4-C , 13-H ) :  -0.1630 B(  4-C , 14-H ) :  -0.2219 B(  4-C , 18-H ) :  -0.1059
B(  5-C , 11-O ) :   0.4247 B(  6-C ,  7-C ) :   0.1285 B(  6-C ,  8-C ) :   0.4841
B(  6-C ,  9-N ) :   0.1599 B(  6-C , 10-O ) :   1.0596 B(  6-C , 12-O ) :   0.7988
B(  7-C ,  8-C ) :   0.8480 B(  7-C , 17-H ) :   1.0843 B(  7-C , 18-H ) :   1.0528
B(  8-C ,  9-N ) :   0.2376 B(  8-C , 19-H ) :   0.9840 B(  9-N , 20-H ) :   1.0214
B(  9-N , 21-H ) :   1.0245 B( 11-O , 22-H ) :   1.0568 B( 12-O , 23-H ) :   0.9724
B( 13-H , 14-H ) :   0.1070

MP2 TOTAL ENERGY:     -628.906321487 Eh
FINAL SINGLE POINT ENERGY      -628.906321486630

DIPOLE MOMENT
-------------
                                X             Y             Z
Electronic contribution:      2.79449       4.02106       1.42584
Nuclear contribution   :     -2.32388      -4.18973      -1.67533
                        -----------------------------------------
Total Dipole Moment    :      0.47061      -0.16867      -0.24949
                        -----------------------------------------
Magnitude (a.u.)       :      0.55872
Magnitude (Debye)      :      1.42015

Rotational constants in cm-1:     0.055767     0.014309     0.013187
Rotational constants in MHz :  1671.845406   428.966660   395.338513

                             ****ORCA TERMINATED NORMALLY****
TOTAL RUN TIME: 0 days 0 hours 24 minutes 37 seconds 671 msec
