                         Program Version 5.0.3 -  RELEASE  -
|  1> !ri-mp2 aug-cc-pvtz aug-cc-pvtz/c tightscf
|  2> %pal nprocs 16 end
|  3>
|  4> * xyz 0 1
|  5> S     -1.756434   -0.365803   -0.000188
|  6> N      0.863151   -0.693485    0.000281
|  7> N      0.167197    1.487661   -0.000079
|  8> N      2.197899   -0.268846    0.000181
|  9> C     -0.173325    0.187895    0.000004
| 10> H      0.618610   -1.671311    0.000117
| 11> H      1.137120    1.757055    0.000069
| 12> H     -0.566962    2.169753   -0.000192
| 13> H      2.678241   -0.603657    0.827164
| 14> H      2.678150   -0.603667   -0.826856
| 15> *
| 16>
| 17>                          ****END OF INPUT****

CARTESIAN COORDINATES (ANGSTROEM)
---------------------------------
  S     -1.756434   -0.365803   -0.000188
  N      0.863151   -0.693485    0.000281
  N      0.167197    1.487661   -0.000079
  N      2.197899   -0.268846    0.000181
  C     -0.173325    0.187895    0.000004
  H      0.618610   -1.671311    0.000117
  H      1.137120    1.757055    0.000069
  H     -0.566962    2.169753   -0.000192
  H      2.678241   -0.603657    0.827164
  H      2.678150   -0.603667   -0.826856

 Total Charge           Charge          ....    0
 Multiplicity           Mult            ....    1
 Number of Electrons    NEL             ....   48
 Basis Dimension        Dim             ....  349

ORBITAL ENERGIES
----------------

  NO   OCC          E(Eh)            E(eV)
   0   2.0000     -91.880447     -2500.1941
   1   2.0000     -15.630348      -425.3234
   2   2.0000     -15.623028      -425.1242
   3   2.0000     -15.595770      -424.3825
   4   2.0000     -11.373792      -309.4966
   5   2.0000      -8.883784      -241.7401
   6   2.0000      -6.565469      -178.6555
   7   2.0000      -6.563366      -178.5983
   8   2.0000      -6.562899      -178.5856
   9   2.0000      -1.354108       -36.8471
  10   2.0000      -1.243103       -33.8265
  11   2.0000      -1.108844       -30.1732
  12   2.0000      -0.949012       -25.8239
  13   2.0000      -0.831927       -22.6379
  14   2.0000      -0.741058       -20.1652
  15   2.0000      -0.725954       -19.7542
  16   2.0000      -0.721179       -19.6243
  17   2.0000      -0.673467       -18.3260
  18   2.0000      -0.563119       -15.3232
  19   2.0000      -0.503716       -13.7068
  20   2.0000      -0.472922       -12.8689
  21   2.0000      -0.426333       -11.6011
  22   2.0000      -0.317344        -8.6354
  23   2.0000      -0.316262        -8.6059
  24   0.0000       0.016486         0.4486
  25   0.0000       0.032103         0.8736
  26   0.0000       0.038578         1.0498
  27   0.0000       0.045763         1.2453
  28   0.0000       0.061093         1.6624

MULLIKEN ATOMIC CHARGES
-----------------------
   0 S :   -0.513914
   1 N :    0.214153
   2 N :   -0.264468
   3 N :   -0.381752
   4 C :    0.288404
   5 H :    0.047060
   6 H :    0.191873
   7 H :    0.129503
   8 H :    0.144565
   9 H :    0.144576
Sum of atomic charges:    0.0000000

LOEWDIN ATOMIC CHARGES
----------------------
   0 S :    0.778731
   1 N :    0.350150
   2 N :    0.774652
   3 N :    0.756961
   4 C :   -1.077215
   5 H :   -0.322297
   6 H :   -0.332733
   7 H :   -0.319428
   8 H :   -0.304417
   9 H :   -0.304405

  Mayer bond orders larger than 0.100000
B(  0-S ,  4-C ) :   1.3880 B(  1-N ,  2-N ) :  -0.1433 B(  1-N ,  3-N ) :   0.7576
B(  1-N ,  4-C ) :   1.1011 B(  1-N ,  5-H ) :   1.0909 B(  2-N ,  4-C ) :   1.1420
B(  2-N ,  6-H ) :   1.0084 B(  2-N ,  7-H ) :   1.0448 B(  3-N ,  8-H ) :   1.0050
B(  3-N ,  9-H ) :   1.0050

MP2 TOTAL ENERGY:     -602.713910511 Eh
FINAL SINGLE POINT ENERGY      -602.713910510876

DIPOLE MOMENT
-------------
                                X             Y             Z
Electronic contribution:     -4.11141      -0.80203      -0.00022
Nuclear contribution   :      6.54681       1.05106       0.00031
                        -----------------------------------------
Total Dipole Moment    :      2.43540       0.24904       0.00009
                        -----------------------------------------
Magnitude (a.u.)       :      2.44810
Magnitude (Debye)      :      6.22258

Rotational constants in cm-1:     0.300215     0.086351     0.067806
Rotational constants in MHz :  9000.218965  2588.749330  2032.773616

                             ****ORCA TERMINATED NORMALLY****
TOTAL RUN TIME: 0 days 0 hours 1 minutes 40 seconds 73 msec
