                         Program Version 5.0.3 -  RELEASE  -
|  1> !ri-mp2 aug-cc-pvtz aug-cc-pvtz/c tightscf
|  2> %pal nprocs 16 end
|  3> %maxcore 3800
|  4>
|  5> * xyz 0 1
|  6> O     -0.702493   -2.681831   -0.000062
|  7> C     -0.427456   -1.502083   -0.000033
|  8> C      0.890406   -0.915681   -0.000045
|  9> C      1.039767    0.449836   -0.000006
| 10> C      0.269702    2.790611    0.000072
| 11> N      0.022247    1.356401    0.000047
| 12> C     -1.294568    0.876674    0.000053
| 13> N     -1.455705   -0.502781    0.000017
| 14> C     -2.848272   -0.963109    0.000032
| 15> O     -2.241746    1.641359    0.000089
| 16> N      2.127187   -1.527354   -0.000091
| 17> C      2.991264   -0.559718   -0.000081
| 18> N      2.381227    0.689357   -0.000031
| 19> H      4.063530   -0.659977   -0.000108
| 20> H      2.840421    1.583267   -0.000003
| 21> H      0.825941    3.084691    0.892129
| 22> H     -0.692999    3.289743    0.000154
| 23> H      0.825822    3.084747   -0.892040
| 24> H     -3.364115   -0.590499    0.882301
| 25> H     -2.830297   -2.046278    0.000011
| 26> H     -3.364145   -0.590467   -0.882207
| 27> *
| 28>
| 29>                          ****END OF INPUT****

CARTESIAN COORDINATES (ANGSTROEM)
---------------------------------
  O     -0.702493   -2.681831   -0.000062
  C     -0.427456   -1.502083   -0.000033
  C      0.890406   -0.915681   -0.000045
  C      1.039767    0.449836   -0.000006
  C      0.269702    2.790611    0.000072
  N      0.022247    1.356401    0.000047
  C     -1.294568    0.876674    0.000053
  N     -1.455705   -0.502781    0.000017
  C     -2.848272   -0.963109    0.000032
  O     -2.241746    1.641359    0.000089
  N      2.127187   -1.527354   -0.000091
  C      2.991264   -0.559718   -0.000081
  N      2.381227    0.689357   -0.000031
  H      4.063530   -0.659977   -0.000108
  H      2.840421    1.583267   -0.000003
  H      0.825941    3.084691    0.892129
  H     -0.692999    3.289743    0.000154
  H      0.825822    3.084747   -0.892040
  H     -3.364115   -0.590499    0.882301
  H     -2.830297   -2.046278    0.000011
  H     -3.364145   -0.590467   -0.882207

 Total Charge           Charge          ....    0
 Multiplicity           Mult            ....    1
 Number of Electrons    NEL             ....   94
 Basis Dimension        Dim             ....  782

ORBITAL ENERGIES
----------------

  NO   OCC          E(Eh)            E(eV)
   0   2.0000     -20.539289      -558.9025
   1   2.0000     -20.530005      -558.6498
   2   2.0000     -15.657110      -426.0516
   3   2.0000     -15.643620      -425.6845
   4   2.0000     -15.620055      -425.0433
   5   2.0000     -15.577889      -423.8959
   6   2.0000     -11.410262      -310.4890
   7   2.0000     -11.369737      -309.3863
   8   2.0000     -11.353000      -308.9308
   9   2.0000     -11.323356      -308.1242
  10   2.0000     -11.295558      -307.3678
  11   2.0000     -11.260588      -306.4162
  12   2.0000     -11.253669      -306.2279
  13   2.0000      -1.433123       -38.9973
  14   2.0000      -1.393285       -37.9132
  15   2.0000      -1.382723       -37.6258
  16   2.0000      -1.300493       -35.3882
  17   2.0000      -1.250263       -34.0214
  18   2.0000      -1.201873       -32.7046
  19   2.0000      -1.065885       -29.0042
  20   2.0000      -0.996279       -27.1101
  21   2.0000      -0.967683       -26.3320
  22   2.0000      -0.887111       -24.1395
  23   2.0000      -0.871622       -23.7180
  24   2.0000      -0.858303       -23.3556
  25   2.0000      -0.811442       -22.0805
  26   2.0000      -0.729461       -19.8497
  27   2.0000      -0.712732       -19.3944
  28   2.0000      -0.702934       -19.1278
  29   2.0000      -0.673055       -18.3148
  30   2.0000      -0.653255       -17.7760
  31   2.0000      -0.639562       -17.4034
  32   2.0000      -0.638570       -17.3764
  33   2.0000      -0.627893       -17.0858
  34   2.0000      -0.625207       -17.0128
  35   2.0000      -0.600692       -16.3457
  36   2.0000      -0.580224       -15.7887
  37   2.0000      -0.560761       -15.2591
  38   2.0000      -0.549000       -14.9390
  39   2.0000      -0.547153       -14.8888
  40   2.0000      -0.481740       -13.1088
  41   2.0000      -0.475344       -12.9348
  42   2.0000      -0.462652       -12.5894
  43   2.0000      -0.437155       -11.8956
  44   2.0000      -0.432394       -11.7660
  45   2.0000      -0.408958       -11.1283
  46   2.0000      -0.320533        -8.7221
  47   0.0000       0.009515         0.2589
  48   0.0000       0.026854         0.7307
  49   0.0000       0.032263         0.8779
  50   0.0000       0.037625         1.0238
  51   0.0000       0.044200         1.2028

MULLIKEN ATOMIC CHARGES
-----------------------
   0 O :   -0.943952
   1 C :    0.317082
   2 C :    1.786677
   3 C :   -0.003899
   4 C :   -1.037283
   5 N :    0.312580
   6 C :    0.171140
   7 N :    0.470870
   8 C :   -1.068188
   9 O :   -0.886873
  10 N :   -0.918064
  11 C :   -0.860838
  12 N :   -0.244311
  13 H :    0.659930
  14 H :    0.087518
  15 H :    0.348520
  16 H :    0.398720
  17 H :    0.348522
  18 H :    0.306640
  19 H :    0.448572
  20 H :    0.306638
Sum of atomic charges:   -0.0000000

LOEWDIN ATOMIC CHARGES
----------------------
   0 O :    0.474516
   1 C :   -0.630288
   2 C :   -0.302584
   3 C :   -0.330738
   4 C :    0.522068
   5 N :    0.276427
   6 C :   -0.745314
   7 N :    0.269451
   8 C :    0.491867
   9 O :    0.487160
  10 N :    0.399037
  11 C :   -0.035233
  12 N :    0.585328
  13 H :   -0.175289
  14 H :   -0.245199
  15 H :   -0.151489
  16 H :   -0.199313
  17 H :   -0.151487
  18 H :   -0.161374
  19 H :   -0.216177
  20 H :   -0.161372

  Mayer bond orders larger than 0.100000
B(  0-O ,  1-C ) :   0.8784 B(  0-O ,  7-N ) :  -0.1276 B(  1-C ,  2-C ) :  -0.2116
B(  1-C ,  3-C ) :   1.0063 B(  1-C ,  6-C ) :  -0.3001 B(  1-C ,  7-N ) :   0.9087
B(  2-C ,  3-C ) :   1.3606 B(  2-C ,  5-N ) :  -0.1102 B(  2-C ,  7-N ) :  -0.3047
B(  2-C , 10-N ) :  -0.5960 B(  2-C , 11-C ) :  -0.3817 B(  2-C , 12-N ) :  -0.2878
B(  3-C ,  4-C ) :  -0.1931 B(  3-C ,  5-N ) :   0.8957 B(  3-C ,  6-C ) :  -0.3591
B(  3-C , 10-N ) :   0.2014 B(  3-C , 11-C ) :  -0.5756 B(  3-C , 12-N ) :   0.8366
B(  4-C ,  5-N ) :   0.9041 B(  4-C , 15-H ) :   0.9169 B(  4-C , 16-H ) :   0.8903
B(  4-C , 17-H ) :   0.9169 B(  5-N ,  6-C ) :   1.0353 B(  5-N ,  9-O ) :  -0.2392
B(  5-N , 12-N ) :  -0.1847 B(  6-C ,  7-N ) :   1.0384 B(  6-C ,  8-C ) :  -0.1073
B(  6-C ,  9-O ) :   1.5071 B(  7-N ,  8-C ) :   0.8467 B(  7-N ,  9-O ) :  -0.2657
B(  8-C , 18-H ) :   0.9668 B(  8-C , 19-H ) :   0.8324 B(  8-C , 20-H ) :   0.9668
B( 10-N , 11-C ) :   1.8124 B( 11-C , 12-N ) :   1.3582 B( 11-C , 13-H ) :   0.4537
B( 12-N , 14-H ) :   1.1761

MP2 TOTAL ENERGY:     -639.936750050 Eh
FINAL SINGLE POINT ENERGY      -639.936750049711

DIPOLE MOMENT
-------------
                                X             Y             Z
Electronic contribution:      3.36842      -4.52350      -0.00019
Nuclear contribution   :     -1.68948       6.99516       0.00023
                        -----------------------------------------
Total Dipole Moment    :      1.67893       2.47166       0.00005
                        -----------------------------------------
Magnitude (a.u.)       :      2.98796
Magnitude (Debye)      :      7.59479

Rotational constants in cm-1:     0.039796     0.029397     0.017016
Rotational constants in MHz :  1193.050698   881.297130   510.120975

                             ****ORCA TERMINATED NORMALLY****
TOTAL RUN TIME: 0 days 0 hours 22 minutes 35 seconds 60 msec
