                         Program Version 5.0.3 -  RELEASE  -
|  1> !ri-mp2 aug-cc-pvtz aug-cc-pvtz/c tightscf
|  2> %pal nprocs 16 end
|  3>
|  4> * xyz 0 1
|  5> C     -1.390811    0.856682   -1.268373
|  6> C     -1.015837    0.089879   -0.000005
|  7> C     -1.643181   -1.309663   -0.000111
|  8> C     -1.390836    0.856501    1.268466
|  9> S      0.822500   -0.225263   -0.000009
| 10> C      1.634089    1.387915    0.000134
| 11> O      1.168494   -0.878127    1.262513
| 12> O      1.168524   -0.877920   -1.262630
| 13> H     -1.046643    0.337279   -2.160653
| 14> H     -2.477629    0.942211   -1.319652
| 15> H     -0.985355    1.868581   -1.272654
| 16> H     -1.352891   -1.874065    0.884264
| 17> H     -2.728961   -1.202794   -0.000121
| 18> H     -1.352864   -1.873940   -0.884557
| 19> H     -0.985387    1.868403    1.272894
| 20> H     -2.477655    0.942016    1.319740
| 21> H     -1.046678    0.336974    2.160677
| 22> H      2.695942    1.152116    0.000133
| 23> H      1.370739    1.934035   -0.900315
| 24> H      1.370708    1.933886    0.900664
| 25> *
| 26>
| 27>                          ****END OF INPUT****

CARTESIAN COORDINATES (ANGSTROEM)
---------------------------------
  C     -1.390811    0.856682   -1.268373
  C     -1.015837    0.089879   -0.000005
  C     -1.643181   -1.309663   -0.000111
  C     -1.390836    0.856501    1.268466
  S      0.822500   -0.225263   -0.000009
  C      1.634089    1.387915    0.000134
  O      1.168494   -0.878127    1.262513
  O      1.168524   -0.877920   -1.262630
  H     -1.046643    0.337279   -2.160653
  H     -2.477629    0.942211   -1.319652
  H     -0.985355    1.868581   -1.272654
  H     -1.352891   -1.874065    0.884264
  H     -2.728961   -1.202794   -0.000121
  H     -1.352864   -1.873940   -0.884557
  H     -0.985387    1.868403    1.272894
  H     -2.477655    0.942016    1.319740
  H     -1.046678    0.336974    2.160677
  H      2.695942    1.152116    0.000133
  H      1.370739    1.934035   -0.900315
  H      1.370708    1.933886    0.900664

 Total Charge           Charge          ....    0
 Multiplicity           Mult            ....    1
 Number of Electrons    NEL             ....   74
 Basis Dimension        Dim             ....  648

ORBITAL ENERGIES
----------------

  NO   OCC          E(Eh)            E(eV)
   0   2.0000     -92.167358     -2508.0013
   1   2.0000     -20.534098      -558.7612
   2   2.0000     -20.534077      -558.7606
   3   2.0000     -11.292568      -307.2864
   4   2.0000     -11.273151      -306.7580
   5   2.0000     -11.240570      -305.8714
   6   2.0000     -11.240555      -305.8711
   7   2.0000     -11.231604      -305.6275
   8   2.0000      -9.137881      -248.6544
   9   2.0000      -6.822219      -185.6420
  10   2.0000      -6.821782      -185.6301
  11   2.0000      -6.821689      -185.6276
  12   2.0000      -1.431639       -38.9569
  13   2.0000      -1.320763       -35.9398
  14   2.0000      -1.129503       -30.7353
  15   2.0000      -1.032886       -28.1063
  16   2.0000      -0.964171       -26.2364
  17   2.0000      -0.957370       -26.0514
  18   2.0000      -0.871144       -23.7050
  19   2.0000      -0.752714       -20.4824
  20   2.0000      -0.690957       -18.8019
  21   2.0000      -0.656936       -17.8761
  22   2.0000      -0.647713       -17.6252
  23   2.0000      -0.629127       -17.1194
  24   2.0000      -0.628209       -17.0944
  25   2.0000      -0.601422       -16.3655
  26   2.0000      -0.592997       -16.1363
  27   2.0000      -0.565995       -15.4015
  28   2.0000      -0.564893       -15.3715
  29   2.0000      -0.551101       -14.9962
  30   2.0000      -0.540563       -14.7095
  31   2.0000      -0.500690       -13.6245
  32   2.0000      -0.500415       -13.6170
  33   2.0000      -0.484542       -13.1850
  34   2.0000      -0.476601       -12.9690
  35   2.0000      -0.458082       -12.4651
  36   2.0000      -0.413805       -11.2602
  37   0.0000       0.022284         0.6064
  38   0.0000       0.030475         0.8293
  39   0.0000       0.034622         0.9421
  40   0.0000       0.039233         1.0676
  41   0.0000       0.050356         1.3703

MULLIKEN ATOMIC CHARGES
-----------------------
   0 C :   -1.282105
   1 C :    1.753020
   2 C :   -1.347407
   3 C :   -1.282101
   4 S :    2.203170
   5 C :   -1.169457
   6 O :   -1.130888
   7 O :   -1.130889
   8 H :    0.279419
   9 H :    0.244897
  10 H :    0.311332
  11 H :    0.303652
  12 H :    0.257111
  13 H :    0.303651
  14 H :    0.311335
  15 H :    0.244893
  16 H :    0.279420
  17 H :    0.273455
  18 H :    0.288747
  19 H :    0.288745
Sum of atomic charges:   -0.0000000

LOEWDIN ATOMIC CHARGES
----------------------
   0 C :    0.551365
   1 C :   -0.424223
   2 C :    0.547930
   3 C :    0.551366
   4 S :    0.309705
   5 C :    0.516346
   6 O :    0.036459
   7 O :    0.036459
   8 H :   -0.170378
   9 H :   -0.154804
  10 H :   -0.174978
  11 H :   -0.168473
  12 H :   -0.158620
  13 H :   -0.168473
  14 H :   -0.174978
  15 H :   -0.154804
  16 H :   -0.170378
  17 H :   -0.205746
  18 H :   -0.211887
  19 H :   -0.211889

  Mayer bond orders larger than 0.100000
B(  0-C ,  1-C ) :   0.4415 B(  0-C ,  3-C ) :   0.1033 B(  0-C ,  7-O ) :   0.1117
B(  0-C ,  8-H ) :   1.0316 B(  0-C ,  9-H ) :   1.0302 B(  0-C , 10-H ) :   0.9716
B(  1-C ,  2-C ) :   0.4081 B(  1-C ,  3-C ) :   0.4415 B(  1-C ,  4-S ) :   0.7404
B(  1-C ,  6-O ) :  -0.1342 B(  1-C ,  7-O ) :  -0.1342 B(  2-C ,  4-S ) :   0.1145
B(  2-C , 11-H ) :   1.0009 B(  2-C , 12-H ) :   1.0190 B(  2-C , 13-H ) :   1.0009
B(  3-C ,  6-O ) :   0.1117 B(  3-C , 14-H ) :   0.9716 B(  3-C , 15-H ) :   1.0302
B(  3-C , 16-H ) :   1.0316 B(  4-S ,  5-C ) :   0.7901 B(  4-S ,  6-O ) :   1.0728
B(  4-S ,  7-O ) :   1.0728 B(  5-C , 17-H ) :   0.9956 B(  5-C , 18-H ) :   0.9109
B(  5-C , 19-H ) :   0.9109

MP2 TOTAL ENERGY:     -745.278777517 Eh
FINAL SINGLE POINT ENERGY      -745.278777516582

DIPOLE MOMENT
-------------
                                X             Y             Z
Electronic contribution:      8.03350      -4.74713      -0.00030
Nuclear contribution   :     -9.18824       6.47291       0.00043
                        -----------------------------------------
Total Dipole Moment    :     -1.15475       1.72577       0.00013
                        -----------------------------------------
Magnitude (a.u.)       :      2.07647
Magnitude (Debye)      :      5.27797

Rotational constants in cm-1:     0.075753     0.050093     0.049444
Rotational constants in MHz :  2271.004152  1501.765274  1482.284159

                             ****ORCA TERMINATED NORMALLY****
TOTAL RUN TIME: 0 days 0 hours 10 minutes 42 seconds 557 msec
