                         Program Version 5.0.3 -  RELEASE  -
|  1> !ri-mp2 aug-cc-pvtz aug-cc-pvtz/c tightscf
|  2> %pal nprocs 16 end
|  3>
|  4> * xyz 0 1
|  5> C     1.233554    -2.804366    0.000000
|  6> H     1.251117    -3.456614    0.877469
|  7> H     1.251117    -3.456614   -0.877469
|  8> H     2.138991    -2.200941    0.000000
|  9> C    -1.233554     2.804366    0.000000
| 10> H    -1.251117     3.456614   -0.877469
| 11> H    -1.251117     3.456614    0.877469
| 12> H    -2.138991     2.200941    0.000000
| 13> C     0.001866    -1.946573    0.000000
| 14> H    -0.953142    -2.465454    0.000000
| 15> C    -0.001866     1.946573    0.000000
| 16> H     0.953142     2.465454    0.000000
| 17> C     0.001866     0.631609    0.000000
| 18> C    -0.001866    -0.631609    0.000000
| 19> *
| 20>
| 21>                          ****END OF INPUT****

CARTESIAN COORDINATES (ANGSTROEM)
---------------------------------
  C      1.233554   -2.804366    0.000000
  H      1.251117   -3.456614    0.877469
  H      1.251117   -3.456614   -0.877469
  H      2.138991   -2.200941    0.000000
  C     -1.233554    2.804366    0.000000
  H     -1.251117    3.456614   -0.877469
  H     -1.251117    3.456614    0.877469
  H     -2.138991    2.200941    0.000000
  C      0.001866   -1.946573    0.000000
  H     -0.953142   -2.465454    0.000000
  C     -0.001866    1.946573    0.000000
  H      0.953142    2.465454    0.000000
  C      0.001866    0.631609    0.000000
  C     -0.001866   -0.631609    0.000000

 Total Charge           Charge          ....    0
 Multiplicity           Mult            ....    1
 Number of Electrons    NEL             ....   44
 Basis Dimension        Dim             ....  460

ORBITAL ENERGIES
----------------

  NO   OCC          E(Eh)            E(eV)
   0   2.0000     -11.250448      -306.1403
   1   2.0000     -11.250437      -306.1400
   2   2.0000     -11.240989      -305.8829
   3   2.0000     -11.238487      -305.8148
   4   2.0000     -11.227924      -305.5273
   5   2.0000     -11.227923      -305.5273
   6   2.0000      -1.098847       -29.9011
   7   2.0000      -1.056772       -28.7562
   8   2.0000      -0.978557       -26.6279
   9   2.0000      -0.904142       -24.6029
  10   2.0000      -0.835081       -22.7237
  11   2.0000      -0.682997       -18.5853
  12   2.0000      -0.655476       -17.8364
  13   2.0000      -0.587720       -15.9927
  14   2.0000      -0.575525       -15.6608
  15   2.0000      -0.570637       -15.5278
  16   2.0000      -0.567390       -15.4395
  17   2.0000      -0.531872       -14.4730
  18   2.0000      -0.526161       -14.3176
  19   2.0000      -0.452796       -12.3212
  20   2.0000      -0.363456        -9.8902
  21   2.0000      -0.308688        -8.3998
  22   0.0000       0.029597         0.8054
  23   0.0000       0.032514         0.8848
  24   0.0000       0.038293         1.0420
  25   0.0000       0.045647         1.2421
  26   0.0000       0.048705         1.3253

MULLIKEN ATOMIC CHARGES
-----------------------
   0 C :   -0.804177
   1 H :    0.287639
   2 H :    0.287639
   3 H :    0.273104
   4 C :   -0.804177
   5 H :    0.287639
   6 H :    0.287639
   7 H :    0.273104
   8 C :   -0.843017
   9 H :    0.064454
  10 C :   -0.843017
  11 H :    0.064454
  12 C :    0.734358
  13 C :    0.734358
Sum of atomic charges:    0.0000000

LOEWDIN ATOMIC CHARGES
----------------------
   0 C :    0.539887
   1 H :   -0.178809
   2 H :   -0.178809
   3 H :   -0.183068
   4 C :    0.539887
   5 H :   -0.178809
   6 H :   -0.178809
   7 H :   -0.183068
   8 C :    0.140767
   9 H :   -0.205723
  10 C :    0.140767
  11 H :   -0.205723
  12 C :    0.065753
  13 C :    0.065753

  Mayer bond orders larger than 0.100000
B(  0-C ,  1-H ) :   0.9581 B(  0-C ,  2-H ) :   0.9581 B(  0-C ,  3-H ) :   0.9240
B(  0-C ,  8-C ) :   0.9322 B(  4-C ,  5-H ) :   0.9581 B(  4-C ,  6-H ) :   0.9581
B(  4-C ,  7-H ) :   0.9240 B(  4-C , 10-C ) :   0.9322 B(  8-C ,  9-H ) :   1.3561
B(  8-C , 10-C ) :   0.4012 B(  8-C , 11-H ) :   0.1643 B(  8-C , 12-C ) :  -0.3372
B(  8-C , 13-C ) :   1.2278 B(  9-H , 10-C ) :   0.1643 B(  9-H , 13-C ) :  -0.2605
B( 10-C , 11-H ) :   1.3561 B( 10-C , 12-C ) :   1.2278 B( 10-C , 13-C ) :  -0.3372
B( 11-H , 12-C ) :  -0.2605 B( 12-C , 13-C ) :   2.0135

MP2 TOTAL ENERGY:     -232.838959870 Eh
FINAL SINGLE POINT ENERGY      -232.838959869793

DIPOLE MOMENT
-------------
                                X             Y             Z
Electronic contribution:     -0.00000       0.00000      -0.00000
Nuclear contribution   :     -0.00000       0.00000       0.00000
                        -----------------------------------------
Total Dipole Moment    :     -0.00000       0.00000      -0.00000
                        -----------------------------------------
Magnitude (a.u.)       :      0.00000
Magnitude (Debye)      :      0.00000

Rotational constants in cm-1:     0.695309     0.042612     0.040754
Rotational constants in MHz : 20844.827452  1277.484330  1221.782333

                             ****ORCA TERMINATED NORMALLY****
TOTAL RUN TIME: 0 days 0 hours 2 minutes 31 seconds 652 msec
