                         Program Version 5.0.3 -  RELEASE  -
|  1> !ri-mp2 aug-cc-pvtz aug-cc-pvtz/c tightscf
|  2> %pal nprocs 16 end
|  3>
|  4> * xyz 0 1
|  5> C      0.000000    0.000000    0.669101
|  6> C      0.000000    0.000000   -0.669101
|  7> Cl     0.000000    1.454916    1.595675
|  8> Cl     0.000000   -1.454916    1.595675
|  9> Cl     0.000000   -1.454916   -1.595675
| 10> Cl     0.000000    1.454916   -1.595675
| 11> *
| 12>
| 13>                          ****END OF INPUT****

CARTESIAN COORDINATES (ANGSTROEM)
---------------------------------
  C      0.000000    0.000000    0.669101
  C      0.000000    0.000000   -0.669101
  Cl     0.000000    1.454916    1.595675
  Cl     0.000000   -1.454916    1.595675
  Cl     0.000000   -1.454916   -1.595675
  Cl     0.000000    1.454916   -1.595675

 Total Charge           Charge          ....    0
 Multiplicity           Mult            ....    1
 Number of Electrons    NEL             ....   80
 Basis Dimension        Dim             ....  292

ORBITAL ENERGIES
----------------

  NO   OCC          E(Eh)            E(eV)
   0   2.0000    -104.879669     -2853.9209
   1   2.0000    -104.879668     -2853.9209
   2   2.0000    -104.879668     -2853.9209
   3   2.0000    -104.879668     -2853.9209
   4   2.0000     -11.392423      -310.0036
   5   2.0000     -11.390778      -309.9588
   6   2.0000     -10.603254      -288.5292
   7   2.0000     -10.603248      -288.5291
   8   2.0000     -10.603242      -288.5289
   9   2.0000     -10.603240      -288.5288
  10   2.0000      -8.070163      -219.6003
  11   2.0000      -8.070161      -219.6002
  12   2.0000      -8.070159      -219.6002
  13   2.0000      -8.070157      -219.6001
  14   2.0000      -8.067960      -219.5403
  15   2.0000      -8.067960      -219.5403
  16   2.0000      -8.067958      -219.5403
  17   2.0000      -8.067958      -219.5403
  18   2.0000      -8.067940      -219.5398
  19   2.0000      -8.067939      -219.5398
  20   2.0000      -8.067937      -219.5397
  21   2.0000      -8.067935      -219.5397
  22   2.0000      -1.264013       -34.3955
  23   2.0000      -1.192221       -32.4420
  24   2.0000      -1.141213       -31.0540
  25   2.0000      -1.115317       -30.3493
  26   2.0000      -0.988337       -26.8940
  27   2.0000      -0.751817       -20.4580
  28   2.0000      -0.679232       -18.4828
  29   2.0000      -0.665716       -18.1151
  30   2.0000      -0.617257       -16.7964
  31   2.0000      -0.574954       -15.6453
  32   2.0000      -0.533986       -14.5305
  33   2.0000      -0.513020       -13.9600
  34   2.0000      -0.503369       -13.6974
  35   2.0000      -0.499846       -13.6015
  36   2.0000      -0.491554       -13.3759
  37   2.0000      -0.485168       -13.2021
  38   2.0000      -0.451978       -12.2990
  39   2.0000      -0.368455       -10.0262
  40   0.0000       0.048446         1.3183
  41   0.0000       0.062499         1.7007
  42   0.0000       0.062772         1.7081
  43   0.0000       0.081916         2.2290
  44   0.0000       0.093364         2.5406

MULLIKEN ATOMIC CHARGES
-----------------------
   0 C :    0.401862
   1 C :    0.401862
   2 Cl:   -0.200931
   3 Cl:   -0.200931
   4 Cl:   -0.200931
   5 Cl:   -0.200931
Sum of atomic charges:   -0.0000000

LOEWDIN ATOMIC CHARGES
----------------------
   0 C :   -1.739003
   1 C :   -1.739003
   2 Cl:    0.869501
   3 Cl:    0.869501
   4 Cl:    0.869501
   5 Cl:    0.869501

  Mayer bond orders larger than 0.100000
B(  0-C ,  1-C ) :   1.9653 B(  0-C ,  2-Cl) :   0.7719 B(  0-C ,  3-Cl) :   0.7719
B(  0-C ,  4-Cl) :   0.1177 B(  0-C ,  5-Cl) :   0.1177 B(  1-C ,  2-Cl) :   0.1177
B(  1-C ,  3-Cl) :   0.1177 B(  1-C ,  4-Cl) :   0.7719 B(  1-C ,  5-Cl) :   0.7719

MP2 TOTAL ENERGY:    -1914.879036186 Eh
FINAL SINGLE POINT ENERGY     -1914.879036186305

DIPOLE MOMENT
-------------
                                X             Y             Z
Electronic contribution:     -0.00000       0.00000      -0.00000
Nuclear contribution   :      0.00000       0.00000       0.00000
                        -----------------------------------------
Total Dipole Moment    :     -0.00000       0.00000      -0.00000
                        -----------------------------------------
Magnitude (a.u.)       :      0.00000
Magnitude (Debye)      :      0.00000

Rotational constants in cm-1:     0.056158     0.045337     0.025085
Rotational constants in MHz :  1683.560711  1359.156228   752.032500

                             ****ORCA TERMINATED NORMALLY****
TOTAL RUN TIME: 0 days 0 hours 1 minutes 23 seconds 456 msec
