                         Program Version 5.0.3 -  RELEASE  -
|  1> !ri-mp2 aug-cc-pvtz aug-cc-pvtz/c tightscf
|  2> %pal nprocs 16 end
|  3>
|  4> * xyz 0 1
|  5> C     -1.034580   -0.395303    0.000000
|  6> C      0.000000    0.438157    0.000000
|  7> H     -2.045695   -0.022811    0.000000
|  8> Cl    -0.896263   -2.113950    0.000000
|  9> Cl    -0.268366    2.154033    0.000000
| 10> Cl     1.650109   -0.053866    0.000000
| 11> *
| 12>
| 13>                          ****END OF INPUT****

CARTESIAN COORDINATES (ANGSTROEM)
---------------------------------
  C     -1.034580   -0.395303    0.000000
  C      0.000000    0.438157    0.000000
  H     -2.045695   -0.022811    0.000000
  Cl    -0.896263   -2.113950    0.000000
  Cl    -0.268366    2.154033    0.000000
  Cl     1.650109   -0.053866    0.000000

 Total Charge           Charge          ....    0
 Multiplicity           Mult            ....    1
 Number of Electrons    NEL             ....   64
 Basis Dimension        Dim             ....  265

ORBITAL ENERGIES
----------------

  NO   OCC          E(Eh)            E(eV)
   0   2.0000    -104.873895     -2853.7638
   1   2.0000    -104.873563     -2853.7547
   2   2.0000    -104.866128     -2853.5524
   3   2.0000     -11.381420      -309.7042
   4   2.0000     -11.328811      -308.2726
   5   2.0000     -10.597445      -288.3711
   6   2.0000     -10.597245      -288.3657
   7   2.0000     -10.589795      -288.1630
   8   2.0000      -8.064357      -219.4423
   9   2.0000      -8.064174      -219.4373
  10   2.0000      -8.062241      -219.3847
  11   2.0000      -8.062176      -219.3830
  12   2.0000      -8.061990      -219.3779
  13   2.0000      -8.061989      -219.3779
  14   2.0000      -8.056743      -219.2351
  15   2.0000      -8.054686      -219.1792
  16   2.0000      -8.054646      -219.1781
  17   2.0000      -1.237109       -33.6634
  18   2.0000      -1.159856       -31.5613
  19   2.0000      -1.122171       -30.5358
  20   2.0000      -0.996436       -27.1144
  21   2.0000      -0.776535       -21.1306
  22   2.0000      -0.681185       -18.5360
  23   2.0000      -0.647342       -17.6151
  24   2.0000      -0.589240       -16.0340
  25   2.0000      -0.564636       -15.3645
  26   2.0000      -0.509868       -13.8742
  27   2.0000      -0.501509       -13.6467
  28   2.0000      -0.487203       -13.2575
  29   2.0000      -0.480640       -13.0789
  30   2.0000      -0.461864       -12.5680
  31   2.0000      -0.370029       -10.0690
  32   0.0000       0.032693         0.8896
  33   0.0000       0.061123         1.6632
  34   0.0000       0.061971         1.6863
  35   0.0000       0.080726         2.1967
  36   0.0000       0.081782         2.2254

MULLIKEN ATOMIC CHARGES
-----------------------
   0 C :   -0.426848
   1 C :    0.589447
   2 H :    0.487197
   3 Cl:   -0.202961
   4 Cl:   -0.260752
   5 Cl:   -0.186083
Sum of atomic charges:   -0.0000000

LOEWDIN ATOMIC CHARGES
----------------------
   0 C :   -0.716055
   1 C :   -1.610588
   2 H :   -0.333521
   3 Cl:    0.911317
   4 Cl:    0.870000
   5 Cl:    0.878847

  Mayer bond orders larger than 0.100000
B(  0-C ,  1-C ) :   1.7011 B(  0-C ,  2-H ) :   0.7177 B(  0-C ,  3-Cl) :   0.8941
B(  1-C ,  4-Cl) :   0.8477 B(  1-C ,  5-Cl) :   0.8398

MP2 TOTAL ENERGY:    -1455.763714617 Eh
FINAL SINGLE POINT ENERGY     -1455.763714616753

DIPOLE MOMENT
-------------
                                X             Y             Z
Electronic contribution:      2.11780       0.11194       0.00000
Nuclear contribution   :     -2.50682      -0.00283       0.00000
                        -----------------------------------------
Total Dipole Moment    :     -0.38902       0.10911       0.00000
                        -----------------------------------------
Magnitude (a.u.)       :      0.40403
Magnitude (Debye)      :      1.02696

Rotational constants in cm-1:     0.127218     0.049685     0.035731
Rotational constants in MHz :  3813.890880  1489.527508  1071.176166

                             ****ORCA TERMINATED NORMALLY****
TOTAL RUN TIME: 0 days 0 hours 0 minutes 53 seconds 946 msec
