                         Program Version 5.0.3 -  RELEASE  -
|  1> !ri-mp2 aug-cc-pvtz aug-cc-pvtz/c tightscf
|  2> %pal nprocs 16 end
|  3>
|  4> * xyz 0 1
|  5> C     -2.830605   -0.004894    0.011148
|  6> C     -2.141181    1.201669    0.001644
|  7> C     -2.130097   -1.206446    0.001574
|  8> C     -0.751864    1.211198   -0.016805
|  9> C     -0.742127   -1.203364   -0.017162
| 10> C     -0.054399    0.007588   -0.027137
| 11> C      1.449778    0.003678   -0.003578
| 12> F      1.974663    1.157149   -0.464769
| 13> F      1.932309   -0.167372    1.251571
| 14> F      1.967606   -0.995256   -0.750684
| 15> H     -3.912035   -0.009776    0.023540
| 16> H     -2.683315    2.137140    0.005948
| 17> H     -2.664442   -2.146382    0.005924
| 18> H     -0.213065    2.147199   -0.028956
| 19> H     -0.195372   -2.135445   -0.029626
| 20> *
| 21>
| 22>                          ****END OF INPUT****

CARTESIAN COORDINATES (ANGSTROEM)
---------------------------------
  C     -2.830605   -0.004894    0.011148
  C     -2.141181    1.201669    0.001644
  C     -2.130097   -1.206446    0.001574
  C     -0.751864    1.211198   -0.016805
  C     -0.742127   -1.203364   -0.017162
  C     -0.054399    0.007588   -0.027137
  C      1.449778    0.003678   -0.003578
  F      1.974663    1.157149   -0.464769
  F      1.932309   -0.167372    1.251571
  F      1.967606   -0.995256   -0.750684
  H     -3.912035   -0.009776    0.023540
  H     -2.683315    2.137140    0.005948
  H     -2.664442   -2.146382    0.005924
  H     -0.213065    2.147199   -0.028956
  H     -0.195372   -2.135445   -0.029626

 Total Charge           Charge          ....    0
 Multiplicity           Mult            ....    1
 Number of Electrons    NEL             ....   74
 Basis Dimension        Dim             ....  575

ORBITAL ENERGIES
----------------

  NO   OCC          E(Eh)            E(eV)
   0   2.0000     -26.336546      -716.6538
   1   2.0000     -26.334807      -716.6065
   2   2.0000     -26.330418      -716.4871
   3   2.0000     -11.509665      -313.1939
   4   2.0000     -11.270022      -306.6729
   5   2.0000     -11.261313      -306.4359
   6   2.0000     -11.261127      -306.4308
   7   2.0000     -11.257722      -306.3382
   8   2.0000     -11.254153      -306.2411
   9   2.0000     -11.253853      -306.2329
  10   2.0000      -1.720753       -46.8241
  11   2.0000      -1.629474       -44.3402
  12   2.0000      -1.623868       -44.1877
  13   2.0000      -1.184284       -32.2260
  14   2.0000      -1.072666       -29.1887
  15   2.0000      -1.040795       -28.3215
  16   2.0000      -0.963378       -26.2149
  17   2.0000      -0.865389       -23.5484
  18   2.0000      -0.859018       -23.3751
  19   2.0000      -0.813409       -22.1340
  20   2.0000      -0.807767       -21.9805
  21   2.0000      -0.788781       -21.4638
  22   2.0000      -0.712492       -19.3879
  23   2.0000      -0.705782       -19.2053
  24   2.0000      -0.701034       -19.0761
  25   2.0000      -0.663045       -18.0424
  26   2.0000      -0.656602       -17.8670
  27   2.0000      -0.652820       -17.7641
  28   2.0000      -0.643450       -17.5092
  29   2.0000      -0.640127       -17.4187
  30   2.0000      -0.608920       -16.5696
  31   2.0000      -0.591443       -16.0940
  32   2.0000      -0.527944       -14.3661
  33   2.0000      -0.522415       -14.2156
  34   2.0000      -0.518616       -14.1122
  35   2.0000      -0.365437        -9.9440
  36   2.0000      -0.359062        -9.7706
  37   0.0000       0.024477         0.6661
  38   0.0000       0.031624         0.8605
  39   0.0000       0.037798         1.0285
  40   0.0000       0.049332         1.3424
  41   0.0000       0.053033         1.4431

MULLIKEN ATOMIC CHARGES
-----------------------
   0 C :   -0.352001
   1 C :   -0.457938
   2 C :   -0.487243
   3 C :   -0.933069
   4 C :   -0.925697
   5 C :    0.930879
   6 C :    1.294829
   7 F :   -0.399633
   8 F :   -0.409976
   9 F :   -0.413507
  10 H :    0.515545
  11 H :    0.403984
  12 H :    0.367056
  13 H :    0.388710
  14 H :    0.478061
Sum of atomic charges:    0.0000000

LOEWDIN ATOMIC CHARGES
----------------------
   0 C :    0.207039
   1 C :    0.210607
   2 C :    0.210802
   3 C :    0.206803
   4 C :    0.206967
   5 C :   -0.154814
   6 C :   -1.470579
   7 F :    0.505275
   8 F :    0.486159
   9 F :    0.498970
  10 H :   -0.179463
  11 H :   -0.181704
  12 H :   -0.181622
  13 H :   -0.186096
  14 H :   -0.178344

  Mayer bond orders larger than 0.100000
B(  0-C ,  1-C ) :   1.0956 B(  0-C ,  2-C ) :   1.1025 B(  0-C ,  3-C ) :   0.1669
B(  0-C ,  4-C ) :   0.1666 B(  0-C ,  5-C ) :  -0.1159 B(  0-C , 10-H ) :   0.7116
B(  1-C ,  3-C ) :   1.2023 B(  1-C , 10-H ) :  -0.1033 B(  1-C , 11-H ) :   0.9484
B(  2-C ,  4-C ) :   1.1946 B(  2-C , 10-H ) :  -0.1048 B(  2-C , 12-H ) :   1.0126
B(  3-C ,  4-C ) :   0.3367 B(  3-C ,  5-C ) :   0.5022 B(  3-C , 13-H ) :   0.8530
B(  4-C ,  5-C ) :   0.5995 B(  4-C , 14-H ) :   0.7070 B(  5-C ,  6-C ) :   0.9159
B(  5-C ,  7-F ) :   0.1566 B(  5-C ,  9-F ) :   0.1354 B(  6-C ,  7-F ) :   0.7259
B(  6-C ,  8-F ) :   0.7476 B(  6-C ,  9-F ) :   0.7414

MP2 TOTAL ENERGY:     -568.413016784 Eh
FINAL SINGLE POINT ENERGY      -568.413016783694

DIPOLE MOMENT
-------------
                                X             Y             Z
Electronic contribution:     13.45925       0.01149       0.03009
Nuclear contribution   :    -14.71461      -0.00176      -0.05597
                        -----------------------------------------
Total Dipole Moment    :     -1.25536       0.00972      -0.02588
                        -----------------------------------------
Magnitude (a.u.)       :      1.25567
Magnitude (Debye)      :      3.19165

Rotational constants in cm-1:     0.094861     0.031454     0.026995
Rotational constants in MHz :  2843.857015   942.968602   809.283804

                             ****ORCA TERMINATED NORMALLY****
TOTAL RUN TIME: 0 days 0 hours 6 minutes 36 seconds 657 msec
