                         Program Version 5.0.3 -  RELEASE  -
|  1> !ri-mp2 aug-cc-pvtz aug-cc-pvtz/c tightscf
|  2> %pal nprocs 16 end
|  3>
|  4> * xyz 0 1
|  5> S      0.000000    0.000000    0.585088
|  6> C      0.000000    0.000000   -1.025466
|  7> H      0.000000    0.920769   -1.604308
|  8> H      0.000000   -0.920769   -1.604308
|  9> *
| 10>
| 11>                          ****END OF INPUT****

CARTESIAN COORDINATES (ANGSTROEM)
---------------------------------
  S      0.000000    0.000000    0.585088
  C      0.000000    0.000000   -1.025466
  H      0.000000    0.920769   -1.604308
  H      0.000000   -0.920769   -1.604308

 Total Charge           Charge          ....    0
 Multiplicity           Mult            ....    1
 Number of Electrons    NEL             ....   24
 Basis Dimension        Dim             ....  142

ORBITAL ENERGIES
----------------

  NO   OCC          E(Eh)            E(eV)
   0   2.0000     -91.956201     -2502.2555
   1   2.0000     -11.320578      -308.0486
   2   2.0000      -8.958475      -243.7725
   3   2.0000      -6.639118      -180.6596
   4   2.0000      -6.638821      -180.6515
   5   2.0000      -6.636839      -180.5976
   6   2.0000      -1.065553       -28.9952
   7   2.0000      -0.814276       -22.1576
   8   2.0000      -0.643619       -17.5138
   9   2.0000      -0.542263       -14.7557
  10   2.0000      -0.418811       -11.3964
  11   2.0000      -0.352416        -9.5897
  12   0.0000       0.028449         0.7741
  13   0.0000       0.035609         0.9690
  14   0.0000       0.042743         1.1631
  15   0.0000       0.061280         1.6675
  16   0.0000       0.092223         2.5095

MULLIKEN ATOMIC CHARGES
-----------------------
   0 S :   -0.093798
   1 C :   -0.820136
   2 H :    0.456967
   3 H :    0.456967
Sum of atomic charges:   -0.0000000

LOEWDIN ATOMIC CHARGES
----------------------
   0 S :    0.867633
   1 C :   -0.221190
   2 H :   -0.323222
   3 H :   -0.323222

  Mayer bond orders larger than 0.100000
B(  0-S ,  1-C ) :   1.9552 B(  1-C ,  2-H ) :   0.7165 B(  1-C ,  3-H ) :   0.7165

MP2 TOTAL ENERGY:     -436.898407308 Eh
FINAL SINGLE POINT ENERGY      -436.898407307660

DIPOLE MOMENT
-------------
                                X             Y             Z
Electronic contribution:     -0.00000      -0.00000       2.30385
Nuclear contribution   :      0.00000       0.00000      -3.15573
                        -----------------------------------------
Total Dipole Moment    :     -0.00000      -0.00000      -0.85188
                        -----------------------------------------
Magnitude (a.u.)       :      0.85188
Magnitude (Debye)      :      2.16532

Rotational constants in cm-1:     9.862908     0.590022     0.556718
Rotational constants in MHz : 295682.551843 17688.405574 16689.973255

                             ****ORCA TERMINATED NORMALLY****
TOTAL RUN TIME: 0 days 0 hours 0 minutes 28 seconds 818 msec
