                         Program Version 5.0.3 -  RELEASE  -
|  1> !ri-mp2 aug-cc-pvtz aug-cc-pvtz/c tightscf
|  2> %pal nprocs 16 end
|  3>
|  4> * xyz 0 1
|  5> C      0.000000    0.000000    0.660447
|  6> C      0.000000    0.000000   -0.660447
|  7> F      0.000000    1.100779    1.387647
|  8> F      0.000000   -1.100779    1.387647
|  9> F      0.000000   -1.100779   -1.387647
| 10> F      0.000000    1.100779   -1.387647
| 11> *
| 12>
| 13>                          ****END OF INPUT****

CARTESIAN COORDINATES (ANGSTROEM)
---------------------------------
  C      0.000000    0.000000    0.660447
  C      0.000000    0.000000   -0.660447
  F      0.000000    1.100779    1.387647
  F      0.000000   -1.100779    1.387647
  F      0.000000   -1.100779   -1.387647
  F      0.000000    1.100779   -1.387647

 Total Charge           Charge          ....    0
 Multiplicity           Mult            ....    1
 Number of Electrons    NEL             ....   48
 Basis Dimension        Dim             ....  276

ORBITAL ENERGIES
----------------

  NO   OCC          E(Eh)            E(eV)
   0   2.0000     -26.371505      -717.6051
   1   2.0000     -26.371502      -717.6050
   2   2.0000     -26.371484      -717.6046
   3   2.0000     -26.371484      -717.6045
   4   2.0000     -11.449093      -311.5457
   5   2.0000     -11.447324      -311.4975
   6   2.0000      -1.730711       -47.0951
   7   2.0000      -1.715412       -46.6787
   8   2.0000      -1.668912       -45.4134
   9   2.0000      -1.658569       -45.1320
  10   2.0000      -1.104846       -30.0644
  11   2.0000      -0.919558       -25.0224
  12   2.0000      -0.866247       -23.5718
  13   2.0000      -0.844541       -22.9811
  14   2.0000      -0.806447       -21.9445
  15   2.0000      -0.791541       -21.5389
  16   2.0000      -0.765012       -20.8170
  17   2.0000      -0.740680       -20.1549
  18   2.0000      -0.717999       -19.5378
  19   2.0000      -0.711297       -19.3554
  20   2.0000      -0.698397       -19.0043
  21   2.0000      -0.682217       -18.5641
  22   2.0000      -0.678007       -18.4495
  23   2.0000      -0.406844       -11.0708
  24   0.0000       0.056785         1.5452
  25   0.0000       0.057076         1.5531
  26   0.0000       0.078580         2.1383
  27   0.0000       0.078825         2.1449
  28   0.0000       0.103068         2.8046

MULLIKEN ATOMIC CHARGES
-----------------------
   0 C :    0.541321
   1 C :    0.541321
   2 F :   -0.270661
   3 F :   -0.270661
   4 F :   -0.270661
   5 F :   -0.270661
Sum of atomic charges:   -0.0000000

LOEWDIN ATOMIC CHARGES
----------------------
   0 C :   -0.974218
   1 C :   -0.974218
   2 F :    0.487109
   3 F :    0.487109
   4 F :    0.487109
   5 F :    0.487109

  Mayer bond orders larger than 0.100000
B(  0-C ,  1-C ) :   1.7735 B(  0-C ,  2-F ) :   0.8792 B(  0-C ,  3-F ) :   0.8792
B(  1-C ,  4-F ) :   0.8792 B(  1-C ,  5-F ) :   0.8792

MP2 TOTAL ENERGY:     -474.935910982 Eh
FINAL SINGLE POINT ENERGY      -474.935910982026

DIPOLE MOMENT
-------------
                                X             Y             Z
Electronic contribution:      0.00000      -0.00000      -0.00000
Nuclear contribution   :      0.00000       0.00000       0.00000
                        -----------------------------------------
Total Dipole Moment    :      0.00000      -0.00000      -0.00000
                        -----------------------------------------
Magnitude (a.u.)       :      0.00000
Magnitude (Debye)      :      0.00000

Rotational constants in cm-1:     0.183075     0.107507     0.067732
Rotational constants in MHz :  5488.446785  3222.967563  2030.564183

                             ****ORCA TERMINATED NORMALLY****
TOTAL RUN TIME: 0 days 0 hours 0 minutes 46 seconds 237 msec
