                         Program Version 5.0.3 -  RELEASE  -
|  1> !ri-mp2 aug-cc-pvtz aug-cc-pvtz/c tightscf
|  2> %pal nprocs 16 end
|  3>
|  4> * xyz 0 1
|  5> C      2.562959   -0.246263    0.024431
|  6> H      2.684739   -0.856591   -0.869433
|  7> H      3.378057    0.477039    0.064926
|  8> H      2.630633   -0.894805    0.896772
|  9> C      1.233789    0.476855    0.001020
| 10> H      1.104781    1.083961    0.900241
| 11> H      1.171235    1.127632   -0.877417
| 12> O      0.198136   -0.516463   -0.060443
| 13> N     -1.408351    1.154815    0.055718
| 14> H     -0.750537    1.856650   -0.229457
| 15> H     -2.382975    1.377652   -0.044925
| 16> C     -1.116122   -0.185256   -0.006501
| 17> O     -1.955791   -1.049445    0.017389
| 18> *
| 19>
| 20>                          ****END OF INPUT****

CARTESIAN COORDINATES (ANGSTROEM)
---------------------------------
  C      2.562959   -0.246263    0.024431
  H      2.684739   -0.856591   -0.869433
  H      3.378057    0.477039    0.064926
  H      2.630633   -0.894805    0.896772
  C      1.233789    0.476855    0.001020
  H      1.104781    1.083961    0.900241
  H      1.171235    1.127632   -0.877417
  O      0.198136   -0.516463   -0.060443
  N     -1.408351    1.154815    0.055718
  H     -0.750537    1.856650   -0.229457
  H     -2.382975    1.377652   -0.044925
  C     -1.116122   -0.185256   -0.006501
  O     -1.955791   -1.049445    0.017389

 Total Charge           Charge          ....    0
 Multiplicity           Mult            ....    1
 Number of Electrons    NEL             ....   48
 Basis Dimension        Dim             ....  437

ORBITAL ENERGIES
----------------

  NO   OCC          E(Eh)            E(eV)
   0   2.0000     -20.601226      -560.5879
   1   2.0000     -20.518805      -558.3451
   2   2.0000     -15.595158      -424.3658
   3   2.0000     -11.403664      -310.3095
   4   2.0000     -11.308465      -307.7190
   5   2.0000     -11.233773      -305.6865
   6   2.0000      -1.458122       -39.6775
   7   2.0000      -1.355431       -36.8832
   8   2.0000      -1.219116       -33.1738
   9   2.0000      -1.050416       -28.5833
  10   2.0000      -0.884701       -24.0739
  11   2.0000      -0.820862       -22.3368
  12   2.0000      -0.765044       -20.8179
  13   2.0000      -0.704346       -19.1662
  14   2.0000      -0.694274       -18.8922
  15   2.0000      -0.632533       -17.2121
  16   2.0000      -0.605715       -16.4823
  17   2.0000      -0.582203       -15.8425
  18   2.0000      -0.561982       -15.2923
  19   2.0000      -0.532151       -14.4806
  20   2.0000      -0.517335       -14.0774
  21   2.0000      -0.473306       -12.8793
  22   2.0000      -0.451010       -12.2726
  23   2.0000      -0.426257       -11.5990
  24   0.0000       0.019195         0.5223
  25   0.0000       0.030890         0.8406
  26   0.0000       0.037603         1.0232
  27   0.0000       0.042482         1.1560
  28   0.0000       0.053973         1.4687

MULLIKEN ATOMIC CHARGES
-----------------------
   0 C :   -0.972636
   1 H :    0.283445
   2 H :    0.306419
   3 H :    0.284926
   4 C :   -0.082215
   5 H :    0.318566
   6 H :    0.307745
   7 O :   -0.267378
   8 N :   -0.233643
   9 H :    0.192436
  10 H :    0.143618
  11 C :    0.437340
  12 O :   -0.718621
Sum of atomic charges:    0.0000000

LOEWDIN ATOMIC CHARGES
----------------------
   0 C :    0.589934
   1 H :   -0.169489
   2 H :   -0.171814
   3 H :   -0.169048
   4 C :    0.018169
   5 H :   -0.156989
   6 H :   -0.156918
   7 O :    0.579957
   8 N :    0.843720
   9 H :   -0.343442
  10 H :   -0.299544
  11 C :   -0.967458
  12 O :    0.402921

  Mayer bond orders larger than 0.100000
B(  0-C ,  1-H ) :   0.9525 B(  0-C ,  2-H ) :   0.9421 B(  0-C ,  3-H ) :   0.9512
B(  0-C ,  4-C ) :   0.8201 B(  4-C ,  5-H ) :   0.9080 B(  4-C ,  6-H ) :   0.8964
B(  4-C ,  7-O ) :   0.7380 B(  7-O , 11-C ) :   1.0777 B(  8-N ,  9-H ) :   0.9860
B(  8-N , 10-H ) :   0.9940 B(  8-N , 11-C ) :   1.0738 B( 11-C , 12-O ) :   1.6332

MP2 TOTAL ENERGY:     -323.204680497 Eh
FINAL SINGLE POINT ENERGY      -323.204680497021

DIPOLE MOMENT
-------------
                                X             Y             Z
Electronic contribution:     -6.76589      -2.31683      -0.04352
Nuclear contribution   :      7.89219       4.20275      -0.16153
                        -----------------------------------------
Total Dipole Moment    :      1.12630       1.88592      -0.20505
                        -----------------------------------------
Magnitude (a.u.)       :      2.20619
Magnitude (Debye)      :      5.60770

Rotational constants in cm-1:     0.295281     0.070480     0.058208
Rotational constants in MHz :  8852.299821  2112.923220  1745.031181

                             ****ORCA TERMINATED NORMALLY****
TOTAL RUN TIME: 0 days 0 hours 2 minutes 34 seconds 549 msec
