                         Program Version 5.0.3 -  RELEASE  -
|  1> !ri-mp2 aug-cc-pvtz aug-cc-pvtz/c tightscf
|  2> %pal nprocs 16 end
|  3>
|  4> * xyz 0 1
|  5> C      0.000000    0.000000    0.141895
|  6> O      0.000000    0.000000    1.357923
|  7> N      0.000000    1.161700   -0.607409
|  8> N      0.000000   -1.161700   -0.607409
|  9> H      0.198783    1.990644   -0.072919
| 10> H      0.395193    1.143037   -1.532593
| 11> H     -0.198783   -1.990644   -0.072919
| 12> H     -0.395193   -1.143037   -1.532593
| 13> *
| 14>
| 15>                          ****END OF INPUT****

CARTESIAN COORDINATES (ANGSTROEM)
---------------------------------
  C      0.000000    0.000000    0.141895
  O      0.000000    0.000000    1.357923
  N      0.000000    1.161700   -0.607409
  N      0.000000   -1.161700   -0.607409
  H      0.198783    1.990644   -0.072919
  H      0.395193    1.143037   -1.532593
  H     -0.198783   -1.990644   -0.072919
  H     -0.395193   -1.143037   -1.532593

 Total Charge           Charge          ....    0
 Multiplicity           Mult            ....    1
 Number of Electrons    NEL             ....   32
 Basis Dimension        Dim             ....  276

ORBITAL ENERGIES
----------------

  NO   OCC          E(Eh)            E(eV)
   0   2.0000     -20.514779      -558.2355
   1   2.0000     -15.584296      -424.0702
   2   2.0000     -15.584271      -424.0696
   3   2.0000     -11.380552      -309.6806
   4   2.0000      -1.393886       -37.9296
   5   2.0000      -1.234303       -33.5871
   6   2.0000      -1.180992       -32.1364
   7   2.0000      -0.826703       -22.4957
   8   2.0000      -0.740563       -20.1518
   9   2.0000      -0.727774       -19.8037
  10   2.0000      -0.640516       -17.4293
  11   2.0000      -0.610228       -16.6051
  12   2.0000      -0.602023       -16.3819
  13   2.0000      -0.446877       -12.1601
  14   2.0000      -0.438066       -11.9204
  15   2.0000      -0.421019       -11.4565
  16   0.0000       0.020624         0.5612
  17   0.0000       0.034063         0.9269
  18   0.0000       0.046891         1.2760
  19   0.0000       0.057778         1.5722
  20   0.0000       0.085636         2.3303

MULLIKEN ATOMIC CHARGES
-----------------------
   0 C :    0.482444
   1 O :   -0.635300
   2 N :   -0.254857
   3 N :   -0.254857
   4 H :    0.189069
   5 H :    0.142216
   6 H :    0.189069
   7 H :    0.142216
Sum of atomic charges:    0.0000000

LOEWDIN ATOMIC CHARGES
----------------------
   0 C :   -0.839952
   1 O :    0.408490
   2 N :    0.839407
   3 N :    0.839407
   4 H :   -0.311409
   5 H :   -0.312267
   6 H :   -0.311409
   7 H :   -0.312267

  Mayer bond orders larger than 0.100000
B(  0-C ,  1-O ) :   1.6492 B(  0-C ,  2-N ) :   1.0117 B(  0-C ,  3-N ) :   1.0117
B(  2-N ,  4-H ) :   0.9806 B(  2-N ,  5-H ) :   1.0190 B(  3-N ,  6-H ) :   0.9806
B(  3-N ,  7-H ) :   1.0190

MP2 TOTAL ENERGY:     -224.910378504 Eh
FINAL SINGLE POINT ENERGY      -224.910378503774

DIPOLE MOMENT
-------------
                                X             Y             Z
Electronic contribution:     -0.00000      -0.00000       1.56868
Nuclear contribution   :     -0.00000      -0.00000      -3.19900
                        -----------------------------------------
Total Dipole Moment    :     -0.00000      -0.00000      -1.63033
                        -----------------------------------------
Magnitude (a.u.)       :      1.63033
Magnitude (Debye)      :      4.14396

Rotational constants in cm-1:     0.374692     0.345278     0.180980
Rotational constants in MHz : 11232.988036 10351.168441  5425.645916

                             ****ORCA TERMINATED NORMALLY****
TOTAL RUN TIME: 0 days 0 hours 0 minutes 50 seconds 620 msec
