                         Program Version 5.0.3 -  RELEASE  -
|  1> !ri-mp2 aug-cc-pvtz aug-cc-pvtz/c tightscf
|  2> %pal nprocs 16 end
|  3> %maxcore 3800
|  4>
|  5> * xyz 0 1
|  6> C     -4.806157    0.164946   -0.005623
|  7> C     -6.062810   -0.680870    0.015204
|  8> C      6.725592   -0.280291   -0.006395
|  9> C     -3.487345   -0.589442   -0.010665
| 10> C      5.426775    0.524067    0.007880
| 11> C     -2.245230    0.293358    0.007034
| 12> C      4.172804   -0.350971   -0.004536
| 13> C     -0.944153   -0.509724   -0.005659
| 14> C      2.867501    0.444990    0.008804
| 15> C      0.309146    0.366142    0.008951
| 16> C      1.614054   -0.430731   -0.003842
| 17> O     -4.857865    1.374419   -0.015761
| 18> H     -6.066233   -1.383636   -0.820306
| 19> H     -6.941478   -0.043492   -0.036220
| 20> H     -6.097895   -1.276478    0.930151
| 21> H      6.792162   -0.936999    0.863557
| 22> H      6.790716   -0.908018   -0.897593
| 23> H      7.599872    0.372101    0.003614
| 24> H     -3.487195   -1.243242   -0.890607
| 25> H     -3.492921   -1.273880    0.845326
| 26> H      5.404779    1.195795   -0.855539
| 27> H      5.406736    1.168164    0.892173
| 28> H     -2.273858    0.968070   -0.851145
| 29> H     -2.275701    0.936898    0.889030
| 30> H      4.193680   -0.996496   -0.889181
| 31> H      4.195186   -1.023399    0.859786
| 32> H     -0.922432   -1.183317    0.857933
| 33> H     -0.922105   -1.154301   -0.891131
| 34> H      2.847599    1.090299    0.893334
| 35> H      2.846263    1.117212   -0.855399
| 36> H      0.287614    1.010598    0.893780
| 37> H      0.287855    1.038888   -0.854540
| 38> H      1.635068   -1.102846    0.860594
| 39> H      1.634146   -1.076122   -0.888446
| 40> *
| 41>
| 42>                          ****END OF INPUT****

CARTESIAN COORDINATES (ANGSTROEM)
---------------------------------
  C     -4.806157    0.164946   -0.005623
  C     -6.062810   -0.680870    0.015204
  C      6.725592   -0.280291   -0.006395
  C     -3.487345   -0.589442   -0.010665
  C      5.426775    0.524067    0.007880
  C     -2.245230    0.293358    0.007034
  C      4.172804   -0.350971   -0.004536
  C     -0.944153   -0.509724   -0.005659
  C      2.867501    0.444990    0.008804
  C      0.309146    0.366142    0.008951
  C      1.614054   -0.430731   -0.003842
  O     -4.857865    1.374419   -0.015761
  H     -6.066233   -1.383636   -0.820306
  H     -6.941478   -0.043492   -0.036220
  H     -6.097895   -1.276478    0.930151
  H      6.792162   -0.936999    0.863557
  H      6.790716   -0.908018   -0.897593
  H      7.599872    0.372101    0.003614
  H     -3.487195   -1.243242   -0.890607
  H     -3.492921   -1.273880    0.845326
  H      5.404779    1.195795   -0.855539
  H      5.406736    1.168164    0.892173
  H     -2.273858    0.968070   -0.851145
  H     -2.275701    0.936898    0.889030
  H      4.193680   -0.996496   -0.889181
  H      4.195186   -1.023399    0.859786
  H     -0.922432   -1.183317    0.857933
  H     -0.922105   -1.154301   -0.891131
  H      2.847599    1.090299    0.893334
  H      2.846263    1.117212   -0.855399
  H      0.287614    1.010598    0.893780
  H      0.287855    1.038888   -0.854540
  H      1.635068   -1.102846    0.860594
  H      1.634146   -1.076122   -0.888446

 Total Charge           Charge          ....    0
 Multiplicity           Mult            ....    1
 Number of Electrons    NEL             ....   96
 Basis Dimension        Dim             .... 1058

ORBITAL ENERGIES
----------------

  NO   OCC          E(Eh)            E(eV)
   0   2.0000     -20.542693      -558.9951
   1   2.0000     -11.327915      -308.2482
   2   2.0000     -11.235799      -305.7416
   3   2.0000     -11.232736      -305.6583
   4   2.0000     -11.218820      -305.2796
   5   2.0000     -11.218203      -305.2628
   6   2.0000     -11.214935      -305.1739
   7   2.0000     -11.214876      -305.1723
   8   2.0000     -11.214179      -305.1533
   9   2.0000     -11.213339      -305.1305
  10   2.0000     -11.212738      -305.1141
  11   2.0000     -11.209067      -305.0142
  12   2.0000      -1.385068       -37.6896
  13   2.0000      -1.097320       -29.8596
  14   2.0000      -1.077600       -29.3230
  15   2.0000      -1.046042       -28.4642
  16   2.0000      -1.014122       -27.5957
  17   2.0000      -0.978854       -26.6360
  18   2.0000      -0.924846       -25.1663
  19   2.0000      -0.862778       -23.4774
  20   2.0000      -0.809368       -22.0240
  21   2.0000      -0.788274       -21.4500
  22   2.0000      -0.784526       -21.3480
  23   2.0000      -0.731725       -19.9112
  24   2.0000      -0.662848       -18.0370
  25   2.0000      -0.649962       -17.6864
  26   2.0000      -0.646207       -17.5842
  27   2.0000      -0.623903       -16.9773
  28   2.0000      -0.620490       -16.8844
  29   2.0000      -0.592894       -16.1335
  30   2.0000      -0.588985       -16.0271
  31   2.0000      -0.573502       -15.6058
  32   2.0000      -0.564639       -15.3646
  33   2.0000      -0.557924       -15.1819
  34   2.0000      -0.546949       -14.8832
  35   2.0000      -0.529528       -14.4092
  36   2.0000      -0.523225       -14.2377
  37   2.0000      -0.496859       -13.5202
  38   2.0000      -0.493600       -13.4315
  39   2.0000      -0.489839       -13.3292
  40   2.0000      -0.484376       -13.1805
  41   2.0000      -0.470533       -12.8039
  42   2.0000      -0.468249       -12.7417
  43   2.0000      -0.461144       -12.5484
  44   2.0000      -0.458262       -12.4699
  45   2.0000      -0.457016       -12.4360
  46   2.0000      -0.435206       -11.8425
  47   2.0000      -0.404911       -11.0182
  48   0.0000       0.024693         0.6719
  49   0.0000       0.029714         0.8086
  50   0.0000       0.034623         0.9421
  51   0.0000       0.034743         0.9454
  52   0.0000       0.037752         1.0273

MULLIKEN ATOMIC CHARGES
-----------------------
   0 C :    0.445274
   1 C :   -0.892505
   2 C :   -1.010962
   3 C :   -0.300822
   4 C :   -0.524911
   5 C :   -0.368661
   6 C :   -0.324202
   7 C :   -0.240723
   8 C :   -0.365944
   9 C :   -0.378657
  10 C :   -0.310897
  11 O :   -0.875203
  12 H :    0.308276
  13 H :    0.313762
  14 H :    0.309706
  15 H :    0.259879
  16 H :    0.259861
  17 H :    0.273955
  18 H :    0.214673
  19 H :    0.214666
  20 H :    0.220578
  21 H :    0.220345
  22 H :    0.208504
  23 H :    0.205419
  24 H :    0.226316
  25 H :    0.226202
  26 H :    0.217770
  27 H :    0.218175
  28 H :    0.210633
  29 H :    0.211309
  30 H :    0.214530
  31 H :    0.213814
  32 H :    0.199788
  33 H :    0.200051
Sum of atomic charges:    0.0000000

LOEWDIN ATOMIC CHARGES
----------------------
   0 C :   -0.508200
   1 C :    0.589223
   2 C :    0.577513
   3 C :    0.273729
   4 C :    0.256474
   5 C :    0.269119
   6 C :    0.269123
   7 C :    0.279305
   8 C :    0.278014
   9 C :    0.282120
  10 C :    0.279669
  11 O :    0.474432
  12 H :   -0.174117
  13 H :   -0.183012
  14 H :   -0.172713
  15 H :   -0.171958
  16 H :   -0.171952
  17 H :   -0.174423
  18 H :   -0.145840
  19 H :   -0.145923
  20 H :   -0.148195
  21 H :   -0.148165
  22 H :   -0.142393
  23 H :   -0.141329
  24 H :   -0.141737
  25 H :   -0.141749
  26 H :   -0.140124
  27 H :   -0.140195
  28 H :   -0.139857
  29 H :   -0.139914
  30 H :   -0.138491
  31 H :   -0.138551
  32 H :   -0.139936
  33 H :   -0.139948

  Mayer bond orders larger than 0.100000
B(  0-C ,  1-C ) :   0.9583 B(  0-C ,  3-C ) :   0.7737 B(  0-C , 11-O ) :   1.1769
B(  1-C , 12-H ) :   0.9415 B(  1-C , 13-H ) :   0.9462 B(  1-C , 14-H ) :   0.9365
B(  2-C ,  4-C ) :   0.9326 B(  2-C ,  6-C ) :  -0.1019 B(  2-C , 15-H ) :   0.9752
B(  2-C , 16-H ) :   0.9752 B(  2-C , 17-H ) :   0.9942 B(  3-C ,  5-C ) :   1.0493
B(  3-C , 18-H ) :   0.9708 B(  3-C , 19-H ) :   0.9729 B(  4-C ,  6-C ) :   0.9237
B(  4-C ,  8-C ) :  -0.1090 B(  4-C , 20-H ) :   0.9815 B(  4-C , 21-H ) :   0.9819
B(  5-C ,  7-C ) :   0.9051 B(  5-C , 22-H ) :   0.9831 B(  5-C , 23-H ) :   0.9835
B(  6-C ,  8-C ) :   0.9860 B(  6-C , 24-H ) :   0.9675 B(  6-C , 25-H ) :   0.9679
B(  7-C ,  9-C ) :   0.9421 B(  7-C , 26-H ) :   0.9587 B(  7-C , 27-H ) :   0.9602
B(  8-C , 10-C ) :   0.9596 B(  8-C , 28-H ) :   0.9683 B(  8-C , 29-H ) :   0.9677
B(  9-C , 10-C ) :   0.9753 B(  9-C , 30-H ) :   0.9569 B(  9-C , 31-H ) :   0.9566
B( 10-C , 32-H ) :   0.9650 B( 10-C , 33-H ) :   0.9641

MP2 TOTAL ENERGY:     -506.590109791 Eh
FINAL SINGLE POINT ENERGY      -506.590109790804

DIPOLE MOMENT
-------------
                                X             Y             Z
Electronic contribution:    -18.25073       3.74878      -0.04971
Nuclear contribution   :     18.38489      -4.95747       0.06238
                        -----------------------------------------
Total Dipole Moment    :      0.13416      -1.20869       0.01267
                        -----------------------------------------
Magnitude (a.u.)       :      1.21618
Magnitude (Debye)      :      3.09129

Rotational constants in cm-1:     0.174532     0.005634     0.005513
Rotational constants in MHz :  5232.326483   168.891456   165.260913

                             ****ORCA TERMINATED NORMALLY****
TOTAL RUN TIME: 0 days 0 hours 30 minutes 22 seconds 459 msec
