                         Program Version 5.0.3 -  RELEASE  -
|  1> !ri-mp2 aug-cc-pvtz aug-cc-pvtz/c tightscf
|  2> %pal nprocs 16 end
|  3>
|  4> * xyz 0 1
|  5> C     -1.137324    0.318072        0.000000
|  6> O     -2.279401    1.022074        0.000000
|  7> C     -1.190713   -1.078014        0.000000
|  8> C      0.031924   -1.715471        0.000000
|  9> N      1.199468   -1.061094        0.000000
| 10> C      1.110451    0.264069        0.000000
| 11> O      2.256714    0.960746        0.000000
| 12> N      0.000000    0.995036        0.000000
| 13> H     -2.038605    1.959714        0.000000
| 14> H     -2.128722   -1.608922        0.000000
| 15> H      0.091249   -2.797105        0.000000
| 16> H      2.975267    0.314212        0.000000
| 17> *
| 18>
| 19>                          ****END OF INPUT****

CARTESIAN COORDINATES (ANGSTROEM)
---------------------------------
  C     -1.137324    0.318072    0.000000
  O     -2.279401    1.022074    0.000000
  C     -1.190713   -1.078014    0.000000
  C      0.031924   -1.715471    0.000000
  N      1.199468   -1.061094    0.000000
  C      1.110451    0.264069    0.000000
  O      2.256714    0.960746    0.000000
  N      0.000000    0.995036    0.000000
  H     -2.038605    1.959714    0.000000
  H     -2.128722   -1.608922    0.000000
  H      0.091249   -2.797105    0.000000
  H      2.975267    0.314212    0.000000

 Total Charge           Charge          ....    0
 Multiplicity           Mult            ....    1
 Number of Electrons    NEL             ....   58
 Basis Dimension        Dim             ....  460

ORBITAL ENERGIES
----------------

  NO   OCC          E(Eh)            E(eV)
   0   2.0000     -20.618514      -561.0583
   1   2.0000     -20.609126      -560.8028
   2   2.0000     -15.571323      -423.7172
   3   2.0000     -15.567446      -423.6117
   4   2.0000     -11.387700      -309.8751
   5   2.0000     -11.372597      -309.4641
   6   2.0000     -11.308794      -307.7279
   7   2.0000     -11.239112      -305.8318
   8   2.0000      -1.455866       -39.6161
   9   2.0000      -1.443598       -39.2823
  10   2.0000      -1.300414       -35.3861
  11   2.0000      -1.205750       -32.8101
  12   2.0000      -1.069428       -29.1006
  13   2.0000      -0.911835       -24.8123
  14   2.0000      -0.898201       -24.4413
  15   2.0000      -0.799759       -21.7625
  16   2.0000      -0.748449       -20.3663
  17   2.0000      -0.708452       -19.2779
  18   2.0000      -0.662528       -18.0283
  19   2.0000      -0.655093       -17.8260
  20   2.0000      -0.638638       -17.3782
  21   2.0000      -0.606152       -16.4942
  22   2.0000      -0.595533       -16.2053
  23   2.0000      -0.582212       -15.8428
  24   2.0000      -0.515691       -14.0327
  25   2.0000      -0.501007       -13.6331
  26   2.0000      -0.431565       -11.7435
  27   2.0000      -0.425515       -11.5788
  28   2.0000      -0.358795        -9.7633
  29   0.0000       0.026901         0.7320
  30   0.0000       0.035032         0.9533
  31   0.0000       0.036526         0.9939
  32   0.0000       0.047963         1.3051
  33   0.0000       0.070931         1.9301

MULLIKEN ATOMIC CHARGES
-----------------------
   0 C :    0.685557
   1 O :   -0.572068
   2 C :   -0.358307
   3 C :   -0.386730
   4 N :   -0.331598
   5 C :    0.014832
   6 O :   -0.437574
   7 N :   -0.218786
   8 H :    0.249976
   9 H :    0.440449
  10 H :    0.697834
  11 H :    0.216414
Sum of atomic charges:    0.0000000

LOEWDIN ATOMIC CHARGES
----------------------
   0 C :   -0.591604
   1 O :    0.851683
   2 C :    0.215687
   3 C :   -0.000877
   4 N :    0.381790
   5 C :   -0.774714
   6 O :    0.839047
   7 N :    0.407287
   8 H :   -0.470215
   9 H :   -0.196908
  10 H :   -0.177521
  11 H :   -0.483657

  Mayer bond orders larger than 0.100000
B(  0-C ,  1-O ) :   0.8783 B(  0-C ,  2-C ) :   1.0595 B(  0-C ,  3-C ) :   0.1177
B(  0-C ,  5-C ) :  -0.1946 B(  0-C ,  7-N ) :   1.0669 B(  1-O ,  7-N ) :  -0.1560
B(  1-O ,  8-H ) :   0.9397 B(  2-C ,  3-C ) :   1.1476 B(  2-C ,  4-N ) :  -0.1508
B(  2-C ,  9-H ) :   0.8184 B(  3-C ,  4-N ) :   1.0617 B(  3-C ,  5-C ) :  -0.1675
B(  3-C , 10-H ) :   0.4074 B(  4-N ,  5-C ) :   1.2611 B(  4-N ,  6-O ) :  -0.1462
B(  5-C ,  6-O ) :   1.0356 B(  5-C ,  7-N ) :   1.2304 B(  5-C , 11-H ) :   0.1039
B(  6-O ,  7-N ) :  -0.1551 B(  6-O , 11-H ) :   0.9652

MP2 TOTAL ENERGY:     -414.109865746 Eh
FINAL SINGLE POINT ENERGY      -414.109865746017

DIPOLE MOMENT
-------------
                                X             Y             Z
Electronic contribution:      0.83519       1.54028      -0.00000
Nuclear contribution   :     -1.06328      -2.04200       0.00000
                        -----------------------------------------
Total Dipole Moment    :     -0.22810      -0.50172      -0.00000
                        -----------------------------------------
Magnitude (a.u.)       :      0.55114
Magnitude (Debye)      :      1.40088

Rotational constants in cm-1:     0.133184     0.067389     0.044748
Rotational constants in MHz :  3992.766236  2020.274737  1341.498385

                             ****ORCA TERMINATED NORMALLY****
TOTAL RUN TIME: 0 days 0 hours 3 minutes 30 seconds 983 msec
