                         Program Version 5.0.3 -  RELEASE  -
|  1> !ri-mp2 aug-cc-pvtz aug-cc-pvtz/c tightscf
|  2> %pal nprocs 16 end
|  3>
|  4> * xyz 0 1
|  5> C     -1.357401    1.261636   -0.000015
|  6> C     -1.021256   -0.208745    0.000007
|  7> O      0.300018   -0.575884   -0.000304
|  8> C      1.343345    0.319637    0.000014
|  9> C      2.594789   -0.109974    0.000104
| 10> O     -1.841186   -1.081285    0.000173
| 11> H     -0.954127    1.760057    0.881924
| 12> H     -0.953586    1.760128   -0.881661
| 13> H     -2.438358    1.353144   -0.000324
| 14> H      1.083879    1.367562    0.000051
| 15> H      2.832057   -1.163725    0.000004
| 16> H      3.402610    0.604869    0.000394
| 17> *
| 18>
| 19>                          ****END OF INPUT****

CARTESIAN COORDINATES (ANGSTROEM)
---------------------------------
  C     -1.357401    1.261636   -0.000015
  C     -1.021256   -0.208745    0.000007
  O      0.300018   -0.575884   -0.000304
  C      1.343345    0.319637    0.000014
  C      2.594789   -0.109974    0.000104
  O     -1.841186   -1.081285    0.000173
  H     -0.954127    1.760057    0.881924
  H     -0.953586    1.760128   -0.881661
  H     -2.438358    1.353144   -0.000324
  H      1.083879    1.367562    0.000051
  H      2.832057   -1.163725    0.000004
  H      3.402610    0.604869    0.000394

 Total Charge           Charge          ....    0
 Multiplicity           Mult            ....    1
 Number of Electrons    NEL             ....   46
 Basis Dimension        Dim             ....  414

ORBITAL ENERGIES
----------------

  NO   OCC          E(Eh)            E(eV)
   0   2.0000     -20.622157      -561.1574
   1   2.0000     -20.552318      -559.2570
   2   2.0000     -11.396146      -310.1049
   3   2.0000     -11.314651      -307.8873
   4   2.0000     -11.260449      -306.4124
   5   2.0000     -11.234864      -305.7162
   6   2.0000      -1.474666       -40.1277
   7   2.0000      -1.380182       -37.5567
   8   2.0000      -1.061929       -28.8966
   9   2.0000      -1.031433       -28.0667
  10   2.0000      -0.863136       -23.4871
  11   2.0000      -0.788052       -21.4440
  12   2.0000      -0.717034       -19.5115
  13   2.0000      -0.677518       -18.4362
  14   2.0000      -0.668523       -18.1914
  15   2.0000      -0.619982       -16.8706
  16   2.0000      -0.607498       -16.5309
  17   2.0000      -0.588667       -16.0184
  18   2.0000      -0.568828       -15.4786
  19   2.0000      -0.534044       -14.5321
  20   2.0000      -0.506362       -13.7788
  21   2.0000      -0.458629       -12.4799
  22   2.0000      -0.369505       -10.0547
  23   0.0000       0.022637         0.6160
  24   0.0000       0.031879         0.8675
  25   0.0000       0.040749         1.1088
  26   0.0000       0.042560         1.1581
  27   0.0000       0.052622         1.4319

MULLIKEN ATOMIC CHARGES
-----------------------
   0 C :   -0.588863
   1 C :    0.438231
   2 O :   -0.297071
   3 C :   -0.096046
   4 C :   -1.056669
   5 O :   -0.774876
   6 H :    0.290218
   7 H :    0.290199
   8 H :    0.335095
   9 H :    0.620450
  10 H :    0.444588
  11 H :    0.394745
Sum of atomic charges:   -0.0000000

LOEWDIN ATOMIC CHARGES
----------------------
   0 C :    0.572797
   1 C :   -0.783851
   2 O :    0.551956
   3 C :   -0.078508
   4 C :    0.519856
   5 O :    0.441888
   6 H :   -0.173692
   7 H :   -0.173735
   8 H :   -0.180740
   9 H :   -0.232374
  10 H :   -0.223334
  11 H :   -0.240263

  Mayer bond orders larger than 0.100000
B(  0-C ,  1-C ) :   0.7530 B(  0-C ,  6-H ) :   0.9288 B(  0-C ,  7-H ) :   0.9289
B(  0-C ,  8-H ) :   0.9105 B(  1-C ,  2-O ) :   1.0681 B(  1-C ,  5-O ) :   1.4666
B(  2-O ,  3-C ) :   0.8334 B(  3-C ,  4-C ) :   1.4787 B(  3-C ,  9-H ) :   0.6143
B(  4-C , 10-H ) :   0.8602 B(  4-C , 11-H ) :   0.8915

MP2 TOTAL ENERGY:     -305.920644889 Eh
FINAL SINGLE POINT ENERGY      -305.920644889141

DIPOLE MOMENT
-------------
                                X             Y             Z
Electronic contribution:     -2.28511      -4.08713      -0.00034
Nuclear contribution   :      2.95850       5.67571       0.00039
                        -----------------------------------------
Total Dipole Moment    :      0.67339       1.58858       0.00004
                        -----------------------------------------
Magnitude (a.u.)       :      1.72541
Magnitude (Debye)      :      4.38564

Rotational constants in cm-1:     0.292123     0.075479     0.060658
Rotational constants in MHz :  8757.622372  2262.812447  1818.477172

                             ****ORCA TERMINATED NORMALLY****
TOTAL RUN TIME: 0 days 0 hours 2 minutes 29 seconds 37 msec
