                         Program Version 5.0.3 -  RELEASE  -
|  1> !ri-mp2 aug-cc-pvtz aug-cc-pvtz/c tightscf
|  2> %pal nprocs 16 end
|  3> %maxcore 3800
|  4>
|  5> * xyz 0 1
|  6> C     -2.760426   -1.207325    1.207306
|  7> C     -1.942526   -0.170313    1.165936
|  8> S     -1.209568    0.357864   -0.377660
|  9> O     -1.661482   -0.546197   -1.429486
| 10> O     -1.432644    1.796435   -0.478409
| 11> C      0.549958    0.093229   -0.128571
| 12> C      1.327317    1.134136    0.365938
| 13> C      2.688495    0.926492    0.555460
| 14> C      3.254893   -0.306208    0.249360
| 15> C      2.466154   -1.336958   -0.253252
| 16> C      1.104750   -1.142081   -0.445145
| 17> H     -2.971203   -1.781796    0.315349
| 18> H     -3.245923   -1.496562    2.129835
| 19> H     -1.694653    0.461090    2.008205
| 20> H      0.872163    2.091493    0.574475
| 21> H      3.306169    1.729235    0.933931
| 22> H      4.315074   -0.462596    0.395508
| 23> H      2.912325   -2.289975   -0.502003
| 24> H      0.480456   -1.924459   -0.851784
| 25> *
| 26>
| 27>                          ****END OF INPUT****

CARTESIAN COORDINATES (ANGSTROEM)
---------------------------------
  C     -2.760426   -1.207325    1.207306
  C     -1.942526   -0.170313    1.165936
  S     -1.209568    0.357864   -0.377660
  O     -1.661482   -0.546197   -1.429486
  O     -1.432644    1.796435   -0.478409
  C      0.549958    0.093229   -0.128571
  C      1.327317    1.134136    0.365938
  C      2.688495    0.926492    0.555460
  C      3.254893   -0.306208    0.249360
  C      2.466154   -1.336958   -0.253252
  C      1.104750   -1.142081   -0.445145
  H     -2.971203   -1.781796    0.315349
  H     -3.245923   -1.496562    2.129835
  H     -1.694653    0.461090    2.008205
  H      0.872163    2.091493    0.574475
  H      3.306169    1.729235    0.933931
  H      4.315074   -0.462596    0.395508
  H      2.912325   -2.289975   -0.502003
  H      0.480456   -1.924459   -0.851784

 Total Charge           Charge          ....    0
 Multiplicity           Mult            ....    1
 Number of Electrons    NEL             ....   88
 Basis Dimension        Dim             ....  694

ORBITAL ENERGIES
----------------

  NO   OCC          E(Eh)            E(eV)
   0   2.0000     -92.184507     -2508.4680
   1   2.0000     -20.544231      -559.0369
   2   2.0000     -20.541989      -558.9759
   3   2.0000     -11.279752      -306.9377
   4   2.0000     -11.279124      -306.9206
   5   2.0000     -11.272191      -306.7319
   6   2.0000     -11.265982      -306.5630
   7   2.0000     -11.265803      -306.5581
   8   2.0000     -11.263020      -306.4824
   9   2.0000     -11.256858      -306.3147
  10   2.0000     -11.256660      -306.3093
  11   2.0000      -9.153067      -249.0676
  12   2.0000      -6.837671      -186.0625
  13   2.0000      -6.837517      -186.0583
  14   2.0000      -6.837296      -186.0523
  15   2.0000      -1.442813       -39.2609
  16   2.0000      -1.332542       -36.2603
  17   2.0000      -1.184258       -32.2253
  18   2.0000      -1.096071       -29.8256
  19   2.0000      -1.055327       -28.7169
  20   2.0000      -1.044022       -28.4093
  21   2.0000      -0.929929       -25.3046
  22   2.0000      -0.855561       -23.2810
  23   2.0000      -0.847054       -23.0495
  24   2.0000      -0.784530       -21.3481
  25   2.0000      -0.736884       -20.0516
  26   2.0000      -0.700861       -19.0714
  27   2.0000      -0.668621       -18.1941
  28   2.0000      -0.665372       -18.1057
  29   2.0000      -0.652163       -17.7462
  30   2.0000      -0.638599       -17.3772
  31   2.0000      -0.618158       -16.8209
  32   2.0000      -0.615547       -16.7499
  33   2.0000      -0.575107       -15.6495
  34   2.0000      -0.546585       -14.8733
  35   2.0000      -0.534135       -14.5345
  36   2.0000      -0.522316       -14.2129
  37   2.0000      -0.497827       -13.5466
  38   2.0000      -0.492963       -13.4142
  39   2.0000      -0.472263       -12.8509
  40   2.0000      -0.440720       -11.9926
  41   2.0000      -0.424432       -11.5494
  42   2.0000      -0.366720        -9.9790
  43   2.0000      -0.361537        -9.8379
  44   0.0000       0.022709         0.6179
  45   0.0000       0.027175         0.7395
  46   0.0000       0.030986         0.8432
  47   0.0000       0.041068         1.1175
  48   0.0000       0.043990         1.1970

MULLIKEN ATOMIC CHARGES
-----------------------
   0 C :   -1.097939
   1 C :   -0.422973
   2 S :    2.062395
   3 O :   -1.052640
   4 O :   -1.074901
   5 C :    0.901984
   6 C :   -0.874603
   7 C :   -0.448300
   8 C :   -0.305660
   9 C :   -0.463147
  10 C :   -0.827902
  11 H :    0.405911
  12 H :    0.429295
  13 H :    0.517382
  14 H :    0.467652
  15 H :    0.402365
  16 H :    0.507445
  17 H :    0.401065
  18 H :    0.472570
Sum of atomic charges:    0.0000000

LOEWDIN ATOMIC CHARGES
----------------------
   0 C :    0.487895
   1 C :    0.078245
   2 S :    0.241772
   3 O :    0.046207
   4 O :    0.035192
   5 C :   -0.241123
   6 C :    0.164771
   7 C :    0.209024
   8 C :    0.208829
   9 C :    0.209247
  10 C :    0.166463
  11 H :   -0.234091
  12 H :   -0.211672
  13 H :   -0.230060
  14 H :   -0.197718
  15 H :   -0.181797
  16 H :   -0.177604
  17 H :   -0.181674
  18 H :   -0.191902

  Mayer bond orders larger than 0.100000
B(  0-C ,  1-C ) :   1.3682 B(  0-C , 11-H ) :   0.8707 B(  0-C , 12-H ) :   0.8134
B(  1-C ,  2-S ) :   1.0670 B(  1-C ,  4-O ) :   0.1740 B(  1-C ,  5-C ) :   0.2177
B(  1-C , 13-H ) :   0.6690 B(  2-S ,  3-O ) :   1.1067 B(  2-S ,  4-O ) :   0.9944
B(  2-S ,  5-C ) :   1.0941 B(  2-S ,  6-C ) :  -0.1548 B(  2-S , 10-C ) :  -0.1121
B(  3-O ,  5-C ) :   0.1019 B(  4-O ,  5-C ) :   0.1613 B(  5-C ,  6-C ) :   0.6070
B(  5-C ,  9-C ) :  -0.1035 B(  5-C , 10-C ) :   0.6188 B(  6-C ,  7-C ) :   1.1565
B(  6-C ,  8-C ) :   0.1867 B(  6-C , 10-C ) :   0.3432 B(  6-C , 14-H ) :   0.7395
B(  7-C ,  8-C ) :   1.1264 B(  7-C , 15-H ) :   0.9692 B(  8-C ,  9-C ) :   1.1252
B(  8-C , 10-C ) :   0.1571 B(  8-C , 16-H ) :   0.7404 B(  9-C , 10-C ) :   1.1506
B(  9-C , 17-H ) :   0.9642 B( 10-C , 18-H ) :   0.7359

MP2 TOTAL ENERGY:     -856.923282710 Eh
FINAL SINGLE POINT ENERGY      -856.923282709501

DIPOLE MOMENT
-------------
                                X             Y             Z
Electronic contribution:     -2.76914       2.61386      -3.29893
Nuclear contribution   :      3.89370      -3.60086       4.89798
                        -----------------------------------------
Total Dipole Moment    :      1.12456      -0.98700       1.59905
                        -----------------------------------------
Magnitude (a.u.)       :      2.18992
Magnitude (Debye)      :      5.56633

Rotational constants in cm-1:     0.064924     0.022654     0.020712
Rotational constants in MHz :  1946.385375   679.160892   620.929295

                             ****ORCA TERMINATED NORMALLY****
TOTAL RUN TIME: 0 days 0 hours 13 minutes 0 seconds 172 msec
