                         Program Version 5.0.3 -  RELEASE  -
|  1> !ri-mp2 aug-cc-pvtz aug-cc-pvtz/c tightscf
|  2> %pal nprocs 16 end
|  3>
|  4> * xyz 0 1
|  5> N     -0.204180    1.865921   -0.165122
|  6> C     -0.044385    0.433011   -0.462275
|  7> C     -1.370928   -0.271392   -0.129443
|  8> O     -1.723843   -1.301180   -0.637826
|  9> O     -2.103030    0.357938    0.804964
| 10> H     -1.646282    1.209604    0.969437
| 11> C      1.128185   -0.162775    0.360267
| 12> C      2.465222    0.464609   -0.056758
| 13> C      1.217327   -1.687377    0.244479
| 14> H      0.147500    0.235377   -1.520887
| 15> H      0.941461    0.092091    1.408810
| 16> H      3.277525    0.032580    0.528053
| 17> H      2.673618    0.266976   -1.110595
| 18> H      2.508562    1.543790    0.096919
| 19> H      0.318428   -2.184121    0.600700
| 20> H      1.371984   -1.994000   -0.791577
| 21> H      2.062337   -2.049689    0.830873
| 22> H      0.683380    2.321499   -0.008696
| 23> H     -0.666802    2.353922   -0.921910
| 24> *
| 25>
| 26>                          ****END OF INPUT****

CARTESIAN COORDINATES (ANGSTROEM)
---------------------------------
  N     -0.204180    1.865921   -0.165122
  C     -0.044385    0.433011   -0.462275
  C     -1.370928   -0.271392   -0.129443
  O     -1.723843   -1.301180   -0.637826
  O     -2.103030    0.357938    0.804964
  H     -1.646282    1.209604    0.969437
  C      1.128185   -0.162775    0.360267
  C      2.465222    0.464609   -0.056758
  C      1.217327   -1.687377    0.244479
  H      0.147500    0.235377   -1.520887
  H      0.941461    0.092091    1.408810
  H      3.277525    0.032580    0.528053
  H      2.673618    0.266976   -1.110595
  H      2.508562    1.543790    0.096919
  H      0.318428   -2.184121    0.600700
  H      1.371984   -1.994000   -0.791577
  H      2.062337   -2.049689    0.830873
  H      0.683380    2.321499   -0.008696
  H     -0.666802    2.353922   -0.921910

 Total Charge           Charge          ....    0
 Multiplicity           Mult            ....    1
 Number of Electrons    NEL             ....   64
 Basis Dimension        Dim             ....  621

ORBITAL ENERGIES
----------------

  NO   OCC          E(Eh)            E(eV)
   0   2.0000     -20.594996      -560.4183
   1   2.0000     -20.534775      -558.7796
   2   2.0000     -15.579767      -423.9470
   3   2.0000     -11.372439      -309.4598
   4   2.0000     -11.289422      -307.2008
   5   2.0000     -11.254643      -306.2544
   6   2.0000     -11.234377      -305.7029
   7   2.0000     -11.217677      -305.2485
   8   2.0000      -1.449535       -39.4439
   9   2.0000      -1.354442       -36.8562
  10   2.0000      -1.222031       -33.2532
  11   2.0000      -1.088080       -29.6082
  12   2.0000      -0.963680       -26.2231
  13   2.0000      -0.938847       -25.5473
  14   2.0000      -0.821542       -22.3553
  15   2.0000      -0.797312       -21.6960
  16   2.0000      -0.727809       -19.8047
  17   2.0000      -0.694303       -18.8930
  18   2.0000      -0.675444       -18.3798
  19   2.0000      -0.636719       -17.3260
  20   2.0000      -0.625633       -17.0243
  21   2.0000      -0.607626       -16.5343
  22   2.0000      -0.592294       -16.1171
  23   2.0000      -0.568231       -15.4623
  24   2.0000      -0.551310       -15.0019
  25   2.0000      -0.541253       -14.7282
  26   2.0000      -0.503168       -13.6919
  27   2.0000      -0.493499       -13.4288
  28   2.0000      -0.489717       -13.3259
  29   2.0000      -0.462026       -12.5724
  30   2.0000      -0.450531       -12.2596
  31   2.0000      -0.421479       -11.4690
  32   0.0000       0.019960         0.5432
  33   0.0000       0.030272         0.8238
  34   0.0000       0.034211         0.9309
  35   0.0000       0.040636         1.1058
  36   0.0000       0.051432         1.3995

MULLIKEN ATOMIC CHARGES
-----------------------
   0 N :   -0.701498
   1 C :    0.655258
   2 C :    0.692315
   3 O :   -0.884259
   4 O :   -0.574321
   5 H :    0.248319
   6 C :    0.174742
   7 C :   -1.080092
   8 C :   -1.055745
   9 H :    0.360481
  10 H :    0.351224
  11 H :    0.259642
  12 H :    0.254480
  13 H :    0.283460
  14 H :    0.292368
  15 H :    0.260845
  16 H :    0.252281
  17 H :    0.160278
  18 H :    0.050222
Sum of atomic charges:    0.0000000

LOEWDIN ATOMIC CHARGES
----------------------
   0 N :    0.878931
   1 C :   -0.094807
   2 C :   -0.781198
   3 O :    0.449537
   4 O :    0.844486
   5 H :   -0.576493
   6 C :   -0.030350
   7 C :    0.599272
   8 C :    0.588956
   9 H :   -0.137742
  10 H :   -0.128974
  11 H :   -0.160016
  12 H :   -0.152236
  13 H :   -0.178636
  14 H :   -0.186297
  15 H :   -0.152168
  16 H :   -0.163420
  17 H :   -0.339184
  18 H :   -0.279663

  Mayer bond orders larger than 0.100000
B(  0-N ,  1-C ) :   0.3713 B(  0-N ,  2-C ) :   0.1348 B(  0-N ,  5-H ) :   0.1138
B(  0-N , 17-H ) :   0.9261 B(  0-N , 18-H ) :   1.0753 B(  1-C ,  2-C ) :   0.6196
B(  1-C ,  6-C ) :   0.8525 B(  1-C ,  9-H ) :   0.9110 B(  2-C ,  3-O ) :   1.2725
B(  2-C ,  4-O ) :   0.7551 B(  2-C ,  6-C ) :   0.2177 B(  4-O ,  5-H ) :   0.8684
B(  6-C ,  7-C ) :   0.6798 B(  6-C ,  8-C ) :   0.7155 B(  6-C , 10-H ) :   0.8082
B(  7-C ,  8-C ) :   0.1263 B(  7-C , 11-H ) :   1.0168 B(  7-C , 12-H ) :   0.9964
B(  7-C , 13-H ) :   0.9397 B(  8-C , 14-H ) :   0.9641 B(  8-C , 15-H ) :   0.9914
B(  8-C , 16-H ) :   1.0024

MP2 TOTAL ENERGY:     -401.661742822 Eh
FINAL SINGLE POINT ENERGY      -401.661742822038

DIPOLE MOMENT
-------------
                                X             Y             Z
Electronic contribution:    -10.31882      -0.39523      -0.17498
Nuclear contribution   :     11.91233       1.87158       0.08495
                        -----------------------------------------
Total Dipole Moment    :      1.59351       1.47635      -0.09003
                        -----------------------------------------
Magnitude (a.u.)       :      2.17417
Magnitude (Debye)      :      5.52629

Rotational constants in cm-1:     0.094837     0.053781     0.039393
Rotational constants in MHz :  2843.154950  1612.318044  1180.980325

                             ****ORCA TERMINATED NORMALLY****
TOTAL RUN TIME: 0 days 0 hours 8 minutes 40 seconds 551 msec
