                         Program Version 5.0.3 -  RELEASE  -
|  1> !ri-mp2 aug-cc-pvtz aug-cc-pvtz/c tightscf
|  2> %pal nprocs 16 end
|  3>
|  4> * xyz 0 1
|  5> O      0.000000    0.000000    0.327847
|  6> C      0.000000    1.173022   -0.371331
|  7> C      0.000000   -1.173022   -0.371331
|  8> C      0.000000    2.350479    0.235228
|  9> C      0.000000   -2.350479    0.235228
| 10> H      0.000000    1.065115   -1.450457
| 11> H      0.000000   -1.065115   -1.450457
| 12> H      0.000000    3.252035   -0.356369
| 13> H      0.000000    2.435055    1.312056
| 14> H      0.000000   -3.252035   -0.356369
| 15> H      0.000000   -2.435055    1.312056
| 16> *
| 17>
| 18>                          ****END OF INPUT****

CARTESIAN COORDINATES (ANGSTROEM)
---------------------------------
  O      0.000000    0.000000    0.327847
  C      0.000000    1.173022   -0.371331
  C      0.000000   -1.173022   -0.371331
  C      0.000000    2.350479    0.235228
  C      0.000000   -2.350479    0.235228
  H      0.000000    1.065115   -1.450457
  H      0.000000   -1.065115   -1.450457
  H      0.000000    3.252035   -0.356369
  H      0.000000    2.435055    1.312056
  H      0.000000   -3.252035   -0.356369
  H      0.000000   -2.435055    1.312056

 Total Charge           Charge          ....    0
 Multiplicity           Mult            ....    1
 Number of Electrons    NEL             ....   38
 Basis Dimension        Dim             ....  368

ORBITAL ENERGIES
----------------

  NO   OCC          E(Eh)            E(eV)
   0   2.0000     -20.607034      -560.7459
   1   2.0000     -11.303919      -307.5953
   2   2.0000     -11.303895      -307.5946
   3   2.0000     -11.220447      -305.3239
   4   2.0000     -11.220447      -305.3239
   5   2.0000      -1.438027       -39.1307
   6   2.0000      -1.072742       -29.1908
   7   2.0000      -1.006148       -27.3787
   8   2.0000      -0.826491       -22.4900
   9   2.0000      -0.811783       -22.0897
  10   2.0000      -0.708033       -19.2665
  11   2.0000      -0.659695       -17.9512
  12   2.0000      -0.623727       -16.9725
  13   2.0000      -0.590347       -16.0642
  14   2.0000      -0.587216       -15.9790
  15   2.0000      -0.543752       -14.7962
  16   2.0000      -0.517963       -14.0945
  17   2.0000      -0.397767       -10.8238
  18   2.0000      -0.329682        -8.9711
  19   0.0000       0.029532         0.8036
  20   0.0000       0.033945         0.9237
  21   0.0000       0.038037         1.0350
  22   0.0000       0.052510         1.4289
  23   0.0000       0.053986         1.4690

MULLIKEN ATOMIC CHARGES
-----------------------
   0 O :   -0.347555
   1 C :   -0.058363
   2 C :   -0.058363
   3 C :   -1.043557
   4 C :   -1.043557
   5 H :    0.462164
   6 H :    0.462164
   7 H :    0.467474
   8 H :    0.346059
   9 H :    0.467474
  10 H :    0.346059
Sum of atomic charges:    0.0000000

LOEWDIN ATOMIC CHARGES
----------------------
   0 O :    0.534399
   1 C :   -0.086868
   2 C :   -0.086868
   3 C :    0.506589
   4 C :    0.506589
   5 H :   -0.207849
   6 H :   -0.207849
   7 H :   -0.248479
   8 H :   -0.230591
   9 H :   -0.248479
  10 H :   -0.230591

  Mayer bond orders larger than 0.100000
B(  0-O ,  1-C ) :   1.0006 B(  0-O ,  2-C ) :   1.0006 B(  1-C ,  3-C ) :   1.4168
B(  1-C ,  5-H ) :   0.8449 B(  1-C ,  6-H ) :  -0.1080 B(  2-C ,  4-C ) :   1.4168
B(  2-C ,  5-H ) :  -0.1080 B(  2-C ,  6-H ) :   0.8449 B(  3-C ,  7-H ) :   0.7379
B(  3-C ,  8-H ) :   1.0195 B(  4-C ,  9-H ) :   0.7379 B(  4-C , 10-H ) :   1.0195

MP2 TOTAL ENERGY:     -230.748301460 Eh
FINAL SINGLE POINT ENERGY      -230.748301460367

DIPOLE MOMENT
-------------
                                X             Y             Z
Electronic contribution:      0.00000      -0.00000       0.46689
Nuclear contribution   :      0.00000       0.00000      -1.00229
                        -----------------------------------------
Total Dipole Moment    :      0.00000      -0.00000      -0.53540
                        -----------------------------------------
Magnitude (a.u.)       :      0.53540
Magnitude (Debye)      :      1.36087

Rotational constants in cm-1:     1.177592     0.083731     0.078173
Rotational constants in MHz : 35303.329451  2510.191926  2343.556731

                             ****ORCA TERMINATED NORMALLY****
TOTAL RUN TIME: 0 days 0 hours 1 minutes 44 seconds 80 msec
