                         Program Version 5.0.3 -  RELEASE  -
|  1> !ri-mp2 aug-cc-pvtz aug-cc-pvtz/c tightscf
|  2> %pal nprocs 16 end
|  3>
|  4> * xyz 0 1
|  5> C      0.000000    0.915171    0.000000
|  6> C     -1.234906    0.436582    0.000000
|  7> C     -1.665685   -0.992435    0.000000
|  8> Cl     1.445564   -0.071997    0.000000
|  9> H      0.228804    1.968959    0.000000
| 10> H     -2.020171    1.186064    0.000000
| 11> H     -0.816904   -1.671987    0.000000
| 12> H     -2.281387   -1.207498    0.876786
| 13> H     -2.281387   -1.207498   -0.876786
| 14> *
| 15>
| 16>                          ****END OF INPUT****

CARTESIAN COORDINATES (ANGSTROEM)
---------------------------------
  C      0.000000    0.915171    0.000000
  C     -1.234906    0.436582    0.000000
  C     -1.665685   -0.992435    0.000000
  Cl     1.445564   -0.071997    0.000000
  H      0.228804    1.968959    0.000000
  H     -2.020171    1.186064    0.000000
  H     -0.816904   -1.671987    0.000000
  H     -2.281387   -1.207498    0.876786
  H     -2.281387   -1.207498   -0.876786

 Total Charge           Charge          ....    0
 Multiplicity           Mult            ....    1
 Number of Electrons    NEL             ....   40
 Basis Dimension        Dim             ....  303

ORBITAL ENERGIES
----------------

  NO   OCC          E(Eh)            E(eV)
   0   2.0000    -104.836258     -2852.7396
   1   2.0000     -11.290758      -307.2372
   2   2.0000     -11.252123      -306.1858
   3   2.0000     -11.231467      -305.6238
   4   2.0000     -10.560150      -287.3563
   5   2.0000      -8.027032      -218.4266
   6   2.0000      -8.025212      -218.3771
   7   2.0000      -8.025205      -218.3769
   8   2.0000      -1.151721       -31.3399
   9   2.0000      -1.050138       -28.5757
  10   2.0000      -0.937386       -25.5076
  11   2.0000      -0.752465       -20.4756
  12   2.0000      -0.675751       -18.3881
  13   2.0000      -0.590827       -16.0772
  14   2.0000      -0.580962       -15.8088
  15   2.0000      -0.545921       -14.8553
  16   2.0000      -0.508081       -13.8256
  17   2.0000      -0.497858       -13.5474
  18   2.0000      -0.448301       -12.1989
  19   2.0000      -0.359246        -9.7756
  20   0.0000       0.028497         0.7755
  21   0.0000       0.037152         1.0110
  22   0.0000       0.044279         1.2049
  23   0.0000       0.046256         1.2587
  24   0.0000       0.060333         1.6418

MULLIKEN ATOMIC CHARGES
-----------------------
   0 C :   -0.222515
   1 C :   -0.352387
   2 C :   -0.772361
   3 Cl:   -0.273688
   4 H :    0.472976
   5 H :    0.292851
   6 H :    0.278487
   7 H :    0.288318
   8 H :    0.288318
Sum of atomic charges:   -0.0000000

LOEWDIN ATOMIC CHARGES
----------------------
   0 C :   -0.423476
   1 C :    0.075962
   2 C :    0.526766
   3 Cl:    0.899060
   4 H :   -0.301420
   5 H :   -0.204834
   6 H :   -0.218653
   7 H :   -0.176703
   8 H :   -0.176703

  Mayer bond orders larger than 0.100000
B(  0-C ,  1-C ) :   1.6858 B(  0-C ,  3-Cl) :   0.7904 B(  0-C ,  4-H ) :   0.7204
B(  1-C ,  2-C ) :   0.9222 B(  1-C ,  3-Cl) :   0.1094 B(  1-C ,  5-H ) :   0.9722
B(  2-C ,  6-H ) :   0.9465 B(  2-C ,  7-H ) :   0.9527 B(  2-C ,  8-H ) :   0.9527

MP2 TOTAL ENERGY:     -576.757629823 Eh
FINAL SINGLE POINT ENERGY      -576.757629823264

DIPOLE MOMENT
-------------
                                X             Y             Z
Electronic contribution:      8.32211       1.00213      -0.00000
Nuclear contribution   :     -9.06975      -0.81376       0.00000
                        -----------------------------------------
Total Dipole Moment    :     -0.74764       0.18838      -0.00000
                        -----------------------------------------
Magnitude (a.u.)       :      0.77100
Magnitude (Debye)      :      1.95974

Rotational constants in cm-1:     0.481697     0.117478     0.096114
Rotational constants in MHz : 14440.899528  3521.900431  2881.411472

                             ****ORCA TERMINATED NORMALLY****
TOTAL RUN TIME: 0 days 0 hours 1 minutes 13 seconds 304 msec
