                         Program Version 5.0.3 -  RELEASE  -
|  1> !ri-mp2 aug-cc-pvtz aug-cc-pvtz/c tightscf
|  2> %pal nprocs 16 end
|  3>
|  4> * xyz 0 1
|  5> C     -1.222725    0.248264    0.000000
|  6> N     -2.224302   -0.323411    0.000000
|  7> C      0.000000    0.979779    0.000000
|  8> H     -0.097533    2.057310    0.000000
|  9> C      1.206868    0.404586    0.000000
| 10> H      2.065769    1.066361    0.000000
| 11> C      1.490613   -1.057531    0.000000
| 12> H      0.580711   -1.654271    0.000000
| 13> H      2.086316   -1.328056    0.875372
| 14> H      2.086316   -1.328056   -0.875372
| 15> *
| 16>
| 17>                          ****END OF INPUT****

CARTESIAN COORDINATES (ANGSTROEM)
---------------------------------
  C     -1.222725    0.248264    0.000000
  N     -2.224302   -0.323411    0.000000
  C      0.000000    0.979779    0.000000
  H     -0.097533    2.057310    0.000000
  C      1.206868    0.404586    0.000000
  H      2.065769    1.066361    0.000000
  C      1.490613   -1.057531    0.000000
  H      0.580711   -1.654271    0.000000
  H      2.086316   -1.328056    0.875372
  H      2.086316   -1.328056   -0.875372

 Total Charge           Charge          ....    0
 Multiplicity           Mult            ....    1
 Number of Electrons    NEL             ....   36
 Basis Dimension        Dim             ....  345

ORBITAL ENERGIES
----------------

  NO   OCC          E(Eh)            E(eV)
   0   2.0000     -15.569227      -423.6602
   1   2.0000     -11.285966      -307.1068
   2   2.0000     -11.276609      -306.8521
   3   2.0000     -11.273915      -306.7788
   4   2.0000     -11.247079      -306.0486
   5   2.0000      -1.221453       -33.2374
   6   2.0000      -1.117208       -30.4008
   7   2.0000      -0.988491       -26.8982
   8   2.0000      -0.846592       -23.0370
   9   2.0000      -0.698656       -19.0114
  10   2.0000      -0.671898       -18.2833
  11   2.0000      -0.596600       -16.2343
  12   2.0000      -0.567988       -15.4557
  13   2.0000      -0.559098       -15.2138
  14   2.0000      -0.538385       -14.6502
  15   2.0000      -0.510115       -13.8809
  16   2.0000      -0.465597       -12.6696
  17   2.0000      -0.381430       -10.3792
  18   0.0000       0.021807         0.5934
  19   0.0000       0.033185         0.9030
  20   0.0000       0.040907         1.1131
  21   0.0000       0.041458         1.1281
  22   0.0000       0.061697         1.6789

MULLIKEN ATOMIC CHARGES
-----------------------
   0 C :    0.643503
   1 N :   -0.727776
   2 C :   -0.161575
   3 H :    0.469822
   4 C :   -0.554446
   5 H :    0.332796
   6 C :   -0.854584
   7 H :    0.265250
   8 H :    0.293505
   9 H :    0.293505
Sum of atomic charges:   -0.0000000

LOEWDIN ATOMIC CHARGES
----------------------
   0 C :   -0.273711
   1 N :    0.258133
   2 C :    0.145583
   3 H :   -0.211188
   4 C :    0.202964
   5 H :   -0.175345
   6 C :    0.572586
   7 H :   -0.185576
   8 H :   -0.166723
   9 H :   -0.166723

  Mayer bond orders larger than 0.100000
B(  0-C ,  1-N ) :   2.1515 B(  0-C ,  2-C ) :   1.0294 B(  2-C ,  3-H ) :   0.7267
B(  2-C ,  4-C ) :   1.5845 B(  4-C ,  5-H ) :   0.8995 B(  4-C ,  6-C ) :   1.0299
B(  6-C ,  7-H ) :   0.9326 B(  6-C ,  8-H ) :   0.9465 B(  6-C ,  9-H ) :   0.9465

MP2 TOTAL ENERGY:     -209.725651269 Eh
FINAL SINGLE POINT ENERGY      -209.725651268726

DIPOLE MOMENT
-------------
                                X             Y             Z
Electronic contribution:     -4.98175       1.67556       0.00000
Nuclear contribution   :      6.76048      -1.19782       0.00000
                        -----------------------------------------
Total Dipole Moment    :      1.77873       0.47774       0.00000
                        -----------------------------------------
Magnitude (a.u.)       :      1.84177
Magnitude (Debye)      :      4.68141

Rotational constants in cm-1:     0.409012     0.114743     0.091101
Rotational constants in MHz : 12261.879072  3439.896898  2731.147380

                             ****ORCA TERMINATED NORMALLY****
TOTAL RUN TIME: 0 days 0 hours 1 minutes 36 seconds 294 msec
