                         Program Version 5.0.3 -  RELEASE  -
|  1> !ri-mp2 aug-cc-pvtz aug-cc-pvtz/c tightscf
|  2> %pal nprocs 16 end
|  3>
|  4> * xyz 0 1
|  5> C     0.000000     1.361719    0.498953
|  6> N     0.000000     0.616634   -0.777570
|  7> N     0.000000    -0.616634   -0.777570
|  8> C     0.000000    -1.361719    0.498953
|  9> H     0.885227     1.126165    1.094742
| 10> H    -0.885227     1.126165    1.094742
| 11> H     0.000000     2.420611    0.259791
| 12> H     0.885227    -1.126165    1.094742
| 13> H    -0.885227    -1.126165    1.094742
| 14> H     0.000000    -2.420611    0.259791
| 15> *
| 16>
| 17>                          ****END OF INPUT****

CARTESIAN COORDINATES (ANGSTROEM)
---------------------------------
  C      0.000000    1.361719    0.498953
  N      0.000000    0.616634   -0.777570
  N      0.000000   -0.616634   -0.777570
  C      0.000000   -1.361719    0.498953
  H      0.885227    1.126165    1.094742
  H     -0.885227    1.126165    1.094742
  H      0.000000    2.420611    0.259791
  H      0.885227   -1.126165    1.094742
  H     -0.885227   -1.126165    1.094742
  H      0.000000   -2.420611    0.259791

 Total Charge           Charge          ....    0
 Multiplicity           Mult            ....    1
 Number of Electrons    NEL             ....   32
 Basis Dimension        Dim             ....  322

ORBITAL ENERGIES
----------------

  NO   OCC          E(Eh)            E(eV)
   0   2.0000     -15.618950      -425.0132
   1   2.0000     -15.617538      -424.9748
   2   2.0000     -11.259368      -306.3830
   3   2.0000     -11.259355      -306.3826
   4   2.0000      -1.356052       -36.9001
   5   2.0000      -1.046984       -28.4899
   6   2.0000      -0.975966       -26.5574
   7   2.0000      -0.775533       -21.1033
   8   2.0000      -0.668723       -18.1969
   9   2.0000      -0.650922       -17.7125
  10   2.0000      -0.640795       -17.4369
  11   2.0000      -0.571841       -15.5606
  12   2.0000      -0.562351       -15.3024
  13   2.0000      -0.504048       -13.7158
  14   2.0000      -0.459545       -12.5049
  15   2.0000      -0.367357        -9.9963
  16   0.0000       0.025833         0.7030
  17   0.0000       0.037068         1.0087
  18   0.0000       0.042003         1.1429
  19   0.0000       0.049244         1.3400
  20   0.0000       0.060212         1.6385

MULLIKEN ATOMIC CHARGES
-----------------------
   0 C :   -0.776326
   1 N :   -0.237642
   2 N :   -0.237642
   3 C :   -0.776326
   4 H :    0.326788
   5 H :    0.326788
   6 H :    0.360393
   7 H :    0.326788
   8 H :    0.326788
   9 H :    0.360393
Sum of atomic charges:    0.0000000

LOEWDIN ATOMIC CHARGES
----------------------
   0 C :    0.407632
   1 N :    0.170601
   2 N :    0.170601
   3 C :    0.407632
   4 H :   -0.190639
   5 H :   -0.190639
   6 H :   -0.196954
   7 H :   -0.190639
   8 H :   -0.190639
   9 H :   -0.196954

  Mayer bond orders larger than 0.100000
B(  0-C ,  1-N ) :   0.8687 B(  0-C ,  4-H ) :   0.8878 B(  0-C ,  5-H ) :   0.8878
B(  0-C ,  6-H ) :   0.8940 B(  1-N ,  2-N ) :   0.7727 B(  2-N ,  3-C ) :   0.8687
B(  3-C ,  7-H ) :   0.8878 B(  3-C ,  8-H ) :   0.8878 B(  3-C ,  9-H ) :   0.8940

MP2 TOTAL ENERGY:     -188.891141239 Eh
FINAL SINGLE POINT ENERGY      -188.891141239460

DIPOLE MOMENT
-------------
                                X             Y             Z
Electronic contribution:      0.00000      -0.00000      -3.74562
Nuclear contribution   :      0.00000       0.00000       5.05898
                        -----------------------------------------
Total Dipole Moment    :      0.00000      -0.00000       1.31337
                        -----------------------------------------
Magnitude (a.u.)       :      1.31337
Magnitude (Debye)      :      3.33831

Rotational constants in cm-1:     0.550195     0.223929     0.169251
Rotational constants in MHz : 16494.443036  6713.233908  5074.025517

                             ****ORCA TERMINATED NORMALLY****
TOTAL RUN TIME: 0 days 0 hours 1 minutes 16 seconds 322 msec
