                         Program Version 5.0.3 -  RELEASE  -
|  1> !ri-mp2 aug-cc-pvtz aug-cc-pvtz/c tightscf
|  2> %pal nprocs 16 end
|  3>
|  4> * xyz 0 1
|  5> C      1.701604   -1.275001   -0.436236
|  6> H      2.374174   -0.561889   -0.914203
|  7> H      2.313484   -2.070904   -0.008931
|  8> H      1.074007   -1.711323   -1.214157
|  9> C      0.842683   -0.605101    0.647356
| 10> H      1.502107   -0.227760    1.434975
| 11> H      0.212380   -1.360114    1.116333
| 12> C      0.743877    1.839260   -0.066279
| 13> H      0.096872    2.613381   -0.477032
| 14> H      1.149562    2.202250    0.882755
| 15> H      1.594614    1.719062   -0.742276
| 16> C     -2.193807   -0.745612   -0.035612
| 17> H     -3.043183   -0.530327    0.618671
| 18> H     -2.614514   -1.013203   -1.008980
| 19> H     -1.686431   -1.625328    0.355250
| 20> C      0.004778    0.540753    0.128637
| 21> C     -1.296904    0.449290   -0.156534
| 22> H     -1.786454    1.344617   -0.530396
| 23> *
| 24>
| 25>                          ****END OF INPUT****

CARTESIAN COORDINATES (ANGSTROEM)
---------------------------------
  C      1.701604   -1.275001   -0.436236
  H      2.374174   -0.561889   -0.914203
  H      2.313484   -2.070904   -0.008931
  H      1.074007   -1.711323   -1.214157
  C      0.842683   -0.605101    0.647356
  H      1.502107   -0.227760    1.434975
  H      0.212380   -1.360114    1.116333
  C      0.743877    1.839260   -0.066279
  H      0.096872    2.613381   -0.477032
  H      1.149562    2.202250    0.882755
  H      1.594614    1.719062   -0.742276
  C     -2.193807   -0.745612   -0.035612
  H     -3.043183   -0.530327    0.618671
  H     -2.614514   -1.013203   -1.008980
  H     -1.686431   -1.625328    0.355250
  C      0.004778    0.540753    0.128637
  C     -1.296904    0.449290   -0.156534
  H     -1.786454    1.344617   -0.530396

 Total Charge           Charge          ....    0
 Multiplicity           Mult            ....    1
 Number of Electrons    NEL             ....   48
 Basis Dimension        Dim             ....  552

ORBITAL ENERGIES
----------------

  NO   OCC          E(Eh)            E(eV)
   0   2.0000     -11.225163      -305.4522
   1   2.0000     -11.220061      -305.3134
   2   2.0000     -11.214552      -305.1635
   3   2.0000     -11.213594      -305.1374
   4   2.0000     -11.213351      -305.1308
   5   2.0000     -11.212763      -305.1148
   6   2.0000      -1.100309       -29.9409
   7   2.0000      -1.011266       -27.5179
   8   2.0000      -0.975204       -26.5367
   9   2.0000      -0.882268       -24.0077
  10   2.0000      -0.844158       -22.9707
  11   2.0000      -0.698559       -19.0088
  12   2.0000      -0.639966       -17.4144
  13   2.0000      -0.604172       -16.4404
  14   2.0000      -0.583357       -15.8740
  15   2.0000      -0.569579       -15.4990
  16   2.0000      -0.554488       -15.0884
  17   2.0000      -0.539366       -14.6769
  18   2.0000      -0.518213       -14.1013
  19   2.0000      -0.509084       -13.8529
  20   2.0000      -0.503005       -13.6875
  21   2.0000      -0.478661       -13.0250
  22   2.0000      -0.451721       -12.2920
  23   2.0000      -0.330276        -8.9873
  24   0.0000       0.030797         0.8380
  25   0.0000       0.034788         0.9466
  26   0.0000       0.036259         0.9866
  27   0.0000       0.039609         1.0778
  28   0.0000       0.050450         1.3728

MULLIKEN ATOMIC CHARGES
-----------------------
   0 C :   -0.971818
   1 H :    0.293585
   2 H :    0.257483
   3 H :    0.287732
   4 C :   -0.469392
   5 H :    0.266060
   6 H :    0.186652
   7 C :   -1.066403
   8 H :    0.246104
   9 H :    0.266590
  10 H :    0.282514
  11 C :   -0.766976
  12 H :    0.256457
  13 H :    0.243212
  14 H :    0.360310
  15 C :    1.064295
  16 C :   -0.755026
  17 H :    0.018618
Sum of atomic charges:    0.0000000

LOEWDIN ATOMIC CHARGES
----------------------
   0 C :    0.589176
   1 H :   -0.177549
   2 H :   -0.170686
   3 H :   -0.166904
   4 C :    0.257154
   5 H :   -0.150241
   6 H :   -0.179887
   7 C :    0.562507
   8 H :   -0.181183
   9 H :   -0.165053
  10 H :   -0.172248
  11 C :    0.562230
  12 H :   -0.173422
  13 H :   -0.173509
  14 H :   -0.198750
  15 C :   -0.099768
  16 C :    0.231834
  17 H :   -0.193704

  Mayer bond orders larger than 0.100000
B(  0-C ,  1-H ) :   0.9365 B(  0-C ,  2-H ) :   0.9891 B(  0-C ,  3-H ) :   0.9512
B(  0-C ,  4-C ) :   0.8809 B(  4-C ,  5-H ) :   0.9706 B(  4-C ,  6-H ) :   0.9728
B(  4-C , 15-C ) :   0.8711 B(  4-C , 17-H ) :   0.1008 B(  7-C ,  8-H ) :   1.0354
B(  7-C ,  9-H ) :   1.0151 B(  7-C , 10-H ) :   0.9959 B(  7-C , 15-C ) :   0.7023
B(  7-C , 16-C ) :  -0.1065 B( 11-C , 12-H ) :   1.0409 B( 11-C , 13-H ) :   1.0415
B( 11-C , 14-H ) :   0.8319 B( 11-C , 16-C ) :   0.6875 B( 15-C , 16-C ) :   1.0756
B( 15-C , 17-H ) :  -0.2094 B( 16-C , 17-H ) :   1.4407

MP2 TOTAL ENERGY:     -235.315853441 Eh
FINAL SINGLE POINT ENERGY      -235.315853441120

DIPOLE MOMENT
-------------
                                X             Y             Z
Electronic contribution:     -1.20711       1.24555       0.54902
Nuclear contribution   :      1.27101      -1.30841      -0.52270
                        -----------------------------------------
Total Dipole Moment    :      0.06390      -0.06286       0.02633
                        -----------------------------------------
Magnitude (a.u.)       :      0.09342
Magnitude (Debye)      :      0.23745

Rotational constants in cm-1:     0.135827     0.090787     0.061092
Rotational constants in MHz :  4072.001697  2721.716757  1831.498979

                             ****ORCA TERMINATED NORMALLY****
TOTAL RUN TIME: 0 days 0 hours 5 minutes 29 seconds 242 msec
