                         Program Version 5.0.3 -  RELEASE  -
|  1> !ri-mp2 aug-cc-pvtz aug-cc-pvtz/c tightscf
|  2> %pal nprocs 16 end
|  3>
|  4> * xyz 0 1
|  5> C     -1.766341   -0.115464   -0.079800
|  6> N     -2.492129   -1.010435   -0.031960
|  7> C     -0.894931    1.009998   -0.149808
|  8> H     -1.357106    1.941241   -0.450071
|  9> C      0.411013    0.955887    0.131841
| 10> H      0.972979    1.879716    0.039002
| 11> C      1.185347   -0.249154    0.551313
| 12> H      0.526822   -1.114981    0.622590
| 13> H      1.581474   -0.068108    1.556020
| 14> C      2.357367   -0.548639   -0.394504
| 15> H      2.000836   -0.775983   -1.399184
| 16> H      3.038423    0.301062   -0.463225
| 17> H      2.926753   -1.405678   -0.035660
| 18> *
| 19>
| 20>                          ****END OF INPUT****

CARTESIAN COORDINATES (ANGSTROEM)
---------------------------------
  C     -1.766341   -0.115464   -0.079800
  N     -2.492129   -1.010435   -0.031960
  C     -0.894931    1.009998   -0.149808
  H     -1.357106    1.941241   -0.450071
  C      0.411013    0.955887    0.131841
  H      0.972979    1.879716    0.039002
  C      1.185347   -0.249154    0.551313
  H      0.526822   -1.114981    0.622590
  H      1.581474   -0.068108    1.556020
  C      2.357367   -0.548639   -0.394504
  H      2.000836   -0.775983   -1.399184
  H      3.038423    0.301062   -0.463225
  H      2.926753   -1.405678   -0.035660

 Total Charge           Charge          ....    0
 Multiplicity           Mult            ....    1
 Number of Electrons    NEL             ....   44
 Basis Dimension        Dim             ....  437

ORBITAL ENERGIES
----------------

  NO   OCC          E(Eh)            E(eV)
   0   2.0000     -15.568248      -423.6336
   1   2.0000     -11.281850      -306.9947
   2   2.0000     -11.275583      -306.8242
   3   2.0000     -11.273127      -306.7574
   4   2.0000     -11.249919      -306.1259
   5   2.0000     -11.234872      -305.7164
   6   2.0000      -1.220574       -33.2135
   7   2.0000      -1.123371       -30.5685
   8   2.0000      -1.033921       -28.1344
   9   2.0000      -0.903477       -24.5848
  10   2.0000      -0.830070       -22.5873
  11   2.0000      -0.693873       -18.8812
  12   2.0000      -0.681049       -18.5323
  13   2.0000      -0.618451       -16.8289
  14   2.0000      -0.585929       -15.9439
  15   2.0000      -0.553739       -15.0680
  16   2.0000      -0.546304       -14.8657
  17   2.0000      -0.516806       -14.0630
  18   2.0000      -0.511646       -13.9226
  19   2.0000      -0.505281       -13.7494
  20   2.0000      -0.463463       -12.6115
  21   2.0000      -0.379859       -10.3365
  22   0.0000       0.022935         0.6241
  23   0.0000       0.031002         0.8436
  24   0.0000       0.037451         1.0191
  25   0.0000       0.038930         1.0593
  26   0.0000       0.054790         1.4909

MULLIKEN ATOMIC CHARGES
-----------------------
   0 C :    0.764867
   1 N :   -0.766733
   2 C :   -0.147456
   3 H :    0.421428
   4 C :   -0.613648
   5 H :    0.287686
   6 C :   -0.351564
   7 H :    0.186101
   8 H :    0.274273
   9 C :   -0.925653
  10 H :    0.306751
  11 H :    0.287868
  12 H :    0.276079
Sum of atomic charges:   -0.0000000

LOEWDIN ATOMIC CHARGES
----------------------
   0 C :   -0.269984
   1 N :    0.259833
   2 C :    0.155860
   3 H :   -0.209223
   4 C :    0.213091
   5 H :   -0.166865
   6 C :    0.250111
   7 H :   -0.169471
   8 H :   -0.144958
   9 C :    0.590050
  10 H :   -0.167241
  11 H :   -0.172010
  12 H :   -0.169192

  Mayer bond orders larger than 0.100000
B(  0-C ,  1-N ) :   2.0869 B(  0-C ,  2-C ) :   1.0006 B(  1-N ,  4-C ) :   0.1026
B(  2-C ,  3-H ) :   0.7875 B(  2-C ,  4-C ) :   1.6423 B(  4-C ,  5-H ) :   0.9895
B(  4-C ,  6-C ) :   1.0117 B(  6-C ,  7-H ) :   0.9707 B(  6-C ,  8-H ) :   0.9518
B(  6-C ,  9-C ) :   0.9221 B(  9-C , 10-H ) :   0.9343 B(  9-C , 11-H ) :   0.9360
B(  9-C , 12-H ) :   0.9627

MP2 TOTAL ENERGY:     -248.950545050 Eh
FINAL SINGLE POINT ENERGY      -248.950545049505

DIPOLE MOMENT
-------------
                                X             Y             Z
Electronic contribution:     -8.34529       0.29822       0.17168
Nuclear contribution   :      9.85652       0.76539      -0.13316
                        -----------------------------------------
Total Dipole Moment    :      1.51123       1.06361       0.03852
                        -----------------------------------------
Magnitude (a.u.)       :      1.84840
Magnitude (Debye)      :      4.69826

Rotational constants in cm-1:     0.261480     0.065419     0.056277
Rotational constants in MHz :  7838.967451  1961.199200  1687.140108

                             ****ORCA TERMINATED NORMALLY****
TOTAL RUN TIME: 0 days 0 hours 2 minutes 32 seconds 914 msec
