                         Program Version 5.0.3 -  RELEASE  -
|  1> !ri-mp2 aug-cc-pvtz aug-cc-pvtz/c tightscf
|  2> %pal nprocs 16 end
|  3>
|  4> * xyz 0 1
|  5> C     0.000000     0.665985    0.661718
|  6> C     0.000000    -0.665985    0.661718
|  7> C     0.000000     1.586665   -0.520621
|  8> C     0.000000    -1.586665   -0.520621
|  9> H     0.000000     1.161212    1.627911
| 10> H     0.000000    -1.161212    1.627911
| 11> H     0.000000     1.057812   -1.471692
| 12> H     0.000000    -1.057812   -1.471692
| 13> H    -0.875737     2.240903   -0.501401
| 14> H     0.875737     2.240903   -0.501401
| 15> H     0.875737    -2.240903   -0.501401
| 16> H    -0.875737    -2.240903   -0.501401
| 17> *
| 18>
| 19>                          ****END OF INPUT****

CARTESIAN COORDINATES (ANGSTROEM)
---------------------------------
  C      0.000000    0.665985    0.661718
  C      0.000000   -0.665985    0.661718
  C      0.000000    1.586665   -0.520621
  C      0.000000   -1.586665   -0.520621
  H      0.000000    1.161212    1.627911
  H      0.000000   -1.161212    1.627911
  H      0.000000    1.057812   -1.471692
  H      0.000000   -1.057812   -1.471692
  H     -0.875737    2.240903   -0.501401
  H      0.875737    2.240903   -0.501401
  H      0.875737   -2.240903   -0.501401
  H     -0.875737   -2.240903   -0.501401

 Total Charge           Charge          ....    0
 Multiplicity           Mult            ....    1
 Number of Electrons    NEL             ....   32
 Basis Dimension        Dim             ....  368

ORBITAL ENERGIES
----------------

  NO   OCC          E(Eh)            E(eV)
   0   2.0000     -11.222978      -305.3928
   1   2.0000     -11.221261      -305.3460
   2   2.0000     -11.217301      -305.2383
   3   2.0000     -11.217296      -305.2382
   4   2.0000      -1.076859       -29.3028
   5   2.0000      -0.978638       -26.6301
   6   2.0000      -0.894276       -24.3345
   7   2.0000      -0.720119       -19.5954
   8   2.0000      -0.652316       -17.7504
   9   2.0000      -0.571832       -15.5603
  10   2.0000      -0.570606       -15.5270
  11   2.0000      -0.552595       -15.0369
  12   2.0000      -0.535506       -14.5718
  13   2.0000      -0.512586       -13.9482
  14   2.0000      -0.471264       -12.8237
  15   2.0000      -0.342765        -9.3271
  16   0.0000       0.031141         0.8474
  17   0.0000       0.037174         1.0116
  18   0.0000       0.039990         1.0882
  19   0.0000       0.045199         1.2299
  20   0.0000       0.053626         1.4592

MULLIKEN ATOMIC CHARGES
-----------------------
   0 C :   -0.376239
   1 C :   -0.376239
   2 C :   -0.775897
   3 C :   -0.775897
   4 H :    0.350912
   5 H :    0.350912
   6 H :    0.346675
   7 H :    0.346675
   8 H :    0.227275
   9 H :    0.227275
  10 H :    0.227275
  11 H :    0.227275
Sum of atomic charges:    0.0000000

LOEWDIN ATOMIC CHARGES
----------------------
   0 C :    0.198424
   1 C :    0.198424
   2 C :    0.552469
   3 C :    0.552469
   4 H :   -0.199277
   5 H :   -0.199277
   6 H :   -0.200010
   7 H :   -0.200010
   8 H :   -0.175803
   9 H :   -0.175803
  10 H :   -0.175803
  11 H :   -0.175803

  Mayer bond orders larger than 0.100000
B(  0-C ,  1-C ) :   1.4690 B(  0-C ,  2-C ) :   0.8553 B(  0-C ,  4-H ) :   0.9000
B(  0-C ,  5-H ) :  -0.1131 B(  1-C ,  3-C ) :   0.8553 B(  1-C ,  4-H ) :  -0.1131
B(  1-C ,  5-H ) :   0.9000 B(  2-C ,  4-H ) :  -0.1120 B(  2-C ,  6-H ) :   0.8249
B(  2-C ,  8-H ) :   1.0337 B(  2-C ,  9-H ) :   1.0337 B(  3-C ,  5-H ) :  -0.1120
B(  3-C ,  7-H ) :   0.8249 B(  3-C , 10-H ) :   1.0337 B(  3-C , 11-H ) :   1.0337

MP2 TOTAL ENERGY:     -156.860828352 Eh
FINAL SINGLE POINT ENERGY      -156.860828351721

DIPOLE MOMENT
-------------
                                X             Y             Z
Electronic contribution:      0.00000      -0.00000       1.71178
Nuclear contribution   :      0.00000       0.00000      -1.81358
                        -----------------------------------------
Total Dipole Moment    :      0.00000      -0.00000      -0.10180
                        -----------------------------------------
Magnitude (a.u.)       :      0.10180
Magnitude (Debye)      :      0.25877

Rotational constants in cm-1:     0.547433     0.169519     0.135890
Rotational constants in MHz : 16411.624667  5082.057928  4073.884792

                             ****ORCA TERMINATED NORMALLY****
TOTAL RUN TIME: 0 days 0 hours 1 minutes 36 seconds 790 msec
