                         Program Version 5.0.3 -  RELEASE  -
|  1> !ri-mp2 aug-cc-pvtz aug-cc-pvtz/c tightscf
|  2> %pal nprocs 16 end
|  3>
|  4> * xyz 0 1
|  5> Cl    -0.219933    1.550529   -0.000002
|  6> N     -2.880130   -0.962984    0.000001
|  7> N      3.077266   -0.391223    0.000000
|  8> C     -0.432054   -0.165225    0.000000
|  9> C      0.591544   -1.033696    0.000001
| 10> C     -1.783875   -0.609615    0.000001
| 11> C      1.955445   -0.655823    0.000001
| 12> H      0.372561   -2.093385    0.000003
| 13> *
| 14>
| 15>                          ****END OF INPUT****

CARTESIAN COORDINATES (ANGSTROEM)
---------------------------------
  Cl    -0.219933    1.550529   -0.000002
  N     -2.880130   -0.962984    0.000001
  N      3.077266   -0.391223    0.000000
  C     -0.432054   -0.165225    0.000000
  C      0.591544   -1.033696    0.000001
  C     -1.783875   -0.609615    0.000001
  C      1.955445   -0.655823    0.000001
  H      0.372561   -2.093385    0.000003

 Total Charge           Charge          ....    0
 Multiplicity           Mult            ....    1
 Number of Electrons    NEL             ....   56
 Basis Dimension        Dim             ....  349

ORBITAL ENERGIES
----------------

  NO   OCC          E(Eh)            E(eV)
   0   2.0000    -104.902085     -2854.5309
   1   2.0000     -15.622572      -425.1118
   2   2.0000     -15.614010      -424.8788
   3   2.0000     -11.403677      -310.3098
   4   2.0000     -11.347119      -308.7708
   5   2.0000     -11.320588      -308.0488
   6   2.0000     -11.312250      -307.8220
   7   2.0000     -10.625479      -289.1340
   8   2.0000      -8.092381      -220.2049
   9   2.0000      -8.090147      -220.1441
  10   2.0000      -8.090096      -220.1427
  11   2.0000      -1.279411       -34.8145
  12   2.0000      -1.260559       -34.3015
  13   2.0000      -1.224080       -33.3089
  14   2.0000      -1.110745       -30.2249
  15   2.0000      -0.969219       -26.3738
  16   2.0000      -0.789282       -21.4775
  17   2.0000      -0.757354       -20.6086
  18   2.0000      -0.645644       -17.5689
  19   2.0000      -0.613211       -16.6863
  20   2.0000      -0.604188       -16.4408
  21   2.0000      -0.592836       -16.1319
  22   2.0000      -0.532795       -14.4981
  23   2.0000      -0.527792       -14.3620
  24   2.0000      -0.515580       -14.0297
  25   2.0000      -0.510129       -13.8813
  26   2.0000      -0.496385       -13.5073
  27   2.0000      -0.412178       -11.2159
  28   0.0000       0.006697         0.1822
  29   0.0000       0.022151         0.6028
  30   0.0000       0.052796         1.4366
  31   0.0000       0.057355         1.5607
  32   0.0000       0.068198         1.8558

MULLIKEN ATOMIC CHARGES
-----------------------
   0 Cl:   -0.217470
   1 N :   -0.566802
   2 N :   -0.591815
   3 C :    0.890294
   4 C :   -0.292891
   5 C :    0.077617
   6 C :    0.295366
   7 H :    0.405702
Sum of atomic charges:    0.0000000

LOEWDIN ATOMIC CHARGES
----------------------
   0 Cl:    1.054143
   1 N :    0.284171
   2 N :    0.282996
   3 C :   -0.837836
   4 C :    0.046602
   5 C :   -0.353909
   6 C :   -0.279640
   7 H :   -0.196526

  Mayer bond orders larger than 0.100000
B(  0-Cl,  3-C ) :   0.8674 B(  1-N ,  3-C ) :  -0.1798 B(  1-N ,  5-C ) :   2.3677
B(  2-N ,  3-C ) :   0.1209 B(  2-N ,  4-C ) :  -0.1614 B(  2-N ,  6-C ) :   2.3246
B(  3-C ,  4-C ) :   1.3907 B(  3-C ,  5-C ) :   0.6329 B(  4-C ,  5-C ) :   0.1812
B(  4-C ,  6-C ) :   0.8905 B(  4-C ,  7-H ) :   0.8102 B(  5-C ,  6-C ) :   0.1239

MP2 TOTAL ENERGY:     -721.692056077 Eh
FINAL SINGLE POINT ENERGY      -721.692056076977

DIPOLE MOMENT
-------------
                                X             Y             Z
Electronic contribution:     -0.73074       3.78575      -0.00000
Nuclear contribution   :      0.64342      -4.03756       0.00001
                        -----------------------------------------
Total Dipole Moment    :     -0.08732      -0.25181       0.00000
                        -----------------------------------------
Magnitude (a.u.)       :      0.26652
Magnitude (Debye)      :      0.67744

Rotational constants in cm-1:     0.132308     0.049396     0.035968
Rotational constants in MHz :  3966.506189  1480.855957  1078.287832

                             ****ORCA TERMINATED NORMALLY****
TOTAL RUN TIME: 0 days 0 hours 1 minutes 56 seconds 990 msec
