                         Program Version 5.0.3 -  RELEASE  -
|  1> !ri-mp2 aug-cc-pvtz aug-cc-pvtz/c tightscf
|  2> %pal nprocs 16 end
|  3>
|  4> * xyz 0 1
|  5> C     -0.894816   -0.631696    0.000000
|  6> H     -0.633553   -1.676755    0.000000
|  7> F     -2.212388   -0.376299    0.000000
|  8> C      0.000000    0.341550    0.000000
|  9> F     -0.371902    1.637064    0.000000
| 10> C      1.486201    0.188572    0.000000
| 11> F      1.834576   -1.152835    0.000000
| 12> H      1.916333    0.657416    0.888334
| 13> H      1.916333    0.657416   -0.888334
| 14> *
| 15>
| 16>                          ****END OF INPUT****

CARTESIAN COORDINATES (ANGSTROEM)
---------------------------------
  C     -0.894816   -0.631696    0.000000
  H     -0.633553   -1.676755    0.000000
  F     -2.212388   -0.376299    0.000000
  C      0.000000    0.341550    0.000000
  F     -0.371902    1.637064    0.000000
  C      1.486201    0.188572    0.000000
  F      1.834576   -1.152835    0.000000
  H      1.916333    0.657416    0.888334
  H      1.916333    0.657416   -0.888334

 Total Charge           Charge          ....    0
 Multiplicity           Mult            ....    1
 Number of Electrons    NEL             ....   48
 Basis Dimension        Dim             ....  345

ORBITAL ENERGIES
----------------

  NO   OCC          E(Eh)            E(eV)
   0   2.0000     -26.332955      -716.5561
   1   2.0000     -26.323254      -716.2922
   2   2.0000     -26.310846      -715.9545
   3   2.0000     -11.348862      -308.8182
   4   2.0000     -11.346663      -308.7584
   5   2.0000     -11.335593      -308.4572
   6   2.0000      -1.651795       -44.9476
   7   2.0000      -1.634383       -44.4738
   8   2.0000      -1.619905       -44.0799
   9   2.0000      -1.100540       -29.9472
  10   2.0000      -0.987588       -26.8736
  11   2.0000      -0.844094       -22.9690
  12   2.0000      -0.777794       -21.1648
  13   2.0000      -0.770207       -20.9584
  14   2.0000      -0.744060       -20.2469
  15   2.0000      -0.711731       -19.3672
  16   2.0000      -0.706547       -19.2261
  17   2.0000      -0.703579       -19.1454
  18   2.0000      -0.692729       -18.8501
  19   2.0000      -0.663246       -18.0478
  20   2.0000      -0.607465       -16.5300
  21   2.0000      -0.567865       -15.4524
  22   2.0000      -0.556274       -15.1370
  23   2.0000      -0.389167       -10.5898
  24   0.0000       0.028646         0.7795
  25   0.0000       0.038065         1.0358
  26   0.0000       0.041905         1.1403
  27   0.0000       0.063857         1.7376
  28   0.0000       0.084590         2.3018

MULLIKEN ATOMIC CHARGES
-----------------------
   0 C :   -0.416176
   1 H :    0.539686
   2 F :   -0.407601
   3 C :    0.516962
   4 F :   -0.426076
   5 C :    0.038119
   6 F :   -0.470669
   7 H :    0.312877
   8 H :    0.312877
Sum of atomic charges:    0.0000000

LOEWDIN ATOMIC CHARGES
----------------------
   0 C :   -0.184915
   1 H :   -0.230428
   2 F :    0.461895
   3 C :   -0.537119
   4 F :    0.491323
   5 C :   -0.113638
   6 F :    0.460567
   7 H :   -0.173843
   8 H :   -0.173843

  Mayer bond orders larger than 0.100000
B(  0-C ,  1-H ) :   0.6836 B(  0-C ,  2-F ) :   0.8164 B(  0-C ,  3-C ) :   1.5717
B(  3-C ,  4-F ) :   0.6708 B(  3-C ,  5-C ) :   0.7965 B(  5-C ,  6-F ) :   0.7388
B(  5-C ,  7-H ) :   0.9305 B(  5-C ,  8-H ) :   0.9305

MP2 TOTAL ENERGY:     -415.031591577 Eh
FINAL SINGLE POINT ENERGY      -415.031591577272

DIPOLE MOMENT
-------------
                                X             Y             Z
Electronic contribution:     -3.00263       0.43775      -0.00000
Nuclear contribution   :      3.69739      -0.43972       0.00000
                        -----------------------------------------
Total Dipole Moment    :      0.69476      -0.00197      -0.00000
                        -----------------------------------------
Magnitude (a.u.)       :      0.69477
Magnitude (Debye)      :      1.76595

Rotational constants in cm-1:     0.194608     0.080624     0.057627
Rotational constants in MHz :  5834.207822  2417.059931  1727.614644

                             ****ORCA TERMINATED NORMALLY****
TOTAL RUN TIME: 0 days 0 hours 1 minutes 42 seconds 49 msec
