                         Program Version 5.0.3 -  RELEASE  -
|  1> !ri-mp2 aug-cc-pvtz aug-cc-pvtz/c tightscf
|  2> %pal nprocs 16 end
|  3>
|  4> * xyz 0 1
|  5> F     2.712836   -0.183297   -0.382192
|  6> F    -0.780636    1.809141   -0.002362
|  7> N     0.499090   -1.575311    0.231574
|  8> N    -3.035226   -0.748871   -0.138204
|  9> C     0.398551   -0.217436    0.121358
| 10> C     1.691625    0.542189    0.236949
| 11> C    -0.771372    0.445989    0.008802
| 12> C    -2.034053   -0.175673   -0.069809
| 13> H     1.624059    1.515903   -0.239488
| 14> H     1.970850    0.661136    1.285812
| 15> H     1.376086   -1.979329   -0.052815
| 16> H    -0.316350   -2.131455    0.030091
| 17> *
| 18>
| 19>                          ****END OF INPUT****

CARTESIAN COORDINATES (ANGSTROEM)
---------------------------------
  F      2.712836   -0.183297   -0.382192
  F     -0.780636    1.809141   -0.002362
  N      0.499090   -1.575311    0.231574
  N     -3.035226   -0.748871   -0.138204
  C      0.398551   -0.217436    0.121358
  C      1.691625    0.542189    0.236949
  C     -0.771372    0.445989    0.008802
  C     -2.034053   -0.175673   -0.069809
  H      1.624059    1.515903   -0.239488
  H      1.970850    0.661136    1.285812
  H      1.376086   -1.979329   -0.052815
  H     -0.316350   -2.131455    0.030091

 Total Charge           Charge          ....    0
 Multiplicity           Mult            ....    1
 Number of Electrons    NEL             ....   60
 Basis Dimension        Dim             ....  460

ORBITAL ENERGIES
----------------

  NO   OCC          E(Eh)            E(eV)
   0   2.0000     -26.330944      -716.5014
   1   2.0000     -26.318738      -716.1693
   2   2.0000     -15.610587      -424.7857
   3   2.0000     -15.588725      -424.1908
   4   2.0000     -11.356414      -309.0237
   5   2.0000     -11.351619      -308.8932
   6   2.0000     -11.344847      -308.7090
   7   2.0000     -11.290990      -307.2434
   8   2.0000      -1.642800       -44.7029
   9   2.0000      -1.626343       -44.2550
  10   2.0000      -1.279192       -34.8086
  11   2.0000      -1.233703       -33.5708
  12   2.0000      -1.088189       -29.6111
  13   2.0000      -1.012061       -27.5396
  14   2.0000      -0.870905       -23.6985
  15   2.0000      -0.798836       -21.7374
  16   2.0000      -0.785935       -21.3864
  17   2.0000      -0.742715       -20.2103
  18   2.0000      -0.718637       -19.5551
  19   2.0000      -0.715926       -19.4813
  20   2.0000      -0.705951       -19.2099
  21   2.0000      -0.682044       -18.5594
  22   2.0000      -0.648514       -17.6470
  23   2.0000      -0.587053       -15.9745
  24   2.0000      -0.584088       -15.8938
  25   2.0000      -0.563492       -15.3334
  26   2.0000      -0.544251       -14.8098
  27   2.0000      -0.501747       -13.6532
  28   2.0000      -0.489036       -13.3074
  29   2.0000      -0.352023        -9.5790
  30   0.0000       0.022767         0.6195
  31   0.0000       0.032523         0.8850
  32   0.0000       0.040736         1.1085
  33   0.0000       0.051866         1.4113
  34   0.0000       0.067608         1.8397

MULLIKEN ATOMIC CHARGES
-----------------------
   0 F :   -0.497230
   1 F :   -0.555514
   2 N :   -0.553801
   3 N :   -0.698706
   4 C :    0.247431
   5 C :   -0.098911
   6 C :    1.003914
   7 C :    0.250688
   8 H :    0.344668
   9 H :    0.331871
  10 H :    0.120510
  11 H :    0.105081
Sum of atomic charges:   -0.0000000

LOEWDIN ATOMIC CHARGES
----------------------
   0 F :    0.466839
   1 F :    0.469660
   2 N :    0.861263
   3 N :    0.268182
   4 C :   -0.260897
   5 C :   -0.032531
   6 C :   -0.548538
   7 C :   -0.281386
   8 H :   -0.179990
   9 H :   -0.152689
  10 H :   -0.314609
  11 H :   -0.295303

  Mayer bond orders larger than 0.100000
B(  0-F ,  5-C ) :   0.6995 B(  1-F ,  4-C ) :   0.1661 B(  1-F ,  6-C ) :   0.5509
B(  2-N ,  4-C ) :   0.8806 B(  2-N ,  6-C ) :  -0.1815 B(  2-N , 10-H ) :   1.0912
B(  2-N , 11-H ) :   1.0479 B(  3-N ,  6-C ) :  -0.1213 B(  3-N ,  7-C ) :   2.2648
B(  4-C ,  5-C ) :   0.7890 B(  4-C ,  6-C ) :   1.2307 B(  4-C ,  7-C ) :   0.2875
B(  5-C ,  8-H ) :   0.9317 B(  5-C ,  9-H ) :   0.9302 B(  6-C ,  7-C ) :   0.6715

MP2 TOTAL ENERGY:     -463.258482578 Eh
FINAL SINGLE POINT ENERGY      -463.258482578048

DIPOLE MOMENT
-------------
                                X             Y             Z
Electronic contribution:     -1.13102       3.22921      -1.11301
Nuclear contribution   :      2.60659      -3.39053       1.33971
                        -----------------------------------------
Total Dipole Moment    :      1.47557      -0.16131       0.22670
                        -----------------------------------------
Magnitude (a.u.)       :      1.50157
Magnitude (Debye)      :      3.81669

Rotational constants in cm-1:     0.129858     0.043002     0.033115
Rotational constants in MHz :  3893.045822  1289.153959   992.766209

                             ****ORCA TERMINATED NORMALLY****
TOTAL RUN TIME: 0 days 0 hours 3 minutes 33 seconds 304 msec
