                         Program Version 5.0.3 -  RELEASE  -
|  1> !ri-mp2 aug-cc-pvtz aug-cc-pvtz/c tightscf
|  2> %pal nprocs 16 end
|  3>
|  4> * xyz 0 1
|  5> C      0.000000    0.673836    1.076580
|  6> C      0.000000   -0.673836    1.076580
|  7> C      0.000000    1.493940   -0.073575
|  8> C      0.000000   -1.493940   -0.073575
|  9> H      0.000000    1.184203    2.032282
| 10> H      0.000000   -1.184203    2.032282
| 11> C      0.000000    2.225403   -1.028515
| 12> C      0.000000   -2.225403   -1.028515
| 13> H      0.000000    2.859977   -1.879220
| 14> H      0.000000   -2.859977   -1.879220
| 15> *
| 16>
| 17>                          ****END OF INPUT****

CARTESIAN COORDINATES (ANGSTROEM)
---------------------------------
  C      0.000000    0.673836    1.076580
  C      0.000000   -0.673836    1.076580
  C      0.000000    1.493940   -0.073575
  C      0.000000   -1.493940   -0.073575
  H      0.000000    1.184203    2.032282
  H      0.000000   -1.184203    2.032282
  C      0.000000    2.225403   -1.028515
  C      0.000000   -2.225403   -1.028515
  H      0.000000    2.859977   -1.879220
  H      0.000000   -2.859977   -1.879220

 Total Charge           Charge          ....    0
 Multiplicity           Mult            ....    1
 Number of Electrons    NEL             ....   40
 Basis Dimension        Dim             ....  368

ORBITAL ENERGIES
----------------

  NO   OCC          E(Eh)            E(eV)
   0   2.0000     -11.276958      -306.8616
   1   2.0000     -11.275377      -306.8186
   2   2.0000     -11.244305      -305.9731
   3   2.0000     -11.244299      -305.9729
   4   2.0000     -11.237675      -305.7927
   5   2.0000     -11.237675      -305.7927
   6   2.0000      -1.123884       -30.5824
   7   2.0000      -1.046336       -28.4722
   8   2.0000      -1.002274       -27.2733
   9   2.0000      -0.880450       -23.9583
  10   2.0000      -0.759787       -20.6749
  11   2.0000      -0.715767       -19.4770
  12   2.0000      -0.691212       -18.8088
  13   2.0000      -0.654703       -17.8154
  14   2.0000      -0.583282       -15.8719
  15   2.0000      -0.498531       -13.5657
  16   2.0000      -0.424408       -11.5487
  17   2.0000      -0.405248       -11.0274
  18   2.0000      -0.400079       -10.8867
  19   2.0000      -0.328977        -8.9519
  20   0.0000       0.029058         0.7907
  21   0.0000       0.032271         0.8781
  22   0.0000       0.032594         0.8869
  23   0.0000       0.046081         1.2539
  24   0.0000       0.060991         1.6597

MULLIKEN ATOMIC CHARGES
-----------------------
   0 C :   -0.921349
   1 C :   -0.921349
   2 C :    1.464316
   3 C :    1.464316
   4 H :    0.123499
   5 H :    0.123499
   6 C :   -1.181092
   7 C :   -1.181092
   8 H :    0.514626
   9 H :    0.514626
Sum of atomic charges:    0.0000000

LOEWDIN ATOMIC CHARGES
----------------------
   0 C :    0.109985
   1 C :    0.109985
   2 C :   -0.025903
   3 C :   -0.025903
   4 H :   -0.202161
   5 H :   -0.202161
   6 C :    0.412222
   7 C :    0.412222
   8 H :   -0.294143
   9 H :   -0.294143

  Mayer bond orders larger than 0.100000
B(  0-C ,  1-C ) :   2.1884 B(  0-C ,  2-C ) :   0.4385 B(  0-C ,  3-C ) :  -0.2155
B(  0-C ,  4-H ) :   1.4219 B(  0-C ,  6-C ) :  -0.2708 B(  0-C ,  7-C ) :  -0.2273
B(  1-C ,  2-C ) :  -0.2155 B(  1-C ,  3-C ) :   0.4385 B(  1-C ,  5-H ) :   1.4219
B(  1-C ,  6-C ) :  -0.2273 B(  1-C ,  7-C ) :  -0.2708 B(  2-C ,  3-C ) :  -0.1779
B(  2-C ,  6-C ) :   1.3077 B(  2-C ,  7-C ) :   0.5230 B(  3-C ,  6-C ) :   0.5230
B(  3-C ,  7-C ) :   1.3077 B(  4-H ,  7-C ) :  -0.2624 B(  5-H ,  6-C ) :  -0.2624
B(  6-C ,  7-C ) :   0.3278 B(  6-C ,  8-H ) :   0.7953 B(  7-C ,  9-H ) :   0.7953

MP2 TOTAL ENERGY:     -230.391303703 Eh
FINAL SINGLE POINT ENERGY      -230.391303702917

DIPOLE MOMENT
-------------
                                X             Y             Z
Electronic contribution:      0.00000       0.00000      -0.23620
Nuclear contribution   :      0.00000       0.00000       0.30220
                        -----------------------------------------
Total Dipole Moment    :      0.00000       0.00000       0.06600
                        -----------------------------------------
Magnitude (a.u.)       :      0.06600
Magnitude (Debye)      :      0.16776

Rotational constants in cm-1:     0.244923     0.083122     0.062060
Rotational constants in MHz :  7342.614118  2491.949217  1860.522006

                             ****ORCA TERMINATED NORMALLY****
TOTAL RUN TIME: 0 days 0 hours 1 minutes 49 seconds 190 msec
