                         Program Version 5.0.3 -  RELEASE  -
|  1> !ri-mp2 aug-cc-pvtz aug-cc-pvtz/c tightscf
|  2> %pal nprocs 16 end
|  3>
|  4> * xyz 0 1
|  5> C     -1.951735   -0.180434    0.100405
|  6> C     -0.883932    0.542857   -0.210248
|  7> C      1.381983   -0.094680    0.182826
|  8> C     -2.041959   -1.672002    0.148175
|  9> C     -0.803865    2.031933   -0.270242
| 10> C      2.547078   -0.777270   -0.480474
| 11> O      1.391725    0.406289    1.275264
| 12> O      0.290604   -0.118487   -0.630137
| 13> H     -2.849211    0.374513    0.346595
| 14> H     -2.835495   -2.034166   -0.509960
| 15> H     -1.110051   -2.145591   -0.151752
| 16> H     -2.289315   -2.012966    1.156589
| 17> H     -1.765809    2.473463   -0.017477
| 18> H     -0.524541    2.360081   -1.274356
| 19> H     -0.054472    2.408994    0.426265
| 20> H      2.828171   -0.232808   -1.382252
| 21> H      2.270172   -1.786382   -0.783928
| 22> H      3.386497   -0.809977    0.206602
| 23> *
| 24>
| 25>                          ****END OF INPUT****

CARTESIAN COORDINATES (ANGSTROEM)
---------------------------------
  C     -1.951735   -0.180434    0.100405
  C     -0.883932    0.542857   -0.210248
  C      1.381983   -0.094680    0.182826
  C     -2.041959   -1.672002    0.148175
  C     -0.803865    2.031933   -0.270242
  C      2.547078   -0.777270   -0.480474
  O      1.391725    0.406289    1.275264
  O      0.290604   -0.118487   -0.630137
  H     -2.849211    0.374513    0.346595
  H     -2.835495   -2.034166   -0.509960
  H     -1.110051   -2.145591   -0.151752
  H     -2.289315   -2.012966    1.156589
  H     -1.765809    2.473463   -0.017477
  H     -0.524541    2.360081   -1.274356
  H     -0.054472    2.408994    0.426265
  H      2.828171   -0.232808   -1.382252
  H      2.270172   -1.786382   -0.783928
  H      3.386497   -0.809977    0.206602

 Total Charge           Charge          ....    0
 Multiplicity           Mult            ....    1
 Number of Electrons    NEL             ....   62
 Basis Dimension        Dim             ....  598

ORBITAL ENERGIES
----------------

  NO   OCC          E(Eh)            E(eV)
   0   2.0000     -20.606137      -560.7215
   1   2.0000     -20.547573      -559.1279
   2   2.0000     -11.385432      -309.8134
   3   2.0000     -11.293373      -307.3083
   4   2.0000     -11.243264      -305.9448
   5   2.0000     -11.227524      -305.5164
   6   2.0000     -11.224094      -305.4231
   7   2.0000     -11.221928      -305.3642
   8   2.0000      -1.463188       -39.8154
   9   2.0000      -1.366974       -37.1972
  10   2.0000      -1.090925       -29.6856
  11   2.0000      -1.020251       -27.7624
  12   2.0000      -0.993268       -27.0282
  13   2.0000      -0.899176       -24.4678
  14   2.0000      -0.829915       -22.5831
  15   2.0000      -0.715865       -19.4797
  16   2.0000      -0.689034       -18.7496
  17   2.0000      -0.677684       -18.4407
  18   2.0000      -0.652019       -17.7423
  19   2.0000      -0.613797       -16.7023
  20   2.0000      -0.594782       -16.1848
  21   2.0000      -0.583203       -15.8698
  22   2.0000      -0.568945       -15.4818
  23   2.0000      -0.560852       -15.2616
  24   2.0000      -0.552446       -15.0328
  25   2.0000      -0.532238       -14.4829
  26   2.0000      -0.523839       -14.2544
  27   2.0000      -0.506316       -13.7776
  28   2.0000      -0.468883       -12.7589
  29   2.0000      -0.452972       -12.3260
  30   2.0000      -0.348992        -9.4966
  31   0.0000       0.028157         0.7662
  32   0.0000       0.033155         0.9022
  33   0.0000       0.034423         0.9367
  34   0.0000       0.043013         1.1704
  35   0.0000       0.050373         1.3707

MULLIKEN ATOMIC CHARGES
-----------------------
   0 C :   -0.805971
   1 C :    1.165699
   2 C :    0.394364
   3 C :   -0.775218
   4 C :   -0.862750
   5 C :   -0.667894
   6 O :   -0.768383
   7 O :   -0.473955
   8 H :    0.116904
   9 H :    0.267714
  10 H :    0.400127
  11 H :    0.263283
  12 H :    0.256050
  13 H :    0.259809
  14 H :    0.294796
  15 H :    0.292781
  16 H :    0.297101
  17 H :    0.345543
Sum of atomic charges:    0.0000000

LOEWDIN ATOMIC CHARGES
----------------------
   0 C :    0.216239
   1 C :   -0.356076
   2 C :   -0.811904
   3 C :    0.559778
   4 C :    0.566126
   5 C :    0.586870
   6 O :    0.463553
   7 O :    0.572495
   8 H :   -0.192473
   9 H :   -0.176180
  10 H :   -0.190903
  11 H :   -0.174274
  12 H :   -0.178222
  13 H :   -0.166834
  14 H :   -0.185363
  15 H :   -0.173177
  16 H :   -0.175747
  17 H :   -0.183908

  Mayer bond orders larger than 0.100000
B(  0-C ,  1-C ) :   1.0744 B(  0-C ,  3-C ) :   0.7547 B(  0-C ,  7-O ) :  -0.1050
B(  0-C ,  8-H ) :   1.3572 B(  1-C ,  4-C ) :   0.6107 B(  1-C ,  7-O ) :   0.5652
B(  1-C ,  8-H ) :  -0.1262 B(  2-C ,  5-C ) :   0.7869 B(  2-C ,  6-O ) :   1.5271
B(  2-C ,  7-O ) :   1.0989 B(  3-C ,  9-H ) :   1.0171 B(  3-C , 10-H ) :   0.8016
B(  3-C , 11-H ) :   1.0059 B(  4-C , 12-H ) :   1.0260 B(  4-C , 13-H ) :   1.0084
B(  4-C , 14-H ) :   1.0056 B(  5-C , 15-H ) :   0.9400 B(  5-C , 16-H ) :   0.9263
B(  5-C , 17-H ) :   0.9146

MP2 TOTAL ENERGY:     -384.390152190 Eh
FINAL SINGLE POINT ENERGY      -384.390152190147

DIPOLE MOMENT
-------------
                                X             Y             Z
Electronic contribution:      2.89136       1.15408       1.27718
Nuclear contribution   :     -2.97623      -1.42848      -2.01321
                        -----------------------------------------
Total Dipole Moment    :     -0.08488      -0.27439      -0.73603
                        -----------------------------------------
Magnitude (a.u.)       :      0.79008
Magnitude (Debye)      :      2.00823

Rotational constants in cm-1:     0.096211     0.049490     0.039273
Rotational constants in MHz :  2884.323443  1483.674810  1177.372395

                             ****ORCA TERMINATED NORMALLY****
TOTAL RUN TIME: 0 days 0 hours 7 minutes 32 seconds 883 msec
