                         Program Version 5.0.3 -  RELEASE  -
|  1> !ri-mp2 aug-cc-pvtz aug-cc-pvtz/c tightscf
|  2> %pal nprocs 16 end
|  3>
|  4> * xyz 0 1
|  5> C     -2.336058    0.040054   -0.754448
|  6> H     -3.277485    0.507889   -0.453946
|  7> H     -1.772566    0.765717   -1.337617
|  8> H     -2.599402   -0.788479   -1.416868
|  9> C     -1.586968   -0.461683    0.442081
| 10> H     -2.107557   -1.217663    1.022372
| 11> C     -0.380120   -0.094692    0.868817
| 12> H      0.005574   -0.582736    1.758463
| 13> C      0.533363    0.933703    0.270646
| 14> H      0.042346    1.473818   -0.542976
| 15> H      0.746217    1.697623    1.028760
| 16> C      1.855390    0.410014   -0.232532
| 17> H      2.574553    1.177611   -0.503227
| 18> C      2.197298   -0.864315   -0.374253
| 19> H      3.172382   -1.142407   -0.750747
| 20> H      1.518518   -1.669861   -0.126075
| 21> *
| 22>
| 23>                          ****END OF INPUT****

CARTESIAN COORDINATES (ANGSTROEM)
---------------------------------
  C     -2.336058    0.040054   -0.754448
  H     -3.277485    0.507889   -0.453946
  H     -1.772566    0.765717   -1.337617
  H     -2.599402   -0.788479   -1.416868
  C     -1.586968   -0.461683    0.442081
  H     -2.107557   -1.217663    1.022372
  C     -0.380120   -0.094692    0.868817
  H      0.005574   -0.582736    1.758463
  C      0.533363    0.933703    0.270646
  H      0.042346    1.473818   -0.542976
  H      0.746217    1.697623    1.028760
  C      1.855390    0.410014   -0.232532
  H      2.574553    1.177611   -0.503227
  C      2.197298   -0.864315   -0.374253
  H      3.172382   -1.142407   -0.750747
  H      1.518518   -1.669861   -0.126075

 Total Charge           Charge          ....    0
 Multiplicity           Mult            ....    1
 Number of Electrons    NEL             ....   46
 Basis Dimension        Dim             ....  506

ORBITAL ENERGIES
----------------

  NO   OCC          E(Eh)            E(eV)
   0   2.0000     -11.232572      -305.6538
   1   2.0000     -11.230810      -305.6059
   2   2.0000     -11.226847      -305.4980
   3   2.0000     -11.222551      -305.3811
   4   2.0000     -11.219716      -305.3040
   5   2.0000     -11.215003      -305.1757
   6   2.0000      -1.098528       -29.8925
   7   2.0000      -1.044566       -28.4241
   8   2.0000      -0.963995       -26.2316
   9   2.0000      -0.902489       -24.5580
  10   2.0000      -0.771667       -20.9981
  11   2.0000      -0.709460       -19.3054
  12   2.0000      -0.657575       -17.8935
  13   2.0000      -0.637078       -17.3358
  14   2.0000      -0.589401       -16.0384
  15   2.0000      -0.565339       -15.3837
  16   2.0000      -0.558050       -15.1853
  17   2.0000      -0.542909       -14.7733
  18   2.0000      -0.519987       -14.1496
  19   2.0000      -0.495487       -13.4829
  20   2.0000      -0.466854       -12.7038
  21   2.0000      -0.361868        -9.8469
  22   2.0000      -0.346820        -9.4374
  23   0.0000       0.030302         0.8246
  24   0.0000       0.034724         0.9449
  25   0.0000       0.037540         1.0215
  26   0.0000       0.039605         1.0777
  27   0.0000       0.050893         1.3849

MULLIKEN ATOMIC CHARGES
-----------------------
   0 C :   -0.691708
   1 H :    0.239682
   2 H :    0.346482
   3 H :    0.210911
   4 C :   -0.394204
   5 H :    0.358880
   6 C :   -0.441158
   7 H :    0.279346
   8 C :   -0.130514
   9 H :    0.261072
  10 H :    0.231480
  11 C :   -0.349357
  12 H :    0.284975
  13 C :   -1.033311
  14 H :    0.434077
  15 H :    0.393348
Sum of atomic charges:    0.0000000

LOEWDIN ATOMIC CHARGES
----------------------
   0 C :    0.560696
   1 H :   -0.173738
   2 H :   -0.196104
   3 H :   -0.174418
   4 C :    0.215307
   5 H :   -0.193186
   6 C :    0.193746
   7 H :   -0.186098
   8 C :    0.227450
   9 H :   -0.180750
  10 H :   -0.155352
  11 C :    0.189734
  12 H :   -0.189935
  13 C :    0.519313
  14 H :   -0.228587
  15 H :   -0.228076

  Mayer bond orders larger than 0.100000
B(  0-C ,  1-H ) :   1.0255 B(  0-C ,  2-H ) :   0.8330 B(  0-C ,  3-H ) :   1.0437
B(  0-C ,  4-C ) :   0.7426 B(  4-C ,  5-H ) :   0.8713 B(  4-C ,  6-C ) :   1.5307
B(  4-C ,  7-H ) :  -0.1105 B(  5-H ,  6-C ) :  -0.1051 B(  6-C ,  7-H ) :   1.0176
B(  6-C ,  8-C ) :   0.9600 B(  6-C , 11-C ) :   0.1705 B(  8-C ,  9-H ) :   0.8805
B(  8-C , 10-H ) :   1.0202 B(  8-C , 11-C ) :   0.8484 B( 11-C , 12-H ) :   1.0435
B( 11-C , 13-C ) :   1.3179 B( 13-C , 14-H ) :   0.7463 B( 13-C , 15-H ) :   0.9801

MP2 TOTAL ENERGY:     -234.084162305 Eh
FINAL SINGLE POINT ENERGY      -234.084162304816

DIPOLE MOMENT
-------------
                                X             Y             Z
Electronic contribution:      1.64329      -0.08611       1.32634
Nuclear contribution   :     -1.78515       0.23296      -1.39018
                        -----------------------------------------
Total Dipole Moment    :     -0.14186       0.14685      -0.06383
                        -----------------------------------------
Magnitude (a.u.)       :      0.21393
Magnitude (Debye)      :      0.54376

Rotational constants in cm-1:     0.241141     0.060870     0.059461
Rotational constants in MHz :  7229.224529  1824.829456  1782.603302

                             ****ORCA TERMINATED NORMALLY****
TOTAL RUN TIME: 0 days 0 hours 3 minutes 58 seconds 433 msec
