                         Program Version 5.0.3 -  RELEASE  -
|  1> !ri-mp2 aug-cc-pvtz aug-cc-pvtz/c tightscf
|  2> %pal nprocs 16 end
|  3>
|  4> * xyz 0 1
|  5> H      3.165275   -0.906366    0.000000
|  6> C      2.248373   -0.372188    0.000000
|  7> C      1.205752    0.228394    0.000000
|  8> H      0.114647    2.056770    0.000000
|  9> C      0.000000    0.978779    0.000000
| 10> H     -2.064969    1.154769    0.000000
| 11> C     -1.233830    0.458318    0.000000
| 12> H     -0.691320   -1.620929    0.000000
| 13> H     -2.183701   -1.244462    0.875775
| 14> H     -2.183701   -1.244462   -0.875775
| 15> C     -1.579666   -0.992523    0.000000
| 16> *
| 17>
| 18>                          ****END OF INPUT****

CARTESIAN COORDINATES (ANGSTROEM)
---------------------------------
  H      3.165275   -0.906366    0.000000
  C      2.248373   -0.372188    0.000000
  C      1.205752    0.228394    0.000000
  H      0.114647    2.056770    0.000000
  C      0.000000    0.978779    0.000000
  H     -2.064969    1.154769    0.000000
  C     -1.233830    0.458318    0.000000
  H     -0.691320   -1.620929    0.000000
  H     -2.183701   -1.244462    0.875775
  H     -2.183701   -1.244462   -0.875775
  C     -1.579666   -0.992523    0.000000

 Total Charge           Charge          ....    0
 Multiplicity           Mult            ....    1
 Number of Electrons    NEL             ....   36
 Basis Dimension        Dim             ....  368

ORBITAL ENERGIES
----------------

  NO   OCC          E(Eh)            E(eV)
   0   2.0000     -11.252989      -306.2094
   1   2.0000     -11.248512      -306.0876
   2   2.0000     -11.235936      -305.7454
   3   2.0000     -11.226844      -305.4980
   4   2.0000     -11.224784      -305.4419
   5   2.0000      -1.103390       -30.0248
   6   2.0000      -1.022052       -27.8114
   7   2.0000      -0.948910       -25.8212
   8   2.0000      -0.810289       -22.0491
   9   2.0000      -0.709021       -19.2934
  10   2.0000      -0.665149       -18.0996
  11   2.0000      -0.629796       -17.1376
  12   2.0000      -0.575277       -15.6541
  13   2.0000      -0.537171       -14.6172
  14   2.0000      -0.517480       -14.0813
  15   2.0000      -0.454898       -12.3784
  16   2.0000      -0.392835       -10.6896
  17   2.0000      -0.332855        -9.0575
  18   0.0000       0.029190         0.7943
  19   0.0000       0.033407         0.9091
  20   0.0000       0.038074         1.0361
  21   0.0000       0.047396         1.2897
  22   0.0000       0.049784         1.3547

MULLIKEN ATOMIC CHARGES
-----------------------
   0 H :    0.480974
   1 C :   -1.384668
   2 C :    1.305630
   3 H :    0.362206
   4 C :   -0.282450
   5 H :    0.266840
   6 C :   -0.783513
   7 H :    0.300239
   8 H :    0.275708
   9 H :    0.275708
  10 C :   -0.816674
Sum of atomic charges:   -0.0000000

LOEWDIN ATOMIC CHARGES
----------------------
   0 H :   -0.302279
   1 C :    0.398998
   2 C :   -0.038195
   3 H :   -0.211850
   4 C :    0.117520
   5 H :   -0.185654
   6 C :    0.195842
   7 H :   -0.190691
   8 H :   -0.171683
   9 H :   -0.171683
  10 C :    0.559676

  Mayer bond orders larger than 0.100000
B(  0-H ,  1-C ) :   0.9465 B(  0-H ,  2-C ) :  -0.1262 B(  1-C ,  2-C ) :   1.2670
B(  1-C ,  3-H ) :   0.1184 B(  1-C ,  4-C ) :  -0.3602 B(  1-C ,  6-C ) :   0.3631
B(  1-C , 10-C ) :   0.1279 B(  2-C ,  4-C ) :   0.7657 B(  2-C ,  6-C ) :  -0.1470
B(  3-H ,  4-C ) :   0.9098 B(  3-H ,  6-C ) :  -0.1009 B(  4-C ,  6-C ) :   1.7012
B(  5-H ,  6-C ) :   1.0272 B(  6-C , 10-C ) :   0.9748 B(  7-H , 10-C ) :   0.8815
B(  8-H , 10-C ) :   0.9650 B(  9-H , 10-C ) :   0.9650

MP2 TOTAL ENERGY:     -193.628514429 Eh
FINAL SINGLE POINT ENERGY      -193.628514429285

DIPOLE MOMENT
-------------
                                X             Y             Z
Electronic contribution:      3.55120       1.75109      -0.00000
Nuclear contribution   :     -3.93144      -1.84584       0.00000
                        -----------------------------------------
Total Dipole Moment    :     -0.38024      -0.09475      -0.00000
                        -----------------------------------------
Magnitude (a.u.)       :      0.39187
Magnitude (Debye)      :      0.99605

Rotational constants in cm-1:     0.406735     0.110413     0.088245
Rotational constants in MHz : 12193.597472  3310.107968  2645.529977

                             ****ORCA TERMINATED NORMALLY****
TOTAL RUN TIME: 0 days 0 hours 1 minutes 50 seconds 494 msec
