                         Program Version 5.0.3 -  RELEASE  -
|  1> !ri-mp2 aug-cc-pvtz aug-cc-pvtz/c tightscf
|  2> %pal nprocs 16 end
|  3>
|  4> * xyz 0 1
|  5> C      1.302290    0.615163   -0.139445
|  6> C      0.013355    0.809181    0.136131
|  7> C      2.074570   -0.668347   -0.088094
|  8> C     -2.202655   -0.271676   -0.404781
|  9> C     -1.010350   -0.203515    0.558717
| 10> H      1.881490    1.484329   -0.436504
| 11> H     -0.366648    1.822918    0.039577
| 12> H      2.535067   -0.880541   -1.056528
| 13> H      1.460917   -1.524351    0.185335
| 14> H      2.891800   -0.598640    0.634949
| 15> H     -2.954741   -0.977144   -0.048720
| 16> H     -1.884282   -0.587950   -1.398923
| 17> H     -2.681767    0.703860   -0.505963
| 18> H     -1.381230    0.065717    1.553563
| 19> H     -0.563862   -1.193034    0.658048
| 20> *
| 21>
| 22>                          ****END OF INPUT****

CARTESIAN COORDINATES (ANGSTROEM)
---------------------------------
  C      1.302290    0.615163   -0.139445
  C      0.013355    0.809181    0.136131
  C      2.074570   -0.668347   -0.088094
  C     -2.202655   -0.271676   -0.404781
  C     -1.010350   -0.203515    0.558717
  H      1.881490    1.484329   -0.436504
  H     -0.366648    1.822918    0.039577
  H      2.535067   -0.880541   -1.056528
  H      1.460917   -1.524351    0.185335
  H      2.891800   -0.598640    0.634949
  H     -2.954741   -0.977144   -0.048720
  H     -1.884282   -0.587950   -1.398923
  H     -2.681767    0.703860   -0.505963
  H     -1.381230    0.065717    1.553563
  H     -0.563862   -1.193034    0.658048

 Total Charge           Charge          ....    0
 Multiplicity           Mult            ....    1
 Number of Electrons    NEL             ....   40
 Basis Dimension        Dim             ....  460

ORBITAL ENERGIES
----------------

  NO   OCC          E(Eh)            E(eV)
   0   2.0000     -11.222692      -305.3850
   1   2.0000     -11.221975      -305.3655
   2   2.0000     -11.219006      -305.2847
   3   2.0000     -11.217323      -305.2389
   4   2.0000     -11.212780      -305.1153
   5   2.0000      -1.085321       -29.5331
   6   2.0000      -1.015137       -27.6233
   7   2.0000      -0.928084       -25.2544
   8   2.0000      -0.843531       -22.9537
   9   2.0000      -0.720089       -19.5946
  10   2.0000      -0.654257       -17.8032
  11   2.0000      -0.595888       -16.2149
  12   2.0000      -0.586658       -15.9638
  13   2.0000      -0.562517       -15.3069
  14   2.0000      -0.531884       -14.4733
  15   2.0000      -0.517845       -14.0913
  16   2.0000      -0.511766       -13.9259
  17   2.0000      -0.484153       -13.1745
  18   2.0000      -0.460229       -12.5235
  19   2.0000      -0.342455        -9.3187
  20   0.0000       0.030902         0.8409
  21   0.0000       0.035526         0.9667
  22   0.0000       0.038293         1.0420
  23   0.0000       0.041161         1.1201
  24   0.0000       0.051834         1.4105

MULLIKEN ATOMIC CHARGES
-----------------------
   0 C :   -0.339423
   1 C :   -0.458285
   2 C :   -0.723257
   3 C :   -0.949938
   4 C :   -0.306131
   5 H :    0.392292
   6 H :    0.242092
   7 H :    0.209784
   8 H :    0.356332
   9 H :    0.223201
  10 H :    0.261224
  11 H :    0.294272
  12 H :    0.279663
  13 H :    0.215371
  14 H :    0.302802
Sum of atomic charges:   -0.0000000

LOEWDIN ATOMIC CHARGES
----------------------
   0 C :    0.209749
   1 C :    0.210058
   2 C :    0.556538
   3 C :    0.577546
   4 C :    0.235877
   5 H :   -0.196940
   6 H :   -0.190322
   7 H :   -0.175585
   8 H :   -0.197955
   9 H :   -0.174982
  10 H :   -0.174362
  11 H :   -0.171155
  12 H :   -0.174795
  13 H :   -0.152412
  14 H :   -0.181262

  Mayer bond orders larger than 0.100000
B(  0-C ,  1-C ) :   1.5252 B(  0-C ,  2-C ) :   0.7802 B(  0-C ,  5-H ) :   0.8413
B(  0-C ,  6-H ) :  -0.1244 B(  1-C ,  4-C ) :   0.8956 B(  1-C ,  5-H ) :  -0.1208
B(  1-C ,  6-H ) :   1.0848 B(  2-C ,  5-H ) :  -0.1108 B(  2-C ,  7-H ) :   1.0411
B(  2-C ,  8-H ) :   0.8267 B(  2-C ,  9-H ) :   1.0366 B(  3-C ,  4-C ) :   0.9481
B(  3-C , 10-H ) :   0.9690 B(  3-C , 11-H ) :   0.9420 B(  3-C , 12-H ) :   0.9453
B(  4-C , 13-H ) :   1.0317 B(  4-C , 14-H ) :   0.8352

MP2 TOTAL ENERGY:     -196.085639541 Eh
FINAL SINGLE POINT ENERGY      -196.085639540623

DIPOLE MOMENT
-------------
                                X             Y             Z
Electronic contribution:      1.13751       1.69109       0.42970
Nuclear contribution   :     -1.13887      -1.80466      -0.40185
                        -----------------------------------------
Total Dipole Moment    :     -0.00136      -0.11357       0.02785
                        -----------------------------------------
Magnitude (a.u.)       :      0.11694
Magnitude (Debye)      :      0.29723

Rotational constants in cm-1:     0.378493     0.084991     0.077809
Rotational constants in MHz : 11346.945562  2547.969506  2332.644990

                             ****ORCA TERMINATED NORMALLY****
TOTAL RUN TIME: 0 days 0 hours 2 minutes 41 seconds 923 msec
