                         Program Version 5.0.3 -  RELEASE  -
|  1> !ri-mp2 aug-cc-pvtz aug-cc-pvtz/c tightscf
|  2> %pal nprocs 16 end
|  3>
|  4> * xyz 0 1
|  5> N     -0.000879    0.657327   -0.156908
|  6> N      0.000879   -0.657327   -0.156908
|  7> O      0.011007    1.297461   -1.232955
|  8> O     -0.011007   -1.297461   -1.232955
|  9> C      0.000879    1.397974    1.121153
| 10> C     -0.000879   -1.397974    1.121153
| 11> H     -0.261515    2.413654    0.851840
| 12> H     -0.729762    0.994639    1.816917
| 13> H      0.995166    1.380452    1.566321
| 14> H      0.261515   -2.413654    0.851840
| 15> H      0.729762   -0.994639    1.816917
| 16> H     -0.995166   -1.380452    1.566321
| 17> *
| 18>
| 19>                          ****END OF INPUT****

CARTESIAN COORDINATES (ANGSTROEM)
---------------------------------
  N     -0.000879    0.657327   -0.156908
  N      0.000879   -0.657327   -0.156908
  O      0.011007    1.297461   -1.232955
  O     -0.011007   -1.297461   -1.232955
  C      0.000879    1.397974    1.121153
  C     -0.000879   -1.397974    1.121153
  H     -0.261515    2.413654    0.851840
  H     -0.729762    0.994639    1.816917
  H      0.995166    1.380452    1.566321
  H      0.261515   -2.413654    0.851840
  H      0.729762   -0.994639    1.816917
  H     -0.995166   -1.380452    1.566321

 Total Charge           Charge          ....    0
 Multiplicity           Mult            ....    1
 Number of Electrons    NEL             ....   48
 Basis Dimension        Dim             ....  414

ORBITAL ENERGIES
----------------

  NO   OCC          E(Eh)            E(eV)
   0   2.0000     -20.546083      -559.0873
   1   2.0000     -20.546082      -559.0873
   2   2.0000     -15.773704      -429.2243
   3   2.0000     -15.772790      -429.1994
   4   2.0000     -11.313852      -307.8656
   5   2.0000     -11.313845      -307.8654
   6   2.0000      -1.547835       -42.1187
   7   2.0000      -1.423487       -38.7350
   8   2.0000      -1.223852       -33.3027
   9   2.0000      -1.072544       -29.1854
  10   2.0000      -1.032837       -28.1049
  11   2.0000      -0.817095       -22.2343
  12   2.0000      -0.775565       -21.1042
  13   2.0000      -0.746055       -20.3012
  14   2.0000      -0.706895       -19.2356
  15   2.0000      -0.641865       -17.4660
  16   2.0000      -0.623167       -16.9572
  17   2.0000      -0.622099       -16.9282
  18   2.0000      -0.613337       -16.6898
  19   2.0000      -0.601271       -16.3614
  20   2.0000      -0.514351       -13.9962
  21   2.0000      -0.454221       -12.3600
  22   2.0000      -0.449155       -12.2221
  23   2.0000      -0.320003        -8.7077
  24   0.0000       0.013424         0.3653
  25   0.0000       0.030406         0.8274
  26   0.0000       0.031493         0.8570
  27   0.0000       0.045127         1.2280
  28   0.0000       0.052119         1.4182

MULLIKEN ATOMIC CHARGES
-----------------------
   0 N :    0.613784
   1 N :    0.613784
   2 O :   -0.860100
   3 O :   -0.860100
   4 C :   -0.842132
   5 C :   -0.842132
   6 H :    0.372260
   7 H :    0.354336
   8 H :    0.361851
   9 H :    0.372260
  10 H :    0.354336
  11 H :    0.361851
Sum of atomic charges:   -0.0000000

LOEWDIN ATOMIC CHARGES
----------------------
   0 N :   -0.342047
   1 N :   -0.342047
   2 O :    0.313717
   3 O :    0.313717
   4 C :    0.528140
   5 C :    0.528140
   6 H :   -0.173947
   7 H :   -0.173844
   8 H :   -0.152019
   9 H :   -0.173947
  10 H :   -0.173844
  11 H :   -0.152019

  Mayer bond orders larger than 0.100000
B(  0-N ,  1-N ) :   1.4899 B(  0-N ,  2-O ) :   0.5574 B(  0-N ,  3-O ) :   0.4391
B(  0-N ,  4-C ) :   0.8906 B(  1-N ,  2-O ) :   0.4391 B(  1-N ,  3-O ) :   0.5574
B(  1-N ,  5-C ) :   0.8906 B(  4-C ,  6-H ) :   0.8837 B(  4-C ,  7-H ) :   0.8777
B(  4-C ,  8-H ) :   0.8907 B(  5-C ,  9-H ) :   0.8837 B(  5-C , 10-H ) :   0.8777
B(  5-C , 11-H ) :   0.8907

MP2 TOTAL ENERGY:     -339.066892069 Eh
FINAL SINGLE POINT ENERGY      -339.066892068645

DIPOLE MOMENT
-------------
                                X             Y             Z
Electronic contribution:     -0.00000       0.00000      -5.32995
Nuclear contribution   :      0.00000       0.00000       8.43557
                        -----------------------------------------
Total Dipole Moment    :     -0.00000       0.00000       3.10562
                        -----------------------------------------
Magnitude (a.u.)       :      3.10562
Magnitude (Debye)      :      7.89387

Rotational constants in cm-1:     0.177407     0.126076     0.075829
Rotational constants in MHz :  5318.520507  3779.678112  2273.286451

                             ****ORCA TERMINATED NORMALLY****
TOTAL RUN TIME: 0 days 0 hours 2 minutes 42 seconds 293 msec
