                         Program Version 5.0.3 -  RELEASE  -
|  1> !ri-mp2 aug-cc-pvtz aug-cc-pvtz/c tightscf
|  2> %pal nprocs 16 end
|  3>
|  4> * xyz 0 1
|  5> C      0.000000    0.660572    0.578468
|  6> C      0.000000   -0.660572    0.578468
|  7> F      0.000000    1.383039   -0.550638
|  8> F      0.000000   -1.383039   -0.550638
|  9> H      0.000000    1.245818    1.484934
| 10> H      0.000000   -1.245818    1.484934
| 11> *
| 12>
| 13>                          ****END OF INPUT****

CARTESIAN COORDINATES (ANGSTROEM)
---------------------------------
  C      0.000000    0.660572    0.578468
  C      0.000000   -0.660572    0.578468
  F      0.000000    1.383039   -0.550638
  F      0.000000   -1.383039   -0.550638
  H      0.000000    1.245818    1.484934
  H      0.000000   -1.245818    1.484934

 Total Charge           Charge          ....    0
 Multiplicity           Mult            ....    1
 Number of Electrons    NEL             ....   32
 Basis Dimension        Dim             ....  230

ORBITAL ENERGIES
----------------

  NO   OCC          E(Eh)            E(eV)
   0   2.0000     -26.323779      -716.3065
   1   2.0000     -26.323778      -716.3064
   2   2.0000     -11.337780      -308.5167
   3   2.0000     -11.335968      -308.4674
   4   2.0000      -1.645393       -44.7734
   5   2.0000      -1.632332       -44.4180
   6   2.0000      -1.069159       -29.0933
   7   2.0000      -0.861030       -23.4298
   8   2.0000      -0.779553       -21.2127
   9   2.0000      -0.755446       -20.5567
  10   2.0000      -0.715639       -19.4735
  11   2.0000      -0.700978       -19.0746
  12   2.0000      -0.689481       -18.7617
  13   2.0000      -0.619367       -16.8538
  14   2.0000      -0.582225       -15.8432
  15   2.0000      -0.393168       -10.6987
  16   0.0000       0.026107         0.7104
  17   0.0000       0.038826         1.0565
  18   0.0000       0.076191         2.0733
  19   0.0000       0.085441         2.3250
  20   0.0000       0.090722         2.4687

MULLIKEN ATOMIC CHARGES
-----------------------
   0 C :   -0.257498
   1 C :   -0.257498
   2 F :   -0.371581
   3 F :   -0.371581
   4 H :    0.629079
   5 H :    0.629079
Sum of atomic charges:   -0.0000000

LOEWDIN ATOMIC CHARGES
----------------------
   0 C :   -0.216841
   1 C :   -0.216841
   2 F :    0.454843
   3 F :    0.454843
   4 H :   -0.238002
   5 H :   -0.238002

  Mayer bond orders larger than 0.100000
B(  0-C ,  1-C ) :   1.8634 B(  0-C ,  2-F ) :   0.8689 B(  0-C ,  4-H ) :   0.5433
B(  1-C ,  3-F ) :   0.8689 B(  1-C ,  5-H ) :   0.5433

MP2 TOTAL ENERGY:     -276.670541848 Eh
FINAL SINGLE POINT ENERGY      -276.670541848221

DIPOLE MOMENT
-------------
                                X             Y             Z
Electronic contribution:      0.00000      -0.00000      -2.74776
Nuclear contribution   :      0.00000       0.00000       3.80810
                        -----------------------------------------
Total Dipole Moment    :      0.00000      -0.00000       1.06034
                        -----------------------------------------
Magnitude (a.u.)       :      1.06034
Magnitude (Debye)      :      2.69516

Rotational constants in cm-1:     0.709788     0.195361     0.153196
Rotational constants in MHz : 21278.922647  5856.775281  4592.690724

                             ****ORCA TERMINATED NORMALLY****
TOTAL RUN TIME: 0 days 0 hours 0 minutes 38 seconds 735 msec
