                         Program Version 5.0.3 -  RELEASE  -
|  1> !ri-mp2 aug-cc-pvtz aug-cc-pvtz/c tightscf
|  2> %pal nprocs 16 end
|  3>
|  4> * xyz 0 1
|  5> H      0.296999    2.638501    0.000000
|  6> Cl    -1.282302   -0.692895    0.000000
|  7> C      1.865985   -1.198419    0.000000
|  8> C     -0.527300    1.925834    0.000000
|  9> H     -1.148337    2.109135    0.878732
| 10> H     -1.148337    2.109135   -0.878732
| 11> C      0.000000    0.528312    0.000000
| 12> C      1.279580    0.174679    0.000000
| 13> H      1.985598    0.999563    0.000000
| 14> H      1.099594   -1.969354    0.000000
| 15> H      2.502012   -1.345103   -0.876739
| 16> H      2.502012   -1.345103    0.876739
| 17> *
| 18>
| 19>                          ****END OF INPUT****

CARTESIAN COORDINATES (ANGSTROEM)
---------------------------------
  H      0.296999    2.638501    0.000000
  Cl    -1.282302   -0.692895    0.000000
  C      1.865985   -1.198419    0.000000
  C     -0.527300    1.925834    0.000000
  H     -1.148337    2.109135    0.878732
  H     -1.148337    2.109135   -0.878732
  C      0.000000    0.528312    0.000000
  C      1.279580    0.174679    0.000000
  H      1.985598    0.999563    0.000000
  H      1.099594   -1.969354    0.000000
  H      2.502012   -1.345103   -0.876739
  H      2.502012   -1.345103    0.876739

 Total Charge           Charge          ....    0
 Multiplicity           Mult            ....    1
 Number of Electrons    NEL             ....   48
 Basis Dimension        Dim             ....  395

ORBITAL ENERGIES
----------------

  NO   OCC          E(Eh)            E(eV)
   0   2.0000    -104.830336     -2852.5785
   1   2.0000     -11.295960      -307.3787
   2   2.0000     -11.242005      -305.9105
   3   2.0000     -11.235582      -305.7357
   4   2.0000     -11.226057      -305.4766
   5   2.0000     -10.554297      -287.1970
   6   2.0000      -8.021105      -218.2654
   7   2.0000      -8.019369      -218.2181
   8   2.0000      -8.019367      -218.2181
   9   2.0000      -1.157417       -31.4949
  10   2.0000      -1.045344       -28.4452
  11   2.0000      -0.996925       -27.1277
  12   2.0000      -0.897464       -24.4212
  13   2.0000      -0.723454       -19.6862
  14   2.0000      -0.639965       -17.4143
  15   2.0000      -0.614866       -16.7313
  16   2.0000      -0.595578       -16.2065
  17   2.0000      -0.567128       -15.4323
  18   2.0000      -0.538882       -14.6637
  19   2.0000      -0.532033       -14.4774
  20   2.0000      -0.497442       -13.5361
  21   2.0000      -0.478105       -13.0099
  22   2.0000      -0.443174       -12.0594
  23   2.0000      -0.349052        -9.4982
  24   0.0000       0.028762         0.7826
  25   0.0000       0.034320         0.9339
  26   0.0000       0.042623         1.1598
  27   0.0000       0.043477         1.1831
  28   0.0000       0.056535         1.5384

MULLIKEN ATOMIC CHARGES
-----------------------
   0 H :    0.280397
   1 Cl:   -0.408993
   2 C :   -0.819331
   3 C :   -0.841584
   4 H :    0.296272
   5 H :    0.296272
   6 C :    0.866702
   7 C :   -0.629659
   8 H :    0.135742
   9 H :    0.269467
  10 H :    0.277358
  11 H :    0.277358
Sum of atomic charges:    0.0000000

LOEWDIN ATOMIC CHARGES
----------------------
   0 H :   -0.187026
   1 Cl:    0.953911
   2 C :    0.528957
   3 C :    0.459090
   4 H :   -0.186691
   5 H :   -0.186691
   6 C :   -0.706444
   7 C :    0.104984
   8 H :   -0.199285
   9 H :   -0.227726
  10 H :   -0.176540
  11 H :   -0.176540

  Mayer bond orders larger than 0.100000
B(  0-H ,  3-C ) :   0.9416 B(  1-Cl,  6-C ) :   0.6740 B(  1-Cl,  7-C ) :   0.1221
B(  2-C ,  7-C ) :   0.9113 B(  2-C ,  9-H ) :   0.9550 B(  2-C , 10-H ) :   0.9801
B(  2-C , 11-H ) :   0.9801 B(  3-C ,  4-H ) :   0.9667 B(  3-C ,  5-H ) :   0.9667
B(  3-C ,  6-C ) :   0.7413 B(  6-C ,  7-C ) :   1.4476 B(  7-C ,  8-H ) :   1.1946

MP2 TOTAL ENERGY:     -615.990626147 Eh
FINAL SINGLE POINT ENERGY      -615.990626146896

DIPOLE MOMENT
-------------
                                X             Y             Z
Electronic contribution:     -7.28086      -3.70025      -0.00000
Nuclear contribution   :      7.88859       4.16931       0.00000
                        -----------------------------------------
Total Dipole Moment    :      0.60773       0.46907      -0.00000
                        -----------------------------------------
Magnitude (a.u.)       :      0.76769
Magnitude (Debye)      :      1.95132

Rotational constants in cm-1:     0.162506     0.110636     0.067459
Rotational constants in MHz :  4871.801443  3316.791414  2022.383759

                             ****ORCA TERMINATED NORMALLY****
TOTAL RUN TIME: 0 days 0 hours 2 minutes 1 seconds 925 msec
