                         Program Version 5.0.3 -  RELEASE  -
|  1> !ri-mp2 aug-cc-pvtz aug-cc-pvtz/c tightscf
|  2> %pal nprocs 16 end
|  3>
|  4> * xyz 0 1
|  5> C     -0.795540   -1.498083    0.000000
|  6> F      0.356729   -2.191946    0.000000
|  7> H     -1.660114   -2.146002    0.000000
|  8> C     -0.829762   -0.177917    0.000000
|  9> H     -1.791395    0.315467    0.000000
| 10> C      0.375366    0.693448    0.000000
| 11> H      1.319452    0.152643    0.000000
| 12> F      0.356729    1.516706    1.098964
| 13> F      0.356729    1.516706   -1.098964
| 14> *
| 15>
| 16>                          ****END OF INPUT****

CARTESIAN COORDINATES (ANGSTROEM)
---------------------------------
  C     -0.795540   -1.498083    0.000000
  F      0.356729   -2.191946    0.000000
  H     -1.660114   -2.146002    0.000000
  C     -0.829762   -0.177917    0.000000
  H     -1.791395    0.315467    0.000000
  C      0.375366    0.693448    0.000000
  H      1.319452    0.152643    0.000000
  F      0.356729    1.516706    1.098964
  F      0.356729    1.516706   -1.098964

 Total Charge           Charge          ....    0
 Multiplicity           Mult            ....    1
 Number of Electrons    NEL             ....   48
 Basis Dimension        Dim             ....  345

ORBITAL ENERGIES
----------------

  NO   OCC          E(Eh)            E(eV)
   0   2.0000     -26.336885      -716.6631
   1   2.0000     -26.311248      -715.9655
   2   2.0000     -26.311230      -715.9650
   3   2.0000     -11.420329      -310.7630
   4   2.0000     -11.358193      -309.0721
   5   2.0000     -11.264712      -306.5284
   6   2.0000      -1.657268       -45.0966
   7   2.0000      -1.652843       -44.9761
   8   2.0000      -1.596154       -43.4336
   9   2.0000      -1.110909       -30.2294
  10   2.0000      -0.968103       -26.3434
  11   2.0000      -0.854315       -23.2471
  12   2.0000      -0.793008       -21.5788
  13   2.0000      -0.765109       -20.8197
  14   2.0000      -0.753873       -20.5139
  15   2.0000      -0.746955       -20.3257
  16   2.0000      -0.715467       -19.4688
  17   2.0000      -0.665777       -18.1167
  18   2.0000      -0.659089       -17.9347
  19   2.0000      -0.629216       -17.1218
  20   2.0000      -0.629047       -17.1172
  21   2.0000      -0.599065       -16.3014
  22   2.0000      -0.533433       -14.5154
  23   2.0000      -0.415173       -11.2974
  24   0.0000       0.025513         0.6942
  25   0.0000       0.039915         1.0861
  26   0.0000       0.041623         1.1326
  27   0.0000       0.078843         2.1454
  28   0.0000       0.082176         2.2361

MULLIKEN ATOMIC CHARGES
-----------------------
   0 C :   -0.286342
   1 F :   -0.435306
   2 H :    0.704172
   3 C :   -0.478572
   4 H :    0.346322
   5 C :    0.674155
   6 H :    0.340971
   7 F :   -0.432700
   8 F :   -0.432700
Sum of atomic charges:   -0.0000000

LOEWDIN ATOMIC CHARGES
----------------------
   0 C :   -0.156321
   1 F :    0.470737
   2 H :   -0.208843
   3 C :    0.160490
   4 H :   -0.206464
   5 C :   -0.784779
   6 H :   -0.192744
   7 F :    0.458962
   8 F :    0.458962

  Mayer bond orders larger than 0.100000
B(  0-C ,  1-F ) :   0.9132 B(  0-C ,  2-H ) :   0.3887 B(  0-C ,  3-C ) :   1.5999
B(  3-C ,  4-H ) :   0.8903 B(  3-C ,  5-C ) :   1.0333 B(  5-C ,  6-H ) :   0.9294
B(  5-C ,  7-F ) :   0.7135 B(  5-C ,  8-F ) :   0.7135

MP2 TOTAL ENERGY:     -415.051990897 Eh
FINAL SINGLE POINT ENERGY      -415.051990896821

DIPOLE MOMENT
-------------
                                X             Y             Z
Electronic contribution:      2.36895       1.57489       0.00000
Nuclear contribution   :     -2.99296      -2.35471       0.00000
                        -----------------------------------------
Total Dipole Moment    :     -0.62402      -0.77982       0.00000
                        -----------------------------------------
Magnitude (a.u.)       :      0.99875
Magnitude (Debye)      :      2.53863

Rotational constants in cm-1:     0.227239     0.067708     0.063239
Rotational constants in MHz :  6812.448737  2029.827690  1895.867120

                             ****ORCA TERMINATED NORMALLY****
TOTAL RUN TIME: 0 days 0 hours 1 minutes 24 seconds 459 msec
