                         Program Version 5.0.3 -  RELEASE  -
|  1> !ri-mp2 aug-cc-pvtz aug-cc-pvtz/c tightscf
|  2> %pal nprocs 16 end
|  3>
|  4> * xyz 0 1
|  5> C      2.504241    0.931319   -0.085192
|  6> C      1.998142   -0.478800   -0.128417
|  7> C      0.769296   -0.918216    0.140008
|  8> C     -0.434805   -0.119302    0.542445
|  9> C     -1.601727   -0.257472   -0.447654
| 10> C     -2.851525    0.501404   -0.006889
| 11> H      1.734783    1.651980    0.184380
| 12> H      3.319775    1.027195    0.636764
| 13> H      2.913879    1.224357   -1.055460
| 14> H      2.738677   -1.220567   -0.412233
| 15> H      0.595713   -1.987355    0.051531
| 16> H     -0.185051    0.936381    0.659414
| 17> H     -0.776153   -0.463279    1.525879
| 18> H     -1.278423    0.098753   -1.429077
| 19> H     -1.840844   -1.317309   -0.573189
| 20> H     -3.661297    0.386912   -0.728721
| 21> H     -3.213611    0.139892    0.957916
| 22> H     -2.649176    1.569437    0.096993
| 23> *
| 24>
| 25>                          ****END OF INPUT****

CARTESIAN COORDINATES (ANGSTROEM)
---------------------------------
  C      2.504241    0.931319   -0.085192
  C      1.998142   -0.478800   -0.128417
  C      0.769296   -0.918216    0.140008
  C     -0.434805   -0.119302    0.542445
  C     -1.601727   -0.257472   -0.447654
  C     -2.851525    0.501404   -0.006889
  H      1.734783    1.651980    0.184380
  H      3.319775    1.027195    0.636764
  H      2.913879    1.224357   -1.055460
  H      2.738677   -1.220567   -0.412233
  H      0.595713   -1.987355    0.051531
  H     -0.185051    0.936381    0.659414
  H     -0.776153   -0.463279    1.525879
  H     -1.278423    0.098753   -1.429077
  H     -1.840844   -1.317309   -0.573189
  H     -3.661297    0.386912   -0.728721
  H     -3.213611    0.139892    0.957916
  H     -2.649176    1.569437    0.096993

 Total Charge           Charge          ....    0
 Multiplicity           Mult            ....    1
 Number of Electrons    NEL             ....   48
 Basis Dimension        Dim             ....  552

ORBITAL ENERGIES
----------------

  NO   OCC          E(Eh)            E(eV)
   0   2.0000     -11.222465      -305.3788
   1   2.0000     -11.219512      -305.2985
   2   2.0000     -11.218637      -305.2746
   3   2.0000     -11.218164      -305.2617
   4   2.0000     -11.217143      -305.2340
   5   2.0000     -11.210940      -305.0652
   6   2.0000      -1.090204       -29.6660
   7   2.0000      -1.038764       -28.2662
   8   2.0000      -0.960120       -26.1262
   9   2.0000      -0.894891       -24.3512
  10   2.0000      -0.806914       -21.9573
  11   2.0000      -0.721255       -19.6263
  12   2.0000      -0.658049       -17.9064
  13   2.0000      -0.611011       -16.6265
  14   2.0000      -0.590865       -16.0782
  15   2.0000      -0.567201       -15.4343
  16   2.0000      -0.557365       -15.1667
  17   2.0000      -0.534710       -14.5502
  18   2.0000      -0.522595       -14.2205
  19   2.0000      -0.500498       -13.6192
  20   2.0000      -0.479431       -13.0460
  21   2.0000      -0.468423       -12.7464
  22   2.0000      -0.458166       -12.4673
  23   2.0000      -0.341666        -9.2972
  24   0.0000       0.029998         0.8163
  25   0.0000       0.034692         0.9440
  26   0.0000       0.036588         0.9956
  27   0.0000       0.039209         1.0669
  28   0.0000       0.050191         1.3658

MULLIKEN ATOMIC CHARGES
-----------------------
   0 C :   -0.701321
   1 C :   -0.262698
   2 C :   -0.566813
   3 C :   -0.177051
   4 C :   -0.430921
   5 C :   -0.984581
   6 H :    0.372548
   7 H :    0.221031
   8 H :    0.203497
   9 H :    0.405197
  10 H :    0.117342
  11 H :    0.231689
  12 H :    0.244989
  13 H :    0.261359
  14 H :    0.245291
  15 H :    0.275474
  16 H :    0.266220
  17 H :    0.278747
Sum of atomic charges:    0.0000000

LOEWDIN ATOMIC CHARGES
----------------------
   0 C :    0.557657
   1 C :    0.212241
   2 C :    0.217902
   3 C :    0.248312
   4 C :    0.256228
   5 C :    0.577538
   6 H :   -0.197360
   7 H :   -0.174921
   8 H :   -0.175339
   9 H :   -0.196584
  10 H :   -0.188539
  11 H :   -0.175159
  12 H :   -0.146230
  13 H :   -0.147688
  14 H :   -0.151196
  15 H :   -0.173986
  16 H :   -0.171786
  17 H :   -0.171090

  Mayer bond orders larger than 0.100000
B(  0-C ,  1-C ) :   0.7305 B(  0-C ,  6-H ) :   0.8082 B(  0-C ,  7-H ) :   1.0416
B(  0-C ,  8-H ) :   1.0454 B(  0-C ,  9-H ) :  -0.1123 B(  1-C ,  2-C ) :   1.5617
B(  1-C ,  9-H ) :   0.8267 B(  1-C , 10-H ) :  -0.1878 B(  2-C ,  3-C ) :   0.8451
B(  2-C ,  9-H ) :  -0.1326 B(  2-C , 10-H ) :   1.2838 B(  3-C ,  4-C ) :   0.9148
B(  3-C , 11-H ) :   0.8785 B(  3-C , 12-H ) :   1.0231 B(  4-C ,  5-C ) :   0.8993
B(  4-C , 13-H ) :   0.9680 B(  4-C , 14-H ) :   0.9601 B(  5-C , 15-H ) :   0.9640
B(  5-C , 16-H ) :   0.9565 B(  5-C , 17-H ) :   0.9470

MP2 TOTAL ENERGY:     -235.310942827 Eh
FINAL SINGLE POINT ENERGY      -235.310942827106

DIPOLE MOMENT
-------------
                                X             Y             Z
Electronic contribution:      2.43361      -2.09611       0.08711
Nuclear contribution   :     -2.46543       2.19194      -0.09191
                        -----------------------------------------
Total Dipole Moment    :     -0.03182       0.09583      -0.00479
                        -----------------------------------------
Magnitude (a.u.)       :      0.10109
Magnitude (Debye)      :      0.25694

Rotational constants in cm-1:     0.288702     0.049113     0.045320
Rotational constants in MHz :  8655.072664  1472.380421  1358.673586

                             ****ORCA TERMINATED NORMALLY****
TOTAL RUN TIME: 0 days 0 hours 4 minutes 58 seconds 495 msec
