                         Program Version 5.0.3 -  RELEASE  -
|  1> !ri-mp2 aug-cc-pvtz aug-cc-pvtz/c tightscf
|  2> %pal nprocs 16 end
|  3>
|  4> * xyz 0 1
|  5> C      0.000000    0.674455    0.756935
|  6> C      0.000000   -0.674455    0.756935
|  7> C      0.000000    1.546499   -0.398566
|  8> C      0.000000   -1.546499   -0.398566
|  9> C      0.000000    2.881171   -0.319932
| 10> C      0.000000   -2.881171   -0.319932
| 11> H      0.000000    1.175747    1.719147
| 12> H      0.000000   -1.175747    1.719147
| 13> H      0.000000    1.087294   -1.380064
| 14> H      0.000000   -1.087294   -1.380064
| 15> H      0.000000    3.391009    0.635734
| 16> H      0.000000   -3.391009    0.635734
| 17> H      0.000000    3.500756   -1.205438
| 18> H      0.000000   -3.500756   -1.205438
| 19> *
| 20>
| 21>                          ****END OF INPUT****

CARTESIAN COORDINATES (ANGSTROEM)
---------------------------------
  C      0.000000    0.674455    0.756935
  C      0.000000   -0.674455    0.756935
  C      0.000000    1.546499   -0.398566
  C      0.000000   -1.546499   -0.398566
  C      0.000000    2.881171   -0.319932
  C      0.000000   -2.881171   -0.319932
  H      0.000000    1.175747    1.719147
  H      0.000000   -1.175747    1.719147
  H      0.000000    1.087294   -1.380064
  H      0.000000   -1.087294   -1.380064
  H      0.000000    3.391009    0.635734
  H      0.000000   -3.391009    0.635734
  H      0.000000    3.500756   -1.205438
  H      0.000000   -3.500756   -1.205438

 Total Charge           Charge          ....    0
 Multiplicity           Mult            ....    1
 Number of Electrons    NEL             ....   44
 Basis Dimension        Dim             ....  460

ORBITAL ENERGIES
----------------

  NO   OCC          E(Eh)            E(eV)
   0   2.0000     -11.240513      -305.8699
   1   2.0000     -11.240377      -305.8662
   2   2.0000     -11.239477      -305.8417
   3   2.0000     -11.238044      -305.8027
   4   2.0000     -11.231292      -305.6190
   5   2.0000     -11.231292      -305.6190
   6   2.0000      -1.112795       -30.2807
   7   2.0000      -1.059322       -28.8256
   8   2.0000      -0.986612       -26.8471
   9   2.0000      -0.846891       -23.0451
  10   2.0000      -0.796522       -21.6745
  11   2.0000      -0.728924       -19.8350
  12   2.0000      -0.675653       -18.3855
  13   2.0000      -0.636355       -17.3161
  14   2.0000      -0.601061       -16.3557
  15   2.0000      -0.567205       -15.4344
  16   2.0000      -0.548196       -14.9172
  17   2.0000      -0.528035       -14.3686
  18   2.0000      -0.482331       -13.1249
  19   2.0000      -0.469353       -12.7717
  20   2.0000      -0.397280       -10.8105
  21   2.0000      -0.297019        -8.0823
  22   0.0000       0.030721         0.8360
  23   0.0000       0.031123         0.8469
  24   0.0000       0.035340         0.9617
  25   0.0000       0.047757         1.2995
  26   0.0000       0.049573         1.3490

MULLIKEN ATOMIC CHARGES
-----------------------
   0 C :   -0.061688
   1 C :   -0.061688
   2 C :    0.108119
   3 C :    0.108119
   4 C :   -1.265200
   5 C :   -1.265200
   6 H :    0.227288
   7 H :    0.227288
   8 H :    0.274446
   9 H :    0.274446
  10 H :    0.335637
  11 H :    0.335637
  12 H :    0.381398
  13 H :    0.381398
Sum of atomic charges:    0.0000000

LOEWDIN ATOMIC CHARGES
----------------------
   0 C :    0.179712
   1 C :    0.179712
   2 C :    0.144947
   3 C :    0.144947
   4 C :    0.530721
   5 C :    0.530721
   6 H :   -0.196544
   7 H :   -0.196544
   8 H :   -0.210915
   9 H :   -0.210915
  10 H :   -0.221749
  11 H :   -0.221749
  12 H :   -0.226172
  13 H :   -0.226172

  Mayer bond orders larger than 0.100000
B(  0-C ,  1-C ) :   1.1408 B(  0-C ,  2-C ) :   0.5457 B(  0-C ,  5-C ) :   0.1057
B(  0-C ,  6-H ) :   1.1256 B(  0-C ,  9-H ) :  -0.1057 B(  1-C ,  3-C ) :   0.5457
B(  1-C ,  4-C ) :   0.1057 B(  1-C ,  7-H ) :   1.1256 B(  1-C ,  8-H ) :  -0.1057
B(  2-C ,  4-C ) :   1.0692 B(  2-C ,  8-H ) :   1.2504 B(  3-C ,  5-C ) :   1.0692
B(  3-C ,  9-H ) :   1.2504 B(  4-C ,  8-H ) :  -0.1280 B(  4-C , 10-H ) :   1.0339
B(  4-C , 12-H ) :   0.8598 B(  5-C ,  9-H ) :  -0.1280 B(  5-C , 11-H ) :   1.0339
B(  5-C , 13-H ) :   0.8598

MP2 TOTAL ENERGY:     -232.871976029 Eh
FINAL SINGLE POINT ENERGY      -232.871976028820

DIPOLE MOMENT
-------------
                                X             Y             Z
Electronic contribution:     -0.00000      -0.00000       0.46556
Nuclear contribution   :      0.00000       0.00000      -0.47566
                        -----------------------------------------
Total Dipole Moment    :     -0.00000      -0.00000      -0.01010
                        -----------------------------------------
Magnitude (a.u.)       :      0.01010
Magnitude (Debye)      :      0.02568

Rotational constants in cm-1:     0.502049     0.052541     0.047563
Rotational constants in MHz : 15051.065257  1575.133428  1425.908379

                             ****ORCA TERMINATED NORMALLY****
TOTAL RUN TIME: 0 days 0 hours 2 minutes 55 seconds 628 msec
