                         Program Version 5.0.3 -  RELEASE  -
|  1> !ri-mp2 aug-cc-pvtz aug-cc-pvtz/c tightscf
|  2> %pal nprocs 16 end
|  3>
|  4> * xyz 0 1
|  5> C      0.000000    0.661946    0.959662
|  6> C      0.000000   -0.661946    0.959662
|  7> Cl     0.000000    1.660082   -0.449807
|  8> Cl     0.000000   -1.660082   -0.449807
|  9> H      0.000000    1.210752    1.888744
| 10> H      0.000000   -1.210752    1.888744
| 11> *
| 12>
| 13>                          ****END OF INPUT****

CARTESIAN COORDINATES (ANGSTROEM)
---------------------------------
  C      0.000000    0.661946    0.959662
  C      0.000000   -0.661946    0.959662
  Cl     0.000000    1.660082   -0.449807
  Cl     0.000000   -1.660082   -0.449807
  H      0.000000    1.210752    1.888744
  H      0.000000   -1.210752    1.888744

 Total Charge           Charge          ....    0
 Multiplicity           Mult            ....    1
 Number of Electrons    NEL             ....   48
 Basis Dimension        Dim             ....  238

ORBITAL ENERGIES
----------------

  NO   OCC          E(Eh)            E(eV)
   0   2.0000    -104.855662     -2853.2676
   1   2.0000    -104.855662     -2853.2676
   2   2.0000     -11.318195      -307.9837
   3   2.0000     -11.316406      -307.9351
   4   2.0000     -10.579476      -287.8822
   5   2.0000     -10.579473      -287.8821
   6   2.0000      -8.046421      -218.9543
   7   2.0000      -8.046417      -218.9541
   8   2.0000      -8.044428      -218.9000
   9   2.0000      -8.044426      -218.9000
  10   2.0000      -8.044365      -218.8983
  11   2.0000      -8.044364      -218.8983
  12   2.0000      -1.194608       -32.5069
  13   2.0000      -1.134609       -30.8743
  14   2.0000      -1.003775       -27.3141
  15   2.0000      -0.784425       -21.3453
  16   2.0000      -0.700538       -19.0626
  17   2.0000      -0.617737       -16.8095
  18   2.0000      -0.551143       -14.9974
  19   2.0000      -0.548220       -14.9178
  20   2.0000      -0.489461       -13.3189
  21   2.0000      -0.472478       -12.8568
  22   2.0000      -0.458527       -12.4772
  23   2.0000      -0.370641       -10.0857
  24   0.0000       0.027405         0.7457
  25   0.0000       0.040010         1.0887
  26   0.0000       0.062003         1.6872
  27   0.0000       0.080680         2.1954
  28   0.0000       0.093843         2.5536

MULLIKEN ATOMIC CHARGES
-----------------------
   0 C :   -0.258007
   1 C :   -0.258007
   2 Cl:   -0.196604
   3 Cl:   -0.196604
   4 H :    0.454612
   5 H :    0.454612
Sum of atomic charges:    0.0000000

LOEWDIN ATOMIC CHARGES
----------------------
   0 C :   -0.595742
   1 C :   -0.595742
   2 Cl:    0.905651
   3 Cl:    0.905651
   4 H :   -0.309909
   5 H :   -0.309909

  Mayer bond orders larger than 0.100000
B(  0-C ,  1-C ) :   1.7838 B(  0-C ,  2-Cl) :   0.8597 B(  0-C ,  4-H ) :   0.7456
B(  1-C ,  3-Cl) :   0.8597 B(  1-C ,  5-H ) :   0.7456

MP2 TOTAL ENERGY:     -996.647235675 Eh
FINAL SINGLE POINT ENERGY      -996.647235675007

DIPOLE MOMENT
-------------
                                X             Y             Z
Electronic contribution:     -0.00000       0.00000      -3.86074
Nuclear contribution   :      0.00000       0.00000       4.70946
                        -----------------------------------------
Total Dipole Moment    :     -0.00000       0.00000       0.84873
                        -----------------------------------------
Magnitude (a.u.)       :      0.84873
Magnitude (Debye)      :      2.15730

Rotational constants in cm-1:     0.388428     0.080701     0.066819
Rotational constants in MHz : 11644.769661  2419.369107  2003.179607

                             ****ORCA TERMINATED NORMALLY****
TOTAL RUN TIME: 0 days 0 hours 0 minutes 49 seconds 162 msec
