                         Program Version 5.0.3 -  RELEASE  -
|  1> !ri-mp2 aug-cc-pvtz aug-cc-pvtz/c tightscf
|  2> %pal nprocs 16 end
|  3>
|  4> * xyz 0 1
|  5> H     -2.046077    1.260629    0.000000
|  6> C     -1.219389    0.555593    0.000000
|  7> H      0.021554    2.201006    0.000000
|  8> C      0.000000    1.114678    0.000000
|  9> H      1.392911   -0.573551    0.000000
| 10> C      1.319865    0.504047    0.000000
| 11> H      3.420124    0.739387    0.000000
| 12> H      2.436778    2.299849    0.000000
| 13> C      2.450226    1.216544    0.000000
| 14> H     -2.367696   -0.977943    0.864681
| 15> H     -2.367696   -0.977943   -0.864681
| 16> C     -1.702301   -0.867901    0.000000
| 17> H     -1.238007   -2.971360    0.000000
| 18> H     -0.064100   -2.005323   -0.883366
| 19> H     -0.064100   -2.005323    0.883366
| 20> C     -0.702350   -2.021198    0.000000
| 21> *
| 22>
| 23>                          ****END OF INPUT****

CARTESIAN COORDINATES (ANGSTROEM)
---------------------------------
  H     -2.046077    1.260629    0.000000
  C     -1.219389    0.555593    0.000000
  H      0.021554    2.201006    0.000000
  C      0.000000    1.114678    0.000000
  H      1.392911   -0.573551    0.000000
  C      1.319865    0.504047    0.000000
  H      3.420124    0.739387    0.000000
  H      2.436778    2.299849    0.000000
  C      2.450226    1.216544    0.000000
  H     -2.367696   -0.977943    0.864681
  H     -2.367696   -0.977943   -0.864681
  C     -1.702301   -0.867901    0.000000
  H     -1.238007   -2.971360    0.000000
  H     -0.064100   -2.005323   -0.883366
  H     -0.064100   -2.005323    0.883366
  C     -0.702350   -2.021198    0.000000

 Total Charge           Charge          ....    0
 Multiplicity           Mult            ....    1
 Number of Electrons    NEL             ....   46
 Basis Dimension        Dim             ....  506

ORBITAL ENERGIES
----------------

  NO   OCC          E(Eh)            E(eV)
   0   2.0000     -11.234339      -305.7019
   1   2.0000     -11.232455      -305.6506
   2   2.0000     -11.232053      -305.6397
   3   2.0000     -11.226837      -305.4978
   4   2.0000     -11.222662      -305.3842
   5   2.0000     -11.217936      -305.2556
   6   2.0000      -1.099252       -29.9122
   7   2.0000      -1.046328       -28.4720
   8   2.0000      -0.979687       -26.6586
   9   2.0000      -0.879710       -23.9381
  10   2.0000      -0.793771       -21.5996
  11   2.0000      -0.728510       -19.8238
  12   2.0000      -0.646471       -17.5914
  13   2.0000      -0.620002       -16.8711
  14   2.0000      -0.614687       -16.7265
  15   2.0000      -0.569722       -15.5029
  16   2.0000      -0.563335       -15.3291
  17   2.0000      -0.522353       -14.2139
  18   2.0000      -0.504514       -13.7285
  19   2.0000      -0.491717       -13.3803
  20   2.0000      -0.463854       -12.6221
  21   2.0000      -0.432482       -11.7684
  22   2.0000      -0.310893        -8.4598
  23   0.0000       0.029255         0.7961
  24   0.0000       0.033178         0.9028
  25   0.0000       0.035877         0.9763
  26   0.0000       0.043873         1.1939
  27   0.0000       0.049026         1.3341

MULLIKEN ATOMIC CHARGES
-----------------------
   0 H :    0.148332
   1 C :   -0.368402
   2 H :    0.116816
   3 C :    0.006446
   4 H :    0.318079
   5 C :    0.295194
   6 H :    0.352781
   7 H :    0.347831
   8 C :   -1.449976
   9 H :    0.254900
  10 H :    0.254900
  11 C :   -0.200384
  12 H :    0.254213
  13 H :    0.282600
  14 H :    0.282600
  15 C :   -0.895929
Sum of atomic charges:    0.0000000

LOEWDIN ATOMIC CHARGES
----------------------
   0 H :   -0.193377
   1 C :    0.238240
   2 H :   -0.207218
   3 C :    0.182630
   4 H :   -0.241609
   5 C :    0.151621
   6 H :   -0.227525
   7 H :   -0.223550
   8 C :    0.529666
   9 H :   -0.156845
  10 H :   -0.156845
  11 C :    0.249595
  12 H :   -0.168347
  13 H :   -0.173431
  14 H :   -0.173431
  15 C :    0.570427

  Mayer bond orders larger than 0.100000
B(  0-H ,  1-C ) :   1.1418 B(  0-H ,  3-C ) :  -0.1286 B(  1-C ,  2-H ) :  -0.1369
B(  1-C ,  3-C ) :   1.1580 B(  1-C ,  4-H ) :  -0.1129 B(  1-C ,  5-C ) :   0.1405
B(  1-C , 11-C ) :   0.7759 B(  2-H ,  3-C ) :   1.2915 B(  2-H ,  4-H ) :   0.1100
B(  3-C ,  5-C ) :   0.4530 B(  4-H ,  5-C ) :   1.1120 B(  4-H ,  8-C ) :  -0.1805
B(  5-C ,  8-C ) :   0.9053 B(  6-H ,  8-C ) :   0.9294 B(  7-H ,  8-C ) :   1.0152
B(  9-H , 11-C ) :   0.9799 B( 10-H , 11-C ) :   0.9799 B( 11-C , 15-C ) :   0.8656
B( 12-H , 15-C ) :   1.0179 B( 13-H , 15-C ) :   0.9405 B( 14-H , 15-C ) :   0.9405

MP2 TOTAL ENERGY:     -234.086052619 Eh
FINAL SINGLE POINT ENERGY      -234.086052618860

DIPOLE MOMENT
-------------
                                X             Y             Z
Electronic contribution:      0.70236       2.96582      -0.00000
Nuclear contribution   :     -0.92160      -3.16616       0.00000
                        -----------------------------------------
Total Dipole Moment    :     -0.21924      -0.20034      -0.00000
                        -----------------------------------------
Magnitude (a.u.)       :      0.29699
Magnitude (Debye)      :      0.75488

Rotational constants in cm-1:     0.231384     0.067209     0.053092
Rotational constants in MHz :  6936.717363  2014.865875  1591.645375

                             ****ORCA TERMINATED NORMALLY****
TOTAL RUN TIME: 0 days 0 hours 4 minutes 21 seconds 842 msec
