 Gaussian 16, Revision C.01,

 ----------------------------------------------------------------------
 #t hf aug-cc-pvdz symm=none int=(grid=ultrafine) guess=(read,tcheck) s
 table=(opt,rrhf)
 ----------------------------------------------------------------------
 -----
 title
 -----
 Symbolic Z-matrix:
 Charge =  0 Multiplicity = 1

 SCF Done:  E(RHF) =  -1587.91495475     A.U. after   16 cycles
 Normal termination of Gaussian 16 at Tue Apr  8 19:18:38 2025.
 Gaussian 16:  ES64L-G16RevC.01  3-Jul-2019

 ----------------------------------------------------------------------
 #t hf aug-cc-pvdz iop(5/13=1,5/36=2,99/5=2) pseudo=read geom=check gue
 ss=(read,tcheck) scf=(maxcycle=1)
 ----------------------------------------------------------------------
 -----
 title
 -----
 Structure from the checkpoint file:  "37Conf8_XylitolPentanit_3_mol2.chk"
 Charge =  0 Multiplicity = 1

                         Standard orientation:
 ---------------------------------------------------------------------
 Center     Atomic      Atomic             Coordinates (Angstroms)
 Number     Number       Type             X           Y           Z
 ---------------------------------------------------------------------
      1          1           0       -2.515061    1.948671    0.739510
      2          6           0       -2.546391    1.164591   -0.028680
      3          6           0       -1.333891    0.242931    0.112730
      4          8           0       -3.774091    0.481721    0.240490
      5          1           0       -2.564191    1.629941   -1.025620
      6          6           0       -0.035121    0.951080   -0.289520
      7          8           0       -1.218191   -0.196129    1.474620
      8          1           0       -1.465581   -0.633789   -0.537640
      9          7           0       -4.244051   -0.345938   -0.897760
     10          6           0        1.242089    0.141340    0.016300
     11          8           0        0.057620    2.190050    0.420100
     12          1           0       -0.088961    1.166000   -1.369300
     13          7           0       -1.756691   -1.572489    1.732040
     14          8           0       -3.577401   -0.310419   -1.908010
     15          8           0       -5.251021   -0.935618   -0.629070
     16          6           0        1.280759   -1.201810   -0.706250
     17          8           0        2.341229    0.936930   -0.430110
     18          1           0        1.318359   -0.010100    1.102990
     19          7           0        0.360030    3.388550   -0.450790
     20          8           0       -2.112192   -2.213729    0.772110
     21          8           0       -1.727351   -1.829159    2.898920
     22          8           0        2.439139   -1.871950   -0.192980
     23          1           0        1.368349   -1.053330   -1.793680
     24          1           0        0.377619   -1.796090   -0.498130
     25          7           0        2.687578   -3.164580   -0.862800
     26          8           0        1.892158   -3.490860   -1.713480
     27          8           0        3.670868   -3.704180   -0.437980
     28          7           0        3.389219    1.219990    0.626710
     29          8           0        0.323470    3.225180   -1.643110
     30          8           0        0.573340    4.351650    0.224630
     31          8           0        4.275969    1.875049    0.162590
     32          8           0        3.195479    0.776610    1.726610
 ---------------------------------------------------------------------

 SCF Done:  E(RHF) =  -1589.41643817     A.U. after    2 cycles

 The electronic state is 1-A.
 Alpha  occ. eigenvalues --  -20.69172 -20.69153 -20.68841 -20.68235 -20.68040
 Alpha  occ. eigenvalues --  -20.66915 -20.66894 -20.66862 -20.66637 -20.65880
 Alpha  occ. eigenvalues --  -20.65858 -20.65678 -20.65627 -20.65065 -20.65057
 Alpha  occ. eigenvalues --  -15.90493 -15.90431 -15.89399 -15.89367 -15.88880
 Alpha  occ. eigenvalues --  -11.38498 -11.38003 -11.37362 -11.36657 -11.36515
 Alpha  occ. eigenvalues --   -1.76867  -1.76729  -1.75815  -1.75733  -1.75225
 Alpha  occ. eigenvalues --   -1.60823  -1.60575  -1.59777  -1.59461  -1.58806
 Alpha  occ. eigenvalues --   -1.56132  -1.54924  -1.54235  -1.53671  -1.52512
 Alpha  occ. eigenvalues --   -1.16858  -1.11415  -1.05627  -1.02544  -1.00936
 Alpha  occ. eigenvalues --   -0.98368  -0.96798  -0.93958  -0.90986  -0.88906
 Alpha  occ. eigenvalues --   -0.88367  -0.86904  -0.86435  -0.85551  -0.85099
 Alpha  occ. eigenvalues --   -0.83959  -0.83809  -0.82671  -0.82580  -0.82493
 Alpha  occ. eigenvalues --   -0.82198  -0.81834  -0.81399  -0.81129  -0.80726
 Alpha  occ. eigenvalues --   -0.73727  -0.73276  -0.71528  -0.70092  -0.69361
 Alpha  occ. eigenvalues --   -0.67862  -0.66083  -0.63939  -0.63327  -0.61294
 Alpha  occ. eigenvalues --   -0.59530  -0.58985  -0.57544  -0.56760  -0.55956
 Alpha  occ. eigenvalues --   -0.55744  -0.55331  -0.54887  -0.54773  -0.54303
 Alpha  occ. eigenvalues --   -0.54197  -0.54040  -0.53974  -0.53404  -0.52889
 Alpha  occ. eigenvalues --   -0.52580  -0.52414  -0.51717  -0.51417  -0.50662
 Alpha  occ. eigenvalues --   -0.50402
 Alpha virt. eigenvalues --    0.02094   0.02435   0.02994   0.03163   0.03584
 Alpha virt. eigenvalues --    0.03678   0.03969   0.04723   0.05377   0.05653
 Alpha virt. eigenvalues --    0.06646   0.07481   0.08585   0.09493   0.09904

 Mulliken charges:
               1
     1  H    0.195231
     2  C    0.924733
     3  C    0.316997
     4  O   -1.465164
     5  H    0.304236
     6  C    0.686002
     7  O   -1.557023
     8  H    0.443217
     9  N    3.117533
    10  C    0.384391
    11  O   -1.602213
    12  H    0.378354
    13  N    2.970467
    14  O   -1.219858
    15  O   -1.262075
    16  C    0.452702
    17  O   -1.544755
    18  H    0.382255
    19  N    2.883072
    20  O   -1.281961
    21  O   -1.220602
    22  O   -1.313850
    23  H    0.252189
    24  H    0.131780
    25  N    3.060889
    26  O   -1.212756
    27  O   -1.230419
    28  N    2.820012
    29  O   -1.196142
    30  O   -1.220096
    31  O   -1.216650
    32  O   -1.160494
 Sum of Mulliken charges =  -0.00000

 Dipole moment (field-independent basis, Debye):
    X=             -1.9986    Y=              1.8068    Z=             -1.3945  Tot=              3.0337

 Test job not archived.
 1\1\GINC-SE195\SP\RHF\Aug-CC-pVDZ\C5H7N5O15\OHZDE\08-Apr-2025\0\\#t hf
  aug-cc-pvdz iop(5/13=1,5/36=2,99/5=2) pseudo=read geom=check guess=(r
 ead,tcheck) scf=(maxcycle=1)\\title\\0,1\H,0,-2.51506,1.94867,0.73951\
 C,0,-2.54639,1.16459,-0.02868\C,0,-1.33389,0.24293,0.11273\O,0,-3.7740
 9,0.48172,0.24049\H,0,-2.56419,1.62994,-1.02562\C,0,-0.03512,0.95108,-
 0.28952\O,0,-1.21819,-0.19613,1.47462\H,0,-1.46558,-0.63379,-0.53764\N
 ,0,-4.24405,-0.34594,-0.89776\C,0,1.24209,0.14134,0.0163\O,0,0.05762,2
 .19005,0.4201\H,0,-0.08896,1.166,-1.3693\N,0,-1.75669,-1.57249,1.73204

 Normal termination of Gaussian 16 at Tue Apr  8 19:19:49 2025.
