 Gaussian 16, Revision C.01,

 ----------------------------------------------------------------------
 #t hf aug-cc-pvdz symm=none int=(grid=ultrafine) guess=(read,tcheck) s
 table=(opt,rrhf)
 ----------------------------------------------------------------------
 -----
 title
 -----
 Symbolic Z-matrix:
 Charge =  0 Multiplicity = 1

 SCF Done:  E(RHF) =  -1542.35879090     A.U. after   17 cycles
 Normal termination of Gaussian 16 at Tue Apr  8 18:35:22 2025.
 Gaussian 16:  ES64L-G16RevC.01  3-Jul-2019

 ----------------------------------------------------------------------
 #t hf aug-cc-pvdz iop(5/13=1,5/36=2,99/5=2) pseudo=read geom=check gue
 ss=(read,tcheck) scf=(maxcycle=1)
 ----------------------------------------------------------------------
 -----
 title
 -----
 Structure from the checkpoint file:  "37Conf8_Indometacin_6_mol1.chk"
 Charge =  0 Multiplicity = 1

                         Standard orientation:
 ---------------------------------------------------------------------
 Center     Atomic      Atomic             Coordinates (Angstroms)
 Number     Number       Type             X           Y           Z
 ---------------------------------------------------------------------
      1          1           0       -2.391372    4.936240    0.304881
      2          8           0       -1.631542    4.848200   -0.301249
      3          6           0       -1.100401    3.593121   -0.187829
      4          6           0       -1.758621    2.713480    0.883251
      5          8           0       -0.160661    3.272451   -0.871919
      6          6           0       -1.413000    1.269820    0.770161
      7          1           0       -2.852191    2.845720    0.847621
      8          1           0       -1.434011    3.128660    1.856011
      9          6           0       -2.297240    0.219040    0.333151
     10          6           0       -0.184800    0.714401    1.042611
     11          6           0       -3.628740    0.208500   -0.088659
     12          6           0       -1.562259   -0.992730    0.386171
     13          7           0       -0.247240   -0.670459    0.782041
     14          6           0        0.992520    1.391651    1.657061
     15          1           0       -4.226590    1.118689   -0.156849
     16          6           0       -4.212219   -1.011851   -0.446159
     17          6           0       -2.135309   -2.208070    0.028971
     18          6           0        0.803611   -1.611879    0.797691
     19          1           0        1.673819    1.817612    0.907131
     20          1           0        0.641039    2.222641    2.285521
     21          1           0        1.574450    0.709932    2.290581
     22          8           0       -5.522899   -0.945841   -0.843029
     23          6           0       -3.469889   -2.208370   -0.387719
     24          1           0       -1.570989   -3.135780    0.092841
     25          6           0        2.147761   -1.139578    0.364481
     26          8           0        0.590101   -2.787189    1.069731
     27          6           0       -6.154639   -2.159461   -1.231669
     28          1           0       -3.930779   -3.156501   -0.658189
     29          6           0        3.281341   -1.774608    0.892791
     30          6           0        2.304800   -0.179988   -0.647109
     31          1           0       -5.646449   -2.623121   -2.094109
     32          1           0       -7.177149   -1.886812   -1.517069
     33          1           0       -6.189209   -2.883491   -0.399969
     34          1           0        3.146271   -2.545208    1.652781
     35          6           0        4.554961   -1.432067    0.452891
     36          1           0        1.429850    0.305412   -1.083039
     37          6           0        3.573860    0.153472   -1.113759
     38          1           0        5.441191   -1.907987    0.871691
     39          6           0        4.691020   -0.467497   -0.550809
     40          1           0        3.700370    0.889222   -1.907329
     41         17           0        6.279170   -0.041606   -1.113419
 ---------------------------------------------------------------------

 SCF Done:  E(RHF) =  -1543.51214047     A.U. after    2 cycles

 The electronic state is 1-A.
 Alpha  occ. eigenvalues -- -105.58453 -20.61230 -20.57075 -20.54507 -20.54422
 Alpha  occ. eigenvalues --  -15.56634 -11.40714 -11.39184 -11.33119 -11.30658
 Alpha  occ. eigenvalues --  -11.30349 -11.29683 -11.28754 -11.27835 -11.27682
 Alpha  occ. eigenvalues --  -11.27601 -11.27377 -11.27146 -11.27082 -11.25719
 Alpha  occ. eigenvalues --  -11.25298 -11.25056 -11.24750 -11.24095 -11.24042
 Alpha  occ. eigenvalues --  -10.63278  -7.80248  -7.79838  -7.79826  -1.54622
 Alpha  occ. eigenvalues --   -1.49153  -1.48328  -1.45921  -1.31150  -1.20101
 Alpha  occ. eigenvalues --   -1.15257  -1.12191  -1.11661  -1.05036  -1.04342
 Alpha  occ. eigenvalues --   -1.03696  -1.02940  -1.00944  -0.95372  -0.94508
 Alpha  occ. eigenvalues --   -0.89647  -0.87262  -0.85232  -0.84317  -0.83026
 Alpha  occ. eigenvalues --   -0.80725  -0.78397  -0.74726  -0.73395  -0.71806
 Alpha  occ. eigenvalues --   -0.70126  -0.68939  -0.68496  -0.67514  -0.67135
 Alpha  occ. eigenvalues --   -0.65841  -0.65636  -0.65196  -0.64182  -0.63043
 Alpha  occ. eigenvalues --   -0.62115  -0.61959  -0.61265  -0.60413  -0.59449
 Alpha  occ. eigenvalues --   -0.58269  -0.57955  -0.57645  -0.56347  -0.56072
 Alpha  occ. eigenvalues --   -0.55434  -0.54599  -0.54258  -0.53467  -0.52226
 Alpha  occ. eigenvalues --   -0.51237  -0.49172  -0.48445  -0.48066  -0.47629
 Alpha  occ. eigenvalues --   -0.45514  -0.45275  -0.44995  -0.40209  -0.37386
 Alpha  occ. eigenvalues --   -0.35925  -0.30885  -0.30484
 Alpha virt. eigenvalues --    0.02075   0.02992   0.03387   0.03591   0.04115
 Alpha virt. eigenvalues --    0.04305   0.04751   0.04896   0.05095   0.05478
 Alpha virt. eigenvalues --    0.06008   0.06729   0.06978   0.07567   0.07897

 Mulliken charges:
               1
     1  H    0.426979
     2  O   -1.395591
     3  C    2.315137
     4  C   -0.600897
     5  O   -1.270908
     6  C    0.925489
     7  H    0.043703
     8  H    0.322281
     9  C    0.744743
    10  C   -2.361299
    11  C    0.931527
    12  C   -1.394683
    13  N    2.293112
    14  C   -0.328527
    15  H   -0.338258
    16  C    1.503543
    17  C    0.677075
    18  C   -0.833688
    19  H    0.423739
    20  H    0.115484
    21  H    0.251273
    22  O   -2.030222
    23  C   -0.124053
    24  H   -0.359174
    25  C    2.128519
    26  O   -1.429989
    27  C    0.077611
    28  H   -0.448383
    29  C   -0.352639
    30  C    0.681104
    31  H    0.204902
    32  H   -0.045944
    33  H    0.199467
    34  H   -0.363716
    35  C    0.503884
    36  H   -0.383884
    37  C    0.182209
    38  H   -0.181464
    39  C   -0.214683
    40  H   -0.195134
    41  Cl  -0.298646
 Sum of Mulliken charges =   0.00000

 Dipole moment (field-independent basis, Debye):
    X=             -2.2738    Y=              0.8856    Z=              2.4999  Tot=              3.4935

 Test job not archived.
 1\1\GINC-SE424\SP\RHF\Aug-CC-pVDZ\C19H16Cl1N1O4\OHZDE\08-Apr-2025\0\\#
 t hf aug-cc-pvdz iop(5/13=1,5/36=2,99/5=2) pseudo=read geom=check gues
 s=(read,tcheck) scf=(maxcycle=1)\\title\\0,1\H,0,-2.39137,4.93624,0.30
 488\O,0,-1.63154,4.8482,-0.30125\C,0,-1.1004,3.59312,-0.18783\C,0,-1.7
 5862,2.71348,0.88325\O,0,-0.16066,3.27245,-0.87192\C,0,-1.413,1.26982,
 0.77016\H,0,-2.85219,2.84572,0.84762\H,0,-1.43401,3.12866,1.85601\C,0,
 -2.29724,0.21904,0.33315\C,0,-0.1848,0.7144,1.04261\C,0,-3.62874,0.208
 5,-0.08866\C,0,-1.56226,-0.99273,0.38617\N,0,-0.24724,-0.67046,0.78204

 Normal termination of Gaussian 16 at Tue Apr  8 18:37:21 2025.
