 Gaussian 16, Revision C.01,

 ----------------------------------------------------------------------
 #t hf aug-cc-pvdz symm=none int=(grid=ultrafine) guess=(read,tcheck) s
 table=(opt,rrhf)
 ----------------------------------------------------------------------
 -----
 title
 -----
 Symbolic Z-matrix:
 Charge =  0 Multiplicity = 1

 SCF Done:  E(RHF) =  -1153.32897288     A.U. after   17 cycles
 Normal termination of Gaussian 16 at Tue Apr  8 18:25:14 2025.
 Gaussian 16:  ES64L-G16RevC.01  3-Jul-2019

 ----------------------------------------------------------------------
 #t hf aug-cc-pvdz iop(5/13=1,5/36=2,99/5=2) pseudo=read geom=check gue
 ss=(read,tcheck) scf=(maxcycle=1)
 ----------------------------------------------------------------------
 -----
 title
 -----
 Structure from the checkpoint file:  "37Conf8_Pyridoxalphosphate_2_mol1.chk"
 Charge =  0 Multiplicity = 1

                         Standard orientation:
 ---------------------------------------------------------------------
 Center     Atomic      Atomic             Coordinates (Angstroms)
 Number     Number       Type             X           Y           Z
 ---------------------------------------------------------------------
      1          1           0       -3.057593    2.011527   -0.482170
      2          8           0       -3.461843    1.085247   -0.587610
      3          6           0       -2.534652    0.242177   -0.125610
      4          6           0       -1.290112    0.697059    0.373830
      5          6           0       -2.812591   -1.155303   -0.141250
      6          6           0       -1.020384    2.127739    0.380150
      7          6           0       -0.363051   -0.267571    0.847190
      8          7           0       -1.921030   -2.035722    0.305380
      9          6           0       -4.122840   -1.646484   -0.671410
     10          8           0       -1.837654    2.970358   -0.025090
     11          1           0       -0.036254    2.467380    0.760120
     12          6           0       -0.735050   -1.602411    0.782950
     13          6           0        0.979908    0.113181    1.402530
     14          1           0       -4.269120   -1.328384   -1.714970
     15          1           0       -4.153799   -2.739614   -0.610780
     16          1           0       -4.961491   -1.220285   -0.099810
     17          1           0       -0.044940   -2.377820    1.127780
     18          8           0        1.800488    0.780071    0.398520
     19          1           0        1.494819   -0.778419    1.787620
     20          1           0        0.892048    0.835340    2.226870
     21         15           0        2.913028   -0.040088   -0.425590
     22          8           0        2.194400   -1.406048   -0.885740
     23          8           0        3.883859   -0.683147    0.686090
     24          8           0        3.546218    0.807443   -1.448970
     25          1           0        1.517439   -1.239049   -1.566290
     26          1           0        4.759569   -0.261016    0.629900
 ---------------------------------------------------------------------

 SCF Done:  E(RHF) =  -1154.17553332     A.U. after    2 cycles

 The electronic state is 1-A.
 Alpha  occ. eigenvalues --  -84.47692 -20.61277 -20.61202 -20.60489 -20.58887
 Alpha  occ. eigenvalues --  -20.58200 -20.51991 -15.53778 -11.38326 -11.35046
 Alpha  occ. eigenvalues --  -11.34656 -11.30711 -11.29378 -11.29022 -11.28491
 Alpha  occ. eigenvalues --  -11.24581  -6.92380  -4.46515  -4.45895  -4.45712
 Alpha  occ. eigenvalues --   -1.57099  -1.52405  -1.49334  -1.48953  -1.48821
 Alpha  occ. eigenvalues --   -1.39902  -1.28220  -1.14297  -1.08159  -1.02693
 Alpha  occ. eigenvalues --   -0.95822  -0.94456  -0.87791  -0.86726  -0.84669
 Alpha  occ. eigenvalues --   -0.77865  -0.74103  -0.73399  -0.71756  -0.71418
 Alpha  occ. eigenvalues --   -0.69394  -0.67825  -0.67256  -0.65881  -0.64548
 Alpha  occ. eigenvalues --   -0.64074  -0.63788  -0.60907  -0.59394  -0.58384
 Alpha  occ. eigenvalues --   -0.57338  -0.56273  -0.55688  -0.55246  -0.55120
 Alpha  occ. eigenvalues --   -0.53966  -0.52842  -0.51505  -0.49206  -0.47520
 Alpha  occ. eigenvalues --   -0.47012  -0.44477  -0.41806  -0.34260
 Alpha virt. eigenvalues --    0.01262   0.02783   0.03309   0.03894   0.04279
 Alpha virt. eigenvalues --    0.04591   0.05231   0.05266   0.06045   0.07392
 Alpha virt. eigenvalues --    0.07945   0.08435   0.09143   0.09430   0.10209

 Mulliken charges:
               1
     1  H    0.522417
     2  O   -1.895363
     3  C    1.421734
     4  C    0.786660
     5  C   -2.227422
     6  C    0.669753
     7  C    2.269331
     8  N    1.579228
     9  C   -0.248660
    10  O   -1.504120
    11  H   -0.101575
    12  C   -1.711293
    13  C    0.391673
    14  H    0.295558
    15  H    0.121998
    16  H    0.291819
    17  H   -0.295666
    18  O   -1.570378
    19  H    0.036956
    20  H    0.134961
    21  P    4.313414
    22  O   -1.419244
    23  O   -1.338063
    24  O   -1.369351
    25  H    0.429828
    26  H    0.415807
 Sum of Mulliken charges =  -0.00000

 Dipole moment (field-independent basis, Debye):
    X=              0.0534    Y=             -1.0056    Z=              2.9449  Tot=              3.1123

 Test job not archived.
 1\1\GINC-SE039\SP\RHF\Aug-CC-pVDZ\C8H10N1O6P1\OHZDE\08-Apr-2025\0\\#t
 hf aug-cc-pvdz iop(5/13=1,5/36=2,99/5=2) pseudo=read geom=check guess=
 (read,tcheck) scf=(maxcycle=1)\\title\\0,1\H,0,-3.05759,2.01153,-0.482
 17\O,0,-3.46184,1.08525,-0.58761\C,0,-2.53465,0.24218,-0.12561\C,0,-1.
 29011,0.69706,0.37383\C,0,-2.81259,-1.1553,-0.14125\C,0,-1.02038,2.127
 74,0.38015\C,0,-0.36305,-0.26757,0.84719\N,0,-1.92103,-2.03572,0.30538
 \C,0,-4.12284,-1.64648,-0.67141\O,0,-1.83765,2.97036,-0.02509\H,0,-0.0
 3625,2.46738,0.76012\C,0,-0.73505,-1.60241,0.78295\C,0,0.97991,0.11318

 Normal termination of Gaussian 16 at Tue Apr  8 18:25:46 2025.
