 Gaussian 16, Revision C.01,

 ----------------------------------------------------------------------
 #t hf aug-cc-pvdz symm=none int=(grid=ultrafine) guess=(read,tcheck) s
 table=(opt,rrhf)
 ----------------------------------------------------------------------
 -----
 title
 -----
 Symbolic Z-matrix:
 Charge =  0 Multiplicity = 1

 SCF Done:  E(RHF) =  -1667.18152590     A.U. after   12 cycles
 Normal termination of Gaussian 16 at Tue Apr  8 17:58:58 2025.
 Gaussian 16:  ES64L-G16RevC.01  3-Jul-2019

 ----------------------------------------------------------------------
 #t hf aug-cc-pvdz iop(5/13=1,5/36=2,99/5=2) pseudo=read geom=check gue
 ss=(read,tcheck) scf=(maxcycle=1)
 ----------------------------------------------------------------------
 -----
 title
 -----
 Structure from the checkpoint file:  "37Conf8_N_iprit_3_mol1.chk"
 Charge =  0 Multiplicity = 1

                         Standard orientation:
 ---------------------------------------------------------------------
 Center     Atomic      Atomic             Coordinates (Angstroms)
 Number     Number       Type             X           Y           Z
 ---------------------------------------------------------------------
      1          1           0       -1.066301    0.457135   -1.178040
      2          6           0       -1.225308   -0.194896   -0.305820
      3          6           0       -2.398800    0.336528    0.514270
      4          7           0       -0.018758   -0.240420    0.503860
      5          1           0       -1.493343   -1.186657   -0.712350
      6         17           0       -3.919970    0.313691   -0.452630
      7          1           0       -2.226565    1.372879    0.828270
      8          1           0       -2.576457   -0.280163    1.404110
      9          6           0        1.101449    0.571075    0.049960
     10          6           0        0.265418   -1.499889    1.162910
     11          6           0        0.850262    2.039004    0.385500
     12          1           0        1.296179    0.468106   -1.034160
     13          1           0        2.012700    0.236719    0.563070
     14          6           0        0.587144   -2.707048    0.280210
     15          1           0       -0.615930   -1.790063    1.765430
     16          1           0        1.089428   -1.344795    1.875330
     17         17           0        2.210747    3.064610   -0.196610
     18          1           0       -0.057350    2.418849   -0.101580
     19          1           0        0.764631    2.184883    1.469050
     20         17           0        2.146443   -2.533320   -0.606160
     21          1           0       -0.183065   -2.875641   -0.482980
     22          1           0        0.673648   -3.611627    0.896490
 ---------------------------------------------------------------------

 SCF Done:  E(RHF) =  -1667.71949268     A.U. after    2 cycles

 The electronic state is 1-A.
 Alpha  occ. eigenvalues -- -105.56381-105.56230-105.55762 -15.51197 -11.31668
 Alpha  occ. eigenvalues --  -11.31376 -11.30863 -11.29679 -11.29065 -11.28341
 Alpha  occ. eigenvalues --  -10.61205 -10.61039 -10.60568  -7.78147  -7.77982
 Alpha  occ. eigenvalues --   -7.77787  -7.77771  -7.77616  -7.77607  -7.77513
 Alpha  occ. eigenvalues --   -7.77144  -7.77134  -1.26043  -1.12320  -1.12102
 Alpha  occ. eigenvalues --   -1.10128  -1.00933  -1.00218  -0.93240  -0.87463
 Alpha  occ. eigenvalues --   -0.85356  -0.80779  -0.72051  -0.70039  -0.68052
 Alpha  occ. eigenvalues --   -0.64995  -0.63702  -0.62486  -0.60612  -0.58121
 Alpha  occ. eigenvalues --   -0.57784  -0.56081  -0.54810  -0.53703  -0.52852
 Alpha  occ. eigenvalues --   -0.52052  -0.46395  -0.45588  -0.45307  -0.45038
 Alpha  occ. eigenvalues --   -0.44674  -0.44507  -0.39919
 Alpha virt. eigenvalues --    0.02769   0.03404   0.04227   0.04466   0.05026
 Alpha virt. eigenvalues --    0.05243   0.06251   0.06596   0.06877   0.08548
 Alpha virt. eigenvalues --    0.09245   0.09936   0.10446   0.10620   0.11182

 Mulliken charges:
               1
     1  H    0.140596
     2  C   -0.688700
     3  C   -0.301235
     4  N    1.248492
     5  H    0.058563
     6  Cl  -0.089334
     7  H    0.237250
     8  H    0.238615
     9  C   -0.550179
    10  C   -0.594580
    11  C   -0.473426
    12  H    0.115431
    13  H    0.068613
    14  C   -0.422844
    15  H    0.139217
    16  H    0.095964
    17  Cl  -0.089914
    18  H    0.230510
    19  H    0.235133
    20  Cl  -0.065880
    21  H    0.255725
    22  H    0.211985
 Sum of Mulliken charges =  -0.00000

 Dipole moment (field-independent basis, Debye):
    X=             -1.1067    Y=             -2.0179    Z=              2.4054  Tot=              3.3290

 Test job not archived.
 1\1\GINC-SE082\SP\RHF\Aug-CC-pVDZ\C6H12Cl3N1\OHZDE\08-Apr-2025\0\\#t h
 f aug-cc-pvdz iop(5/13=1,5/36=2,99/5=2) pseudo=read geom=check guess=(
 read,tcheck) scf=(maxcycle=1)\\title\\0,1\H,0,-1.0663,0.45714,-1.17804
 \C,0,-1.22531,-0.19489,-0.30582\C,0,-2.3988,0.33654,0.51427\N,0,-0.018
 76,-0.24042,0.50386\H,0,-1.49335,-1.18665,-0.71235\Cl,0,-3.91997,0.313
 71,-0.45263\H,0,-2.22656,1.37289,0.82827\H,0,-2.57646,-0.28015,1.40411
 \C,0,1.10145,0.57107,0.04996\C,0,0.26541,-1.49989,1.16291\C,0,0.85027,
 2.039,0.3855\H,0,1.29618,0.4681,-1.03416\H,0,2.0127,0.23671,0.56307\C,

 Normal termination of Gaussian 16 at Tue Apr  8 17:59:14 2025.
