 Gaussian 16, Revision C.01,

 ----------------------------------------------------------------------
 #t hf aug-cc-pvdz symm=none int=(grid=ultrafine) guess=(read,tcheck) s
 table=(opt,rrhf)
 ----------------------------------------------------------------------
 -----
 title
 -----
 Symbolic Z-matrix:
 Charge =  0 Multiplicity = 1

 SCF Done:  E(RHF) =  -787.712420752     A.U. after   16 cycles
 Normal termination of Gaussian 16 at Tue Apr  8 17:38:35 2025.
 Gaussian 16:  ES64L-G16RevC.01  3-Jul-2019

 ----------------------------------------------------------------------
 #t hf aug-cc-pvdz iop(5/13=1,5/36=2,99/5=2) pseudo=read geom=check gue
 ss=(read,tcheck) scf=(maxcycle=1)
 ----------------------------------------------------------------------
 -----
 title
 -----
 Structure from the checkpoint file:  "37Conf8_Eperisone_6_mol1.chk"
 Charge =  0 Multiplicity = 1

                         Standard orientation:
 ---------------------------------------------------------------------
 Center     Atomic      Atomic             Coordinates (Angstroms)
 Number     Number       Type             X           Y           Z
 ---------------------------------------------------------------------
      1          8           0       -0.589350    3.000960    0.112748
      2          6           0       -0.490099    1.810950   -0.169552
      3          6           0        0.841261    1.235410   -0.651212
      4          6           0       -1.663209    0.893769   -0.004122
      5          6           0        1.552321    0.605540    0.572158
      6          6           0        1.711561    2.297890   -1.314812
      7          1           0        0.627401    0.433940   -1.375802
      8          6           0       -1.632889   -0.472541   -0.327082
      9          6           0       -2.855249    1.431009    0.510908
     10          7           0        2.805391   -0.041270    0.226438
     11          1           0        1.769991    1.417190    1.284738
     12          1           0        0.857411   -0.100530    1.082898
     13          6           0        3.667011   -0.290160    1.378398
     14          6           0        2.606661   -1.258450   -0.565612
     15          1           0        3.295431   -1.146060    1.988488
     16          1           0        3.631191    0.592210    2.033218
     17          6           0        5.110021   -0.548980    0.907178
     18          1           0        1.766111   -1.865260   -0.152332
     19          1           0        2.315501   -0.963050   -1.587022
     20          6           0        3.884161   -2.114880   -0.618122
     21          1           0        5.662831    0.400660    0.857758
     22          1           0        5.621201   -1.180540    1.651058
     23          6           0        5.122351   -1.231620   -0.473352
     24          1           0        3.903941   -2.686710   -1.557242
     25          1           0        3.874021   -2.855690    0.197818
     26          1           0        6.041881   -1.820790   -0.604782
     27          1           0        5.115361   -0.468550   -1.266842
     28          1           0        1.856100    3.149990   -0.637482
     29          1           0        2.692971    1.872230   -1.561022
     30          1           0        1.241960    2.677550   -2.232702
     31          1           0       -0.723929   -0.927011   -0.722202
     32          6           0       -2.759279   -1.271271   -0.140902
     33          1           0       -2.868479    2.491829    0.765338
     34          6           0       -3.975819    0.630539    0.692628
     35          1           0       -2.715549   -2.333701   -0.393252
     36          6           0       -3.949679   -0.736041    0.369528
     37          1           0       -4.893059    1.065369    1.098068
     38          6           0       -5.181749   -1.589591    0.519788
     39          6           0       -6.066439   -1.553701   -0.735742
     40          1           0       -5.764649   -1.242131    1.387328
     41          1           0       -4.885489   -2.629311    0.729598
     42          1           0       -6.960629   -2.179991   -0.605562
     43          1           0       -6.395019   -0.527431   -0.954062
     44          1           0       -5.515049   -1.920231   -1.613572
 ---------------------------------------------------------------------

 SCF Done:  E(RHF) =  -788.539574333     A.U. after    2 cycles

 The electronic state is 1-A.
 Alpha  occ. eigenvalues --  -20.52545 -15.48525 -11.33432 -11.26240 -11.26130
 Alpha  occ. eigenvalues --  -11.26017 -11.25935 -11.25566 -11.25165 -11.24784
 Alpha  occ. eigenvalues --  -11.24750 -11.24724 -11.24504 -11.24262 -11.23717
 Alpha  occ. eigenvalues --  -11.23230 -11.22755 -11.22740 -11.21509  -1.45305
 Alpha  occ. eigenvalues --   -1.23622  -1.16790  -1.09225  -1.07691  -1.05387
 Alpha  occ. eigenvalues --   -1.02225  -1.01494  -1.00072  -0.93273  -0.90611
 Alpha  occ. eigenvalues --   -0.87088  -0.86439  -0.84418  -0.83662  -0.80445
 Alpha  occ. eigenvalues --   -0.75128  -0.73828  -0.70916  -0.68965  -0.67999
 Alpha  occ. eigenvalues --   -0.67377  -0.65390  -0.63802  -0.63199  -0.61559
 Alpha  occ. eigenvalues --   -0.60997  -0.60165  -0.59499  -0.58991  -0.58048
 Alpha  occ. eigenvalues --   -0.57141  -0.56488  -0.54965  -0.54574  -0.53183
 Alpha  occ. eigenvalues --   -0.52442  -0.52056  -0.51357  -0.51009  -0.50213
 Alpha  occ. eigenvalues --   -0.49936  -0.49334  -0.48587  -0.48076  -0.46798
 Alpha  occ. eigenvalues --   -0.45877  -0.45292  -0.40453  -0.38096  -0.35300
 Alpha  occ. eigenvalues --   -0.34118
 Alpha virt. eigenvalues --    0.02627   0.02864   0.03249   0.03623   0.03947
 Alpha virt. eigenvalues --    0.04081   0.04225   0.04926   0.05217   0.05358
 Alpha virt. eigenvalues --    0.05592   0.05854   0.06783   0.06945   0.07175

 Mulliken charges:
               1
     1  O   -1.813190
     2  C    1.311270
     3  C   -1.317298
     4  C    2.140947
     5  C   -1.064984
     6  C   -0.247335
     7  H    0.295189
     8  C    1.229809
     9  C   -0.725790
    10  N    1.149477
    11  H    0.016950
    12  H    0.054008
    13  C   -0.229018
    14  C   -0.414804
    15  H    0.162558
    16  H    0.025596
    17  C   -0.328759
    18  H    0.149769
    19  H   -0.034485
    20  C   -0.557037
    21  H    0.168619
    22  H    0.174880
    23  C   -0.184069
    24  H    0.121765
    25  H    0.199327
    26  H    0.090272
    27  H    0.207533
    28  H    0.300987
    29  H    0.273179
    30  H    0.154319
    31  H   -0.404258
    32  C   -0.631626
    33  H   -0.348703
    34  C    0.002678
    35  H   -0.367494
    36  C    1.328748
    37  H   -0.342225
    38  C   -0.747599
    39  C   -0.493948
    40  H    0.110045
    41  H    0.089351
    42  H    0.132042
    43  H    0.182318
    44  H    0.180986
 Sum of Mulliken charges =  -0.00000

 Dipole moment (field-independent basis, Debye):
    X=             -0.6452    Y=             -3.9901    Z=              0.0274  Tot=              4.0421

 Test job not archived.
 1\1\GINC-SE437\SP\RHF\Aug-CC-pVDZ\C17H25N1O1\OHZDE\08-Apr-2025\0\\#t h
 f aug-cc-pvdz iop(5/13=1,5/36=2,99/5=2) pseudo=read geom=check guess=(
 read,tcheck) scf=(maxcycle=1)\\title\\0,1\O,0,0.58935,3.00096,-0.11275
 \C,0,0.4901,1.81095,0.16955\C,0,-0.84126,1.23541,0.65121\C,0,1.66321,0
 .89377,0.00412\C,0,-1.55232,0.60554,-0.57216\C,0,-1.71156,2.29789,1.31
 481\H,0,-0.6274,0.43394,1.3758\C,0,1.63289,-0.47254,0.32708\C,0,2.8552
 5,1.43101,-0.51091\N,0,-2.80539,-0.04127,-0.22644\H,0,-1.76999,1.41719
 ,-1.28474\H,0,-0.85741,-0.10053,-1.0829\C,0,-3.66701,-0.29016,-1.3784\

 Normal termination of Gaussian 16 at Tue Apr  8 17:40:04 2025.
