 Gaussian 16, Revision C.01,

 ----------------------------------------------------------------------
 #t hf aug-cc-pvdz symm=none int=(grid=ultrafine) guess=(read,tcheck) s
 table=(opt,rrhf)
 ----------------------------------------------------------------------
 -----
 title
 -----
 Symbolic Z-matrix:
 Charge =  0 Multiplicity = 1

 SCF Done:  E(RHF) =  -535.047539811     A.U. after   12 cycles
 Normal termination of Gaussian 16 at Tue Apr  8 18:32:54 2025.
 Gaussian 16:  ES64L-G16RevC.01  3-Jul-2019

 ----------------------------------------------------------------------
 #t hf aug-cc-pvdz iop(5/13=1,5/36=2,99/5=2) pseudo=read geom=check gue
 ss=(read,tcheck) scf=(maxcycle=1)
 ----------------------------------------------------------------------
 -----
 title
 -----
 Structure from the checkpoint file:  "37Conf8_RAMBO_6_mol1.chk"
 Charge =  0 Multiplicity = 1

                         Standard orientation:
 ---------------------------------------------------------------------
 Center     Atomic      Atomic             Coordinates (Angstroms)
 Number     Number       Type             X           Y           Z
 ---------------------------------------------------------------------
      1          1           0        1.075001   -1.788708    1.071911
      2          7           0        0.191051   -1.302019    0.919181
      3          7           0        0.278261   -0.637619   -0.339139
      4          1           0        0.058121   -0.648259    1.704461
      5          6           0       -1.061979   -0.406629   -0.957679
      6          6           0        0.843430    0.740361   -0.266579
      7          1           0       -0.902279   -0.467609   -2.045009
      8          6           0       -2.176239   -1.349250   -0.499589
      9          6           0       -1.523010    1.042450   -0.543929
     10          1           0        1.048870    1.035352   -1.311629
     11          6           0        2.151450    0.897162    0.498431
     12          6           0       -0.327880    1.593301    0.252851
     13          1           0       -2.888449   -1.479410   -1.330429
     14          1           0       -1.788209   -2.335850   -0.219179
     15          6           0       -2.863739   -0.615260    0.661421
     16          1           0       -1.674660    1.667970   -1.436149
     17          6           0       -2.848680    0.859280    0.225001
     18          8           0        3.306120    0.441183   -0.192429
     19          1           0        2.316129    1.972952    0.662901
     20          1           0        2.081750    0.418762    1.496871
     21          6           0        3.449141   -0.972797   -0.203409
     22          1           0        2.615001   -1.465848   -0.732129
     23          1           0        4.391641   -1.191217   -0.721979
     24          1           0        3.515881   -1.373557    0.828171
     25          1           0       -0.172621    2.671831    0.109741
     26          1           0       -0.467290    1.430351    1.337591
     27          1           0       -2.276359   -0.755140    1.581891
     28          1           0       -3.878299   -0.986971    0.864971
     29          1           0       -3.697820    1.051279   -0.449789
     30          1           0       -2.945500    1.560370    1.067841
 ---------------------------------------------------------------------

 SCF Done:  E(RHF) =  -535.614059892     A.U. after    2 cycles

 The electronic state is 1-A.
 Alpha  occ. eigenvalues --  -20.54179 -15.51450 -15.51045 -11.28592 -11.27692
 Alpha  occ. eigenvalues --  -11.25886 -11.25029 -11.23326 -11.22924 -11.22519
 Alpha  occ. eigenvalues --  -11.22087 -11.21780  -1.45295  -1.27989  -1.13429
 Alpha  occ. eigenvalues --   -1.08243  -1.02246  -0.98828  -0.93803  -0.92341
 Alpha  occ. eigenvalues --   -0.86990  -0.80148  -0.77918  -0.75446  -0.72448
 Alpha  occ. eigenvalues --   -0.68782  -0.67329  -0.66023  -0.64974  -0.63466
 Alpha  occ. eigenvalues --   -0.62524  -0.59784  -0.59278  -0.56140  -0.55414
 Alpha  occ. eigenvalues --   -0.53585  -0.51464  -0.49393  -0.48131  -0.47947
 Alpha  occ. eigenvalues --   -0.47203  -0.46682  -0.45965  -0.45449  -0.44425
 Alpha  occ. eigenvalues --   -0.41388  -0.39731
 Alpha virt. eigenvalues --    0.03294   0.03493   0.03755   0.03808   0.04526
 Alpha virt. eigenvalues --    0.04665   0.04803   0.05094   0.05394   0.07782
 Alpha virt. eigenvalues --    0.07934   0.08589   0.08784   0.09029   0.09641

 Mulliken charges:
               1
     1  H    0.133236
     2  N    0.351246
     3  N    0.456707
     4  H    0.203648
     5  C   -1.220580
     6  C   -0.576797
     7  H   -0.019966
     8  C    0.040125
     9  C    0.071266
    10  H    0.003965
    11  C    0.542629
    12  C   -0.347218
    13  H    0.094868
    14  H    0.253815
    15  C   -0.268134
    16  H    0.107039
    17  C   -0.081836
    18  O   -1.339690
    19  H    0.087696
    20  H    0.259171
    21  C    0.167071
    22  H    0.324956
    23  H   -0.061538
    24  H    0.170026
    25  H    0.076361
    26  H    0.132333
    27  H    0.147941
    28  H    0.074334
    29  H    0.119285
    30  H    0.098044
 Sum of Mulliken charges =   0.00000

 Dipole moment (field-independent basis, Debye):
    X=             -0.8262    Y=              0.7686    Z=              1.0109  Tot=              1.5150

 Test job not archived.
 1\1\GINC-SE040\SP\RHF\Aug-CC-pVDZ\C9H18N2O1\OHZDE\08-Apr-2025\0\\#t hf
  aug-cc-pvdz iop(5/13=1,5/36=2,99/5=2) pseudo=read geom=check guess=(r
 ead,tcheck) scf=(maxcycle=1)\\title\\0,1\H,0,1.075,-1.78871,1.07191\N,
 0,0.19105,-1.30202,0.91918\N,0,0.27826,-0.63762,-0.33914\H,0,0.05812,-
 0.64826,1.70446\C,0,-1.06198,-0.40663,-0.95768\C,0,0.84343,0.74036,-0.
 26658\H,0,-0.90228,-0.46761,-2.04501\C,0,-2.17624,-1.34925,-0.49959\C,
 0,-1.52301,1.04245,-0.54393\H,0,1.04887,1.03535,-1.31163\C,0,2.15145,0
 .89716,0.49843\C,0,-0.32788,1.5933,0.25285\H,0,-2.88845,-1.47941,-1.33

 Normal termination of Gaussian 16 at Tue Apr  8 18:33:25 2025.
