 Gaussian 16, Revision C.01,

 ----------------------------------------------------------------------
 #t hf aug-cc-pvdz symm=none int=(grid=ultrafine) guess=(read,tcheck) s
 table=(opt,rrhf)
 ----------------------------------------------------------------------
 -----
 title
 -----
 Symbolic Z-matrix:
 Charge =  0 Multiplicity = 1

 SCF Done:  E(RHF) =  -1689.88620101     A.U. after   18 cycles
 Normal termination of Gaussian 16 at Tue Apr  8 17:42:41 2025.
 Gaussian 16:  ES64L-G16RevC.01  3-Jul-2019

 ----------------------------------------------------------------------
 #t hf aug-cc-pvdz iop(5/13=1,5/36=2,99/5=2) pseudo=read geom=check gue
 ss=(read,tcheck) scf=(maxcycle=1)
 ----------------------------------------------------------------------
 -----
 title
 -----
 Structure from the checkpoint file:  "37Conf8_Fotemustin_7_mol1.chk"
 Charge =  0 Multiplicity = 1

                         Standard orientation:
 ---------------------------------------------------------------------
 Center     Atomic      Atomic             Coordinates (Angstroms)
 Number     Number       Type             X           Y           Z
 ---------------------------------------------------------------------
      1          8           0       -1.365030    3.032641   -0.654899
      2          7           0       -1.966771    2.036741   -1.017299
      3          7           0       -1.817021    0.906491   -0.244199
      4          6           0       -2.672611   -0.204989   -0.661859
      5          6           0       -1.241371    0.851711    1.089771
      6          6           0       -4.089851   -0.097119   -0.107509
      7          1           0       -2.694861   -0.191369   -1.759189
      8          1           0       -2.199761   -1.138369   -0.332449
      9         17           0       -5.069491   -1.473199   -0.720949
     10          1           0       -4.571291    0.826761   -0.450219
     11          1           0       -4.092041   -0.142969    0.985491
     12          7           0        0.018679    1.336371    1.207501
     13          8           0       -1.901521    0.398541    2.015971
     14          6           0        1.014479    1.464921    0.148641
     15          1           0        0.388079    1.245441    2.154271
     16         15           0        1.997629   -0.089489    0.136611
     17          6           0        1.898010    2.689441    0.365631
     18          1           0        0.498739    1.538581   -0.815399
     19          8           0        2.967119    0.028650   -1.145389
     20          8           0        0.861359   -1.119459   -0.338899
     21          8           0        2.689809   -0.384060    1.419781
     22          6           0        4.413149    0.081780   -0.965909
     23          6           0        1.020419   -2.543929   -0.062289
     24          6           0        5.016329   -1.305390   -1.034229
     25          1           0        4.774279    0.722140   -1.782619
     26          1           0        4.642019    0.562150   -0.003629
     27          6           0        0.404739   -2.904959    1.273331
     28          1           0        0.517779   -3.049239   -0.898229
     29          1           0        2.089589   -2.805309   -0.094659
     30          1           0        4.741789   -1.806190   -1.972959
     31          1           0        6.113369   -1.238400   -0.985619
     32          1           0        4.673369   -1.914270   -0.186359
     33          1           0       -0.654341   -2.613769    1.310561
     34          1           0        0.468919   -3.991959    1.429841
     35          1           0        0.937019   -2.400709    2.090151
     36          1           0        2.634540    2.779171   -0.443769
     37          1           0        1.271180    3.590231    0.374561
     38          1           0        2.440649    2.618291    1.319131
 ---------------------------------------------------------------------

 SCF Done:  E(RHF) =  -1690.90256831     A.U. after    2 cycles

 The electronic state is 1-A.
 Alpha  occ. eigenvalues -- -105.56065 -84.42728 -20.61192 -20.58536 -20.58468
 Alpha  occ. eigenvalues --  -20.54216 -20.51069 -15.70609 -15.59403 -15.55636
 Alpha  occ. eigenvalues --  -11.42490 -11.31791 -11.31669 -11.30918 -11.30870
 Alpha  occ. eigenvalues --  -11.30617 -11.25458 -11.24582 -11.23912 -10.60875
 Alpha  occ. eigenvalues --   -7.77821  -7.77451  -7.77438  -6.87986  -4.42115
 Alpha  occ. eigenvalues --   -4.41644  -4.40885  -1.60760  -1.52735  -1.49290
 Alpha  occ. eigenvalues --   -1.47323  -1.38804  -1.32017  -1.27054  -1.12435
 Alpha  occ. eigenvalues --   -1.07543  -1.04641  -1.03852  -1.03621  -0.99021
 Alpha  occ. eigenvalues --   -0.91914  -0.88548  -0.87866  -0.86615  -0.82633
 Alpha  occ. eigenvalues --   -0.79993  -0.79041  -0.74434  -0.72060  -0.71125
 Alpha  occ. eigenvalues --   -0.70670  -0.68271  -0.67701  -0.66953  -0.66356
 Alpha  occ. eigenvalues --   -0.66065  -0.63979  -0.62975  -0.62123  -0.61847
 Alpha  occ. eigenvalues --   -0.60202  -0.59654  -0.57814  -0.57604  -0.56170
 Alpha  occ. eigenvalues --   -0.55996  -0.55798  -0.55240  -0.54734  -0.54157
 Alpha  occ. eigenvalues --   -0.52614  -0.51194  -0.50270  -0.50038  -0.49463
 Alpha  occ. eigenvalues --   -0.48358  -0.46784  -0.46063  -0.45467  -0.45146
 Alpha  occ. eigenvalues --   -0.44432  -0.43706  -0.41729
 Alpha virt. eigenvalues --    0.02951   0.02999   0.03623   0.03879   0.04413
 Alpha virt. eigenvalues --    0.04772   0.05006   0.05484   0.05707   0.05940
 Alpha virt. eigenvalues --    0.06133   0.06866   0.07397   0.07935   0.08168

 Mulliken charges:
               1
     1  O   -1.122776
     2  N    1.364891
     3  N    0.762768
     4  C   -0.309142
     5  C   -0.846229
     6  C   -0.457550
     7  H    0.162368
     8  H    0.092470
     9  Cl  -0.069829
    10  H    0.286444
    11  H    0.254074
    12  N    1.168921
    13  O   -1.340658
    14  C   -1.177834
    15  H    0.174209
    16  P    4.880161
    17  C   -0.208803
    18  H    0.122023
    19  O   -1.784579
    20  O   -2.013671
    21  O   -1.690845
    22  C    0.313545
    23  C    0.187323
    24  C   -0.416896
    25  H    0.015301
    26  H    0.242759
    27  C   -0.307046
    28  H   -0.010974
    29  H    0.214502
    30  H    0.205199
    31  H    0.149108
    32  H    0.174351
    33  H    0.175482
    34  H    0.133630
    35  H    0.154708
    36  H    0.196286
    37  H    0.145624
    38  H    0.180685
 Sum of Mulliken charges =   0.00000

 Dipole moment (field-independent basis, Debye):
    X=              4.2954    Y=             -0.3049    Z=             -2.0720  Tot=              4.7788

 Test job not archived.
 1\1\GINC-SE220\SP\RHF\Aug-CC-pVDZ\C9H19Cl1N3O5P1\OHZDE\08-Apr-2025\0\\
 #t hf aug-cc-pvdz iop(5/13=1,5/36=2,99/5=2) pseudo=read geom=check gue
 ss=(read,tcheck) scf=(maxcycle=1)\\title\\0,1\O,0,1.36503,-3.03264,-0.
 6549\N,0,1.96677,-2.03674,-1.0173\N,0,1.81702,-0.90649,-0.2442\C,0,2.6
 7261,0.20499,-0.66186\C,0,1.24137,-0.85171,1.08977\C,0,4.08985,0.09712
 ,-0.10751\H,0,2.69486,0.19137,-1.75919\H,0,2.19976,1.13837,-0.33245\Cl
 ,0,5.06949,1.4732,-0.72095\H,0,4.57129,-0.82676,-0.45022\H,0,4.09204,0
 .14297,0.98549\N,0,-0.01868,-1.33637,1.2075\O,0,1.90152,-0.39854,2.015

 Normal termination of Gaussian 16 at Tue Apr  8 17:43:58 2025.
