 Gaussian 16, Revision C.01,

 ----------------------------------------------------------------------
 #t hf aug-cc-pvdz symm=none int=(grid=ultrafine) guess=(read,tcheck) s
 table=(opt,rrhf)
 ----------------------------------------------------------------------
 -----
 title
 -----
 Symbolic Z-matrix:
 Charge =  0 Multiplicity = 1

 SCF Done:  E(RHF) =  -1112.30158653     A.U. after   15 cycles
 Normal termination of Gaussian 16 at Tue Apr  8 17:27:24 2025.
 Gaussian 16:  ES64L-G16RevC.01  3-Jul-2019

 ----------------------------------------------------------------------
 #t hf aug-cc-pvdz iop(5/13=1,5/36=2,99/5=2) pseudo=read geom=check gue
 ss=(read,tcheck) scf=(maxcycle=1)
 ----------------------------------------------------------------------
 -----
 title
 -----
 Structure from the checkpoint file:  "37Conf8_Cimetidine_4_mol1.chk"
 Charge =  0 Multiplicity = 1

                         Standard orientation:
 ---------------------------------------------------------------------
 Center     Atomic      Atomic             Coordinates (Angstroms)
 Number     Number       Type             X           Y           Z
 ---------------------------------------------------------------------
      1          7           0        4.479409   -1.691954    0.018761
      2          6           0        3.981970   -0.640124   -0.171629
      3          7           0        3.555461    0.569307   -0.455149
      4          6           0        2.353801    1.055758   -0.195359
      5          7           0        1.363621    0.516048    0.555471
      6          7           0        2.094592    2.278198   -0.767889
      7          6           0        1.438660   -0.775752    1.220601
      8          1           0        0.415771    0.927599    0.506351
      9          6           0        1.115022    3.222388   -0.261509
     10          1           0        2.930392    2.658697   -1.200819
     11          6           0        1.118589   -1.981132    0.325401
     12          1           0        2.447720   -0.907413    1.632161
     13          1           0        0.732160   -0.747611    2.062451
     14         16           0       -0.637621   -2.381880    0.065571
     15          1           0        1.629099   -1.893192   -0.643179
     16          1           0        1.518278   -2.890022    0.799961
     17          6           0       -1.239100   -1.021320   -1.028199
     18          6           0       -2.063410   -0.004149   -0.321439
     19          1           0       -1.828111   -1.507270   -1.817479
     20          1           0       -0.362330   -0.563661   -1.505239
     21          7           0       -1.493939    1.034240    0.398561
     22          6           0       -3.442310    0.047821   -0.209579
     23          6           0       -2.494929    1.705651    0.938781
     24          7           0       -3.690299    1.145612    0.598021
     25          6           0       -4.526640   -0.819368   -0.742929
     26          1           0       -2.411118    2.588501    1.565891
     27          1           0       -4.607169    1.473872    0.882181
     28          1           0       -4.103551   -1.584138   -1.405519
     29          1           0       -5.266710   -0.246877   -1.323979
     30          1           0       -5.064081   -1.345257    0.062251
     31          1           0        1.182833    4.139598   -0.858549
     32          1           0        0.094332    2.828709   -0.364969
     33          1           0        1.282593    3.479758    0.800061
 ---------------------------------------------------------------------

 SCF Done:  E(RHF) =  -1113.09036540     A.U. after    2 cycles

 The electronic state is 1-A.
 Alpha  occ. eigenvalues --  -93.93928 -15.58631 -15.53034 -15.52686 -15.51642
 Alpha  occ. eigenvalues --  -15.48401 -15.45341 -11.38625 -11.33445 -11.29326
 Alpha  occ. eigenvalues --  -11.28347 -11.28090 -11.27618 -11.27576 -11.27341
 Alpha  occ. eigenvalues --  -11.26990 -11.26278  -8.21987  -6.19815  -6.19646
 Alpha  occ. eigenvalues --   -6.19445  -1.36257  -1.32414  -1.21628  -1.21339
 Alpha  occ. eigenvalues --   -1.20268  -1.15210  -1.10609  -1.07285  -1.02104
 Alpha  occ. eigenvalues --   -0.98557  -0.96884  -0.92598  -0.88646  -0.87054
 Alpha  occ. eigenvalues --   -0.83987  -0.80328  -0.78932  -0.77231  -0.76737
 Alpha  occ. eigenvalues --   -0.68470  -0.67252  -0.66694  -0.66562  -0.65871
 Alpha  occ. eigenvalues --   -0.62075  -0.61865  -0.60853  -0.60392  -0.59228
 Alpha  occ. eigenvalues --   -0.58343  -0.58196  -0.57459  -0.56913  -0.56338
 Alpha  occ. eigenvalues --   -0.54973  -0.54137  -0.51941  -0.49829  -0.49337
 Alpha  occ. eigenvalues --   -0.46564  -0.44429  -0.42643  -0.41208  -0.37835
 Alpha  occ. eigenvalues --   -0.35437  -0.33282
 Alpha virt. eigenvalues --    0.01238   0.02463   0.03079   0.03339   0.03655
 Alpha virt. eigenvalues --    0.04360   0.04528   0.04714   0.05838   0.06233
 Alpha virt. eigenvalues --    0.07334   0.07543   0.07969   0.09278   0.09317

 Mulliken charges:
               1
     1  N    1.160956
     2  C   -2.071060
     3  N    1.110030
     4  C   -1.727971
     5  N    1.075653
     6  N    0.569549
     7  C   -0.922377
     8  H   -0.028398
     9  C   -0.139132
    10  H    0.221593
    11  C   -0.720015
    12  H    0.238283
    13  H    0.042036
    14  S    0.484203
    15  H    0.237054
    16  H    0.246234
    17  C   -0.173693
    18  C   -0.517216
    19  H    0.153551
    20  H    0.081414
    21  N    1.349009
    22  C   -1.338148
    23  C   -0.693093
    24  N    1.233394
    25  C   -0.751313
    26  H   -0.139539
    27  H   -0.052660
    28  H    0.205282
    29  H    0.230648
    30  H    0.308190
    31  H    0.007237
    32  H    0.175663
    33  H    0.144635
 Sum of Mulliken charges =   0.00000

 Dipole moment (field-independent basis, Debye):
    X=            -11.7546    Y=              7.0942    Z=              0.7261  Tot=             13.7487

 Test job not archived.
 1\1\GINC-SE435\SP\RHF\Aug-CC-pVDZ\C10H16N6S1\OHZDE\08-Apr-2025\0\\#t h
 f aug-cc-pvdz iop(5/13=1,5/36=2,99/5=2) pseudo=read geom=check guess=(
 read,tcheck) scf=(maxcycle=1)\\title\\0,1\N,0,4.47941,-1.69195,0.01876
 \C,0,3.98197,-0.64012,-0.17163\N,0,3.55546,0.56931,-0.45515\C,0,2.3538
 ,1.05576,-0.19536\N,0,1.36362,0.51605,0.55547\N,0,2.09459,2.2782,-0.76
 789\C,0,1.43866,-0.77575,1.2206\H,0,0.41577,0.9276,0.50635\C,0,1.11502
 ,3.22239,-0.26151\H,0,2.93039,2.6587,-1.20082\C,0,1.11859,-1.98113,0.3
 254\H,0,2.44772,-0.90741,1.63216\H,0,0.73216,-0.74761,2.06245\S,0,-0.6

 Normal termination of Gaussian 16 at Tue Apr  8 17:28:15 2025.
