 Gaussian 16, Revision C.01,

 ----------------------------------------------------------------------
 #t hf aug-cc-pvdz symm=none int=(grid=ultrafine) guess=(read,tcheck) s
 table=(opt,rrhf)
 ----------------------------------------------------------------------
 -----
 title
 -----
 Symbolic Z-matrix:
 Charge =  0 Multiplicity = 1

 SCF Done:  E(RHF) =  -917.596349192     A.U. after   12 cycles
 Normal termination of Gaussian 16 at Tue Apr  8 17:28:37 2025.
 Gaussian 16:  ES64L-G16RevC.01  3-Jul-2019

 ----------------------------------------------------------------------
 #t hf aug-cc-pvdz iop(5/13=1,5/36=2,99/5=2) pseudo=read geom=check gue
 ss=(read,tcheck) scf=(maxcycle=1)
 ----------------------------------------------------------------------
 -----
 title
 -----
 Structure from the checkpoint file:  "37Conf8_18crown6_4_mol1.chk"
 Charge =  0 Multiplicity = 1

                         Standard orientation:
 ---------------------------------------------------------------------
 Center     Atomic      Atomic             Coordinates (Angstroms)
 Number     Number       Type             X           Y           Z
 ---------------------------------------------------------------------
      1          1           0       -0.614810    2.755790    1.989520
      2          6           0       -0.215240    2.741910    0.964600
      3          1           0       -0.250969    3.776400    0.574490
      4          8           0        1.125190    2.266950    1.053260
      5          6           0       -1.068480    1.822580    0.096860
      6          6           0        1.957820    2.707840   -0.011960
      7          1           0       -0.652910    1.756050   -0.928220
      8          1           0       -1.072140    0.804230    0.517510
      9          8           0       -2.382060    2.381040    0.056120
     10          1           0        1.432760    2.653760   -0.983430
     11          1           0        2.266591    3.760090    0.151800
     12          6           0        3.183030    1.825319   -0.069620
     13          6           0       -3.253460    1.776700   -0.887660
     14          1           0        3.959560    2.304649   -0.700570
     15          1           0        3.597330    1.706579    0.950640
     16          8           0        2.809120    0.565220   -0.604400
     17          1           0       -2.748880    1.667320   -1.868330
     18          1           0       -4.094380    2.477391   -1.008720
     19          6           0       -3.812490    0.428821   -0.463630
     20          6           0        3.812490   -0.428821   -0.463630
     21          1           0       -4.694340    0.185621   -1.094690
     22          1           0       -4.154770    0.487711    0.588580
     23          8           0       -2.809120   -0.565220   -0.604400
     24          1           0        4.154770   -0.487711    0.588580
     25          1           0        4.694340   -0.185621   -1.094690
     26          6           0        3.253460   -1.776701   -0.887660
     27          6           0       -3.183030   -1.825320   -0.069620
     28          1           0        2.748880   -1.667320   -1.868330
     29          1           0        4.094380   -2.477391   -1.008720
     30          8           0        2.382060   -2.381040    0.056120
     31          1           0       -3.597330   -1.706580    0.950640
     32          1           0       -3.959560   -2.304649   -0.700560
     33          6           0       -1.957820   -2.707840   -0.011960
     34          6           0        1.068480   -1.822580    0.096860
     35          1           0       -2.266591   -3.760090    0.151800
     36          1           0       -1.432760   -2.653760   -0.983430
     37          8           0       -1.125190   -2.266950    1.053260
     38          1           0        0.652910   -1.756050   -0.928220
     39          1           0        1.072140   -0.804230    0.517500
     40          6           0        0.215240   -2.741910    0.964600
     41          1           0        0.250969   -3.776400    0.574500
     42          1           0        0.614810   -2.755780    1.989520
 ---------------------------------------------------------------------

 SCF Done:  E(RHF) =  -918.542220368     A.U. after    2 cycles

 The electronic state is 1-A.
 Alpha  occ. eigenvalues --  -20.54464 -20.54463 -20.53936 -20.53935 -20.53885
 Alpha  occ. eigenvalues --  -20.53884 -11.28716 -11.28716 -11.28614 -11.28613
 Alpha  occ. eigenvalues --  -11.28528 -11.28527 -11.28452 -11.28452 -11.27542
 Alpha  occ. eigenvalues --  -11.27539 -11.26897 -11.26894  -1.47041  -1.46736
 Alpha  occ. eigenvalues --   -1.45642  -1.44712  -1.44597  -1.43997  -1.05750
 Alpha  occ. eigenvalues --   -1.04089  -1.02835  -0.98530  -0.97359  -0.93659
 Alpha  occ. eigenvalues --   -0.86194  -0.84227  -0.83141  -0.82871  -0.81451
 Alpha  occ. eigenvalues --   -0.81170  -0.70234  -0.69570  -0.68910  -0.68726
 Alpha  occ. eigenvalues --   -0.67840  -0.67244  -0.66625  -0.65558  -0.64296
 Alpha  occ. eigenvalues --   -0.62859  -0.62282  -0.62218  -0.61720  -0.60122
 Alpha  occ. eigenvalues --   -0.58786  -0.57790  -0.57251  -0.54866  -0.54764
 Alpha  occ. eigenvalues --   -0.54050  -0.52814  -0.52533  -0.52297  -0.50375
 Alpha  occ. eigenvalues --   -0.48329  -0.47974  -0.47449  -0.47016  -0.46338
 Alpha  occ. eigenvalues --   -0.46139  -0.42772  -0.42510  -0.41257  -0.40962
 Alpha  occ. eigenvalues --   -0.40076  -0.39994
 Alpha virt. eigenvalues --    0.03061   0.03277   0.03525   0.03866   0.04263
 Alpha virt. eigenvalues --    0.04708   0.05060   0.05447   0.05506   0.06062
 Alpha virt. eigenvalues --    0.06500   0.07300   0.07351   0.07813   0.08303

 Mulliken charges:
               1
     1  H    0.015901
     2  C    0.121061
     3  H    0.311612
     4  O   -1.416662
     5  C    0.835814
     6  C    0.383275
     7  H    0.183333
     8  H    0.030001
     9  O   -1.473283
    10  H    0.258169
    11  H    0.097502
    12  C    0.356074
    13  C    0.217502
    14  H    0.136729
    15  H    0.224828
    16  O   -1.362283
    17  H    0.258629
    18  H    0.014072
    19  C    0.450042
    20  C    0.450043
    21  H    0.152185
    22  H    0.205499
    23  O   -1.362283
    24  H    0.205499
    25  H    0.152185
    26  C    0.217501
    27  C    0.356091
    28  H    0.258630
    29  H    0.014072
    30  O   -1.473283
    31  H    0.224827
    32  H    0.136715
    33  C    0.383271
    34  C    0.835825
    35  H    0.097501
    36  H    0.258170
    37  O   -1.416662
    38  H    0.183333
    39  H    0.029984
    40  C    0.121074
    41  H    0.311603
    42  H    0.015903
 Sum of Mulliken charges =  -0.00000

 Dipole moment (field-independent basis, Debye):
    X=             -0.0000    Y=             -0.0000    Z=             -2.2860  Tot=              2.2860

 Test job not archived.
 1\1\GINC-SE250\SP\RHF\Aug-CC-pVDZ\C12H24O6\OHZDE\08-Apr-2025\0\\#t hf
 aug-cc-pvdz iop(5/13=1,5/36=2,99/5=2) pseudo=read geom=check guess=(re
 ad,tcheck) scf=(maxcycle=1)\\title\\0,1\H,0,0.61481,-2.75579,1.98952\C
 ,0,0.21524,-2.74191,0.9646\H,0,0.25097,-3.7764,0.57449\O,0,-1.12519,-2
 .26695,1.05326\C,0,1.06848,-1.82258,0.09686\C,0,-1.95782,-2.70784,-0.0
 1196\H,0,0.65291,-1.75605,-0.92822\H,0,1.07214,-0.80423,0.51751\O,0,2.
 38206,-2.38104,0.05612\H,0,-1.43276,-2.65376,-0.98343\H,0,-2.26659,-3.
 76009,0.1518\C,0,-3.18303,-1.82532,-0.06962\C,0,3.25346,-1.7767,-0.887

 Normal termination of Gaussian 16 at Tue Apr  8 17:29:57 2025.
