 Gaussian 16, Revision C.01,

 ----------------------------------------------------------------------
 #t hf aug-cc-pvdz symm=none int=(grid=ultrafine) guess=(read,tcheck) s
 table=(opt,rrhf)
 ----------------------------------------------------------------------
 -----
 title
 -----
 Symbolic Z-matrix:
 Charge =  0 Multiplicity = 1

 SCF Done:  E(RHF) =  -1667.18579412     A.U. after   12 cycles
 Normal termination of Gaussian 16 at Tue Apr  8 17:56:07 2025.
 Gaussian 16:  ES64L-G16RevC.01  3-Jul-2019

 ----------------------------------------------------------------------
 #t hf aug-cc-pvdz iop(5/13=1,5/36=2,99/5=2) pseudo=read geom=check gue
 ss=(read,tcheck) scf=(maxcycle=1)
 ----------------------------------------------------------------------
 -----
 title
 -----
 Structure from the checkpoint file:  "37Conf8_N_iprit_2_mol2.chk"
 Charge =  0 Multiplicity = 1

                         Standard orientation:
 ---------------------------------------------------------------------
 Center     Atomic      Atomic             Coordinates (Angstroms)
 Number     Number       Type             X           Y           Z
 ---------------------------------------------------------------------
      1          1           0       -1.362562    1.527849    0.645422
      2          6           0       -0.275391    1.387276    0.561972
      3          6           0        0.255152    2.328091   -0.512518
      4          7           0        0.000011   -0.000270    0.198862
      5          1           0        0.156761    1.658652    1.545772
      6         17           0       -0.026806    4.043526   -0.048408
      7          1           0       -0.253447    2.154759   -1.468208
      8          1           0        1.336715    2.212598   -0.657598
      9          6           0       -1.064040   -0.932625    0.561482
     10          6           0        1.339413   -0.455462    0.561842
     11          6           0       -2.144844   -0.941981   -0.512238
     12          1           0       -0.642475   -1.944692    0.643252
     13          1           0       -1.514404   -0.695265    1.545942
     14          6           0        1.888822   -1.385874   -0.512188
     15          1           0        2.004759    0.415871    0.644462
     16          1           0        1.358736   -0.964726    1.546002
     17         17           0       -3.488768   -2.045131   -0.049008
     18          1           0       -1.741010   -1.293990   -1.468828
     19          1           0       -2.586225    0.052458   -0.655298
     20         17           0        3.516024   -1.998006   -0.048378
     21          1           0        1.992126   -0.859415   -1.468348
     22          1           0        1.248621   -2.265379   -0.656268
 ---------------------------------------------------------------------

 SCF Done:  E(RHF) =  -1667.72513444     A.U. after    2 cycles

 The electronic state is 1-A.
 Alpha  occ. eigenvalues -- -105.56474-105.56473-105.56473 -15.52168 -11.31656
 Alpha  occ. eigenvalues --  -11.31655 -11.31655 -11.29380 -11.29361 -11.29360
 Alpha  occ. eigenvalues --  -10.61281 -10.61281 -10.61280  -7.78227  -7.78226
 Alpha  occ. eigenvalues --   -7.78226  -7.77856  -7.77856  -7.77855  -7.77846
 Alpha  occ. eigenvalues --   -7.77846  -7.77845  -1.26712  -1.12746  -1.12746
 Alpha  occ. eigenvalues --   -1.10562  -1.00723  -1.00722  -0.93071  -0.86348
 Alpha  occ. eigenvalues --   -0.86346  -0.82464  -0.71335  -0.71331  -0.67984
 Alpha  occ. eigenvalues --   -0.65313  -0.65309  -0.63409  -0.58606  -0.58604
 Alpha  occ. eigenvalues --   -0.57202  -0.55924  -0.55922  -0.54504  -0.53149
 Alpha  occ. eigenvalues --   -0.53146  -0.46218  -0.45265  -0.45265  -0.45249
 Alpha  occ. eigenvalues --   -0.45163  -0.45163  -0.41980
 Alpha virt. eigenvalues --    0.02947   0.03738   0.04171   0.04172   0.05313
 Alpha virt. eigenvalues --    0.05313   0.05491   0.06503   0.06503   0.09217
 Alpha virt. eigenvalues --    0.09302   0.09302   0.10228   0.10725   0.10727

 Mulliken charges:
               1
     1  H    0.065441
     2  C   -0.577883
     3  C   -0.364806
     4  N    1.099166
     5  H    0.148830
     6  Cl  -0.095734
     7  H    0.221589
     8  H    0.236010
     9  C   -0.577004
    10  C   -0.577909
    11  C   -0.365249
    12  H    0.065479
    13  H    0.148951
    14  C   -0.364961
    15  H    0.065936
    16  H    0.148833
    17  Cl  -0.095799
    18  H    0.221613
    19  H    0.235874
    20  Cl  -0.095756
    21  H    0.221528
    22  H    0.235850
 Sum of Mulliken charges =   0.00000

 Dipole moment (field-independent basis, Debye):
    X=             -0.0015    Y=             -0.0007    Z=             -0.4684  Tot=              0.4684

 Test job not archived.
 1\1\GINC-SE082\SP\RHF\Aug-CC-pVDZ\C6H12Cl3N1\OHZDE\08-Apr-2025\0\\#t h
 f aug-cc-pvdz iop(5/13=1,5/36=2,99/5=2) pseudo=read geom=check guess=(
 read,tcheck) scf=(maxcycle=1)\\title\\0,1\H,0,-1.35964,1.53045,0.64542
 \C,0,-0.27274,1.3878,0.56197\C,0,0.2596,2.3276,-0.51252\N,0,0.00001,-0
 .00027,0.19886\H,0,0.15993,1.65835,1.54577\Cl,0,-0.01908,4.04357,-0.04
 841\H,0,-0.24933,2.15524,-1.46821\H,0,1.34094,2.21004,-0.6576\C,0,-1.0
 6582,-0.93059,0.56148\C,0,1.33854,-0.45802,0.56184\C,0,-2.14664,-0.937
 88,-0.51224\H,0,-0.64619,-1.94346,0.64325\H,0,-1.51573,-0.69237,1.5459

 Normal termination of Gaussian 16 at Tue Apr  8 17:56:22 2025.
