 Gaussian 16, Revision C.01,

 ----------------------------------------------------------------------
 #t hf aug-cc-pvdz symm=none int=(grid=ultrafine) guess=(read,tcheck) s
 table=(opt,rrhf)
 ----------------------------------------------------------------------
 -----
 title
 -----
 Symbolic Z-matrix:
 Charge =  0 Multiplicity = 1

 SCF Done:  E(RHF) =  -1374.25071447     A.U. after   14 cycles
 Normal termination of Gaussian 16 at Tue Apr  8 18:59:05 2025.
 Gaussian 16:  ES64L-G16RevC.01  3-Jul-2019

 ----------------------------------------------------------------------
 #t hf aug-cc-pvdz iop(5/13=1,5/36=2,99/5=2) pseudo=read geom=check gue
 ss=(read,tcheck) scf=(maxcycle=1)
 ----------------------------------------------------------------------
 -----
 title
 -----
 Structure from the checkpoint file:  "37Conf8_VX_3_mol2.chk"
 Charge =  0 Multiplicity = 1

                         Standard orientation:
 ---------------------------------------------------------------------
 Center     Atomic      Atomic             Coordinates (Angstroms)
 Number     Number       Type             X           Y           Z
 ---------------------------------------------------------------------
      1          1           0       -3.841351    1.383640   -1.293291
      2          6           0       -4.139031    0.358430   -1.026031
      3          6           0       -5.640581    0.181380   -1.060311
      4          8           0       -3.685091    0.086330    0.328629
      5          1           0       -3.633051   -0.341500   -1.711051
      6          1           0       -6.015191    0.387150   -2.073381
      7          1           0       -5.920131   -0.846100   -0.789841
      8          1           0       -6.132751    0.872810   -0.362651
      9         15           0       -2.098521    0.158300    0.635219
     10          6           0       -2.136101   -0.134840    2.416489
     11         16           0       -1.334091   -1.585609   -0.289741
     12          8           0       -1.385661    1.394090    0.200949
     13          1           0       -2.658271   -1.073840    2.638109
     14          1           0       -1.102531   -0.193719    2.778849
     15          1           0       -2.651701    0.705490    2.900819
     16          6           0        0.237579   -0.886509   -0.933691
     17          6           0        1.317949   -0.743339    0.141209
     18          1           0        0.563649   -1.573649   -1.726811
     19          1           0        0.000509    0.083811   -1.384971
     20          7           0        2.453009   -0.009659   -0.382741
     21          1           0        1.631479   -1.746769    0.462059
     22          1           0        0.874049   -0.256549    1.034159
     23          6           0        2.279279    1.452211   -0.347401
     24          6           0        3.785729   -0.553969   -0.091041
     25          6           0        3.011039    2.125221   -1.510351
     26          6           0        2.637499    2.116561    0.992239
     27          1           0        1.199829    1.615311   -0.499911
     28          6           0        4.074029   -1.754038   -0.999951
     29          6           0        4.047079   -0.922119    1.381669
     30          1           0        4.496739    0.242312   -0.362591
     31          1           0        2.713469    1.671201   -2.465341
     32          1           0        2.774548    3.198701   -1.541271
     33          1           0        4.104149    2.035142   -1.414171
     34          1           0        2.340068    3.175321    0.981869
     35          1           0        3.719929    2.075821    1.187129
     36          1           0        2.112969    1.634571    1.829979
     37          1           0        3.967179   -1.470409   -2.055361
     38          1           0        5.090919   -2.140758   -0.835341
     39          1           0        3.371460   -2.577469   -0.795891
     40          1           0        5.096499   -1.224048    1.516059
     41          1           0        3.422499   -1.770459    1.699869
     42          1           0        3.846439   -0.080459    2.056069
 ---------------------------------------------------------------------

 SCF Done:  E(RHF) =  -1375.03883350     A.U. after    2 cycles

 The electronic state is 1-A.
 Alpha  occ. eigenvalues --  -93.94974 -84.40508 -20.57360 -20.49717 -15.47108
 Alpha  occ. eigenvalues --  -11.30264 -11.26708 -11.25922 -11.25838 -11.25378
 Alpha  occ. eigenvalues --  -11.25008 -11.23823 -11.22048 -11.21955 -11.21528
 Alpha  occ. eigenvalues --  -11.21468  -8.23254  -6.85979  -6.21038  -6.20894
 Alpha  occ. eigenvalues --   -6.20696  -4.39960  -4.38918  -4.38397  -1.48895
 Alpha  occ. eigenvalues --   -1.37819  -1.22154  -1.08485  -1.05323  -1.04455
 Alpha  occ. eigenvalues --   -1.01612  -0.99277  -0.93762  -0.92877  -0.92133
 Alpha  occ. eigenvalues --   -0.85896  -0.83926  -0.82395  -0.75877  -0.74285
 Alpha  occ. eigenvalues --   -0.67781  -0.67391  -0.66095  -0.64518  -0.62878
 Alpha  occ. eigenvalues --   -0.62059  -0.61390  -0.60377  -0.59445  -0.59228
 Alpha  occ. eigenvalues --   -0.58479  -0.56283  -0.55841  -0.54961  -0.54704
 Alpha  occ. eigenvalues --   -0.54563  -0.53514  -0.53146  -0.52894  -0.52625
 Alpha  occ. eigenvalues --   -0.51179  -0.50414  -0.50073  -0.49334  -0.48240
 Alpha  occ. eigenvalues --   -0.48030  -0.46513  -0.45869  -0.45573  -0.43878
 Alpha  occ. eigenvalues --   -0.40682  -0.37898  -0.36367
 Alpha virt. eigenvalues --    0.03123   0.03483   0.03697   0.03974   0.04110
 Alpha virt. eigenvalues --    0.04329   0.04731   0.05069   0.05181   0.05809
 Alpha virt. eigenvalues --    0.06069   0.06406   0.07271   0.07718   0.08653

 Mulliken charges:
               1
     1  H    0.087869
     2  C    0.270336
     3  C   -0.656860
     4  O   -1.617009
     5  H    0.205171
     6  H    0.175250
     7  H    0.186307
     8  H    0.183785
     9  P    4.290605
    10  C   -1.131840
    11  S   -0.251845
    12  O   -1.820980
    13  H    0.168304
    14  H    0.052852
    15  H    0.109061
    16  C   -0.196625
    17  C   -0.783751
    18  H    0.104213
    19  H    0.292773
    20  N    2.057065
    21  H   -0.009744
    22  H    0.008707
    23  C   -1.786794
    24  C   -1.450229
    25  C   -0.316924
    26  C   -0.106724
    27  H    0.042168
    28  C   -0.118629
    29  C   -0.107563
    30  H   -0.097841
    31  H    0.207171
    32  H    0.142552
    33  H    0.191657
    34  H    0.066843
    35  H    0.268607
    36  H    0.208045
    37  H    0.246085
    38  H    0.151955
    39  H    0.199945
    40  H    0.127887
    41  H    0.253516
    42  H    0.154628
 Sum of Mulliken charges =  -0.00000

 Dipole moment (field-independent basis, Debye):
    X=             -0.6862    Y=             -1.0291    Z=              0.6023  Tot=              1.3758

 Test job not archived.
 1\1\GINC-SE222\SP\RHF\Aug-CC-pVDZ\C11H26N1O2P1S1\OHZDE\08-Apr-2025\0\\
 #t hf aug-cc-pvdz iop(5/13=1,5/36=2,99/5=2) pseudo=read geom=check gue
 ss=(read,tcheck) scf=(maxcycle=1)\\title\\0,1\H,0,-3.84135,1.38364,-1.
 29329\C,0,-4.13903,0.35843,-1.02603\C,0,-5.64058,0.18138,-1.06031\O,0,
 -3.68509,0.08633,0.32863\H,0,-3.63305,-0.3415,-1.71105\H,0,-6.01519,0.
 38715,-2.07338\H,0,-5.92013,-0.8461,-0.78984\H,0,-6.13275,0.87281,-0.3
 6265\P,0,-2.09852,0.1583,0.63522\C,0,-2.1361,-0.13484,2.41649\S,0,-1.3
 3409,-1.58561,-0.28974\O,0,-1.38566,1.39409,0.20095\H,0,-2.65827,-1.07

 Normal termination of Gaussian 16 at Tue Apr  8 19:00:22 2025.
