 Gaussian 16, Revision C.01,

 ----------------------------------------------------------------------
 #t hf aug-cc-pvdz symm=none int=(grid=ultrafine) guess=(read,tcheck) s
 table=(opt,rrhf)
 ----------------------------------------------------------------------
 -----
 title
 -----
 Symbolic Z-matrix:
 Charge =  0 Multiplicity = 1

 SCF Done:  E(RHF) =  -1667.18272531     A.U. after   12 cycles
 Normal termination of Gaussian 16 at Tue Apr  8 17:52:58 2025.
 Gaussian 16:  ES64L-G16RevC.01  3-Jul-2019

 ----------------------------------------------------------------------
 #t hf aug-cc-pvdz iop(5/13=1,5/36=2,99/5=2) pseudo=read geom=check gue
 ss=(read,tcheck) scf=(maxcycle=1)
 ----------------------------------------------------------------------
 -----
 title
 -----
 Structure from the checkpoint file:  "37Conf8_N_iprit_2_mol1.chk"
 Charge =  0 Multiplicity = 1

                         Standard orientation:
 ---------------------------------------------------------------------
 Center     Atomic      Atomic             Coordinates (Angstroms)
 Number     Number       Type             X           Y           Z
 ---------------------------------------------------------------------
      1          1           0       -0.203792   -1.279998    1.999789
      2          6           0        0.051847   -1.454198    0.928379
      3          6           0        1.485677   -1.964010    0.919209
      4          7           0       -0.160071   -0.286018    0.100029
      5          1           0       -0.609774   -2.255348    0.566309
      6         17           0        2.010976   -2.501001   -0.715931
      7          1           0        2.196748   -1.191341    1.239379
      8          1           0        1.583766   -2.827300    1.589269
      9          6           0       -1.473871   -0.140367   -0.497941
     10          6           0        0.507911    0.939721    0.511559
     11          6           0       -2.583410    0.149365    0.517749
     12          1           0       -1.441750    0.674313   -1.237331
     13          1           0       -1.721892   -1.058236   -1.053281
     14          6           0        1.588681    1.316140   -0.500021
     15          1           0       -0.204478    1.776962    0.603449
     16          1           0        0.967000    0.818680    1.506959
     17         17           0       -4.165220    0.369077   -0.314491
     18          1           0       -2.389029    1.071685    1.079819
     19          1           0       -2.711592   -0.679895    1.224739
     20         17           0        2.430303    2.828478    0.006099
     21          1           0        1.154981    1.502080   -1.490021
     22          1           0        2.346300    0.529199   -0.589421
 ---------------------------------------------------------------------

 SCF Done:  E(RHF) =  -1667.72077824     A.U. after    2 cycles

 The electronic state is 1-A.
 Alpha  occ. eigenvalues -- -105.56291-105.56263-105.55790 -15.51162 -11.31853
 Alpha  occ. eigenvalues --  -11.31325 -11.30744 -11.29717 -11.29053 -11.28951
 Alpha  occ. eigenvalues --  -10.61091 -10.61071 -10.60602  -7.78036  -7.78014
 Alpha  occ. eigenvalues --   -7.77665  -7.77656  -7.77645  -7.77642  -7.77544
 Alpha  occ. eigenvalues --   -7.77180  -7.77171  -1.26319  -1.12436  -1.12072
 Alpha  occ. eigenvalues --   -1.10212  -1.00758  -1.00310  -0.93290  -0.86928
 Alpha  occ. eigenvalues --   -0.86575  -0.80561  -0.72256  -0.69874  -0.67764
 Alpha  occ. eigenvalues --   -0.65400  -0.64615  -0.62404  -0.60252  -0.58354
 Alpha  occ. eigenvalues --   -0.57645  -0.55994  -0.55111  -0.53225  -0.53010
 Alpha  occ. eigenvalues --   -0.52673  -0.46223  -0.45463  -0.45339  -0.45030
 Alpha  occ. eigenvalues --   -0.44854  -0.44451  -0.39997
 Alpha virt. eigenvalues --    0.02645   0.03626   0.03881   0.04396   0.05436
 Alpha virt. eigenvalues --    0.05463   0.05889   0.06445   0.06705   0.08893
 Alpha virt. eigenvalues --    0.09291   0.09763   0.09827   0.11069   0.11230

 Mulliken charges:
               1
     1  H    0.129685
     2  C   -0.553123
     3  C   -0.436663
     4  N    1.178447
     5  H   -0.007019
     6  Cl  -0.098758
     7  H    0.227712
     8  H    0.172876
     9  C   -0.377234
    10  C   -0.721001
    11  C   -0.438558
    12  H    0.136057
    13  H    0.112606
    14  C   -0.304613
    15  H    0.037105
    16  H    0.128493
    17  Cl  -0.093893
    18  H    0.262683
    19  H    0.264743
    20  Cl  -0.096461
    21  H    0.228777
    22  H    0.248137
 Sum of Mulliken charges =  -0.00000

 Dipole moment (field-independent basis, Debye):
    X=             -0.3066    Y=             -1.4941    Z=              2.6201  Tot=              3.0317

 Test job not archived.
 1\1\GINC-SE456\SP\RHF\Aug-CC-pVDZ\C6H12Cl3N1\OHZDE\08-Apr-2025\0\\#t h
 f aug-cc-pvdz iop(5/13=1,5/36=2,99/5=2) pseudo=read geom=check guess=(
 read,tcheck) scf=(maxcycle=1)\\title\\0,1\H,0,-0.20379,-1.28,1.99979\C
 ,0,0.05185,-1.4542,0.92838\C,0,1.48568,-1.96401,0.91921\N,0,-0.16007,-
 0.28602,0.10003\H,0,-0.60977,-2.25535,0.56631\Cl,0,2.01098,-2.501,-0.7
 1593\H,0,2.19675,-1.19134,1.23938\H,0,1.58377,-2.8273,1.58927\C,0,-1.4
 7387,-0.14037,-0.49794\C,0,0.50791,0.93972,0.51156\C,0,-2.58341,0.1493
 6,0.51775\H,0,-1.44175,0.67431,-1.23733\H,0,-1.72189,-1.05824,-1.05328

 Normal termination of Gaussian 16 at Tue Apr  8 17:53:14 2025.
