 Gaussian 16, Revision C.01,

 ----------------------------------------------------------------------
 #t hf aug-cc-pvdz symm=none int=(grid=ultrafine) guess=(read,tcheck) s
 table=(opt,rrhf)
 ----------------------------------------------------------------------
 -----
 title
 -----
 Symbolic Z-matrix:
 Charge =  0 Multiplicity = 1

 SCF Done:  E(RHF) =  -1667.17933584     A.U. after   13 cycles
 Normal termination of Gaussian 16 at Tue Apr  8 18:03:17 2025.
 Gaussian 16:  ES64L-G16RevC.01  3-Jul-2019

 ----------------------------------------------------------------------
 #t hf aug-cc-pvdz iop(5/13=1,5/36=2,99/5=2) pseudo=read geom=check gue
 ss=(read,tcheck) scf=(maxcycle=1)
 ----------------------------------------------------------------------
 -----
 title
 -----
 Structure from the checkpoint file:  "37Conf8_N_iprit_5_mol1.chk"
 Charge =  0 Multiplicity = 1

                         Standard orientation:
 ---------------------------------------------------------------------
 Center     Atomic      Atomic             Coordinates (Angstroms)
 Number     Number       Type             X           Y           Z
 ---------------------------------------------------------------------
      1          1           0       -1.369931    0.882899   -0.719439
      2          6           0       -1.243480   -0.159021   -0.394399
      3          6           0       -2.437080   -0.575271    0.470421
      4          7           0        0.036910   -0.282410    0.281681
      5          1           0       -1.224940   -0.775251   -1.306669
      6         17           0       -3.982420   -0.362043   -0.430309
      7          1           0       -2.384449   -1.633401    0.756381
      8          1           0       -2.513960    0.036359    1.378731
      9          6           0        0.473411   -1.629209    0.580711
     10          6           0        0.355509    0.735511    1.269761
     11          6           0        1.985061   -1.800178    0.632991
     12          1           0        0.070072   -2.297320   -0.194879
     13          1           0        0.095741   -2.005710    1.561891
     14          6           0        1.449939    1.699841    0.824941
     15          1           0       -0.541881    1.319680    1.534201
     16          1           0        0.699180    0.261361    2.210001
     17         17           0        2.779741   -1.406948   -0.931929
     18          1           0        2.236162   -2.841508    0.871231
     19          1           0        2.445301   -1.151368    1.389651
     20         17           0        0.888388    2.770861   -0.510969
     21          1           0        2.321349    1.160432    0.435011
     22          1           0        1.751768    2.358852    1.650131
 ---------------------------------------------------------------------

 SCF Done:  E(RHF) =  -1667.71677751     A.U. after    2 cycles

 The electronic state is 1-A.
 Alpha  occ. eigenvalues -- -105.56019-105.55802-105.55381 -15.50613 -11.31717
 Alpha  occ. eigenvalues --  -11.30826 -11.30757 -11.29407 -11.29178 -11.27984
 Alpha  occ. eigenvalues --  -10.60825 -10.60602 -10.60204  -7.77768  -7.77547
 Alpha  occ. eigenvalues --   -7.77397  -7.77395  -7.77177  -7.77168  -7.77145
 Alpha  occ. eigenvalues --   -7.76785  -7.76766  -1.25859  -1.12130  -1.11694
 Alpha  occ. eigenvalues --   -1.09843  -1.00388  -1.00098  -0.93328  -0.86814
 Alpha  occ. eigenvalues --   -0.86161  -0.79843  -0.71282  -0.69610  -0.68046
 Alpha  occ. eigenvalues --   -0.65642  -0.62724  -0.61936  -0.60153  -0.59987
 Alpha  occ. eigenvalues --   -0.56778  -0.56007  -0.54782  -0.53224  -0.52532
 Alpha  occ. eigenvalues --   -0.51604  -0.45793  -0.45187  -0.44976  -0.44566
 Alpha  occ. eigenvalues --   -0.44442  -0.44106  -0.39519
 Alpha virt. eigenvalues --    0.02420   0.03145   0.03505   0.04456   0.05211
 Alpha virt. eigenvalues --    0.05822   0.05928   0.06548   0.07073   0.08530
 Alpha virt. eigenvalues --    0.09273   0.09481   0.10224   0.11047   0.11405

 Mulliken charges:
               1
     1  H    0.160899
     2  C   -0.441311
     3  C   -0.436285
     4  N    1.300513
     5  H    0.102344
     6  Cl  -0.093504
     7  H    0.255433
     8  H    0.263469
     9  C   -0.561246
    10  C   -0.716657
    11  C   -0.413866
    12  H   -0.015254
    13  H    0.125558
    14  C   -0.410443
    15  H    0.046353
    16  H    0.130540
    17  Cl  -0.099789
    18  H    0.165493
    19  H    0.221873
    20  Cl  -0.081514
    21  H    0.281036
    22  H    0.216359
 Sum of Mulliken charges =  -0.00000

 Dipole moment (field-independent basis, Debye):
    X=              1.0890    Y=             -2.1394    Z=              4.5563  Tot=              5.1501

 Test job not archived.
 1\1\GINC-SE016\SP\RHF\Aug-CC-pVDZ\C6H12Cl3N1\OHZDE\08-Apr-2025\0\\#t h
 f aug-cc-pvdz iop(5/13=1,5/36=2,99/5=2) pseudo=read geom=check guess=(
 read,tcheck) scf=(maxcycle=1)\\title\\0,1\H,0,-1.36993,0.8829,-0.71944
 \C,0,-1.24348,-0.15902,-0.3944\C,0,-2.43708,-0.57527,0.47042\N,0,0.036
 91,-0.28241,0.28168\H,0,-1.22494,-0.77525,-1.30667\Cl,0,-3.98242,-0.36
 204,-0.43031\H,0,-2.38445,-1.6334,0.75638\H,0,-2.51396,0.03636,1.37873
 \C,0,0.47341,-1.62921,0.58071\C,0,0.35551,0.73551,1.26976\C,0,1.98506,
 -1.80018,0.63299\H,0,0.07007,-2.29732,-0.19488\H,0,0.09574,-2.00571,1.

 Normal termination of Gaussian 16 at Tue Apr  8 18:03:38 2025.
