 Gaussian 16, Revision C.01,

 ----------------------------------------------------------------------
 #t hf aug-cc-pvdz symm=none int=(grid=ultrafine) guess=(read,tcheck) s
 table=(opt,rrhf)
 ----------------------------------------------------------------------
 -----
 title
 -----
 Symbolic Z-matrix:
 Charge =  0 Multiplicity = 1

 SCF Done:  E(RHF) =  -1009.02787960     A.U. after   15 cycles
 Normal termination of Gaussian 16 at Tue Apr  8 17:36:16 2025.
 Gaussian 16:  ES64L-G16RevC.01  3-Jul-2019

 ----------------------------------------------------------------------
 #t hf aug-cc-pvdz iop(5/13=1,5/36=2,99/5=2) pseudo=read geom=check gue
 ss=(read,tcheck) scf=(maxcycle=1)
 ----------------------------------------------------------------------
 -----
 title
 -----
 Structure from the checkpoint file:  "37Conf8_Gemcitabine_7_mol1.chk"
 Charge =  0 Multiplicity = 1

                         Standard orientation:
 ---------------------------------------------------------------------
 Center     Atomic      Atomic             Coordinates (Angstroms)
 Number     Number       Type             X           Y           Z
 ---------------------------------------------------------------------
      1          1           0       -0.975433    3.886459    0.601100
      2          8           0       -1.282663    3.218989   -0.034930
      3          6           0       -1.730702    2.082409    0.705170
      4          6           0       -2.257452    1.053249   -0.284910
      5          1           0       -0.920012    1.654929    1.322040
      6          1           0       -2.567103    2.345618    1.380020
      7          1           0       -3.069002    1.507688   -0.870760
      8          8           0       -1.270632    0.618529   -1.261670
      9          6           0       -2.722431   -0.246442    0.373870
     10          6           0       -0.559761   -0.508991   -0.787140
     11          1           0       -3.105061   -0.111852    1.394540
     12          8           0       -3.740421   -0.901242   -0.353990
     13          6           0       -1.394221   -1.055321    0.421900
     14          1           0       -0.517451   -1.288651   -1.561960
     15          7           0        0.828989   -0.163060   -0.457670
     16          1           0       -3.437271   -1.018012   -1.272860
     17          9           0       -1.613870   -2.387051    0.336470
     18          9           0       -0.756721   -0.805581    1.617400
     19          6           0        1.729379   -1.280460   -0.291610
     20          6           0        1.265058    1.119360   -0.403860
     21          8           0        1.263620   -2.407940   -0.424410
     22          7           0        3.030939   -0.989809   -0.005870
     23          1           0        0.528608    1.895740   -0.615740
     24          6           0        2.571628    1.391531   -0.120230
     25          6           0        3.433998    0.268641    0.091490
     26          1           0        2.928157    2.418831   -0.078400
     27          7           0        4.739328    0.471592    0.426500
     28          1           0        5.159958    1.384802    0.318590
     29          1           0        5.342939   -0.343468    0.429800
 ---------------------------------------------------------------------

 SCF Done:  E(RHF) =  -1010.01286759     A.U. after    2 cycles

 The electronic state is 1-A.
 Alpha  occ. eigenvalues --  -26.48982 -26.48125 -20.59344 -20.58660 -20.58279
 Alpha  occ. eigenvalues --  -20.49536 -15.56792 -15.54007 -15.48172 -11.43583
 Alpha  occ. eigenvalues --  -11.37993 -11.36654 -11.35801 -11.33148 -11.32870
 Alpha  occ. eigenvalues --  -11.32863 -11.32450 -11.24977  -1.64983  -1.58391
 Alpha  occ. eigenvalues --   -1.51869  -1.48067  -1.47759  -1.44885  -1.31161
 Alpha  occ. eigenvalues --   -1.27066  -1.18624  -1.09548  -1.08695  -1.03959
 Alpha  occ. eigenvalues --   -0.96480  -0.92404  -0.90708  -0.86513  -0.85522
 Alpha  occ. eigenvalues --   -0.80149  -0.79699  -0.77248  -0.75943  -0.74736
 Alpha  occ. eigenvalues --   -0.74258  -0.72581  -0.71294  -0.69134  -0.68008
 Alpha  occ. eigenvalues --   -0.67047  -0.65386  -0.64539  -0.64253  -0.63295
 Alpha  occ. eigenvalues --   -0.62309  -0.62043  -0.60812  -0.60614  -0.59422
 Alpha  occ. eigenvalues --   -0.57877  -0.56903  -0.54745  -0.53264  -0.52628
 Alpha  occ. eigenvalues --   -0.50570  -0.48333  -0.47394  -0.47281  -0.45709
 Alpha  occ. eigenvalues --   -0.43046  -0.41931  -0.35619
 Alpha virt. eigenvalues --    0.01806   0.02430   0.03308   0.03590   0.04894
 Alpha virt. eigenvalues --    0.05006   0.05585   0.06510   0.06575   0.07578
 Alpha virt. eigenvalues --    0.07751   0.08556   0.09862   0.10296   0.10743

 Mulliken charges:
               1
     1  H    0.340202
     2  O   -1.273079
     3  C    0.987145
     4  C   -0.030814
     5  H    0.297613
     6  H    0.101926
     7  H    0.064181
     8  O   -1.842289
     9  C    1.287151
    10  C   -0.497530
    11  H    0.153477
    12  O   -1.499481
    13  C    2.596168
    14  H    0.072679
    15  N    1.827025
    16  H    0.279587
    17  F   -0.924003
    18  F   -1.073716
    19  C    0.255883
    20  C   -0.517013
    21  O   -1.346640
    22  N    1.321362
    23  H   -0.193061
    24  C    1.343049
    25  C   -2.521776
    26  H   -0.287545
    27  N    0.908169
    28  H    0.138617
    29  H    0.032715
 Sum of Mulliken charges =  -0.00000

 Dipole moment (field-independent basis, Debye):
    X=              0.4849    Y=              8.2896    Z=              0.6945  Tot=              8.3328

 Test job not archived.
 1\1\GINC-SE424\SP\RHF\Aug-CC-pVDZ\C9H11F2N3O4\OHZDE\08-Apr-2025\0\\#t
 hf aug-cc-pvdz iop(5/13=1,5/36=2,99/5=2) pseudo=read geom=check guess=
 (read,tcheck) scf=(maxcycle=1)\\title\\0,1\H,0,-0.97543,3.88646,0.6011
 \O,0,-1.28266,3.21899,-0.03493\C,0,-1.7307,2.08241,0.70517\C,0,-2.2574
 5,1.05325,-0.28491\H,0,-0.92001,1.65493,1.32204\H,0,-2.5671,2.34562,1.
 38002\H,0,-3.069,1.50769,-0.87076\O,0,-1.27063,0.61853,-1.26167\C,0,-2
 .72243,-0.24644,0.37387\C,0,-0.55976,-0.50899,-0.78714\H,0,-3.10506,-0
 .11185,1.39454\O,0,-3.74042,-0.90124,-0.35399\C,0,-1.39422,-1.05532,0.

 Normal termination of Gaussian 16 at Tue Apr  8 17:36:59 2025.
