 Gaussian 16, Revision C.01,

 ----------------------------------------------------------------------
 #t hf aug-cc-pvdz symm=none int=(grid=ultrafine) guess=(read,tcheck) s
 table=(opt,rrhf)
 ----------------------------------------------------------------------
 -----
 title
 -----
 Symbolic Z-matrix:
 Charge =  0 Multiplicity = 1

 SCF Done:  E(RHF) =  -1689.89436715     A.U. after   18 cycles
 Normal termination of Gaussian 16 at Tue Apr  8 17:39:23 2025.
 Gaussian 16:  ES64L-G16RevC.01  3-Jul-2019

 ----------------------------------------------------------------------
 #t hf aug-cc-pvdz iop(5/13=1,5/36=2,99/5=2) pseudo=read geom=check gue
 ss=(read,tcheck) scf=(maxcycle=1)
 ----------------------------------------------------------------------
 -----
 title
 -----
 Structure from the checkpoint file:  "37Conf8_Fotemustin_3_mol1.chk"
 Charge =  0 Multiplicity = 1

                         Standard orientation:
 ---------------------------------------------------------------------
 Center     Atomic      Atomic             Coordinates (Angstroms)
 Number     Number       Type             X           Y           Z
 ---------------------------------------------------------------------
      1          8           0        1.638229    2.113710    0.557360
      2          7           0        2.521639    1.707700   -0.196070
      3          7           0        2.478289    0.399250   -0.574910
      4          6           0        3.589849    0.013340   -1.440380
      5          6           0        1.473689   -0.623480   -0.310110
      6          6           0        4.570260   -0.942019   -0.777260
      7          1           0        3.183699   -0.478080   -2.336440
      8          1           0        4.087439    0.949051   -1.723220
      9         17           0        5.356879   -0.202919    0.660030
     10          1           0        5.366360   -1.199269   -1.486600
     11          1           0        4.068830   -1.856139   -0.443820
     12          7           0        0.514959   -0.253290    0.567330
     13          8           0        1.575290   -1.704510   -0.873960
     14          6           0       -0.646610   -1.089420    0.832000
     15          1           0        0.565999    0.713710    0.911560
     16         15           0       -2.068811   -0.266970    0.000430
     17          6           0       -0.843990   -1.325610    2.328360
     18          1           0       -0.486220   -2.038190    0.299370
     19          8           0       -3.284160   -1.151151    0.563190
     20          8           0       -2.213841    1.134660    0.797430
     21          8           0       -1.950331   -0.110530   -1.471030
     22          6           0       -4.628630   -0.907191    0.054070
     23          6           0       -1.992831    2.396120    0.099200
     24          6           0       -4.911870   -1.754501   -1.169280
     25          1           0       -4.744691    0.166599   -0.163280
     26          1           0       -5.295930   -1.158211    0.889990
     27          6           0       -3.303841    2.981999   -0.380180
     28          1           0       -1.306811    2.227130   -0.742590
     29          1           0       -1.500341    3.046490    0.835290
     30          1           0       -4.230570   -1.487461   -1.987450
     31          1           0       -5.947730   -1.590401   -1.501980
     32          1           0       -4.788580   -2.821701   -0.938970
     33          1           0       -3.752971    2.339669   -1.150570
     34          1           0       -3.129441    3.974049   -0.822630
     35          1           0       -4.011891    3.095579    0.452760
     36          1           0       -1.715450   -1.968600    2.501140
     37          1           0        0.048380   -1.811990    2.746030
     38          1           0       -1.006731   -0.376530    2.857620
 ---------------------------------------------------------------------

 SCF Done:  E(RHF) =  -1690.91237321     A.U. after    2 cycles

 The electronic state is 1-A.
 Alpha  occ. eigenvalues -- -105.56166 -84.41825 -20.61358 -20.57764 -20.57475
 Alpha  occ. eigenvalues --  -20.53573 -20.49920 -15.71138 -15.60395 -15.54593
 Alpha  occ. eigenvalues --  -11.42249 -11.31443 -11.31180 -11.30643 -11.30589
 Alpha  occ. eigenvalues --  -11.29815 -11.24589 -11.23905 -11.23471 -10.60991
 Alpha  occ. eigenvalues --   -7.77932  -7.77566  -7.77551  -6.87048  -4.41152
 Alpha  occ. eigenvalues --   -4.40662  -4.39966  -1.60551  -1.51803  -1.49067
 Alpha  occ. eigenvalues --   -1.46341  -1.37728  -1.32770  -1.26826  -1.12758
 Alpha  occ. eigenvalues --   -1.07690  -1.04646  -1.03422  -1.02934  -0.98289
 Alpha  occ. eigenvalues --   -0.90873  -0.89036  -0.86365  -0.85985  -0.85212
 Alpha  occ. eigenvalues --   -0.79798  -0.77930  -0.74760  -0.72170  -0.70387
 Alpha  occ. eigenvalues --   -0.70153  -0.67866  -0.67164  -0.65739  -0.65435
 Alpha  occ. eigenvalues --   -0.64387  -0.63976  -0.62534  -0.62068  -0.61796
 Alpha  occ. eigenvalues --   -0.60344  -0.59425  -0.58278  -0.56973  -0.56677
 Alpha  occ. eigenvalues --   -0.55565  -0.54991  -0.53995  -0.53759  -0.53453
 Alpha  occ. eigenvalues --   -0.51940  -0.50238  -0.49469  -0.49146  -0.48735
 Alpha  occ. eigenvalues --   -0.47347  -0.46279  -0.45816  -0.45427  -0.44996
 Alpha  occ. eigenvalues --   -0.44231  -0.44152  -0.41269
 Alpha virt. eigenvalues --    0.03160   0.03335   0.03670   0.03895   0.04095
 Alpha virt. eigenvalues --    0.04295   0.04864   0.05100   0.05229   0.05875
 Alpha virt. eigenvalues --    0.06279   0.06344   0.07194   0.07521   0.08300

 Mulliken charges:
               1
     1  O   -1.209110
     2  N    1.484312
     3  N    0.652455
     4  C   -0.494822
     5  C   -0.735701
     6  C   -0.333904
     7  H    0.218760
     8  H    0.124858
     9  Cl  -0.098996
    10  H    0.223437
    11  H    0.249435
    12  N    1.622777
    13  O   -1.221830
    14  C   -2.395233
    15  H    0.245021
    16  P    5.554217
    17  C   -0.152417
    18  H   -0.048989
    19  O   -1.721879
    20  O   -1.863525
    21  O   -1.730059
    22  C    0.353736
    23  C    0.466919
    24  C   -0.487679
    25  H    0.182464
    26  H   -0.004447
    27  C   -0.612200
    28  H    0.217888
    29  H   -0.009082
    30  H    0.149612
    31  H    0.166475
    32  H    0.190044
    33  H    0.196255
    34  H    0.126700
    35  H    0.199052
    36  H    0.143411
    37  H    0.165870
    38  H    0.186176
 Sum of Mulliken charges =  -0.00000

 Dipole moment (field-independent basis, Debye):
    X=             -2.6077    Y=              0.2892    Z=              0.5439  Tot=              2.6795

 Test job not archived.
 1\1\GINC-SE179\SP\RHF\Aug-CC-pVDZ\C9H19Cl1N3O5P1\OHZDE\08-Apr-2025\0\\
 #t hf aug-cc-pvdz iop(5/13=1,5/36=2,99/5=2) pseudo=read geom=check gue
 ss=(read,tcheck) scf=(maxcycle=1)\\title\\0,1\O,0,1.63823,2.11371,0.55
 736\N,0,2.52164,1.7077,-0.19607\N,0,2.47829,0.39925,-0.57491\C,0,3.589
 85,0.01334,-1.44038\C,0,1.47369,-0.62348,-0.31011\C,0,4.57026,-0.94202
 ,-0.77726\H,0,3.1837,-0.47808,-2.33644\H,0,4.08744,0.94905,-1.72322\Cl
 ,0,5.35688,-0.20292,0.66003\H,0,5.36636,-1.19927,-1.4866\H,0,4.06883,-
 1.85614,-0.44382\N,0,0.51496,-0.25329,0.56733\O,0,1.57529,-1.70451,-0.

 Normal termination of Gaussian 16 at Tue Apr  8 17:40:36 2025.
