 Gaussian 16, Revision C.01,

 ----------------------------------------------------------------------
 #t hf aug-cc-pvdz symm=none int=(grid=ultrafine) guess=(read,tcheck) s
 table=(opt,rrhf)
 ----------------------------------------------------------------------
 -----
 title
 -----
 Symbolic Z-matrix:
 Charge =  0 Multiplicity = 1

 SCF Done:  E(RHF) =  -787.719901697     A.U. after   16 cycles
 Normal termination of Gaussian 16 at Tue Apr  8 17:40:08 2025.
 Gaussian 16:  ES64L-G16RevC.01  3-Jul-2019

 ----------------------------------------------------------------------
 #t hf aug-cc-pvdz iop(5/13=1,5/36=2,99/5=2) pseudo=read geom=check gue
 ss=(read,tcheck) scf=(maxcycle=1)
 ----------------------------------------------------------------------
 -----
 title
 -----
 Structure from the checkpoint file:  "37Conf8_Eperisone_2_mol1.chk"
 Charge =  0 Multiplicity = 1

                         Standard orientation:
 ---------------------------------------------------------------------
 Center     Atomic      Atomic             Coordinates (Angstroms)
 Number     Number       Type             X           Y           Z
 ---------------------------------------------------------------------
      1          8           0        0.321700    2.145730    1.574330
      2          6           0        0.138100    1.589559    0.492890
      3          6           0        1.146710    1.798560   -0.631490
      4          6           0       -1.090419    0.761509    0.271050
      5          6           0        2.598410    1.510590   -0.149880
      6          6           0        1.042030    3.261660   -1.091770
      7          1           0        0.924920    1.145380   -1.485690
      8          6           0       -1.393509    0.116559   -0.938820
      9          6           0       -1.995189    0.630729    1.339190
     10          7           0        2.992751    0.125450    0.015090
     11          1           0        3.284280    1.967661   -0.882750
     12          1           0        2.736460    2.034070    0.809700
     13          6           0        3.027761   -0.644720   -1.222280
     14          6           0        2.301061   -0.576900    1.088880
     15          1           0        3.557901   -0.048559   -1.982280
     16          1           0        2.003541   -0.842800   -1.620060
     17          6           0        3.727882   -1.986079   -1.008990
     18          1           0        2.306461    0.066800    1.981200
     19          1           0        1.228981   -0.758130    0.835080
     20          6           0        2.967192   -1.920370    1.381460
     21          1           0        3.719192   -2.558469   -1.949810
     22          1           0        4.781601   -1.797599   -0.745370
     23          6           0        3.048542   -2.773040    0.113830
     24          1           0        2.403272   -2.443130    2.169440
     25          1           0        3.982401   -1.734909    1.769320
     26          1           0        3.584812   -3.714299    0.309610
     27          1           0        2.026932   -3.049000   -0.203830
     28          1           0        1.748840    3.456260   -1.911410
     29          1           0        0.029920    3.502819   -1.447490
     30          1           0        1.278289    3.935470   -0.256110
     31          1           0       -0.715539    0.188729   -1.789400
     32          6           0       -2.560409   -0.633171   -1.072060
     33          1           0       -1.751870    1.132679    2.276690
     34          6           0       -3.155519   -0.119942    1.201760
     35          1           0       -2.775989   -1.131622   -2.020450
     36          6           0       -3.461329   -0.766572   -0.007050
     37          1           0       -3.842739   -0.215402    2.046460
     38          6           0       -4.745149   -1.537652   -0.168850
     39          6           0       -5.902469   -0.641843   -0.636310
     40          1           0       -4.596068   -2.352062   -0.895050
     41          1           0       -5.012678   -2.009442    0.789770
     42          1           0       -5.670969   -0.177533   -1.605740
     43          1           0       -6.830059   -1.221783   -0.745960
     44          1           0       -6.086919    0.167607    0.084540
 ---------------------------------------------------------------------

 SCF Done:  E(RHF) =  -788.546465883     A.U. after    2 cycles

 The electronic state is 1-A.
 Alpha  occ. eigenvalues --  -20.52392 -15.47788 -11.33578 -11.26286 -11.26188
 Alpha  occ. eigenvalues --  -11.25383 -11.25286 -11.25267 -11.24987 -11.24861
 Alpha  occ. eigenvalues --  -11.24853 -11.24656 -11.24543 -11.24207 -11.23817
 Alpha  occ. eigenvalues --  -11.23381 -11.22399 -11.22372 -11.22052  -1.45236
 Alpha  occ. eigenvalues --   -1.22873  -1.16927  -1.09043  -1.07652  -1.05500
 Alpha  occ. eigenvalues --   -1.02354  -1.01293  -1.00274  -0.93220  -0.90724
 Alpha  occ. eigenvalues --   -0.87013  -0.85363  -0.84462  -0.83572  -0.80790
 Alpha  occ. eigenvalues --   -0.76189  -0.74559  -0.71131  -0.68215  -0.67152
 Alpha  occ. eigenvalues --   -0.65844  -0.64108  -0.63438  -0.62911  -0.61957
 Alpha  occ. eigenvalues --   -0.61049  -0.60416  -0.59788  -0.58883  -0.58089
 Alpha  occ. eigenvalues --   -0.57707  -0.56627  -0.55158  -0.54474  -0.53922
 Alpha  occ. eigenvalues --   -0.53036  -0.51560  -0.51473  -0.50730  -0.50235
 Alpha  occ. eigenvalues --   -0.49864  -0.49233  -0.48425  -0.47655  -0.46730
 Alpha  occ. eigenvalues --   -0.45442  -0.45212  -0.40540  -0.37116  -0.35434
 Alpha  occ. eigenvalues --   -0.34222
 Alpha virt. eigenvalues --    0.02501   0.02641   0.03177   0.03692   0.03869
 Alpha virt. eigenvalues --    0.04077   0.04245   0.04817   0.05130   0.05707
 Alpha virt. eigenvalues --    0.05943   0.06196   0.06585   0.06663   0.06982

 Mulliken charges:
               1
     1  O   -1.873917
     2  C    1.638098
     3  C   -1.139607
     4  C    2.022886
     5  C   -0.851232
     6  C   -0.220354
     7  H    0.088934
     8  C    0.695380
     9  C   -0.695355
    10  N    1.555879
    11  H    0.038180
    12  H    0.126731
    13  C   -0.481379
    14  C   -0.474342
    15  H   -0.045564
    16  H    0.120431
    17  C   -0.285440
    18  H   -0.015216
    19  H    0.102237
    20  C   -0.432490
    21  H    0.140404
    22  H    0.167121
    23  C   -0.325528
    24  H    0.148215
    25  H    0.181364
    26  H    0.123917
    27  H    0.182847
    28  H    0.147466
    29  H    0.183443
    30  H    0.284147
    31  H   -0.443005
    32  C   -0.319100
    33  H   -0.385696
    34  C    0.059840
    35  H   -0.384423
    36  C    1.176985
    37  H   -0.336074
    38  C   -0.693596
    39  C   -0.480455
    40  H    0.096928
    41  H    0.104838
    42  H    0.182412
    43  H    0.127967
    44  H    0.186125
 Sum of Mulliken charges =  -0.00000

 Dipole moment (field-independent basis, Debye):
    X=             -2.1462    Y=             -1.9526    Z=             -2.5373  Tot=              3.8544

 Test job not archived.
 1\1\GINC-SE454\SP\RHF\Aug-CC-pVDZ\C17H25N1O1\OHZDE\08-Apr-2025\0\\#t h
 f aug-cc-pvdz iop(5/13=1,5/36=2,99/5=2) pseudo=read geom=check guess=(
 read,tcheck) scf=(maxcycle=1)\\title\\0,1\O,0,0.3217,2.14573,1.57433\C
 ,0,0.1381,1.58956,0.49289\C,0,1.14671,1.79856,-0.63149\C,0,-1.09042,0.
 76151,0.27105\C,0,2.59841,1.51059,-0.14988\C,0,1.04203,3.26166,-1.0917
 7\H,0,0.92492,1.14538,-1.48569\C,0,-1.39351,0.11656,-0.93882\C,0,-1.99
 519,0.63073,1.33919\N,0,2.99275,0.12545,0.01509\H,0,3.28428,1.96766,-0
 .88275\H,0,2.73646,2.03407,0.8097\C,0,3.02776,-0.64472,-1.22228\C,0,2.

 Normal termination of Gaussian 16 at Tue Apr  8 17:41:36 2025.
