 Gaussian 16, Revision C.01,

 ----------------------------------------------------------------------
 #t hf aug-cc-pvdz symm=none int=(grid=ultrafine) guess=(read,tcheck) s
 table=(opt,rrhf)
 ----------------------------------------------------------------------
 -----
 title
 -----
 Symbolic Z-matrix:
 Charge =  0 Multiplicity = 1

 SCF Done:  E(RHF) =  -535.051684767     A.U. after   13 cycles
 Normal termination of Gaussian 16 at Tue Apr  8 18:31:23 2025.
 Gaussian 16:  ES64L-G16RevC.01  3-Jul-2019

 ----------------------------------------------------------------------
 #t hf aug-cc-pvdz iop(5/13=1,5/36=2,99/5=2) pseudo=read geom=check gue
 ss=(read,tcheck) scf=(maxcycle=1)
 ----------------------------------------------------------------------
 -----
 title
 -----
 Structure from the checkpoint file:  "37Conf8_RAMBO_2_mol1.chk"
 Charge =  0 Multiplicity = 1

                         Standard orientation:
 ---------------------------------------------------------------------
 Center     Atomic      Atomic             Coordinates (Angstroms)
 Number     Number       Type             X           Y           Z
 ---------------------------------------------------------------------
      1          1           0       -0.863118    2.360390   -0.058370
      2          7           0       -0.187719    1.652850    0.233890
      3          7           0        0.091891    0.846400   -0.916360
      4          1           0       -0.641209    1.103220    0.974550
      5          6           0        1.496301    0.334019   -0.954310
      6          6           0       -0.723280   -0.389330   -1.005400
      7          1           0        1.794961    0.349179   -2.014340
      8          6           0        2.498941    1.091709   -0.081500
      9          6           0        1.477440   -1.142901   -0.405460
     10          1           0       -0.627450   -0.734270   -2.052950
     11          6           0       -2.210119   -0.194069   -0.761360
     12          6           0       -0.006100   -1.405690   -0.101040
     13          1           0        3.491361    1.039299   -0.558050
     14          1           0        2.222741    2.146559    0.034440
     15          6           0        2.519501    0.321519    1.246050
     16          1           0        1.823080   -1.846461   -1.177800
     17          6           0        2.427000   -1.149421    0.810770
     18          8           0       -2.504439   -0.156939    0.633460
     19          1           0       -2.546369    0.743471   -1.248590
     20          1           0       -2.767990   -1.029449   -1.229250
     21          6           0       -3.884039    0.054391    0.872470
     22          1           0       -4.498830   -0.749378    0.423860
     23          1           0       -4.224989    1.023402    0.459640
     24          1           0       -4.031579    0.054342    1.959860
     25          1           0       -0.310530   -2.444810   -0.292920
     26          1           0       -0.239300   -1.189250    0.953450
     27          1           0        1.639071    0.605279    1.843400
     28          1           0        3.410831    0.531829    1.854790
     29          1           0        3.423760   -1.505611    0.504600
     30          1           0        2.078000   -1.818351    1.612010
 ---------------------------------------------------------------------

 SCF Done:  E(RHF) =  -535.617478835     A.U. after    2 cycles

 The electronic state is 1-A.
 Alpha  occ. eigenvalues --  -20.55192 -15.50239 -15.49554 -11.29079 -11.28977
 Alpha  occ. eigenvalues --  -11.25696 -11.24183 -11.22049 -11.22037 -11.21703
 Alpha  occ. eigenvalues --  -11.21234 -11.20941  -1.46609  -1.26633  -1.12532
 Alpha  occ. eigenvalues --   -1.07516  -1.01442  -0.98853  -0.92944  -0.91472
 Alpha  occ. eigenvalues --   -0.88122  -0.79114  -0.77144  -0.74508  -0.71192
 Alpha  occ. eigenvalues --   -0.68227  -0.66910  -0.65895  -0.65047  -0.63177
 Alpha  occ. eigenvalues --   -0.62753  -0.59839  -0.58395  -0.55960  -0.55228
 Alpha  occ. eigenvalues --   -0.53558  -0.50211  -0.49473  -0.48549  -0.47300
 Alpha  occ. eigenvalues --   -0.46467  -0.45716  -0.45621  -0.44626  -0.43408
 Alpha  occ. eigenvalues --   -0.41604  -0.38985
 Alpha virt. eigenvalues --    0.03270   0.03431   0.03684   0.03968   0.04387
 Alpha virt. eigenvalues --    0.04641   0.04880   0.05528   0.05944   0.07691
 Alpha virt. eigenvalues --    0.07765   0.08147   0.08528   0.08802   0.10003

 Mulliken charges:
               1
     1  H    0.147589
     2  N    0.180562
     3  N    0.672060
     4  H    0.202349
     5  C   -1.095960
     6  C   -0.704928
     7  H   -0.010131
     8  C    0.049229
     9  C    0.075860
    10  H   -0.000712
    11  C    0.338493
    12  C   -0.127910
    13  H    0.103233
    14  H    0.236708
    15  C   -0.268438
    16  H    0.091340
    17  C   -0.141503
    18  O   -1.239854
    19  H    0.217421
    20  H    0.146809
    21  C    0.028618
    22  H    0.190730
    23  H    0.212137
    24  H   -0.031903
    25  H    0.121996
    26  H    0.130285
    27  H    0.177303
    28  H    0.066485
    29  H    0.125393
    30  H    0.106739
 Sum of Mulliken charges =   0.00000

 Dipole moment (field-independent basis, Debye):
    X=             -2.1546    Y=             -1.2244    Z=             -0.2900  Tot=              2.4951

 Test job not archived.
 1\1\GINC-SE403\SP\RHF\Aug-CC-pVDZ\C9H18N2O1\OHZDE\08-Apr-2025\0\\#t hf
  aug-cc-pvdz iop(5/13=1,5/36=2,99/5=2) pseudo=read geom=check guess=(r
 ead,tcheck) scf=(maxcycle=1)\\title\\0,1\H,0,-0.86312,2.36039,-0.05837
 \N,0,-0.18772,1.65285,0.23389\N,0,0.09189,0.8464,-0.91636\H,0,-0.64121
 ,1.10322,0.97455\C,0,1.4963,0.33402,-0.95431\C,0,-0.72328,-0.38933,-1.
 0054\H,0,1.79496,0.34918,-2.01434\C,0,2.49894,1.09171,-0.0815\C,0,1.47
 744,-1.1429,-0.40546\H,0,-0.62745,-0.73427,-2.05295\C,0,-2.21012,-0.19
 407,-0.76136\C,0,-0.0061,-1.40569,-0.10104\H,0,3.49136,1.0393,-0.55805

 Normal termination of Gaussian 16 at Tue Apr  8 18:31:53 2025.
