 Gaussian 16, Revision C.01,

 ----------------------------------------------------------------------
 #t hf aug-cc-pvdz symm=none int=(grid=ultrafine) guess=(read,tcheck) s
 table=(opt,rrhf)
 ----------------------------------------------------------------------
 -----
 title
 -----
 Symbolic Z-matrix:
 Charge =  0 Multiplicity = 1

 SCF Done:  E(RHF) =  -1542.36145684     A.U. after   17 cycles
 Normal termination of Gaussian 16 at Tue Apr  8 18:19:55 2025.
 Gaussian 16:  ES64L-G16RevC.01  3-Jul-2019

 ----------------------------------------------------------------------
 #t hf aug-cc-pvdz iop(5/13=1,5/36=2,99/5=2) pseudo=read geom=check gue
 ss=(read,tcheck) scf=(maxcycle=1)
 ----------------------------------------------------------------------
 -----
 title
 -----
 Structure from the checkpoint file:  "37Conf8_Indometacin_4_mol1.chk"
 Charge =  0 Multiplicity = 1

                         Standard orientation:
 ---------------------------------------------------------------------
 Center     Atomic      Atomic             Coordinates (Angstroms)
 Number     Number       Type             X           Y           Z
 ---------------------------------------------------------------------
      1          1           0        2.441029    1.704369    1.514590
      2          8           0        3.007070    2.508249    1.545960
      3          6           0        2.945060    3.104189    0.328200
      4          6           0        2.004510    2.445189   -0.696390
      5          8           0        3.583090    4.101029    0.084980
      6          6           0        1.392809    1.145959   -0.287900
      7          1           0        2.596790    2.328489   -1.617450
      8          1           0        1.239470    3.198559   -0.933980
      9          6           0        2.089889   -0.119931   -0.242430
     10          6           0        0.105769    0.938070    0.170550
     11          6           0        3.398219   -0.486681   -0.599520
     12          6           0        1.191819   -1.076921    0.276900
     13          7           0       -0.040831   -0.427890    0.493420
     14          6           0       -0.933380    1.971310    0.452720
     15          1           0        4.089459    0.256599   -0.994010
     16          6           0        3.774479   -1.820721   -0.426290
     17          6           0        1.565489   -2.413261    0.443490
     18          6           0       -1.181741   -1.090750    1.004920
     19          1           0       -1.700610    2.041820   -0.331930
     20          1           0       -0.451820    2.953350    0.541460
     21          1           0       -1.459471    1.770280    1.396170
     22          8           0        5.013729   -2.314991   -0.721290
     23          6           0        2.859909   -2.768471    0.087200
     24          1           0        0.878389   -3.144921    0.862410
     25          6           0       -2.509791   -0.657030    0.493120
     26          8           0       -1.064451   -2.035210    1.773500
     27          6           0        5.981279   -1.394811   -1.215520
     28          1           0        3.205739   -3.794881    0.211430
     29          6           0       -3.622331   -0.759110    1.340790
     30          6           0       -2.696401   -0.279890   -0.844600
     31          1           0        5.661369   -0.949331   -2.172800
     32          1           0        6.896229   -1.976511   -1.373160
     33          1           0        6.178679   -0.589351   -0.488340
     34          1           0       -3.472841   -1.088710    2.369680
     35          6           0       -4.895851   -0.447890    0.877650
     36          1           0       -1.839481   -0.231100   -1.518540
     37          6           0       -3.970271    0.006730   -1.328400
     38          1           0       -5.762231   -0.505860    1.535820
     39          6           0       -5.060671   -0.066410   -0.457950
     40          1           0       -4.125041    0.282160   -2.371190
     41         17           0       -6.649301    0.311190   -1.047560
 ---------------------------------------------------------------------

 SCF Done:  E(RHF) =  -1543.51527326     A.U. after    2 cycles

 The electronic state is 1-A.
 Alpha  occ. eigenvalues -- -105.59584 -20.59901 -20.57806 -20.55873 -20.53180
 Alpha  occ. eigenvalues --  -15.58225 -11.40576 -11.39718 -11.34395 -11.32146
 Alpha  occ. eigenvalues --  -11.31653 -11.30142 -11.29385 -11.28985 -11.28862
 Alpha  occ. eigenvalues --  -11.28770 -11.28554 -11.28415 -11.28015 -11.27335
 Alpha  occ. eigenvalues --  -11.26465 -11.26334 -11.26078 -11.25386 -11.24842
 Alpha  occ. eigenvalues --  -10.64408  -7.81380  -7.80967  -7.80955  -1.53563
 Alpha  occ. eigenvalues --   -1.50002  -1.49811  -1.44722  -1.32582  -1.21452
 Alpha  occ. eigenvalues --   -1.16400  -1.13447  -1.12629  -1.06394  -1.05770
 Alpha  occ. eigenvalues --   -1.04398  -1.03282  -1.01734  -0.98193  -0.93894
 Alpha  occ. eigenvalues --   -0.90998  -0.88665  -0.85731  -0.84586  -0.83667
 Alpha  occ. eigenvalues --   -0.81275  -0.79539  -0.76002  -0.73428  -0.72736
 Alpha  occ. eigenvalues --   -0.71114  -0.70063  -0.69419  -0.68384  -0.67027
 Alpha  occ. eigenvalues --   -0.66925  -0.66267  -0.65884  -0.64773  -0.64443
 Alpha  occ. eigenvalues --   -0.63593  -0.62803  -0.61690  -0.61129  -0.60220
 Alpha  occ. eigenvalues --   -0.58830  -0.58454  -0.57832  -0.57259  -0.56600
 Alpha  occ. eigenvalues --   -0.55949  -0.55685  -0.55351  -0.54586  -0.53187
 Alpha  occ. eigenvalues --   -0.52305  -0.50079  -0.49638  -0.48763  -0.46805
 Alpha  occ. eigenvalues --   -0.46433  -0.46130  -0.45084  -0.40886  -0.38792
 Alpha  occ. eigenvalues --   -0.37195  -0.32751  -0.31342
 Alpha virt. eigenvalues --    0.02168   0.02559   0.03053   0.03251   0.03684
 Alpha virt. eigenvalues --    0.03719   0.03779   0.04564   0.05209   0.05616
 Alpha virt. eigenvalues --    0.05882   0.06323   0.06668   0.07205   0.07453

 Mulliken charges:
               1
     1  H    0.661128
     2  O   -1.348108
     3  C    2.207947
     4  C   -0.623655
     5  O   -1.372623
     6  C    0.547313
     7  H    0.193550
     8  H    0.173661
     9  C    0.437135
    10  C   -1.941400
    11  C    0.921325
    12  C   -0.254470
    13  N    2.249095
    14  C   -0.674316
    15  H   -0.486468
    16  C    1.364192
    17  C    0.280044
    18  C   -0.947211
    19  H    0.378551
    20  H    0.092832
    21  H    0.318605
    22  O   -1.925740
    23  C   -0.214843
    24  H   -0.346347
    25  C    2.267006
    26  O   -1.389126
    27  C    0.117193
    28  H   -0.328351
    29  C   -0.384167
    30  C    0.470849
    31  H    0.223822
    32  H   -0.063818
    33  H    0.237761
    34  H   -0.360220
    35  C    0.551638
    36  H   -0.401048
    37  C    0.200002
    38  H   -0.185745
    39  C   -0.155714
    40  H   -0.194507
    41  Cl  -0.295772
 Sum of Mulliken charges =  -0.00000

 Dipole moment (field-independent basis, Debye):
    X=             -3.4123    Y=             -1.1942    Z=             -2.2148  Tot=              4.2397

 Test job not archived.
 1\1\GINC-SE435\SP\RHF\Aug-CC-pVDZ\C19H16Cl1N1O4\OHZDE\08-Apr-2025\0\\#
 t hf aug-cc-pvdz iop(5/13=1,5/36=2,99/5=2) pseudo=read geom=check gues
 s=(read,tcheck) scf=(maxcycle=1)\\title\\0,1\H,0,2.44103,1.70437,1.514
 59\O,0,3.00707,2.50825,1.54596\C,0,2.94506,3.10419,0.3282\C,0,2.00451,
 2.44519,-0.69639\O,0,3.58309,4.10103,0.08498\C,0,1.39281,1.14596,-0.28
 79\H,0,2.59679,2.32849,-1.61745\H,0,1.23947,3.19856,-0.93398\C,0,2.089
 89,-0.11993,-0.24243\C,0,0.10577,0.93807,0.17055\C,0,3.39822,-0.48668,
 -0.59952\C,0,1.19182,-1.07692,0.2769\N,0,-0.04083,-0.42789,0.49342\C,0

 Normal termination of Gaussian 16 at Tue Apr  8 18:21:51 2025.
