 Gaussian 16, Revision C.01,

 ----------------------------------------------------------------------
 #t hf aug-cc-pvdz symm=none int=(grid=ultrafine) guess=(read,tcheck) s
 table=(opt,rrhf)
 ----------------------------------------------------------------------
 -----
 title
 -----
 Symbolic Z-matrix:
 Charge =  0 Multiplicity = 1

 SCF Done:  E(RHF) =  -914.173851091     A.U. after   14 cycles
 Normal termination of Gaussian 16 at Tue Apr  8 19:04:17 2025.
 Gaussian 16:  ES64L-G16RevC.01  3-Jul-2019

 ----------------------------------------------------------------------
 #t hf aug-cc-pvdz iop(5/13=1,5/36=2,99/5=2) pseudo=read geom=check gue
 ss=(read,tcheck) scf=(maxcycle=1)
 ----------------------------------------------------------------------
 -----
 title
 -----
 Structure from the checkpoint file:  "37Conf8_shiepox_depox_6_mol1.chk"
 Charge =  0 Multiplicity = 1

                         Standard orientation:
 ---------------------------------------------------------------------
 Center     Atomic      Atomic             Coordinates (Angstroms)
 Number     Number       Type             X           Y           Z
 ---------------------------------------------------------------------
      1          8           0       -0.159070    1.784961    0.479680
      2          6           0       -0.104350    0.676381   -0.009900
      3          6           0        1.118790   -0.259769    0.187550
      4          6           0       -1.194730    0.043301   -0.866600
      5          8           0        0.721860   -1.634839    0.065310
      6          8           0        2.028260    0.003781   -0.844290
      7          6           0        1.915330    0.008181    1.474640
      8          1           0       -0.760570   -0.146819   -1.863890
      9          8           0       -2.367870    0.810671   -0.988060
     10          6           0       -1.659770   -1.267089   -0.199950
     11          6           0       -0.553720   -1.877929    0.664810
     12          6           0        3.363380    0.205031   -0.270000
     13          1           0        1.764360    1.048711    1.807310
     14          1           0        1.654170   -0.688049    2.281190
     15          8           0        3.256540   -0.249159    1.073350
     16          6           0       -3.368520    0.280091   -0.079000
     17          1           0       -2.009610   -1.979399   -0.969660
     18          8           0       -2.736220   -0.812919    0.612690
     19          1           0       -0.648810   -2.966889    0.753130
     20          1           0       -0.622000   -1.442529    1.680350
     21          6           0        3.695450    1.691421   -0.347090
     22          6           0        4.349350   -0.679609   -1.005830
     23          6           0       -4.550780   -0.209199   -0.906500
     24          6           0       -3.743250    1.333141    0.947800
     25          1           0        3.693560    2.023191   -1.393830
     26          1           0        4.689320    1.875321    0.082680
     27          1           0        2.951000    2.283611    0.201170
     28          1           0        4.395870   -0.393499   -2.064430
     29          1           0        4.032120   -1.726199   -0.925360
     30          1           0        5.349640   -0.568289   -0.566430
     31          1           0       -4.235120   -1.009649   -1.588920
     32          1           0       -4.956180    0.616820   -1.505780
     33          1           0       -5.341660   -0.592390   -0.247730
     34          1           0       -4.227430    2.183221    0.449610
     35          1           0       -2.839670    1.688431    1.457240
     36          1           0       -4.440080    0.910731    1.684350
 ---------------------------------------------------------------------

 SCF Done:  E(RHF) =  -915.096672251     A.U. after    2 cycles

 The electronic state is 1-A.
 Alpha  occ. eigenvalues --  -20.57232 -20.56884 -20.56843 -20.56330 -20.56281
 Alpha  occ. eigenvalues --  -20.56171 -11.37015 -11.35687 -11.35685 -11.35576
 Alpha  occ. eigenvalues --  -11.31612 -11.31557 -11.31162 -11.30111 -11.23650
 Alpha  occ. eigenvalues --  -11.23309 -11.23198 -11.22914  -1.54533  -1.53045
 Alpha  occ. eigenvalues --   -1.48767  -1.48067  -1.43590  -1.43095  -1.10843
 Alpha  occ. eigenvalues --   -1.08784  -1.02042  -1.00743  -0.97116  -0.95627
 Alpha  occ. eigenvalues --   -0.94997  -0.88409  -0.86227  -0.81036  -0.80876
 Alpha  occ. eigenvalues --   -0.76406  -0.74905  -0.71310  -0.71054  -0.69733
 Alpha  occ. eigenvalues --   -0.67628  -0.66298  -0.64884  -0.64071  -0.63140
 Alpha  occ. eigenvalues --   -0.62311  -0.61499  -0.61214  -0.58364  -0.56808
 Alpha  occ. eigenvalues --   -0.56303  -0.56128  -0.55445  -0.54869  -0.54530
 Alpha  occ. eigenvalues --   -0.53730  -0.53154  -0.52980  -0.52257  -0.51671
 Alpha  occ. eigenvalues --   -0.51444  -0.51262  -0.49354  -0.48220  -0.46490
 Alpha  occ. eigenvalues --   -0.45181  -0.43451  -0.42975  -0.39191
 Alpha virt. eigenvalues --    0.03120   0.03435   0.03734   0.03986   0.04492
 Alpha virt. eigenvalues --    0.04669   0.05001   0.05397   0.05557   0.06693
 Alpha virt. eigenvalues --    0.07165   0.07546   0.07702   0.08066   0.09016

 Mulliken charges:
               1
     1  O   -1.591019
     2  C    1.581313
     3  C    1.604285
     4  C    0.841205
     5  O   -1.626233
     6  O   -1.815201
     7  C    0.516547
     8  H    0.160631
     9  O   -1.831490
    10  C    0.018953
    11  C    0.186537
    12  C    1.172763
    13  H    0.248532
    14  H    0.094268
    15  O   -1.653380
    16  C    1.162695
    17  H    0.090418
    18  O   -1.704992
    19  H    0.014871
    20  H    0.329724
    21  C   -0.303027
    22  C   -0.092113
    23  C   -0.179414
    24  C   -0.192750
    25  H    0.262250
    26  H    0.247356
    27  H    0.168567
    28  H    0.279771
    29  H    0.241539
    30  H    0.256861
    31  H    0.224408
    32  H    0.275062
    33  H    0.262122
    34  H    0.265257
    35  H    0.210582
    36  H    0.273098
 Sum of Mulliken charges =  -0.00000

 Dipole moment (field-independent basis, Debye):
    X=             -0.7663    Y=             -1.4713    Z=             -0.2086  Tot=              1.6719

 Test job not archived.
 1\1\GINC-SE452\SP\RHF\Aug-CC-pVDZ\C12H18O6\OHZDE\08-Apr-2025\0\\#t hf
 aug-cc-pvdz iop(5/13=1,5/36=2,99/5=2) pseudo=read geom=check guess=(re
 ad,tcheck) scf=(maxcycle=1)\\title\\0,1\O,0,0.15907,-1.78496,0.47968\C
 ,0,0.10435,-0.67638,-0.0099\C,0,-1.11879,0.25977,0.18755\C,0,1.19473,-
 0.0433,-0.8666\O,0,-0.72186,1.63484,0.06531\O,0,-2.02826,-0.00378,-0.8
 4429\C,0,-1.91533,-0.00818,1.47464\H,0,0.76057,0.14682,-1.86389\O,0,2.
 36787,-0.81067,-0.98806\C,0,1.65977,1.26709,-0.19995\C,0,0.55372,1.877
 93,0.66481\C,0,-3.36338,-0.20503,-0.27\H,0,-1.76436,-1.04871,1.80731\H

 Normal termination of Gaussian 16 at Tue Apr  8 19:05:25 2025.
