 Gaussian 16, Revision C.01,

 ----------------------------------------------------------------------
 #t hf aug-cc-pvdz symm=none int=(grid=ultrafine) guess=(read,tcheck) s
 table=(opt,rrhf)
 ----------------------------------------------------------------------
 -----
 title
 -----
 Symbolic Z-matrix:
 Charge =  0 Multiplicity = 1

 SCF Done:  E(RHF) =  -1112.30643669     A.U. after   16 cycles
 Normal termination of Gaussian 16 at Tue Apr  8 17:35:08 2025.
 Gaussian 16:  ES64L-G16RevC.01  3-Jul-2019

 ----------------------------------------------------------------------
 #t hf aug-cc-pvdz iop(5/13=1,5/36=2,99/5=2) pseudo=read geom=check gue
 ss=(read,tcheck) scf=(maxcycle=1)
 ----------------------------------------------------------------------
 -----
 title
 -----
 Structure from the checkpoint file:  "37Conf8_Cimetidine_2_mol1.chk"
 Charge =  0 Multiplicity = 1

                         Standard orientation:
 ---------------------------------------------------------------------
 Center     Atomic      Atomic             Coordinates (Angstroms)
 Number     Number       Type             X           Y           Z
 ---------------------------------------------------------------------
      1          7           0       -0.642086    3.190482    0.445510
      2          6           0       -1.442947    2.326493    0.385340
      3          7           0       -2.389388    1.419034    0.359290
      4          6           0       -2.134919    0.218503   -0.151560
      5          7           0       -0.909500   -0.176778   -0.567410
      6          7           0       -3.178870   -0.640885   -0.298990
      7          6           0       -0.553371   -1.419618   -1.220550
      8          1           0       -0.129879    0.418061   -0.285810
      9          6           0       -4.516900   -0.303324    0.157120
     10          1           0       -2.956472   -1.621586   -0.415030
     11          6           0       -0.208523   -2.597429   -0.291680
     12          1           0        0.316869   -1.199119   -1.854650
     13          1           0       -1.369162   -1.719708   -1.899720
     14         16           0        0.941828   -2.259610    1.076170
     15          1           0       -1.102433   -2.977428    0.229540
     16          1           0        0.179436   -3.422049   -0.910720
     17          6           0        2.420938   -1.561802    0.227670
     18          6           0        2.267760   -0.158432   -0.256630
     19          1           0        3.204028   -1.653353    0.995300
     20          1           0        2.703408   -2.212582   -0.611370
     21          7           0        2.300980    0.139038   -1.609360
     22          6           0        2.000111    0.986229    0.482970
     23          6           0        2.051392    1.437059   -1.691950
     24          7           0        1.878613    1.993249   -0.456690
     25          6           0        1.855302    1.229319    1.944340
     26          1           0        1.976063    2.013519   -2.609460
     27          1           0        1.416044    2.884079   -0.253390
     28          1           0        1.588671    0.295549    2.455850
     29          1           0        2.789232    1.610098    2.388450
     30          1           0        1.063733    1.967550    2.139290
     31          1           0       -4.593890   -0.295434    1.256000
     32          1           0       -4.786109    0.694356   -0.208060
     33          1           0       -5.220081   -1.039143   -0.251870
 ---------------------------------------------------------------------

 SCF Done:  E(RHF) =  -1113.09617547     A.U. after    2 cycles

 The electronic state is 1-A.
 Alpha  occ. eigenvalues --  -93.94916 -15.55406 -15.55151 -15.54492 -15.49944
 Alpha  occ. eigenvalues --  -15.49096 -15.47861 -11.40238 -11.30274 -11.29972
 Alpha  occ. eigenvalues --  -11.29845 -11.28758 -11.28736 -11.27839 -11.27070
 Alpha  occ. eigenvalues --  -11.25472 -11.23889  -8.22978  -6.20809  -6.20632
 Alpha  occ. eigenvalues --   -6.20429  -1.34753  -1.33301  -1.23907  -1.23381
 Alpha  occ. eigenvalues --   -1.17770  -1.17327  -1.10853  -1.06204  -1.01860
 Alpha  occ. eigenvalues --   -0.99010  -0.95617  -0.92338  -0.90286  -0.85355
 Alpha  occ. eigenvalues --   -0.84352  -0.81389  -0.78024  -0.76296  -0.74331
 Alpha  occ. eigenvalues --   -0.70725  -0.68670  -0.66446  -0.66081  -0.63787
 Alpha  occ. eigenvalues --   -0.63225  -0.62436  -0.60173  -0.59473  -0.58902
 Alpha  occ. eigenvalues --   -0.58647  -0.58048  -0.57521  -0.56956  -0.56583
 Alpha  occ. eigenvalues --   -0.56054  -0.54868  -0.51742  -0.51090  -0.48092
 Alpha  occ. eigenvalues --   -0.45703  -0.45033  -0.44134  -0.42631  -0.40116
 Alpha  occ. eigenvalues --   -0.36117  -0.31766
 Alpha virt. eigenvalues --    0.02099   0.03228   0.03478   0.03976   0.04019
 Alpha virt. eigenvalues --    0.04355   0.05047   0.05389   0.06022   0.06553
 Alpha virt. eigenvalues --    0.07037   0.07676   0.08402   0.08917   0.09392

 Mulliken charges:
               1
     1  N    1.033857
     2  C   -1.562764
     3  N    1.082129
     4  C   -2.815790
     5  N    0.925041
     6  N    0.695847
     7  C   -0.684577
     8  H    1.042130
     9  C   -0.130737
    10  H    0.202617
    11  C   -0.757423
    12  H    0.144357
    13  H   -0.005843
    14  S    0.657806
    15  H    0.187177
    16  H    0.166278
    17  C   -0.718841
    18  C   -0.671807
    19  H    0.151876
    20  H    0.092334
    21  N    1.324060
    22  C   -1.570367
    23  C   -1.022225
    24  N    1.573805
    25  C   -0.421285
    26  H   -0.258699
    27  H    0.053620
    28  H    0.341617
    29  H    0.244319
    30  H    0.238638
    31  H    0.190426
    32  H    0.207086
    33  H    0.065338
 Sum of Mulliken charges =  -0.00000

 Dipole moment (field-independent basis, Debye):
    X=             -2.4636    Y=             -4.8364    Z=             -1.1527  Tot=              5.5487

 Test job not archived.
 1\1\GINC-SE404\SP\RHF\Aug-CC-pVDZ\C10H16N6S1\OHZDE\08-Apr-2025\0\\#t h
 f aug-cc-pvdz iop(5/13=1,5/36=2,99/5=2) pseudo=read geom=check guess=(
 read,tcheck) scf=(maxcycle=1)\\title\\0,1\N,0,0.64209,3.19048,-0.44551
 \C,0,1.44295,2.32649,-0.38534\N,0,2.38939,1.41903,-0.35929\C,0,2.13492
 ,0.2185,0.15156\N,0,0.9095,-0.17678,0.56741\N,0,3.17887,-0.64089,0.298
 99\C,0,0.55337,-1.41962,1.22055\H,0,0.12988,0.41806,0.28581\C,0,4.5169
 ,-0.30333,-0.15712\H,0,2.95647,-1.62159,0.41503\C,0,0.20852,-2.59743,0
 .29168\H,0,-0.31687,-1.19912,1.85465\H,0,1.36916,-1.71971,1.89972\S,0,

 Normal termination of Gaussian 16 at Tue Apr  8 17:36:05 2025.
