 Gaussian 16, Revision C.01,

 ----------------------------------------------------------------------
 #t hf aug-cc-pvdz symm=none int=(grid=ultrafine) guess=(read,tcheck) s
 table=(opt,rrhf)
 ----------------------------------------------------------------------
 -----
 title
 -----
 Symbolic Z-matrix:
 Charge =  0 Multiplicity = 1

 SCF Done:  E(RHF) =  -1542.37124881     A.U. after   17 cycles
 Normal termination of Gaussian 16 at Tue Apr  8 18:27:53 2025.
 Gaussian 16:  ES64L-G16RevC.01  3-Jul-2019

 ----------------------------------------------------------------------
 #t hf aug-cc-pvdz iop(5/13=1,5/36=2,99/5=2) pseudo=read geom=check gue
 ss=(read,tcheck) scf=(maxcycle=1)
 ----------------------------------------------------------------------
 -----
 title
 -----
 Structure from the checkpoint file:  "37Conf8_Indometacin_2_mol2.chk"
 Charge =  0 Multiplicity = 1

                         Standard orientation:
 ---------------------------------------------------------------------
 Center     Atomic      Atomic             Coordinates (Angstroms)
 Number     Number       Type             X           Y           Z
 ---------------------------------------------------------------------
      1          1           0       -5.569039   -1.284741    2.520750
      2          8           0       -5.428549   -1.245111    1.551450
      3          6           0       -4.086889   -1.423060    1.366410
      4          6           0       -3.741099   -1.451160   -0.114840
      5          8           0       -3.310919   -1.566740    2.285390
      6          6           0       -2.332249   -1.059660   -0.403220
      7          1           0       -4.454209   -0.807940   -0.652360
      8          1           0       -3.949149   -2.477600   -0.458700
      9          6           0       -1.859590    0.299360   -0.468710
     10          6           0       -1.259009   -1.896120   -0.600760
     11          6           0       -2.528890    1.530960   -0.378230
     12          6           0       -0.466260    0.253130   -0.700260
     13          7           0       -0.098549   -1.109390   -0.761900
     14          6           0       -1.215229   -3.382490   -0.559560
     15          1           0       -3.601340    1.558740   -0.189800
     16          6           0       -1.785790    2.700700   -0.549060
     17          6           0        0.265430    1.424821   -0.914650
     18          6           0        1.183151   -1.635059   -1.032320
     19          1           0       -0.970449   -3.815090   -1.538750
     20          1           0       -2.186109   -3.768360   -0.224750
     21          1           0       -0.451159   -3.742450    0.144850
     22          8           0       -2.308350    3.964930   -0.480210
     23          6           0       -0.403210    2.640160   -0.827030
     24          1           0        1.329490    1.409011   -1.142010
     25          6           0        2.345121   -0.906669   -0.450970
     26          8           0        1.325911   -2.672909   -1.665820
     27          6           0       -3.699380    4.077430   -0.208990
     28          1           0        0.132110    3.577901   -0.976440
     29          6           0        3.569591   -0.953119   -1.132230
     30          6           0        2.276641   -0.278769    0.801660
     31          1           0       -4.305070    3.599130   -0.997840
     32          1           0       -3.916441    5.151370   -0.185600
     33          1           0       -3.958040    3.629810    0.765910
     34          1           0        3.618421   -1.469779   -2.091480
     35          6           0        4.703221   -0.353189   -0.593800
     36          1           0        1.331661   -0.251739    1.345110
     37          6           0        3.409850    0.302931    1.362940
     38          1           0        5.654221   -0.370088   -1.125300
     39          6           0        4.613460    0.271081    0.654010
     40          1           0        3.367310    0.780321    2.341350
     41         17           0        6.027040    1.014012    1.339380
 ---------------------------------------------------------------------

 SCF Done:  E(RHF) =  -1543.52451498     A.U. after    2 cycles

 The electronic state is 1-A.
 Alpha  occ. eigenvalues -- -105.58554 -20.61017 -20.57341 -20.54699 -20.54486
 Alpha  occ. eigenvalues --  -15.56522 -11.40479 -11.39208 -11.33230 -11.30897
 Alpha  occ. eigenvalues --  -11.29900 -11.29729 -11.28009 -11.27940 -11.27766
 Alpha  occ. eigenvalues --  -11.27401 -11.27366 -11.27218 -11.27202 -11.25748
 Alpha  occ. eigenvalues --  -11.25190 -11.24548 -11.24530 -11.24285 -11.24126
 Alpha  occ. eigenvalues --  -10.63378  -7.80349  -7.79939  -7.79927  -1.54819
 Alpha  occ. eigenvalues --   -1.49467  -1.48433  -1.45503  -1.30985  -1.20198
 Alpha  occ. eigenvalues --   -1.15267  -1.12597  -1.11194  -1.04958  -1.04088
 Alpha  occ. eigenvalues --   -1.03927  -1.02420  -1.00877  -0.97228  -0.92812
 Alpha  occ. eigenvalues --   -0.90146  -0.87352  -0.85130  -0.84135  -0.83133
 Alpha  occ. eigenvalues --   -0.79640  -0.77017  -0.75471  -0.72070  -0.71315
 Alpha  occ. eigenvalues --   -0.70160  -0.69579  -0.68828  -0.68136  -0.67205
 Alpha  occ. eigenvalues --   -0.65823  -0.65681  -0.65280  -0.64592  -0.63123
 Alpha  occ. eigenvalues --   -0.62686  -0.61946  -0.60299  -0.59516  -0.59197
 Alpha  occ. eigenvalues --   -0.58144  -0.57627  -0.57071  -0.56788  -0.55792
 Alpha  occ. eigenvalues --   -0.55156  -0.54492  -0.54164  -0.53490  -0.52493
 Alpha  occ. eigenvalues --   -0.51461  -0.49319  -0.48482  -0.48091  -0.47729
 Alpha  occ. eigenvalues --   -0.45490  -0.45295  -0.45111  -0.40222  -0.37454
 Alpha  occ. eigenvalues --   -0.36040  -0.31621  -0.30064
 Alpha virt. eigenvalues --    0.02790   0.03350   0.03418   0.03585   0.03790
 Alpha virt. eigenvalues --    0.04195   0.04230   0.04869   0.05258   0.05459
 Alpha virt. eigenvalues --    0.06525   0.06731   0.07053   0.07468   0.07614

 Mulliken charges:
               1
     1  H    0.446029
     2  O   -1.409276
     3  C    2.584670
     4  C   -0.987424
     5  O   -1.285365
     6  C    1.634081
     7  H    0.160825
     8  H    0.253554
     9  C    0.019021
    10  C   -1.504569
    11  C    1.178285
    12  C   -1.758395
    13  N    2.190701
    14  C   -0.657018
    15  H   -0.470225
    16  C    1.164112
    17  C    0.457737
    18  C   -0.864105
    19  H    0.366249
    20  H    0.104016
    21  H    0.353367
    22  O   -1.925433
    23  C   -0.123499
    24  H   -0.162948
    25  C    2.009390
    26  O   -1.389171
    27  C    0.094321
    28  H   -0.366709
    29  C   -0.248186
    30  C    0.661090
    31  H    0.220422
    32  H   -0.061665
    33  H    0.232642
    34  H   -0.360478
    35  C    0.478816
    36  H   -0.347599
    37  C    0.180756
    38  H   -0.180959
    39  C   -0.165705
    40  H   -0.216445
    41  Cl  -0.304913
 Sum of Mulliken charges =  -0.00000

 Dipole moment (field-independent basis, Debye):
    X=             -2.6644    Y=              0.6816    Z=              0.0887  Tot=              2.7516

 Test job not archived.
 1\1\GINC-SE082\SP\RHF\Aug-CC-pVDZ\C19H16Cl1N1O4\OHZDE\08-Apr-2025\0\\#
 t hf aug-cc-pvdz iop(5/13=1,5/36=2,99/5=2) pseudo=read geom=check gues
 s=(read,tcheck) scf=(maxcycle=1)\\title\\0,1\H,0,-5.56904,-1.28474,2.5
 2075\O,0,-5.42855,-1.24511,1.55145\C,0,-4.08689,-1.42306,1.36641\C,0,-
 3.7411,-1.45116,-0.11484\O,0,-3.31092,-1.56674,2.28539\C,0,-2.33225,-1
 .05966,-0.40322\H,0,-4.45421,-0.80794,-0.65236\H,0,-3.94915,-2.4776,-0
 .4587\C,0,-1.85959,0.29936,-0.46871\C,0,-1.25901,-1.89612,-0.60076\C,0
 ,-2.52889,1.53096,-0.37823\C,0,-0.46626,0.25313,-0.70026\N,0,-0.09855,

 Normal termination of Gaussian 16 at Tue Apr  8 18:29:56 2025.
