 Gaussian 16, Revision C.01,

 ----------------------------------------------------------------------
 #t hf aug-cc-pvdz symm=none int=(grid=ultrafine) guess=(read,tcheck) s
 table=(opt,rrhf)
 ----------------------------------------------------------------------
 -----
 title
 -----
 Symbolic Z-matrix:
 Charge =  0 Multiplicity = 1

 SCF Done:  E(RHF) =  -983.486782501     A.U. after   14 cycles
 Normal termination of Gaussian 16 at Tue Apr  8 18:59:43 2025.
 Gaussian 16:  ES64L-G16RevC.01  3-Jul-2019

 ----------------------------------------------------------------------
 #t hf aug-cc-pvdz iop(5/13=1,5/36=2,99/5=2) pseudo=read geom=check gue
 ss=(read,tcheck) scf=(maxcycle=1)
 ----------------------------------------------------------------------
 -----
 title
 -----
 Structure from the checkpoint file:  "37Conf8_Tsogoeva_7_mol1.chk"
 Charge =  0 Multiplicity = 1

                         Standard orientation:
 ---------------------------------------------------------------------
 Center     Atomic      Atomic             Coordinates (Angstroms)
 Number     Number       Type             X           Y           Z
 ---------------------------------------------------------------------
      1          1           0        5.685970   -0.985148    1.522870
      2          8           0        6.262820   -1.061858    0.724400
      3          6           0        5.463210   -0.811339   -0.347490
      4          6           0        4.005289   -0.597339    0.033770
      5          8           0        5.889600   -0.794168   -1.477610
      6          1           0        3.563740   -1.609249    0.119080
      7          7           0        3.883659    0.021271    1.374390
      8          6           0        3.147919    0.247521   -0.919020
      9          1           0        4.417289    0.899281    1.356090
     10          6           0        2.457869    0.374611    1.436010
     11          1           0        3.759959    1.036121   -1.377930
     12          1           0        2.714889   -0.341449   -1.736880
     13          6           0        2.048439    0.847691    0.005560
     14          1           0        2.270149    1.131371    2.208140
     15          1           0        1.882829   -0.529369    1.697280
     16          1           0        2.056559    1.945541   -0.041810
     17          7           0        0.702839    0.465200   -0.348920
     18          6           0       -0.320091    1.351230   -0.482010
     19          1           0        0.422219   -0.514650   -0.455830
     20          6           0       -1.643321    0.679590   -0.904770
     21          8           0       -0.218721    2.568760   -0.327870
     22          1           0       -1.686731    0.769290   -2.001260
     23          7           0       -1.663180   -0.746140   -0.530250
     24          6           0       -2.866231    1.346329   -0.239630
     25          1           0       -2.369400   -1.203781   -1.116480
     26          6           0       -2.205430   -0.747940    0.834970
     27          1           0       -3.700801    1.409249   -0.948290
     28          1           0       -2.619891    2.360749    0.099130
     29          6           0       -3.250711    0.400219    0.930190
     30          1           0       -2.628870   -1.727621    1.086750
     31          1           0       -1.387751   -0.533510    1.542930
     32          1           0       -3.148211    0.915279    1.894680
     33          7           0       -4.643401   -0.053801    0.889710
     34          6           0       -5.182430   -0.828841   -0.093950
     35          1           0       -5.272871    0.315429    1.592940
     36          6           0       -6.672690   -1.089782    0.019550
     37          8           0       -4.516710   -1.296191   -1.023160
     38          1           0       -7.172080   -0.649242   -0.854490
     39          1           0       -6.843590   -2.173492   -0.018830
     40          1           0       -7.129660   -0.684542    0.932310
 ---------------------------------------------------------------------

 SCF Done:  E(RHF) =  -984.486865290     A.U. after    2 cycles

 The electronic state is 1-A.
 Alpha  occ. eigenvalues --  -20.59516 -20.53548 -20.52196 -20.50693 -15.54640
 Alpha  occ. eigenvalues --  -15.52677 -15.52319 -15.49803 -11.39404 -11.37727
 Alpha  occ. eigenvalues --  -11.35380 -11.29750 -11.29429 -11.28437 -11.28031
 Alpha  occ. eigenvalues --  -11.27905 -11.27182 -11.26446 -11.24952 -11.23955
 Alpha  occ. eigenvalues --   -1.53296  -1.46454  -1.44833  -1.44774  -1.27277
 Alpha  occ. eigenvalues --   -1.26244  -1.24121  -1.21892  -1.05575  -1.05230
 Alpha  occ. eigenvalues --   -1.03256  -1.01621  -0.99389  -0.89626  -0.89179
 Alpha  occ. eigenvalues --   -0.87554  -0.83538  -0.81323  -0.80774  -0.80041
 Alpha  occ. eigenvalues --   -0.76654  -0.74219  -0.72032  -0.70615  -0.69074
 Alpha  occ. eigenvalues --   -0.68521  -0.67088  -0.66672  -0.65787  -0.65048
 Alpha  occ. eigenvalues --   -0.64324  -0.61615  -0.61005  -0.60899  -0.60295
 Alpha  occ. eigenvalues --   -0.59918  -0.58914  -0.58298  -0.57040  -0.56213
 Alpha  occ. eigenvalues --   -0.55184  -0.53840  -0.53430  -0.52740  -0.51600
 Alpha  occ. eigenvalues --   -0.51171  -0.49764  -0.49593  -0.46757  -0.46218
 Alpha  occ. eigenvalues --   -0.46170  -0.43842  -0.43679  -0.42152  -0.40800
 Alpha  occ. eigenvalues --   -0.40557
 Alpha virt. eigenvalues --    0.01931   0.02860   0.03161   0.03557   0.03875
 Alpha virt. eigenvalues --    0.04223   0.04416   0.04797   0.04841   0.05784
 Alpha virt. eigenvalues --    0.06077   0.06180   0.07329   0.07800   0.07981

 Mulliken charges:
               1
     1  H    0.534643
     2  O   -1.377576
     3  C    2.445600
     4  C   -0.831552
     5  O   -1.322460
     6  H    0.153303
     7  N    0.489245
     8  C    0.219079
     9  H    0.395681
    10  C   -0.455139
    11  H    0.151091
    12  H    0.054575
    13  C   -2.180014
    14  H    0.041732
    15  H    0.128314
    16  H   -0.040331
    17  N    1.771878
    18  C    0.647699
    19  H    0.254800
    20  C   -0.302340
    21  O   -1.533162
    22  H    0.088207
    23  N    0.679507
    24  C    0.082089
    25  H    0.439102
    26  C   -0.290606
    27  H    0.099406
    28  H    0.111918
    29  C   -1.784907
    30  H    0.000471
    31  H    0.051391
    32  H    0.004124
    33  N    1.727141
    34  C    0.793498
    35  H    0.155192
    36  C   -0.551691
    37  O   -1.418728
    38  H    0.238157
    39  H    0.228309
    40  H    0.102354
 Sum of Mulliken charges =  -0.00000

 Dipole moment (field-independent basis, Debye):
    X=             -7.6792    Y=             -0.0507    Z=              4.9292  Tot=              9.1252

 Test job not archived.
 1\1\GINC-SE332\SP\RHF\Aug-CC-pVDZ\C12H20N4O4\OHZDE\08-Apr-2025\0\\#t h
 f aug-cc-pvdz iop(5/13=1,5/36=2,99/5=2) pseudo=read geom=check guess=(
 read,tcheck) scf=(maxcycle=1)\\title\\0,1\H,0,5.68597,-0.98515,1.52287
 \O,0,6.26282,-1.06186,0.7244\C,0,5.46321,-0.81134,-0.34749\C,0,4.00529
 ,-0.59734,0.03377\O,0,5.8896,-0.79417,-1.47761\H,0,3.56374,-1.60925,0.
 11908\N,0,3.88366,0.02127,1.37439\C,0,3.14792,0.24752,-0.91902\H,0,4.4
 1729,0.89928,1.35609\C,0,2.45787,0.37461,1.43601\H,0,3.75996,1.03612,-
 1.37793\H,0,2.71489,-0.34145,-1.73688\C,0,2.04844,0.84769,0.00556\H,0,

 Normal termination of Gaussian 16 at Tue Apr  8 19:00:43 2025.
