 Gaussian 16, Revision C.01,

 ----------------------------------------------------------------------
 #t hf aug-cc-pvdz symm=none int=(grid=ultrafine) guess=(read,tcheck) s
 table=(opt,rrhf)
 ----------------------------------------------------------------------
 -----
 title
 -----
 Symbolic Z-matrix:
 Charge =  0 Multiplicity = 1

 SCF Done:  E(RHF) =  -897.259083058     A.U. after   16 cycles
 Normal termination of Gaussian 16 at Tue Apr  8 18:57:38 2025.
 Gaussian 16:  ES64L-G16RevC.01  3-Jul-2019

 ----------------------------------------------------------------------
 #t hf aug-cc-pvdz iop(5/13=1,5/36=2,99/5=2) pseudo=read geom=check gue
 ss=(read,tcheck) scf=(maxcycle=1)
 ----------------------------------------------------------------------
 -----
 title
 -----
 Structure from the checkpoint file:  "37Conf8_Rolipram_2_mol2.chk"
 Charge =  0 Multiplicity = 1

                         Standard orientation:
 ---------------------------------------------------------------------
 Center     Atomic      Atomic             Coordinates (Angstroms)
 Number     Number       Type             X           Y           Z
 ---------------------------------------------------------------------
      1          1           0       -0.444535    4.178510    0.188429
      2          6           0       -0.203466    3.124030    0.060819
      3          6           0       -1.226127    2.179071   -0.012421
      4          6           0        1.139423    2.734038   -0.037141
      5          8           0       -2.559947    2.456803    0.070359
      6          6           0       -0.892049    0.810970   -0.200431
      7          1           0        1.921824    3.493707    0.024589
      8          6           0        1.482342    1.395547   -0.211601
      9          6           0       -2.925585    3.819233    0.244579
     10          8           0       -1.941790   -0.051008   -0.277661
     11          6           0        0.450120    0.444269   -0.296591
     12          6           0        2.935051    0.970145   -0.237321
     13          1           0       -2.584994    4.441233   -0.600901
     14          1           0       -4.020595    3.832125    0.287869
     15          1           0       -2.516855    4.231643    1.183039
     16          6           0       -1.651822   -1.440919   -0.543591
     17          1           0        0.698409   -0.606522   -0.429091
     18          1           0        3.546612    1.843155   -0.504001
     19          6           0        3.390300    0.425815    1.152659
     20          6           0        3.211069   -0.226875   -1.165631
     21          1           0       -0.952012   -1.484189   -1.393831
     22          6           0       -2.991263   -2.125477   -0.879121
     23          6           0       -1.087403   -2.189949    0.690729
     24          1           0        2.781361    0.845666    1.965819
     25          1           0        4.450441    0.670623    1.347249
     26          7           0        3.188858   -1.005575    1.019499
     27          1           0        2.529359   -0.293884   -2.021361
     28          1           0        4.241140   -0.207936   -1.556051
     29          6           0        3.078648   -1.459225   -0.268231
     30          1           0       -3.126803   -2.273617   -1.958611
     31          1           0       -3.795172   -1.458536   -0.532151
     32          6           0       -3.000755   -3.430057   -0.069471
     33          1           0       -0.251784   -2.834180    0.373609
     34          1           0       -0.690342   -1.486860    1.435059
     35          6           0       -2.251734   -3.045238    1.212219
     36          1           0        3.187948   -1.654545    1.799319
     37          8           0        2.907936   -2.622485   -0.611261
     38          1           0       -4.016425   -3.808665    0.111539
     39          1           0       -2.444956   -4.218668   -0.603061
     40          1           0       -2.908063   -2.438347    1.856899
     41          1           0       -1.916655   -3.910438    1.800959
 ---------------------------------------------------------------------

 SCF Done:  E(RHF) =  -898.179090643     A.U. after    2 cycles

 The electronic state is 1-A.
 Alpha  occ. eigenvalues --  -20.56841 -20.56090 -20.50787 -15.52768 -11.35639
 Alpha  occ. eigenvalues --  -11.30370 -11.30174 -11.29536 -11.28792 -11.28686
 Alpha  occ. eigenvalues --  -11.26234 -11.25172 -11.24714 -11.24410 -11.23947
 Alpha  occ. eigenvalues --  -11.23771 -11.22452 -11.22377 -11.22361 -11.22308
 Alpha  occ. eigenvalues --   -1.49845  -1.47576  -1.44731  -1.26120  -1.15482
 Alpha  occ. eigenvalues --   -1.12020  -1.08006  -1.01862  -1.01046  -0.98577
 Alpha  occ. eigenvalues --   -0.96314  -0.95375  -0.94309  -0.86036  -0.84318
 Alpha  occ. eigenvalues --   -0.82026  -0.80318  -0.78135  -0.77400  -0.72773
 Alpha  occ. eigenvalues --   -0.71302  -0.69808  -0.68818  -0.67866  -0.66825
 Alpha  occ. eigenvalues --   -0.65269  -0.63609  -0.63492  -0.62488  -0.61511
 Alpha  occ. eigenvalues --   -0.60217  -0.59550  -0.59342  -0.58776  -0.57095
 Alpha  occ. eigenvalues --   -0.56641  -0.55501  -0.53403  -0.52606  -0.52244
 Alpha  occ. eigenvalues --   -0.51295  -0.50837  -0.48913  -0.48678  -0.48475
 Alpha  occ. eigenvalues --   -0.47884  -0.46821  -0.46310  -0.45496  -0.44583
 Alpha  occ. eigenvalues --   -0.41571  -0.41141  -0.33868  -0.29843
 Alpha virt. eigenvalues --    0.02575   0.02977   0.03220   0.03764   0.04071
 Alpha virt. eigenvalues --    0.04253   0.04492   0.04807   0.05355   0.06054
 Alpha virt. eigenvalues --    0.06577   0.07054   0.07097   0.07450   0.07831

 Mulliken charges:
               1
     1  H   -0.429115
     2  C    0.128020
     3  C    1.174045
     4  C   -0.177985
     5  O   -2.115629
     6  C    1.562789
     7  H   -0.374565
     8  C    1.753776
     9  C    0.100479
    10  O   -2.072138
    11  C    0.972351
    12  C   -0.892912
    13  H    0.212145
    14  H   -0.035386
    15  H    0.203247
    16  C    0.195532
    17  H   -0.482994
    18  H   -0.041271
    19  C   -0.377970
    20  C   -0.341994
    21  H    0.196534
    22  C   -0.239603
    23  C   -0.191846
    24  H    0.045539
    25  H    0.034145
    26  N    0.727334
    27  H    0.175349
    28  H    0.117283
    29  C    1.041794
    30  H    0.169120
    31  H    0.192485
    32  C   -0.203342
    33  H    0.109510
    34  H    0.075166
    35  C   -0.267363
    36  H    0.067091
    37  O   -1.531434
    38  H    0.111500
    39  H    0.127010
    40  H    0.133810
    41  H    0.149495
 Sum of Mulliken charges =  -0.00000

 Dipole moment (field-independent basis, Debye):
    X=              0.7570    Y=              3.6242    Z=              1.6486  Tot=              4.0528

 Test job not archived.
 1\1\GINC-SE132\SP\RHF\Aug-CC-pVDZ\C16H21N1O3\OHZDE\08-Apr-2025\0\\#t h
 f aug-cc-pvdz iop(5/13=1,5/36=2,99/5=2) pseudo=read geom=check guess=(
 read,tcheck) scf=(maxcycle=1)\\title\\0,1\H,0,-0.44454,4.17851,0.18843
 \C,0,-0.20347,3.12403,0.06082\C,0,-1.22613,2.17907,-0.01242\C,0,1.1394
 2,2.73404,-0.03714\O,0,-2.55995,2.4568,0.07036\C,0,-0.89205,0.81097,-0
 .20043\H,0,1.92182,3.49371,0.02459\C,0,1.48234,1.39555,-0.2116\C,0,-2.
 92559,3.81923,0.24458\O,0,-1.94179,-0.05101,-0.27766\C,0,0.45012,0.444
 27,-0.29659\C,0,2.93505,0.97015,-0.23732\H,0,-2.585,4.44123,-0.6009\H,

 Normal termination of Gaussian 16 at Tue Apr  8 18:59:13 2025.
