 Gaussian 16, Revision C.01,

 ----------------------------------------------------------------------
 #t hf aug-cc-pvdz symm=none int=(grid=ultrafine) guess=(read,tcheck) s
 table=(opt,rrhf)
 ----------------------------------------------------------------------
 -----
 title
 -----
 Symbolic Z-matrix:
 Charge =  0 Multiplicity = 1

 SCF Done:  E(RHF) =  -382.137136343     A.U. after   12 cycles

 1\1\GINC-SE337\Stability\RHF\Aug-CC-pVDZ\C7H14N2\OHZDE\08-Apr-2025\0\\
 #t hf aug-cc-pvdz symm=none int=(grid=ultrafine) guess=(read,tcheck) s
 table=(opt,rrhf)\\title\\0,1\H,0,-2.52593,-0.70436,0.50081\N,0,-2.0444
 6,-0.40714,-0.34871\C,0,-1.64003,0.99924,-0.21658\C,0,-0.9079,-1.29112
 ,-0.59452\H,0,-2.42369,1.51824,0.35523\H,0,-1.62593,1.4582,-1.22241\C,
 0,-0.25388,1.20111,0.45479\H,0,-1.28499,-2.32237,-0.65607\H,0,-0.51175
 ,-1.04926,-1.59681\C,0,0.25388,-1.20111,0.45479\H,0,-0.27793,2.13392,1
 .039\C,0,0.9079,1.29112,-0.59452\C,0,0.,0.,1.37472\H,0,0.27794,-2.1339

 Normal termination of Gaussian 16 at Tue Apr  8 17:11:19 2025.
 Gaussian 16:  ES64L-G16RevC.01  3-Jul-2019

 ----------------------------------------------------------------------
 #t hf aug-cc-pvdz iop(5/13=1,5/36=2,99/5=2) pseudo=read geom=check gue
 ss=(read,tcheck) scf=(maxcycle=1)
 ----------------------------------------------------------------------
 -----
 title
 -----
 Structure from the checkpoint file:  "37Conf8_Bispidin_6_mol1.chk"
 Charge =  0 Multiplicity = 1

                         Standard orientation:
 ---------------------------------------------------------------------
 Center     Atomic      Atomic             Coordinates (Angstroms)
 Number     Number       Type             X           Y           Z
 ---------------------------------------------------------------------
      1          1           0        2.525931    0.704359    0.500811
      2          7           0        2.044460    0.407139   -0.348709
      3          6           0        1.640030   -0.999241   -0.216579
      4          6           0        0.907901    1.291120   -0.594519
      5          1           0        2.423690   -1.518241    0.355231
      6          1           0        1.625930   -1.458201   -1.222409
      7          6           0        0.253880   -1.201110    0.454791
      8          1           0        1.284991    2.322370   -0.656069
      9          1           0        0.511751    1.049260   -1.596809
     10          6           0       -0.253879    1.201110    0.454791
     11          1           0        0.277929   -2.133920    1.039001
     12          6           0       -0.907900   -1.291120   -0.594519
     13          6           0        0.000000    0.000000    1.374721
     14          1           0       -0.277939    2.133920    1.039001
     15          6           0       -1.640029    0.999241   -0.216579
     16          1           0       -1.284991   -2.322370   -0.656069
     17          1           0       -0.511750   -1.049260   -1.596809
     18          7           0       -2.044460   -0.407139   -0.348709
     19          1           0       -0.865020   -0.168600    2.034891
     20          1           0        0.865010    0.168600    2.034891
     21          1           0       -2.423689    1.518241    0.355231
     22          1           0       -1.625929    1.458201   -1.222409
     23          1           0       -2.525930   -0.704359    0.500811
 ---------------------------------------------------------------------

 SCF Done:  E(RHF) =  -382.547481592     A.U. after    2 cycles

 The electronic state is 1-A.
 Alpha  occ. eigenvalues --  -15.48125 -15.48072 -11.25277 -11.25274 -11.25160
 Alpha  occ. eigenvalues --  -11.25157 -11.22968 -11.22956 -11.22890  -1.22168
 Alpha  occ. eigenvalues --   -1.19170  -1.05395  -1.03747  -0.93897  -0.90011
 Alpha  occ. eigenvalues --   -0.83696  -0.81884  -0.74079  -0.70267  -0.69201
 Alpha  occ. eigenvalues --   -0.65433  -0.63926  -0.60286  -0.57365  -0.56766
 Alpha  occ. eigenvalues --   -0.55941  -0.54891  -0.51981  -0.50988  -0.49441
 Alpha  occ. eigenvalues --   -0.49139  -0.47806  -0.44273  -0.39052  -0.37893
 Alpha virt. eigenvalues --    0.03234   0.03501   0.03774   0.04221   0.05248
 Alpha virt. eigenvalues --    0.05259   0.05444   0.06004   0.06125   0.08453
 Alpha virt. eigenvalues --    0.09144   0.09428   0.09706   0.09842   0.12791

 Mulliken charges:
               1
     1  H    0.456265
     2  N    0.602028
     3  C   -0.632972
     4  C   -0.858807
     5  H    0.054675
     6  H    0.080389
     7  C    0.098153
     8  H   -0.005944
     9  H    0.185666
    10  C    0.098146
    11  H    0.102633
    12  C   -0.858809
    13  C   -0.243244
    14  H    0.102633
    15  C   -0.632971
    16  H   -0.005944
    17  H    0.185666
    18  N    0.602028
    19  H    0.039551
    20  H    0.039527
    21  H    0.054674
    22  H    0.080389
    23  H    0.456265
 Sum of Mulliken charges =  -0.00000

 Dipole moment (field-independent basis, Debye):
    X=              0.0000    Y=              0.0000    Z=              2.2186  Tot=              2.2186

 Test job not archived.
 1\1\GINC-SE337\SP\RHF\Aug-CC-pVDZ\C7H14N2\OHZDE\08-Apr-2025\0\\#t hf a
 ug-cc-pvdz iop(5/13=1,5/36=2,99/5=2) pseudo=read geom=check guess=(rea
 d,tcheck) scf=(maxcycle=1)\\title\\0,1\H,0,-2.52593,-0.70436,0.50081\N
 ,0,-2.04446,-0.40714,-0.34871\C,0,-1.64003,0.99924,-0.21658\C,0,-0.907
 9,-1.29112,-0.59452\H,0,-2.42369,1.51824,0.35523\H,0,-1.62593,1.4582,-
 1.22241\C,0,-0.25388,1.20111,0.45479\H,0,-1.28499,-2.32237,-0.65607\H,
 0,-0.51175,-1.04926,-1.59681\C,0,0.25388,-1.20111,0.45479\H,0,-0.27793
 ,2.13392,1.039\C,0,0.9079,1.29112,-0.59452\C,0,0.,0.,1.37472\H,0,0.277

 Normal termination of Gaussian 16 at Tue Apr  8 17:11:33 2025.
