 Gaussian 16, Revision C.01,

 ----------------------------------------------------------------------
 #t hf aug-cc-pvdz symm=none int=(grid=ultrafine) guess=(read,tcheck) s
 table=(opt,rrhf)
 ----------------------------------------------------------------------
 -----
 title
 -----
 Symbolic Z-matrix:
 Charge =  0 Multiplicity = 1

 SCF Done:  E(RHF) =  -1667.17832830     A.U. after   12 cycles
 Normal termination of Gaussian 16 at Tue Apr  8 18:00:50 2025.
 Gaussian 16:  ES64L-G16RevC.01  3-Jul-2019

 ----------------------------------------------------------------------
 #t hf aug-cc-pvdz iop(5/13=1,5/36=2,99/5=2) pseudo=read geom=check gue
 ss=(read,tcheck) scf=(maxcycle=1)
 ----------------------------------------------------------------------
 -----
 title
 -----
 Structure from the checkpoint file:  "37Conf8_N_iprit_4_mol1.chk"
 Charge =  0 Multiplicity = 1

                         Standard orientation:
 ---------------------------------------------------------------------
 Center     Atomic      Atomic             Coordinates (Angstroms)
 Number     Number       Type             X           Y           Z
 ---------------------------------------------------------------------
      1          1           0        0.705490   -0.227652   -1.628921
      2          6           0        0.441842    0.573418   -0.918301
      3          6           0        1.723144    1.350855   -0.652611
      4          7           0       -0.163030   -0.021960    0.264689
      5          1           0       -0.269076    1.235591   -1.444921
      6         17           0        1.432049    2.866375    0.292129
      7          1           0        2.188235    1.665203   -1.596371
      8          1           0        2.432743    0.752472   -0.071411
      9          6           0       -0.211914   -1.474250    0.319089
     10          6           0       -1.281468    0.701254    0.847109
     11          6           0        1.045184   -2.131273    0.875969
     12          1           0       -0.457635   -1.928919   -0.660061
     13          1           0       -1.029445   -1.761787    0.998249
     14          6           0       -2.544507    0.869127    0.003549
     15          1           0       -0.942155    1.722293    1.092629
     16          1           0       -1.546829    0.221324    1.801079
     17         17           0        2.444934   -2.108668   -0.272101
     18          1           0        0.860031   -3.191783    1.090069
     19          1           0        1.384665   -1.619614    1.784589
     20         17           0       -3.383752   -0.691450   -0.351251
     21          1           0       -2.333786    1.326517   -0.971031
     22          1           0       -3.269645    1.498909    0.535239
 ---------------------------------------------------------------------

 SCF Done:  E(RHF) =  -1667.71536590     A.U. after    2 cycles

 The electronic state is 1-A.
 Alpha  occ. eigenvalues -- -105.55928-105.55925-105.55298 -15.50165 -11.31015
 Alpha  occ. eigenvalues --  -11.30925 -11.30224 -11.28307 -11.28278 -11.28168
 Alpha  occ. eigenvalues --  -10.60760 -10.60754 -10.60132  -7.77695  -7.77693
 Alpha  occ. eigenvalues --   -7.77350  -7.77341  -7.77333  -7.77325  -7.77068
 Alpha  occ. eigenvalues --   -7.76722  -7.76701  -1.24978  -1.11598  -1.11303
 Alpha  occ. eigenvalues --   -1.09547  -1.00369  -1.00024  -0.93445  -0.86270
 Alpha  occ. eigenvalues --   -0.85485  -0.79260  -0.70902  -0.69476  -0.66682
 Alpha  occ. eigenvalues --   -0.64065  -0.62988  -0.61341  -0.60405  -0.58473
 Alpha  occ. eigenvalues --   -0.57815  -0.56127  -0.55472  -0.52246  -0.51448
 Alpha  occ. eigenvalues --   -0.50878  -0.46055  -0.45780  -0.45061  -0.44764
 Alpha  occ. eigenvalues --   -0.44190  -0.43729  -0.39013
 Alpha virt. eigenvalues --    0.03496   0.03712   0.04010   0.04448   0.05160
 Alpha virt. eigenvalues --    0.05594   0.05768   0.06300   0.06824   0.08788
 Alpha virt. eigenvalues --    0.09350   0.09800   0.10484   0.11115   0.11807

 Mulliken charges:
               1
     1  H    0.191185
     2  C   -0.799775
     3  C   -0.358005
     4  N    1.478769
     5  H    0.013500
     6  Cl  -0.088736
     7  H    0.226170
     8  H    0.296306
     9  C   -0.517351
    10  C   -0.723935
    11  C   -0.555027
    12  H    0.110661
    13  H    0.094939
    14  C   -0.417321
    15  H    0.176146
    16  H    0.096557
    17  Cl  -0.092476
    18  H    0.216088
    19  H    0.235909
    20  Cl  -0.088660
    21  H    0.288109
    22  H    0.216948
 Sum of Mulliken charges =  -0.00000

 Dipole moment (field-independent basis, Debye):
    X=             -0.9556    Y=             -0.2898    Z=              0.3503  Tot=              1.0583

 Test job not archived.
 1\1\GINC-SE331\SP\RHF\Aug-CC-pVDZ\C6H12Cl3N1\OHZDE\08-Apr-2025\0\\#t h
 f aug-cc-pvdz iop(5/13=1,5/36=2,99/5=2) pseudo=read geom=check guess=(
 read,tcheck) scf=(maxcycle=1)\\title\\0,1\H,0,0.70549,-0.22765,-1.6289
 2\C,0,0.44184,0.57342,-0.9183\C,0,1.72314,1.35086,-0.65261\N,0,-0.1630
 3,-0.02196,0.26469\H,0,-0.26908,1.23559,-1.44492\Cl,0,1.43204,2.86638,
 0.29213\H,0,2.18823,1.66521,-1.59637\H,0,2.43274,0.75248,-0.07141\C,0,
 -0.21191,-1.47425,0.31909\C,0,-1.28147,0.70125,0.84711\C,0,1.04519,-2.
 13127,0.87597\H,0,-0.45763,-1.92892,-0.66006\H,0,-1.02944,-1.76179,0.9

 Normal termination of Gaussian 16 at Tue Apr  8 18:01:04 2025.
