 Gaussian 16, Revision C.01,

 ----------------------------------------------------------------------
 #t hf aug-cc-pvdz symm=none int=(grid=ultrafine) guess=(read,tcheck) s
 table=(opt,rrhf)
 ----------------------------------------------------------------------
 -----
 title
 -----
 Symbolic Z-matrix:
 Charge =  0 Multiplicity = 1

 SCF Done:  E(RHF) =  -1112.30013951     A.U. after   16 cycles
 Normal termination of Gaussian 16 at Tue Apr  8 17:35:49 2025.
 Gaussian 16:  ES64L-G16RevC.01  3-Jul-2019

 ----------------------------------------------------------------------
 #t hf aug-cc-pvdz iop(5/13=1,5/36=2,99/5=2) pseudo=read geom=check gue
 ss=(read,tcheck) scf=(maxcycle=1)
 ----------------------------------------------------------------------
 -----
 title
 -----
 Structure from the checkpoint file:  "37Conf8_Cimetidine_6_mol1.chk"
 Charge =  0 Multiplicity = 1

                         Standard orientation:
 ---------------------------------------------------------------------
 Center     Atomic      Atomic             Coordinates (Angstroms)
 Number     Number       Type             X           Y           Z
 ---------------------------------------------------------------------
      1          7           0       -0.340216    2.945079   -1.067090
      2          6           0       -1.071334    2.123628   -0.643040
      3          7           0       -1.905043    1.322807   -0.021840
      4          6           0       -2.220091    0.104166   -0.408640
      5          7           0       -1.639990   -0.616623   -1.414250
      6          7           0       -3.288160   -0.496426    0.198530
      7          6           0       -0.210590   -0.642221   -1.706390
      8          1           0       -2.146228   -1.461544   -1.670050
      9          6           0       -4.052581    0.192333    1.225690
     10          1           0       -3.216268   -1.504896    0.294130
     11          6           0        0.430933   -1.971460   -1.295940
     12          1           0       -0.053900   -0.483140   -2.786290
     13          1           0        0.268729    0.192500   -1.186160
     14         16           0        0.290653   -2.366720    0.479240
     15          1           0       -0.046256   -2.806550   -1.833500
     16          1           0        1.495393   -1.958568   -1.571130
     17          6           0        1.892192   -1.673047    1.115560
     18          6           0        2.197770   -0.321447    0.589380
     19          1           0        2.692813   -2.373566    0.846200
     20          1           0        1.766032   -1.684827    2.206850
     21          7           0        2.944610   -0.169585   -0.569540
     22          6           0        1.709858    0.903753    1.016940
     23          6           0        2.899627    1.122205   -0.847060
     24          7           0        2.183316    1.811373    0.090690
     25          6           0        0.860397    1.287371    2.176340
     26          1           0        3.363397    1.609525   -1.699830
     27          1           0        1.802815    2.748523   -0.037950
     28          1           0       -0.119003    1.675490    1.857800
     29          1           0        1.344446    2.056742    2.797790
     30          1           0        0.676409    0.409531    2.808790
     31          1           0       -4.345303    1.182602    0.858530
     32          1           0       -4.955560   -0.393069    1.439580
     33          1           0       -3.476681    0.330694    2.154850
 ---------------------------------------------------------------------

 SCF Done:  E(RHF) =  -1113.08853273     A.U. after    2 cycles

 The electronic state is 1-A.
 Alpha  occ. eigenvalues --  -93.94288 -15.55044 -15.54926 -15.54690 -15.50677
 Alpha  occ. eigenvalues --  -15.48378 -15.47922 -11.40564 -11.29940 -11.29680
 Alpha  occ. eigenvalues --  -11.28810 -11.28447 -11.27368 -11.27338 -11.26690
 Alpha  occ. eigenvalues --  -11.24777 -11.24149  -8.22346  -6.20173  -6.20019
 Alpha  occ. eigenvalues --   -6.19817  -1.34478  -1.32832  -1.23756  -1.23359
 Alpha  occ. eigenvalues --   -1.17733  -1.16862  -1.10044  -1.05811  -1.01967
 Alpha  occ. eigenvalues --   -0.97887  -0.94536  -0.91901  -0.90652  -0.84876
 Alpha  occ. eigenvalues --   -0.83348  -0.81600  -0.77581  -0.76748  -0.73831
 Alpha  occ. eigenvalues --   -0.70139  -0.69102  -0.65724  -0.65460  -0.63560
 Alpha  occ. eigenvalues --   -0.62779  -0.60344  -0.59603  -0.59357  -0.58664
 Alpha  occ. eigenvalues --   -0.58060  -0.57665  -0.57415  -0.56713  -0.56032
 Alpha  occ. eigenvalues --   -0.55499  -0.55165  -0.51630  -0.49901  -0.47728
 Alpha  occ. eigenvalues --   -0.45583  -0.44366  -0.43810  -0.42698  -0.40422
 Alpha  occ. eigenvalues --   -0.35544  -0.31013
 Alpha virt. eigenvalues --    0.02312   0.03126   0.03449   0.03820   0.04235
 Alpha virt. eigenvalues --    0.04802   0.04865   0.05445   0.05733   0.06842
 Alpha virt. eigenvalues --    0.07133   0.07436   0.08304   0.08963   0.09613

 Mulliken charges:
               1
     1  N    1.259239
     2  C   -1.916287
     3  N    1.333868
     4  C   -3.557507
     5  N    1.036060
     6  N    1.068656
     7  C   -0.278755
     8  H    0.100786
     9  C   -0.193349
    10  H    0.190970
    11  C   -0.594176
    12  H    0.097290
    13  H    0.769743
    14  S    0.548557
    15  H    0.065798
    16  H    0.287588
    17  C   -0.923105
    18  C   -0.779405
    19  H    0.128057
    20  H    0.201652
    21  N    1.313287
    22  C   -0.906365
    23  C   -0.958134
    24  N    1.638650
    25  C   -0.736215
    26  H   -0.266056
    27  H    0.049216
    28  H    0.207423
    29  H    0.201233
    30  H    0.222512
    31  H    0.182149
    32  H    0.030306
    33  H    0.176315
 Sum of Mulliken charges =   0.00000

 Dipole moment (field-independent basis, Debye):
    X=             -3.5323    Y=             -3.6769    Z=              1.3646  Tot=              5.2781

 Test job not archived.
 1\1\GINC-SE454\SP\RHF\Aug-CC-pVDZ\C10H16N6S1\OHZDE\08-Apr-2025\0\\#t h
 f aug-cc-pvdz iop(5/13=1,5/36=2,99/5=2) pseudo=read geom=check guess=(
 read,tcheck) scf=(maxcycle=1)\\title\\0,1\N,0,-0.34021,2.94508,-1.0670
 9\C,0,-1.07133,2.12363,-0.64304\N,0,-1.90504,1.32281,-0.02184\C,0,-2.2
 2009,0.10417,-0.40864\N,0,-1.63999,-0.61662,-1.41425\N,0,-3.28816,-0.4
 9642,0.19853\C,0,-0.21059,-0.64222,-1.70639\H,0,-2.14623,-1.46154,-1.6
 7005\C,0,-4.05258,0.19234,1.22569\H,0,-3.21627,-1.50489,0.29413\C,0,0.
 43093,-1.97146,-1.29594\H,0,-0.0539,-0.48314,-2.78629\H,0,0.26873,0.19

 Normal termination of Gaussian 16 at Tue Apr  8 17:36:44 2025.
