 Gaussian 16, Revision C.01,

 ----------------------------------------------------------------------
 #t hf aug-cc-pvdz symm=none int=(grid=ultrafine) guess=(read,tcheck) s
 table=(opt,rrhf)
 ----------------------------------------------------------------------
 -----
 title
 -----
 Symbolic Z-matrix:
 Charge =  0 Multiplicity = 1

 SCF Done:  E(RHF) =  -822.382380918     A.U. after   17 cycles
 Normal termination of Gaussian 16 at Tue Apr  8 18:41:43 2025.
 Gaussian 16:  ES64L-G16RevC.01  3-Jul-2019

 ----------------------------------------------------------------------
 #t hf aug-cc-pvdz iop(5/13=1,5/36=2,99/5=2) pseudo=read geom=check gue
 ss=(read,tcheck) scf=(maxcycle=1)
 ----------------------------------------------------------------------
 -----
 title
 -----
 Structure from the checkpoint file:  "37Conf8_Propranolol_8_mol2.chk"
 Charge =  0 Multiplicity = 1

                         Standard orientation:
 ---------------------------------------------------------------------
 Center     Atomic      Atomic             Coordinates (Angstroms)
 Number     Number       Type             X           Y           Z
 ---------------------------------------------------------------------
      1          1           0       -4.075160   -1.165730   -0.233521
      2          8           0       -3.810549   -1.642550   -1.054471
      3          6           0       -2.623270   -0.959580   -1.440341
      4          6           0       -2.791640    0.547670   -1.191111
      5          6           0       -1.455209   -1.573410   -0.665881
      6          1           0       -2.476490   -1.129170   -2.519271
      7          7           0       -3.240980    0.775860    0.187109
      8          1           0       -3.566970    0.906780   -1.883631
      9          1           0       -1.856130    1.079400   -1.433401
     10          6           0       -2.212790    1.218860    1.149879
     11          1           0       -4.012260    1.444540    0.202249
     12          6           0       -1.696690    2.636620    0.878619
     13          6           0       -2.775270    1.092570    2.562819
     14          1           0       -1.364110    0.524190    1.048979
     15          1           0       -1.296410    2.734800   -0.140361
     16          1           0       -2.507930    3.372050    1.003849
     17          1           0       -0.888660    2.900980    1.576189
     18          1           0       -3.646170    1.755370    2.693609
     19          1           0       -3.099640    0.062280    2.762819
     20          1           0       -2.024100    1.378330    3.312409
     21          8           0       -0.267230   -0.832400   -0.959921
     22          1           0       -1.335399   -2.632670   -0.948421
     23          1           0       -1.675589   -1.529270    0.415259
     24          6           0        0.834750   -1.051120   -0.186731
     25          6           0        0.943421   -2.069390    0.745639
     26          6           0        1.912190   -0.129550   -0.389181
     27          1           0        0.127501   -2.774750    0.894649
     28          6           0        2.129531   -2.207750    1.504559
     29          6           0        1.830010    0.931390   -1.324791
     30          6           0        3.104190   -0.287650    0.391149
     31          1           0        2.194841   -3.019520    2.231129
     32          6           0        3.187690   -1.343710    1.337789
     33          1           0        0.920970    1.040060   -1.915881
     34          6           0        2.884470    1.807200   -1.489591
     35          6           0        4.167540    0.631160    0.192639
     36          1           0        4.099701   -1.455900    1.926829
     37          1           0        2.809110    2.620320   -2.213511
     38          6           0        4.063290    1.655680   -0.725051
     39          1           0        5.076690    0.510210    0.785999
     40          1           0        4.891990    2.352320   -0.863101
 ---------------------------------------------------------------------

 SCF Done:  E(RHF) =  -823.232626514     A.U. after    2 cycles

 The electronic state is 1-A.
 Alpha  occ. eigenvalues --  -20.57703 -20.53931 -15.49616 -11.31485 -11.29379
 Alpha  occ. eigenvalues --  -11.28712 -11.26676 -11.26266 -11.25467 -11.25070
 Alpha  occ. eigenvalues --  -11.24999 -11.24861 -11.24683 -11.24582 -11.24498
 Alpha  occ. eigenvalues --  -11.24014 -11.23830 -11.22863 -11.22800  -1.50226
 Alpha  occ. eigenvalues --   -1.43950  -1.21402  -1.17624  -1.11030  -1.06302
 Alpha  occ. eigenvalues --   -1.04588  -1.01690  -1.00851  -0.97542  -0.93938
 Alpha  occ. eigenvalues --   -0.92752  -0.86090  -0.85496  -0.82301  -0.80920
 Alpha  occ. eigenvalues --   -0.79809  -0.73196  -0.72395  -0.70475  -0.70090
 Alpha  occ. eigenvalues --   -0.67115  -0.66849  -0.65758  -0.64801  -0.64446
 Alpha  occ. eigenvalues --   -0.61677  -0.61455  -0.61244  -0.59912  -0.58571
 Alpha  occ. eigenvalues --   -0.57925  -0.57563  -0.55273  -0.54645  -0.54441
 Alpha  occ. eigenvalues --   -0.53614  -0.52891  -0.51223  -0.50643  -0.49967
 Alpha  occ. eigenvalues --   -0.49864  -0.48945  -0.48447  -0.47363  -0.45060
 Alpha  occ. eigenvalues --   -0.44302  -0.40941  -0.37692  -0.33337  -0.28813
 Alpha virt. eigenvalues --    0.02712   0.03073   0.03249   0.03703   0.04104
 Alpha virt. eigenvalues --    0.04325   0.04678   0.05095   0.05512   0.06094
 Alpha virt. eigenvalues --    0.06473   0.07156   0.07365   0.07876   0.08335

 Mulliken charges:
               1
     1  H    0.373119
     2  O   -1.489197
     3  C    0.776376
     4  C   -0.372805
     5  C    0.274616
     6  H    0.139012
     7  N    0.522086
     8  H    0.027352
     9  H    0.181997
    10  C   -1.920100
    11  H    0.368683
    12  C   -0.080074
    13  C    0.011963
    14  H   -0.009613
    15  H    0.119622
    16  H    0.194028
    17  H    0.209807
    18  H    0.174447
    19  H    0.174712
    20  H    0.188582
    21  O   -2.001281
    22  H    0.021321
    23  H    0.339399
    24  C    1.512165
    25  C   -0.693925
    26  C    1.846288
    27  H   -0.416992
    28  C    0.028775
    29  C    0.259643
    30  C    1.510762
    31  H   -0.257707
    32  C   -0.037887
    33  H   -0.382238
    34  C   -0.423625
    35  C    0.151597
    36  H   -0.311963
    37  H   -0.259669
    38  C   -0.207820
    39  H   -0.306079
    40  H   -0.235375
 Sum of Mulliken charges =  -0.00000

 Dipole moment (field-independent basis, Debye):
    X=              0.3783    Y=              2.0801    Z=              1.0601  Tot=              2.3651

 Test job not archived.
 1\1\GINC-SE141\SP\RHF\Aug-CC-pVDZ\C16H21N1O2\OHZDE\08-Apr-2025\0\\#t h
 f aug-cc-pvdz iop(5/13=1,5/36=2,99/5=2) pseudo=read geom=check guess=(
 read,tcheck) scf=(maxcycle=1)\\title\\0,1\H,0,-4.07516,-1.16573,-0.233
 52\O,0,-3.81055,-1.64255,-1.05447\C,0,-2.62327,-0.95958,-1.44034\C,0,-
 2.79164,0.54767,-1.19111\C,0,-1.45521,-1.57341,-0.66588\H,0,-2.47649,-
 1.12917,-2.51927\N,0,-3.24098,0.77586,0.18711\H,0,-3.56697,0.90678,-1.
 88363\H,0,-1.85613,1.0794,-1.4334\C,0,-2.21279,1.21886,1.14988\H,0,-4.
 01226,1.44454,0.20225\C,0,-1.69669,2.63662,0.87862\C,0,-2.77527,1.0925

 Normal termination of Gaussian 16 at Tue Apr  8 18:43:08 2025.
