 Gaussian 16, Revision C.01,

 ----------------------------------------------------------------------
 #t hf aug-cc-pvdz symm=none int=(grid=ultrafine) guess=(read,tcheck) s
 table=(opt,rrhf)
 ----------------------------------------------------------------------
 -----
 title
 -----
 Symbolic Z-matrix:
 Charge =  0 Multiplicity = 1

 SCF Done:  E(RHF) =  -914.173278131     A.U. after   14 cycles
 Normal termination of Gaussian 16 at Tue Apr  8 19:06:41 2025.
 Gaussian 16:  ES64L-G16RevC.01  3-Jul-2019

 ----------------------------------------------------------------------
 #t hf aug-cc-pvdz iop(5/13=1,5/36=2,99/5=2) pseudo=read geom=check gue
 ss=(read,tcheck) scf=(maxcycle=1)
 ----------------------------------------------------------------------
 -----
 title
 -----
 Structure from the checkpoint file:  "37Conf8_shiepox_depox_7_mol1.chk"
 Charge =  0 Multiplicity = 1

                         Standard orientation:
 ---------------------------------------------------------------------
 Center     Atomic      Atomic             Coordinates (Angstroms)
 Number     Number       Type             X           Y           Z
 ---------------------------------------------------------------------
      1          8           0        0.043481   -1.769770   -1.599030
      2          6           0       -0.006809   -0.873900   -0.784060
      3          6           0       -1.177159   -0.672631    0.196310
      4          6           0        1.083210    0.169750   -0.571960
      5          8           0       -0.734559   -0.854790    1.532110
      6          8           0       -1.634060    0.665589   -0.013470
      7          6           0       -2.419479   -1.523521   -0.061090
      8          1           0        0.778120    1.083700   -1.116640
      9          8           0        2.347860   -0.306439   -0.986590
     10          6           0        1.260980    0.466830    0.941360
     11          6           0        0.675831   -0.678780    1.762730
     12          6           0       -3.089160    0.661999   -0.126810
     13          1           0       -2.467999   -2.391481    0.605200
     14          1           0       -2.439599   -1.857601   -1.112670
     15          8           0       -3.496629   -0.646852    0.257980
     16          6           0        3.311240    0.359781   -0.160480
     17          1           0        0.795170    1.424890    1.220600
     18          8           0        2.672650    0.508581    1.129100
     19          1           0        0.784941   -0.493700    2.838970
     20          1           0        1.226551   -1.603800    1.510280
     21          6           0       -3.666540    1.656238    0.862640
     22          6           0       -3.459170    0.962588   -1.576630
     23          6           0        4.516521   -0.545699   -0.009320
     24          6           0        3.659590    1.736571   -0.724180
     25          1           0       -3.328901    2.672369    0.620410
     26          1           0       -4.763650    1.629838    0.820340
     27          1           0       -3.338050    1.394739    1.875690
     28          1           0       -3.045620    0.196929   -2.246680
     29          1           0       -3.056620    1.939469   -1.876310
     30          1           0       -4.551510    0.979078   -1.689220
     31          1           0        5.003051   -0.691938   -0.982410
     32          1           0        4.198101   -1.518699    0.383990
     33          1           0        5.238360   -0.093978    0.683210
     34          1           0        4.128830    1.634341   -1.711960
     35          1           0        2.758929    2.357601   -0.825130
     36          1           0        4.355630    2.252331   -0.049560
 ---------------------------------------------------------------------

 SCF Done:  E(RHF) =  -915.095755179     A.U. after    2 cycles

 The electronic state is 1-A.
 Alpha  occ. eigenvalues --  -20.57236 -20.57013 -20.56903 -20.56496 -20.56433
 Alpha  occ. eigenvalues --  -20.56269 -11.37146 -11.36016 -11.35926 -11.35884
 Alpha  occ. eigenvalues --  -11.31742 -11.31205 -11.30451 -11.29939 -11.24027
 Alpha  occ. eigenvalues --  -11.23865 -11.23546 -11.23491  -1.54306  -1.53151
 Alpha  occ. eigenvalues --   -1.49104  -1.47966  -1.43595  -1.42997  -1.11039
 Alpha  occ. eigenvalues --   -1.09167  -1.02616  -1.01350  -0.96641  -0.96062
 Alpha  occ. eigenvalues --   -0.94888  -0.88701  -0.86451  -0.81408  -0.80810
 Alpha  occ. eigenvalues --   -0.75962  -0.74639  -0.72152  -0.69789  -0.69691
 Alpha  occ. eigenvalues --   -0.67718  -0.66756  -0.65108  -0.64083  -0.63209
 Alpha  occ. eigenvalues --   -0.62700  -0.61939  -0.60798  -0.59282  -0.57217
 Alpha  occ. eigenvalues --   -0.56683  -0.56310  -0.55687  -0.55070  -0.54639
 Alpha  occ. eigenvalues --   -0.54075  -0.53932  -0.53060  -0.52761  -0.51909
 Alpha  occ. eigenvalues --   -0.51626  -0.51514  -0.49387  -0.46995  -0.46649
 Alpha  occ. eigenvalues --   -0.44996  -0.43399  -0.42591  -0.40104
 Alpha virt. eigenvalues --    0.02899   0.03399   0.03583   0.03958   0.04526
 Alpha virt. eigenvalues --    0.04796   0.04870   0.05497   0.05829   0.06674
 Alpha virt. eigenvalues --    0.07054   0.07308   0.07794   0.08270   0.08845

 Mulliken charges:
               1
     1  O   -1.667491
     2  C    1.728514
     3  C    1.397873
     4  C    0.172972
     5  O   -1.783997
     6  O   -1.678461
     7  C    0.652512
     8  H    0.273905
     9  O   -1.851555
    10  C    0.032279
    11  C    0.634390
    12  C    1.447686
    13  H    0.100740
    14  H    0.182070
    15  O   -1.644306
    16  C    1.328967
    17  H    0.079962
    18  O   -1.804373
    19  H    0.058504
    20  H    0.257419
    21  C   -0.219430
    22  C   -0.270844
    23  C   -0.062138
    24  C   -0.271699
    25  H    0.289072
    26  H    0.228800
    27  H    0.254780
    28  H    0.205531
    29  H    0.247658
    30  H    0.223400
    31  H    0.274737
    32  H    0.235702
    33  H    0.267922
    34  H    0.250471
    35  H    0.157602
    36  H    0.270827
 Sum of Mulliken charges =   0.00000

 Dipole moment (field-independent basis, Debye):
    X=              0.4985    Y=              2.6238    Z=              0.2533  Tot=              2.6828

 Test job not archived.
 1\1\GINC-SE186\SP\RHF\Aug-CC-pVDZ\C12H18O6\OHZDE\08-Apr-2025\0\\#t hf
 aug-cc-pvdz iop(5/13=1,5/36=2,99/5=2) pseudo=read geom=check guess=(re
 ad,tcheck) scf=(maxcycle=1)\\title\\0,1\O,0,0.04348,-1.76977,-1.59903\
 C,0,-0.00681,-0.8739,-0.78406\C,0,-1.17716,-0.67263,0.19631\C,0,1.0832
 1,0.16975,-0.57196\O,0,-0.73456,-0.85479,1.53211\O,0,-1.63406,0.66559,
 -0.01347\C,0,-2.41948,-1.52352,-0.06109\H,0,0.77812,1.0837,-1.11664\O,
 0,2.34786,-0.30644,-0.98659\C,0,1.26098,0.46683,0.94136\C,0,0.67583,-0
 .67878,1.76273\C,0,-3.08916,0.662,-0.12681\H,0,-2.468,-2.39148,0.6052\

 Normal termination of Gaussian 16 at Tue Apr  8 19:07:47 2025.
