 Gaussian 16, Revision C.01,

 ----------------------------------------------------------------------
 #t hf aug-cc-pvdz symm=none int=(grid=ultrafine) guess=(read,tcheck) s
 table=(opt,rrhf)
 ----------------------------------------------------------------------
 -----
 title
 -----
 Symbolic Z-matrix:
 Charge =  0 Multiplicity = 1

 SCF Done:  E(RHF) =  -1153.32424716     A.U. after   16 cycles
 Normal termination of Gaussian 16 at Tue Apr  8 18:26:53 2025.
 Gaussian 16:  ES64L-G16RevC.01  3-Jul-2019

 ----------------------------------------------------------------------
 #t hf aug-cc-pvdz iop(5/13=1,5/36=2,99/5=2) pseudo=read geom=check gue
 ss=(read,tcheck) scf=(maxcycle=1)
 ----------------------------------------------------------------------
 -----
 title
 -----
 Structure from the checkpoint file:  "37Conf8_Pyridoxalphosphate_5_mol1.chk"
 Charge =  0 Multiplicity = 1

                         Standard orientation:
 ---------------------------------------------------------------------
 Center     Atomic      Atomic             Coordinates (Angstroms)
 Number     Number       Type             X           Y           Z
 ---------------------------------------------------------------------
      1          1           0       -3.771890    1.383128   -1.073962
      2          8           0       -2.902170    1.651549   -0.725482
      3          6           0       -2.308120    0.564839   -0.159102
      4          6           0       -1.035920    0.720250    0.433728
      5          6           0       -2.932659   -0.701241   -0.187082
      6          6           0       -0.472771    2.082030    0.461108
      7          6           0       -0.434979   -0.432970    0.992388
      8          7           0       -2.354248   -1.769681    0.364398
      9          6           0       -4.273809   -0.875432   -0.842052
     10          8           0        0.697929    2.397681    0.662738
     11          1           0       -1.219591    2.885440    0.290528
     12          6           0       -1.151558   -1.627230    0.937938
     13          6           0        0.925431   -0.471019    1.647808
     14          1           0       -5.048729   -0.239413   -0.379602
     15          1           0       -4.587378   -1.919522   -0.734942
     16          1           0       -4.237729   -0.639032   -1.919222
     17          1           0       -0.720188   -2.530450    1.379508
     18          8           0        1.929261   -1.065248    0.790928
     19          1           0        0.885951   -1.139279    2.518358
     20          1           0        1.253160    0.521601    1.982798
     21         15           0        2.387831   -0.273868   -0.546182
     22          8           0        2.988410    1.110072   -0.029872
     23          8           0        3.714011   -1.099857   -0.899412
     24          8           0        1.366011   -0.200499   -1.616192
     25          1           0        2.233440    1.709032    0.216398
     26          1           0        3.633921   -1.440647   -1.808012
 ---------------------------------------------------------------------

 SCF Done:  E(RHF) =  -1154.17158723     A.U. after    2 cycles

 The electronic state is 1-A.
 Alpha  occ. eigenvalues --  -84.44922 -20.61905 -20.58689 -20.57972 -20.57855
 Alpha  occ. eigenvalues --  -20.57022 -20.49829 -15.53811 -11.38233 -11.35018
 Alpha  occ. eigenvalues --  -11.32600 -11.31017 -11.29225 -11.29164 -11.28656
 Alpha  occ. eigenvalues --  -11.26832  -6.89636  -4.43702  -4.43192  -4.43076
 Alpha  occ. eigenvalues --   -1.54305  -1.53375  -1.50364  -1.46727  -1.45543
 Alpha  occ. eigenvalues --   -1.37458  -1.28463  -1.13833  -1.08715  -1.03221
 Alpha  occ. eigenvalues --   -0.95138  -0.94612  -0.88557  -0.84066  -0.81947
 Alpha  occ. eigenvalues --   -0.79464  -0.75348  -0.72303  -0.71515  -0.69521
 Alpha  occ. eigenvalues --   -0.67028  -0.66332  -0.65879  -0.65585  -0.64227
 Alpha  occ. eigenvalues --   -0.63306  -0.62136  -0.60881  -0.59627  -0.58170
 Alpha  occ. eigenvalues --   -0.57769  -0.56727  -0.55515  -0.55082  -0.54393
 Alpha  occ. eigenvalues --   -0.53226  -0.50845  -0.49505  -0.48821  -0.45234
 Alpha  occ. eigenvalues --   -0.44777  -0.43829  -0.41179  -0.35012
 Alpha virt. eigenvalues --    0.01638   0.02328   0.03494   0.03711   0.04408
 Alpha virt. eigenvalues --    0.04696   0.05012   0.05205   0.06926   0.07707
 Alpha virt. eigenvalues --    0.07988   0.08479   0.09508   0.09872   0.10400

 Mulliken charges:
               1
     1  H    0.420776
     2  O   -1.991709
     3  C    1.709392
     4  C    1.314738
     5  C   -1.866077
     6  C    0.766691
     7  C    1.409323
     8  N    1.518075
     9  C   -0.492005
    10  O   -1.510263
    11  H   -0.043370
    12  C   -1.702690
    13  C    0.459747
    14  H    0.346594
    15  H    0.076530
    16  H    0.362382
    17  H   -0.276611
    18  O   -1.798215
    19  H    0.002772
    20  H    0.107392
    21  P    4.500881
    22  O   -1.600136
    23  O   -1.305025
    24  O   -1.455079
    25  H    0.685548
    26  H    0.360339
 Sum of Mulliken charges =  -0.00000

 Dipole moment (field-independent basis, Debye):
    X=             -5.1338    Y=              0.6591    Z=              0.9925  Tot=              5.2703

 Test job not archived.
 1\1\GINC-SE365\SP\RHF\Aug-CC-pVDZ\C8H10N1O6P1\OHZDE\08-Apr-2025\0\\#t
 hf aug-cc-pvdz iop(5/13=1,5/36=2,99/5=2) pseudo=read geom=check guess=
 (read,tcheck) scf=(maxcycle=1)\\title\\0,1\H,0,3.77189,1.38313,1.07396
 \O,0,2.90217,1.65155,0.72548\C,0,2.30812,0.56484,0.1591\C,0,1.03592,0.
 72025,-0.43373\C,0,2.93266,-0.70124,0.18708\C,0,0.47277,2.08203,-0.461
 11\C,0,0.43498,-0.43297,-0.99239\N,0,2.35425,-1.76968,-0.3644\C,0,4.27
 381,-0.87543,0.84205\O,0,-0.69793,2.39768,-0.66274\H,0,1.21959,2.88544
 ,-0.29053\C,0,1.15156,-1.62723,-0.93794\C,0,-0.92543,-0.47102,-1.64781

 Normal termination of Gaussian 16 at Tue Apr  8 18:27:20 2025.
