 Gaussian 16, Revision C.01,

 ----------------------------------------------------------------------
 #t hf aug-cc-pvdz symm=none int=(grid=ultrafine) guess=(read,tcheck) s
 table=(opt,rrhf)
 ----------------------------------------------------------------------
 -----
 title
 -----
 Symbolic Z-matrix:
 Charge =  0 Multiplicity = 1

 SCF Done:  E(RHF) =  -1374.24736020     A.U. after   14 cycles
 Normal termination of Gaussian 16 at Tue Apr  8 18:57:48 2025.
 Gaussian 16:  ES64L-G16RevC.01  3-Jul-2019

 ----------------------------------------------------------------------
 #t hf aug-cc-pvdz iop(5/13=1,5/36=2,99/5=2) pseudo=read geom=check gue
 ss=(read,tcheck) scf=(maxcycle=1)
 ----------------------------------------------------------------------
 -----
 title
 -----
 Structure from the checkpoint file:  "37Conf8_VX_2_mol1.chk"
 Charge =  0 Multiplicity = 1

                         Standard orientation:
 ---------------------------------------------------------------------
 Center     Atomic      Atomic             Coordinates (Angstroms)
 Number     Number       Type             X           Y           Z
 ---------------------------------------------------------------------
      1          1           0       -2.263950    1.746360    1.487921
      2          6           0       -2.782630    1.806210    0.518671
      3          6           0       -3.890030    2.836290    0.538431
      4          8           0       -3.375850    0.512290    0.231361
      5          1           0       -2.037530    2.029210   -0.263019
      6          1           0       -4.399470    2.881290   -0.433889
      7          1           0       -3.469670    3.828750    0.755881
      8          1           0       -4.632980    2.598130    1.311881
      9         15           0       -2.408380   -0.782130    0.143911
     10          6           0       -3.657000   -2.048540   -0.165949
     11         16           0       -1.336610   -0.545880   -1.666549
     12          8           0       -1.510980   -1.025360    1.310041
     13          1           0       -4.234030   -1.805770   -1.067079
     14          1           0       -3.146651   -3.009680   -0.301219
     15          1           0       -4.326670   -2.102050    0.702971
     16          6           0        0.369450   -0.797421   -1.028189
     17          6           0        0.967880    0.493869   -0.437049
     18          1           0        0.946520   -1.169181   -1.885319
     19          1           0        0.316620   -1.582421   -0.264769
     20          7           0        2.256740    0.344609    0.188811
     21          1           0        1.030840    1.255389   -1.230159
     22          1           0        0.244370    0.873819    0.305191
     23          6           0        3.473520    0.592099   -0.577439
     24          6           0        2.322460   -0.467561    1.404711
     25          6           0        3.596340   -0.225191   -1.875989
     26          6           0        3.659730    2.088939   -0.865559
     27          1           0        4.303630    0.285249    0.079111
     28          6           0        2.921440   -1.870511    1.203841
     29          6           0        3.056780    0.275209    2.529591
     30          1           0        1.274350   -0.598051    1.722021
     31          1           0        2.822630    0.070699   -2.601229
     32          1           0        4.573040   -0.052511   -2.352959
     33          1           0        3.494390   -1.301471   -1.681379
     34          1           0        2.856970    2.471259   -1.514599
     35          1           0        4.614360    2.275959   -1.379899
     36          1           0        3.643550    2.664269    0.069761
     37          1           0        2.374149   -2.434131    0.435851
     38          1           0        3.977430   -1.813261    0.897161
     39          1           0        2.881979   -2.444851    2.141311
     40          1           0        4.114140    0.445049    2.272821
     41          1           0        2.589340    1.252139    2.713221
     42          1           0        3.033950   -0.306201    3.463261
 ---------------------------------------------------------------------

 SCF Done:  E(RHF) =  -1375.03455033     A.U. after    2 cycles

 The electronic state is 1-A.
 Alpha  occ. eigenvalues --  -93.95044 -84.40539 -20.57371 -20.49729 -15.46506
 Alpha  occ. eigenvalues --  -11.30366 -11.26686 -11.25977 -11.25920 -11.25325
 Alpha  occ. eigenvalues --  -11.25292 -11.23884 -11.22267 -11.21892 -11.21699
 Alpha  occ. eigenvalues --  -11.21430  -8.23321  -6.86012  -6.21106  -6.20961
 Alpha  occ. eigenvalues --   -6.20765  -4.39977  -4.38903  -4.38436  -1.48941
 Alpha  occ. eigenvalues --   -1.37825  -1.22037  -1.08363  -1.05409  -1.04573
 Alpha  occ. eigenvalues --   -1.01734  -0.99331  -0.93646  -0.92775  -0.92236
 Alpha  occ. eigenvalues --   -0.85941  -0.84465  -0.82578  -0.75975  -0.74222
 Alpha  occ. eigenvalues --   -0.67846  -0.67304  -0.66515  -0.64555  -0.62342
 Alpha  occ. eigenvalues --   -0.62167  -0.61482  -0.60172  -0.59609  -0.59172
 Alpha  occ. eigenvalues --   -0.58454  -0.56072  -0.55846  -0.55660  -0.54854
 Alpha  occ. eigenvalues --   -0.54574  -0.53635  -0.53278  -0.53027  -0.52916
 Alpha  occ. eigenvalues --   -0.51311  -0.50346  -0.49782  -0.48871  -0.48430
 Alpha  occ. eigenvalues --   -0.48078  -0.47128  -0.46127  -0.45505  -0.43864
 Alpha  occ. eigenvalues --   -0.40725  -0.38334  -0.35015
 Alpha virt. eigenvalues --    0.03145   0.03314   0.03612   0.03957   0.04137
 Alpha virt. eigenvalues --    0.04390   0.04658   0.05025   0.05236   0.05982
 Alpha virt. eigenvalues --    0.06527   0.06726   0.07257   0.07410   0.08242

 Mulliken charges:
               1
     1  H    0.082566
     2  C    0.469336
     3  C   -0.734895
     4  O   -1.615849
     5  H    0.144053
     6  H    0.199183
     7  H    0.184852
     8  H    0.185562
     9  P    3.993653
    10  C   -1.085183
    11  S   -0.214876
    12  O   -1.760737
    13  H    0.163977
    14  H    0.105271
    15  H    0.081523
    16  C   -0.275409
    17  C   -0.978440
    18  H    0.103215
    19  H    0.329494
    20  N    2.409093
    21  H    0.051340
    22  H   -0.071733
    23  C   -1.618365
    24  C   -1.716818
    25  C   -0.152688
    26  C   -0.192551
    27  H   -0.079635
    28  C   -0.136784
    29  C   -0.212146
    30  H    0.010115
    31  H    0.279361
    32  H    0.074959
    33  H    0.213314
    34  H    0.216749
    35  H    0.155934
    36  H    0.202898
    37  H    0.185259
    38  H    0.250541
    39  H    0.107005
    40  H    0.231705
    41  H    0.256025
    42  H    0.159125
 Sum of Mulliken charges =  -0.00000

 Dipole moment (field-independent basis, Debye):
    X=             -0.5983    Y=              0.6099    Z=             -1.1556  Tot=              1.4371

 Test job not archived.
 1\1\GINC-SE338\SP\RHF\Aug-CC-pVDZ\C11H26N1O2P1S1\OHZDE\08-Apr-2025\0\\
 #t hf aug-cc-pvdz iop(5/13=1,5/36=2,99/5=2) pseudo=read geom=check gue
 ss=(read,tcheck) scf=(maxcycle=1)\\title\\0,1\H,0,-2.26395,1.74636,1.4
 8792\C,0,-2.78263,1.80621,0.51867\C,0,-3.89003,2.83629,0.53843\O,0,-3.
 37585,0.51229,0.23136\H,0,-2.03753,2.02921,-0.26302\H,0,-4.39947,2.881
 29,-0.43389\H,0,-3.46967,3.82875,0.75588\H,0,-4.63298,2.59813,1.31188\
 P,0,-2.40838,-0.78213,0.14391\C,0,-3.657,-2.04854,-0.16595\S,0,-1.3366
 1,-0.54588,-1.66655\O,0,-1.51098,-1.02536,1.31004\H,0,-4.23403,-1.8057

 Normal termination of Gaussian 16 at Tue Apr  8 18:58:53 2025.
