 Gaussian 16, Revision C.01,

 ----------------------------------------------------------------------
 #t hf aug-cc-pvdz symm=none int=(grid=ultrafine) guess=(read,tcheck) s
 table=(opt,rrhf)
 ----------------------------------------------------------------------
 -----
 title
 -----
 Symbolic Z-matrix:
 Charge =  0 Multiplicity = 1

 SCF Done:  E(RHF) =  -891.123165873     A.U. after   14 cycles
 Normal termination of Gaussian 16 at Tue Apr  8 17:34:34 2025.
 Gaussian 16:  ES64L-G16RevC.01  3-Jul-2019

 ----------------------------------------------------------------------
 #t hf aug-cc-pvdz iop(5/13=1,5/36=2,99/5=2) pseudo=read geom=check gue
 ss=(read,tcheck) scf=(maxcycle=1)
 ----------------------------------------------------------------------
 -----
 title
 -----
 Structure from the checkpoint file:  "37Conf8_Glufosinate_8_mol1.chk"
 Charge =  0 Multiplicity = 1

                         Standard orientation:
 ---------------------------------------------------------------------
 Center     Atomic      Atomic             Coordinates (Angstroms)
 Number     Number       Type             X           Y           Z
 ---------------------------------------------------------------------
      1          1           0       -3.163287   -2.310120   -0.260010
      2          8           0       -2.788528   -1.559920   -0.770090
      3          6           0       -2.529098   -0.577320    0.135160
      4          6           0       -1.926159    0.672420   -0.506710
      5          8           0       -2.763638   -0.694600    1.322600
      6          6           0       -0.465759    0.817221   -0.052910
      7          7           0       -2.667609    1.882190   -0.147930
      8          1           0       -1.956779    0.555340   -1.600240
      9          6           0        0.410522   -0.380929   -0.422740
     10          1           0       -0.073849    1.738521   -0.506600
     11          1           0       -0.469169    0.963491    1.039540
     12         15           0        2.184392   -0.203998   -0.050910
     13          1           0        0.362982   -0.591489   -1.503860
     14          1           0        0.084182   -1.300869    0.089620
     15          6           0        2.318081    0.192272    1.709200
     16          8           0        2.590261    1.221242   -0.748640
     17          8           0        3.008772   -1.353997   -0.516240
     18          1           0        1.806081    1.133522    1.948050
     19          1           0        3.383651    0.286303    1.955690
     20          1           0        1.883872   -0.624698    2.300800
     21          1           0        3.217881    1.035113   -1.471000
     22          1           0       -3.612839    1.844249   -0.536470
     23          1           0       -2.775789    1.911490    0.870620
 ---------------------------------------------------------------------

 SCF Done:  E(RHF) =  -891.730132532     A.U. after    2 cycles

 The electronic state is 1-A.
 Alpha  occ. eigenvalues --  -84.39109 -20.61987 -20.58374 -20.55532 -20.48968
 Alpha  occ. eigenvalues --  -15.51183 -11.40786 -11.30052 -11.26237 -11.25934
 Alpha  occ. eigenvalues --  -11.25337  -6.84768  -4.38701  -4.37849  -4.37283
 Alpha  occ. eigenvalues --   -1.55692  -1.48710  -1.46299  -1.37060  -1.21370
 Alpha  occ. eigenvalues --   -1.08641  -1.00960  -0.97062  -0.89433  -0.80609
 Alpha  occ. eigenvalues --   -0.78565  -0.74356  -0.71969  -0.69754  -0.67327
 Alpha  occ. eigenvalues --   -0.66156  -0.65160  -0.62567  -0.61643  -0.60936
 Alpha  occ. eigenvalues --   -0.59243  -0.58268  -0.56598  -0.55743  -0.53620
 Alpha  occ. eigenvalues --   -0.51842  -0.51149  -0.49655  -0.48592  -0.48102
 Alpha  occ. eigenvalues --   -0.44261  -0.43675  -0.41424
 Alpha virt. eigenvalues --    0.03123   0.03541   0.03880   0.03934   0.05258
 Alpha virt. eigenvalues --    0.05730   0.05878   0.06884   0.07556   0.08084
 Alpha virt. eigenvalues --    0.08937   0.10155   0.10390   0.11139   0.12126

 Mulliken charges:
               1
     1  H    0.365291
     2  O   -1.328762
     3  C    2.729302
     4  C   -1.680898
     5  O   -1.352324
     6  C   -0.321091
     7  N    0.719217
     8  H    0.015579
     9  C   -0.887712
    10  H    0.199172
    11  H    0.173464
    12  P    4.095525
    13  H    0.083553
    14  H    0.163672
    15  C   -0.961990
    16  O   -1.421754
    17  O   -1.678935
    18  H    0.151112
    19  H    0.058929
    20  H    0.156047
    21  H    0.340718
    22  H    0.179951
    23  H    0.201934
 Sum of Mulliken charges =  -0.00000

 Dipole moment (field-independent basis, Debye):
    X=             -2.4579    Y=              1.2844    Z=             -0.0696  Tot=              2.7742

 Test job not archived.
 1\1\GINC-SE082\SP\RHF\Aug-CC-pVDZ\C5H12N1O4P1\OHZDE\08-Apr-2025\0\\#t
 hf aug-cc-pvdz iop(5/13=1,5/36=2,99/5=2) pseudo=read geom=check guess=
 (read,tcheck) scf=(maxcycle=1)\\title\\0,1\H,0,-3.16329,-2.31012,-0.26
 001\O,0,-2.78853,-1.55992,-0.77009\C,0,-2.5291,-0.57732,0.13516\C,0,-1
 .92616,0.67242,-0.50671\O,0,-2.76364,-0.6946,1.3226\C,0,-0.46576,0.817
 22,-0.05291\N,0,-2.66761,1.88219,-0.14793\H,0,-1.95678,0.55534,-1.6002
 4\C,0,0.41052,-0.38093,-0.42274\H,0,-0.07385,1.73852,-0.5066\H,0,-0.46
 917,0.96349,1.03954\P,0,2.18439,-0.204,-0.05091\H,0,0.36298,-0.59149,-

 Normal termination of Gaussian 16 at Tue Apr  8 17:34:51 2025.
