 Gaussian 16, Revision C.01,

 ----------------------------------------------------------------------
 #t hf aug-cc-pvdz symm=none int=(grid=ultrafine) guess=(read,tcheck) s
 table=(opt,rrhf)
 ----------------------------------------------------------------------
 -----
 title
 -----
 Symbolic Z-matrix:
 Charge =  0 Multiplicity = 1

 SCF Done:  E(RHF) =  -1587.90328843     A.U. after   16 cycles
 Normal termination of Gaussian 16 at Tue Apr  8 19:26:04 2025.
 Gaussian 16:  ES64L-G16RevC.01  3-Jul-2019

 ----------------------------------------------------------------------
 #t hf aug-cc-pvdz iop(5/13=1,5/36=2,99/5=2) pseudo=read geom=check gue
 ss=(read,tcheck) scf=(maxcycle=1)
 ----------------------------------------------------------------------
 -----
 title
 -----
 Structure from the checkpoint file:  "37Conf8_XylitolPentanit_7_mol1.chk"
 Charge =  0 Multiplicity = 1

                         Standard orientation:
 ---------------------------------------------------------------------
 Center     Atomic      Atomic             Coordinates (Angstroms)
 Number     Number       Type             X           Y           Z
 ---------------------------------------------------------------------
      1          1           0       -2.194101    1.817920    1.454400
      2          6           0       -1.255910    1.285550    1.250050
      3          6           0       -1.434100    0.393580    0.000160
      4          8           0       -0.178471    2.215930    1.095350
      5          1           0       -0.966670    0.711240    2.139070
      6          6           0       -0.734520   -0.981300    0.131140
      7          8           0       -2.804580    0.257010   -0.421280
      8          1           0       -1.028940    0.940740   -0.861460
      9          7           0       -0.559081    3.437770    0.323120
     10          6           0        0.817470   -0.967940    0.205710
     11          8           0       -1.250540   -1.993260   -0.756030
     12          1           0       -1.044950   -1.419090    1.091790
     13          7           0       -3.699610   -0.411991    0.546030
     14          8           0        0.377389    4.171890    0.182060
     15          8           0       -1.709611    3.515500   -0.035740
     16          6           0        1.568490    0.039300   -0.658380
     17          8           0        1.166360   -0.712670    1.576490
     18          1           0        1.143230   -1.987950   -0.053740
     19          7           0       -1.269370   -1.711820   -2.213580
     20          8           0       -3.232800   -0.671281    1.635070
     21          8           0       -4.792320   -0.585991    0.091050
     22          8           0        2.942900   -0.375259   -0.579820
     23          1           0        1.454290    1.056840   -0.260110
     24          1           0        1.215280    0.004230   -1.697290
     25          7           0        3.853760    0.564671   -1.256400
     26          8           0        4.999940    0.220741   -1.161520
     27          8           0        3.341100    1.515511   -1.799830
     28          7           0        1.958020   -1.814430    2.246470
     29          8           0       -0.767620   -0.676610   -2.589550
     30          8           0       -1.799690   -2.599120   -2.815020
     31          8           0        2.256880   -1.493010    3.358990
     32          8           0        2.159470   -2.812940    1.606760
 ---------------------------------------------------------------------

 SCF Done:  E(RHF) =  -1589.40302632     A.U. after    2 cycles

 The electronic state is 1-A.
 Alpha  occ. eigenvalues --  -20.69761 -20.69677 -20.68979 -20.68534 -20.67720
 Alpha  occ. eigenvalues --  -20.66797 -20.66647 -20.66492 -20.66353 -20.66337
 Alpha  occ. eigenvalues --  -20.66160 -20.66094 -20.66087 -20.64597 -20.64517
 Alpha  occ. eigenvalues --  -15.90401 -15.90159 -15.90007 -15.89600 -15.88432
 Alpha  occ. eigenvalues --  -11.38987 -11.38652 -11.37926 -11.36766 -11.35515
 Alpha  occ. eigenvalues --   -1.76771  -1.76581  -1.76346  -1.76032  -1.74752
 Alpha  occ. eigenvalues --   -1.60400  -1.60364  -1.60139  -1.59844  -1.58279
 Alpha  occ. eigenvalues --   -1.56103  -1.54830  -1.54519  -1.53974  -1.52748
 Alpha  occ. eigenvalues --   -1.16577  -1.10927  -1.06169  -1.03451  -1.01555
 Alpha  occ. eigenvalues --   -0.98116  -0.96342  -0.94363  -0.92582  -0.89464
 Alpha  occ. eigenvalues --   -0.87765  -0.86985  -0.86740  -0.85405  -0.83821
 Alpha  occ. eigenvalues --   -0.83526  -0.83171  -0.83026  -0.82734  -0.82564
 Alpha  occ. eigenvalues --   -0.82070  -0.81892  -0.81708  -0.80574  -0.78958
 Alpha  occ. eigenvalues --   -0.74490  -0.73370  -0.71126  -0.70137  -0.68729
 Alpha  occ. eigenvalues --   -0.67608  -0.66221  -0.64252  -0.63420  -0.62654
 Alpha  occ. eigenvalues --   -0.60531  -0.58979  -0.58436  -0.56250  -0.55926
 Alpha  occ. eigenvalues --   -0.55731  -0.55410  -0.55240  -0.54908  -0.54603
 Alpha  occ. eigenvalues --   -0.54403  -0.53617  -0.53376  -0.52777  -0.52551
 Alpha  occ. eigenvalues --   -0.52319  -0.52083  -0.52050  -0.51531  -0.50906
 Alpha  occ. eigenvalues --   -0.50105
 Alpha virt. eigenvalues --    0.02089   0.02269   0.02807   0.02921   0.03763
 Alpha virt. eigenvalues --    0.04027   0.04539   0.04755   0.05353   0.05802
 Alpha virt. eigenvalues --    0.06548   0.06764   0.08654   0.08723   0.09881

 Mulliken charges:
               1
     1  H    0.291717
     2  C    0.696216
     3  C    0.787840
     4  O   -1.235900
     5  H    0.108049
     6  C    1.358128
     7  O   -1.638081
     8  H    0.238409
     9  N    2.842505
    10  C   -0.187699
    11  O   -1.639406
    12  H    0.270525
    13  N    3.013685
    14  O   -1.214200
    15  O   -1.170104
    16  C    0.345307
    17  O   -1.387369
    18  H    0.349976
    19  N    2.957778
    20  O   -1.287064
    21  O   -1.248984
    22  O   -1.408608
    23  H    0.277315
    24  H    0.231902
    25  N    3.248323
    26  O   -1.287009
    27  O   -1.255695
    28  N    2.809276
    29  O   -1.304779
    30  O   -1.209966
    31  O   -1.180180
    32  O   -1.171907
 Sum of Mulliken charges =  -0.00000

 Dipole moment (field-independent basis, Debye):
    X=             -1.8401    Y=             -0.3776    Z=              1.3395  Tot=              2.3071

 Test job not archived.
 1\1\GINC-SE141\SP\RHF\Aug-CC-pVDZ\C5H7N5O15\OHZDE\08-Apr-2025\0\\#t hf
  aug-cc-pvdz iop(5/13=1,5/36=2,99/5=2) pseudo=read geom=check guess=(r
 ead,tcheck) scf=(maxcycle=1)\\title\\0,1\H,0,2.1941,1.81792,-1.4544\C,
 0,1.25591,1.28555,-1.25005\C,0,1.4341,0.39358,-0.00016\O,0,0.17847,2.2
 1593,-1.09535\H,0,0.96667,0.71124,-2.13907\C,0,0.73452,-0.9813,-0.1311
 4\O,0,2.80458,0.25701,0.42128\H,0,1.02894,0.94074,0.86146\N,0,0.55908,
 3.43777,-0.32312\C,0,-0.81747,-0.96794,-0.20571\O,0,1.25054,-1.99326,0
 .75603\H,0,1.04495,-1.41909,-1.09179\N,0,3.69961,-0.41199,-0.54603\O,0

 Normal termination of Gaussian 16 at Tue Apr  8 19:27:17 2025.
