 Gaussian 16, Revision C.01,

 ----------------------------------------------------------------------
 #t hf aug-cc-pvdz symm=none int=(grid=ultrafine) guess=(read,tcheck) s
 table=(opt,rrhf)
 ----------------------------------------------------------------------
 -----
 title
 -----
 Symbolic Z-matrix:
 Charge =  0 Multiplicity = 1

 SCF Done:  E(RHF) =  -1374.24256064     A.U. after   14 cycles
 Normal termination of Gaussian 16 at Tue Apr  8 18:57:34 2025.
 Gaussian 16:  ES64L-G16RevC.01  3-Jul-2019

 ----------------------------------------------------------------------
 #t hf aug-cc-pvdz iop(5/13=1,5/36=2,99/5=2) pseudo=read geom=check gue
 ss=(read,tcheck) scf=(maxcycle=1)
 ----------------------------------------------------------------------
 -----
 title
 -----
 Structure from the checkpoint file:  "37Conf8_VX_5_mol1.chk"
 Charge =  0 Multiplicity = 1

                         Standard orientation:
 ---------------------------------------------------------------------
 Center     Atomic      Atomic             Coordinates (Angstroms)
 Number     Number       Type             X           Y           Z
 ---------------------------------------------------------------------
      1          1           0        3.513259   -0.484811    1.588110
      2          6           0        3.905850    0.432349    1.117770
      3          6           0        4.002560    1.561279    2.121830
      4          8           0        3.010450    0.842669    0.058330
      5          1           0        4.892009    0.207948    0.677280
      6          1           0        4.362730    2.481359    1.641990
      7          1           0        3.021000    1.764619    2.571120
      8          1           0        4.703370    1.289178    2.924350
      9         15           0        2.252519   -0.221191   -0.902260
     10          6           0        3.549609   -1.231741   -1.660610
     11         16           0        1.277649   -1.600101    0.358960
     12          8           0        1.373260    0.513249   -1.848850
     13          1           0        3.080089   -1.968831   -2.323320
     14          1           0        4.191769   -0.565901   -2.253420
     15          1           0        4.152749   -1.750271   -0.903160
     16          6           0       -0.157431   -0.538300    0.823350
     17          6           0       -1.292101   -0.606370   -0.201910
     18          1           0        0.193740    0.492180    0.961630
     19          1           0       -0.487951   -0.914020    1.800780
     20          7           0       -2.436341    0.192570    0.241970
     21          1           0       -0.911771   -0.263900   -1.176090
     22          1           0       -1.573761   -1.661880   -0.340300
     23          6           0       -2.647830    1.399751   -0.583260
     24          6           0       -3.640061   -0.608119    0.536250
     25          6           0       -1.412510    2.304030   -0.525390
     26          6           0       -3.873450    2.198031   -0.135490
     27          1           0       -2.799970    1.112171   -1.649310
     28          6           0       -4.257911   -1.296419   -0.692460
     29          6           0       -3.369481   -1.611019    1.659420
     30          1           0       -4.382241    0.100091    0.931140
     31          1           0       -1.578380    3.195100   -1.148040
     32          1           0       -0.504280    1.813240   -0.899930
     33          1           0       -1.238260    2.634070    0.510680
     34          1           0       -3.899810    3.151241   -0.681240
     35          1           0       -4.823060    1.682571   -0.332690
     36          1           0       -3.813700    2.423951    0.940580
     37          1           0       -4.487661   -0.568789   -1.484200
     38          1           0       -3.578981   -2.051879   -1.116010
     39          1           0       -5.193951   -1.806789   -0.421550
     40          1           0       -2.663401   -2.397639    1.353160
     41          1           0       -4.304551   -2.110239    1.951510
     42          1           0       -2.957911   -1.099459    2.540790
 ---------------------------------------------------------------------

 SCF Done:  E(RHF) =  -1375.02995751     A.U. after    2 cycles

 The electronic state is 1-A.
 Alpha  occ. eigenvalues --  -93.95213 -84.40612 -20.57352 -20.49041 -15.47367
 Alpha  occ. eigenvalues --  -11.31041 -11.27122 -11.25954 -11.25482 -11.25136
 Alpha  occ. eigenvalues --  -11.24899 -11.24200 -11.22169 -11.21880 -11.21679
 Alpha  occ. eigenvalues --  -11.20290  -8.23523  -6.86076  -6.21307  -6.21162
 Alpha  occ. eigenvalues --   -6.20962  -4.39977  -4.39090  -4.38506  -1.48915
 Alpha  occ. eigenvalues --   -1.37412  -1.21810  -1.08568  -1.05245  -1.04197
 Alpha  occ. eigenvalues --   -1.01912  -1.00132  -0.94030  -0.92832  -0.91689
 Alpha  occ. eigenvalues --   -0.86658  -0.83655  -0.80727  -0.76263  -0.74521
 Alpha  occ. eigenvalues --   -0.69103  -0.67848  -0.65765  -0.64520  -0.63244
 Alpha  occ. eigenvalues --   -0.62333  -0.61651  -0.61147  -0.60005  -0.58607
 Alpha  occ. eigenvalues --   -0.56585  -0.56342  -0.56215  -0.55147  -0.54831
 Alpha  occ. eigenvalues --   -0.54090  -0.53595  -0.53382  -0.52744  -0.51512
 Alpha  occ. eigenvalues --   -0.50801  -0.50153  -0.49635  -0.49089  -0.48041
 Alpha  occ. eigenvalues --   -0.47389  -0.46920  -0.46167  -0.45268  -0.43885
 Alpha  occ. eigenvalues --   -0.40835  -0.38087  -0.36579
 Alpha virt. eigenvalues --    0.02953   0.03167   0.03681   0.03934   0.04273
 Alpha virt. eigenvalues --    0.04359   0.04505   0.05141   0.05569   0.06095
 Alpha virt. eigenvalues --    0.06241   0.06462   0.06911   0.07471   0.08556

 Mulliken charges:
               1
     1  H    0.312272
     2  C    0.306979
     3  C   -0.530889
     4  O   -1.768063
     5  H    0.091195
     6  H    0.184814
     7  H    0.184725
     8  H    0.173024
     9  P    3.892878
    10  C   -0.951768
    11  S   -0.165490
    12  O   -1.826448
    13  H    0.122262
    14  H    0.128806
    15  H    0.142705
    16  C   -0.171923
    17  C   -1.150865
    18  H    0.045358
    19  H    0.183237
    20  N    1.705450
    21  H    0.067815
    22  H    0.060417
    23  C   -1.295994
    24  C   -1.567458
    25  C   -0.016929
    26  C   -0.233705
    27  H    0.086860
    28  C   -0.040264
    29  C   -0.071518
    30  H   -0.058241
    31  H    0.107293
    32  H   -0.011605
    33  H    0.318726
    34  H    0.050906
    35  H    0.261882
    36  H    0.285574
    37  H    0.174662
    38  H    0.223321
    39  H    0.169190
    40  H    0.262388
    41  H    0.080248
    42  H    0.238174
 Sum of Mulliken charges =  -0.00000

 Dipole moment (field-independent basis, Debye):
    X=              2.1471    Y=             -1.6309    Z=              2.1023  Tot=              3.4190

 Test job not archived.
 1\1\GINC-SE462\SP\RHF\Aug-CC-pVDZ\C11H26N1O2P1S1\OHZDE\08-Apr-2025\0\\
 #t hf aug-cc-pvdz iop(5/13=1,5/36=2,99/5=2) pseudo=read geom=check gue
 ss=(read,tcheck) scf=(maxcycle=1)\\title\\0,1\H,0,3.51326,-0.48481,1.5
 8811\C,0,3.90585,0.43235,1.11777\C,0,4.00256,1.56128,2.12183\O,0,3.010
 45,0.84267,0.05833\H,0,4.89201,0.20795,0.67728\H,0,4.36273,2.48136,1.6
 4199\H,0,3.021,1.76462,2.57112\H,0,4.70337,1.28918,2.92435\P,0,2.25252
 ,-0.22119,-0.90226\C,0,3.54961,-1.23174,-1.66061\S,0,1.27765,-1.6001,0
 .35896\O,0,1.37326,0.51325,-1.84885\H,0,3.08009,-1.96883,-2.32332\H,0,

 Normal termination of Gaussian 16 at Tue Apr  8 18:58:50 2025.
