 Gaussian 16, Revision C.01,

 ----------------------------------------------------------------------
 #t hf aug-cc-pvdz symm=none int=(grid=ultrafine) guess=(read,tcheck) s
 table=(opt,rrhf)
 ----------------------------------------------------------------------
 -----
 title
 -----
 Symbolic Z-matrix:
 Charge =  0 Multiplicity = 1

 SCF Done:  E(RHF) =  -917.588429628     A.U. after   12 cycles
 Normal termination of Gaussian 16 at Tue Apr  8 17:28:36 2025.
 Gaussian 16:  ES64L-G16RevC.01  3-Jul-2019

 ----------------------------------------------------------------------
 #t hf aug-cc-pvdz iop(5/13=1,5/36=2,99/5=2) pseudo=read geom=check gue
 ss=(read,tcheck) scf=(maxcycle=1)
 ----------------------------------------------------------------------
 -----
 title
 -----
 Structure from the checkpoint file:  "37Conf8_18crown6_8_mol1.chk"
 Charge =  0 Multiplicity = 1

                         Standard orientation:
 ---------------------------------------------------------------------
 Center     Atomic      Atomic             Coordinates (Angstroms)
 Number     Number       Type             X           Y           Z
 ---------------------------------------------------------------------
      1          1           0       -1.118510   -1.321201    1.240790
      2          6           0       -1.175889   -2.021031    0.384530
      3          1           0       -1.300859   -3.041961    0.795360
      4          8           0        0.000000   -1.926790   -0.405780
      5          6           0       -2.362670   -1.631921   -0.481860
      6          6           0        1.175891   -2.021030    0.384530
      7          1           0       -2.124720   -0.693811   -1.009490
      8          1           0       -2.569759   -2.407261   -1.244170
      9          8           0       -3.483820   -1.469801    0.385220
     10          1           0        1.300861   -3.041950    0.795360
     11          1           0        1.118520   -1.321200    1.240790
     12          6           0        2.362670   -1.631920   -0.481860
     13          6           0       -4.564380   -0.737931   -0.191420
     14          1           0        2.124730   -0.693810   -1.009490
     15          1           0        2.569771   -2.407260   -1.244170
     16          8           0        3.483820   -1.469800    0.385220
     17          1           0       -5.499020   -1.190971    0.183330
     18          1           0       -4.557610   -0.836801   -1.291820
     19          6           0       -4.564390    0.737929    0.191410
     20          6           0        4.564390   -0.737930   -0.191420
     21          1           0       -5.499030    1.190959   -0.183350
     22          1           0       -4.557630    0.836799    1.291810
     23          8           0       -3.483820    1.469799   -0.385230
     24          1           0        4.557620   -0.836800   -1.291820
     25          1           0        5.499030   -1.190959    0.183330
     26          6           0        4.564390    0.737930    0.191410
     27          6           0       -2.362670    1.631919    0.481860
     28          1           0        4.557620    0.836800    1.291810
     29          1           0        5.499020    1.190971   -0.183340
     30          8           0        3.483810    1.469800   -0.385230
     31          1           0       -2.569780    2.407239    1.244180
     32          1           0       -2.124730    0.693799    1.009480
     33          6           0       -1.175890    2.021039   -0.384520
     34          6           0        2.362670    1.631920    0.481860
     35          1           0       -1.118520    1.321229   -1.240790
     36          1           0       -1.300860    3.041969   -0.795330
     37          8           0       -0.000000    1.926780    0.405790
     38          1           0        2.569770    2.407240    1.244180
     39          1           0        2.124720    0.693800    1.009480
     40          6           0        1.175890    2.021040   -0.384520
     41          1           0        1.300860    3.041970   -0.795330
     42          1           0        1.118510    1.321230   -1.240790
 ---------------------------------------------------------------------

 SCF Done:  E(RHF) =  -918.534658369     A.U. after    2 cycles

 The electronic state is 1-A.
 Alpha  occ. eigenvalues --  -20.54868 -20.54867 -20.54640 -20.54640 -20.54638
 Alpha  occ. eigenvalues --  -20.54636 -11.28950 -11.28949 -11.28948 -11.28947
 Alpha  occ. eigenvalues --  -11.28519 -11.28509 -11.28443 -11.28438 -11.28375
 Alpha  occ. eigenvalues --  -11.28373 -11.28358 -11.28355  -1.47274  -1.46607
 Alpha  occ. eigenvalues --   -1.46607  -1.45632  -1.44946  -1.44665  -1.06390
 Alpha  occ. eigenvalues --   -1.03955  -1.03759  -0.98564  -0.97781  -0.93621
 Alpha  occ. eigenvalues --   -0.85928  -0.84372  -0.83539  -0.83219  -0.82771
 Alpha  occ. eigenvalues --   -0.82440  -0.71553  -0.69924  -0.69094  -0.68534
 Alpha  occ. eigenvalues --   -0.68517  -0.68236  -0.66928  -0.64835  -0.64204
 Alpha  occ. eigenvalues --   -0.63340  -0.63301  -0.63240  -0.62557  -0.60093
 Alpha  occ. eigenvalues --   -0.59365  -0.59188  -0.59152  -0.56582  -0.55407
 Alpha  occ. eigenvalues --   -0.53959  -0.52649  -0.51065  -0.50603  -0.49867
 Alpha  occ. eigenvalues --   -0.49819  -0.48504  -0.47897  -0.47481  -0.47310
 Alpha  occ. eigenvalues --   -0.47062  -0.45271  -0.44426  -0.42152  -0.41652
 Alpha  occ. eigenvalues --   -0.39496  -0.39382
 Alpha virt. eigenvalues --    0.02894   0.03438   0.03517   0.03941   0.04296
 Alpha virt. eigenvalues --    0.04588   0.04764   0.05450   0.06072   0.06199
 Alpha virt. eigenvalues --    0.06462   0.06764   0.07382   0.08142   0.08209

 Mulliken charges:
               1
     1  H    0.247532
     2  C    0.201722
     3  H    0.172175
     4  O   -1.383730
     5  C    0.680287
     6  C    0.201762
     7  H    0.159488
     8  H    0.050894
     9  O   -1.476654
    10  H    0.172155
    11  H    0.247535
    12  C    0.680278
    13  C    0.329197
    14  H    0.159480
    15  H    0.050899
    16  O   -1.476650
    17  H    0.007211
    18  H    0.320008
    19  C    0.329198
    20  C    0.329200
    21  H    0.007214
    22  H    0.320006
    23  O   -1.476652
    24  H    0.320008
    25  H    0.007205
    26  C    0.329205
    27  C    0.680299
    28  H    0.320011
    29  H    0.007194
    30  O   -1.476654
    31  H    0.050886
    32  H    0.159479
    33  C    0.201746
    34  C    0.680318
    35  H    0.247521
    36  H    0.172165
    37  O   -1.383725
    38  H    0.050881
    39  H    0.159482
    40  C    0.201742
    41  H    0.172162
    42  H    0.247518
 Sum of Mulliken charges =  -0.00000

 Dipole moment (field-independent basis, Debye):
    X=              0.0001    Y=              0.0000    Z=              0.0000  Tot=              0.0001

 Test job not archived.
 1\1\GINC-SE082\SP\RHF\Aug-CC-pVDZ\C12H24O6\OHZDE\08-Apr-2025\0\\#t hf
 aug-cc-pvdz iop(5/13=1,5/36=2,99/5=2) pseudo=read geom=check guess=(re
 ad,tcheck) scf=(maxcycle=1)\\title\\0,1\H,0,1.11851,-1.3212,-1.24079\C
 ,0,1.17589,-2.02103,-0.38453\H,0,1.30086,-3.04196,-0.79536\O,0,0.,-1.9
 2679,0.40578\C,0,2.36267,-1.63192,0.48186\C,0,-1.17589,-2.02103,-0.384
 53\H,0,2.12472,-0.69381,1.00949\H,0,2.56976,-2.40726,1.24417\O,0,3.483
 82,-1.4698,-0.38522\H,0,-1.30086,-3.04195,-0.79536\H,0,-1.11852,-1.321
 2,-1.24079\C,0,-2.36267,-1.63192,0.48186\C,0,4.56438,-0.73793,0.19142\

 Normal termination of Gaussian 16 at Tue Apr  8 17:29:58 2025.
