 Gaussian 16, Revision C.01,

 ----------------------------------------------------------------------
 #t hf aug-cc-pvdz symm=none int=(grid=ultrafine) guess=(read,tcheck) s
 table=(opt,rrhf)
 ----------------------------------------------------------------------
 -----
 title
 -----
 Symbolic Z-matrix:
 Charge =  0 Multiplicity = 1

 SCF Done:  E(RHF) =  -898.751280797     A.U. after   15 cycles
 Normal termination of Gaussian 16 at Tue Apr  8 18:15:25 2025.
 Gaussian 16:  ES64L-G16RevC.01  3-Jul-2019

 ----------------------------------------------------------------------
 #t hf aug-cc-pvdz iop(5/13=1,5/36=2,99/5=2) pseudo=read geom=check gue
 ss=(read,tcheck) scf=(maxcycle=1)
 ----------------------------------------------------------------------
 -----
 title
 -----
 Structure from the checkpoint file:  "37Conf8_Knoevenagel_cond_5_mol2.chk"
 Charge =  0 Multiplicity = 1

                         Standard orientation:
 ---------------------------------------------------------------------
 Center     Atomic      Atomic             Coordinates (Angstroms)
 Number     Number       Type             X           Y           Z
 ---------------------------------------------------------------------
      1          8           0        2.216111   -1.061788   -1.622690
      2          6           0        2.027741   -0.832378   -0.445460
      3          6           0        0.672231   -0.747548    0.246970
      4          8           0        3.017311   -0.597488    0.449530
      5          6           0       -0.477479   -1.188349   -0.684160
      6          6           0        0.415310    0.677762    0.739640
      7          1           0        0.716741   -1.370648    1.151700
      8          6           0        4.364041   -0.588067   -0.096200
      9          6           0       -0.480589   -2.708429   -0.886090
     10          7           0       -1.734449   -0.607039   -0.198040
     11          1           0       -0.280419   -0.710859   -1.656140
     12          8           0        0.541620    1.556252   -0.282190
     13          8           0        0.147260    0.983952    1.882360
     14          6           0        5.312151   -0.268057    1.037340
     15          1           0        4.407670    0.159573   -0.902210
     16          1           0        4.566411   -1.571997   -0.545110
     17          1           0        6.345051   -0.249817    0.661640
     18          1           0        5.086530    0.714123    1.474710
     19          1           0        5.247901   -1.024057    1.831840
     20          1           0       -1.312779   -3.012409   -1.536910
     21          1           0        0.453921   -3.029088   -1.365050
     22          1           0       -0.582589   -3.242209    0.070290
     23          6           0       -2.758479   -0.476959   -1.228270
     24          6           0       -2.270349   -1.197309    1.027610
     25          6           0        0.208510    2.930682    0.038400
     26          1           0       -3.185599   -1.466269   -1.517990
     27          1           0       -2.286719   -0.052839   -2.128110
     28          6           0       -3.892280    0.427190   -0.746220
     29          1           0       -2.673909   -2.219969    0.846810
     30          1           0       -1.458579   -1.288079    1.763290
     31          6           0       -3.380529   -0.316109    1.597970
     32          6           0        0.350469    3.741602   -1.229970
     33          1           0       -0.818300    2.951261    0.434180
     34          1           0        0.880800    3.279722    0.836490
     35          1           0       -0.329420    3.373091   -2.010440
     36          1           0        1.378090    3.695352   -1.616020
     37          1           0        0.105279    4.793822   -1.027150
     38          1           0       -4.665370    0.495770   -1.527580
     39          1           0       -3.489260    1.441731   -0.589510
     40          6           0       -4.485809   -0.098300    0.562730
     41          1           0       -3.786059   -0.782910    2.509070
     42          1           0       -2.939740    0.650441    1.890750
     43          1           0       -5.251200    0.592840    0.948060
     44          1           0       -4.995349   -1.059100    0.367890
 ---------------------------------------------------------------------

 SCF Done:  E(RHF) =  -899.678306463     A.U. after    2 cycles

 The electronic state is 1-A.
 Alpha  occ. eigenvalues --  -20.59220 -20.58558 -20.54101 -20.53156 -15.48437
 Alpha  occ. eigenvalues --  -11.39745 -11.39220 -11.30211 -11.29723 -11.27125
 Alpha  occ. eigenvalues --  -11.26734 -11.25391 -11.25039 -11.23936 -11.23666
 Alpha  occ. eigenvalues --  -11.22626 -11.22565 -11.22512 -11.22099  -1.54213
 Alpha  occ. eigenvalues --   -1.53256  -1.45068  -1.44330  -1.23619  -1.10617
 Alpha  occ. eigenvalues --   -1.06689  -1.04310  -1.02975  -1.01553  -0.98013
 Alpha  occ. eigenvalues --   -0.89779  -0.87999  -0.86200  -0.85387  -0.81421
 Alpha  occ. eigenvalues --   -0.80189  -0.77500  -0.75249  -0.73447  -0.69839
 Alpha  occ. eigenvalues --   -0.68784  -0.67795  -0.67126  -0.66918  -0.66556
 Alpha  occ. eigenvalues --   -0.63858  -0.63007  -0.61161  -0.59516  -0.58859
 Alpha  occ. eigenvalues --   -0.58648  -0.58160  -0.56891  -0.56516  -0.56144
 Alpha  occ. eigenvalues --   -0.55567  -0.54832  -0.53931  -0.53554  -0.52865
 Alpha  occ. eigenvalues --   -0.51714  -0.51357  -0.51027  -0.50637  -0.49590
 Alpha  occ. eigenvalues --   -0.48455  -0.47040  -0.45715  -0.45421  -0.45352
 Alpha  occ. eigenvalues --   -0.45216  -0.44631  -0.42682  -0.38292
 Alpha virt. eigenvalues --    0.03214   0.03275   0.03606   0.03762   0.03986
 Alpha virt. eigenvalues --    0.04034   0.04495   0.04648   0.05360   0.05767
 Alpha virt. eigenvalues --    0.06280   0.06654   0.07508   0.07654   0.08522

 Mulliken charges:
               1
     1  O   -1.467368
     2  C    2.902341
     3  C   -1.170727
     4  O   -1.547562
     5  C   -2.023568
     6  C    2.772603
     7  H    0.094329
     8  C    0.279810
     9  C   -0.299880
    10  N    2.171535
    11  H    0.046010
    12  O   -1.620167
    13  O   -1.528189
    14  C   -0.549455
    15  H    0.164290
    16  H    0.140921
    17  H    0.144520
    18  H    0.211509
    19  H    0.207625
    20  H    0.192850
    21  H    0.159396
    22  H    0.272483
    23  C   -0.313561
    24  C   -0.432254
    25  C    0.296503
    26  H    0.177063
    27  H   -0.025230
    28  C   -0.128470
    29  H    0.064969
    30  H    0.045988
    31  C   -0.217172
    32  C   -0.522524
    33  H    0.183723
    34  H    0.131188
    35  H    0.168016
    36  H    0.204138
    37  H    0.140949
    38  H    0.126606
    39  H    0.251074
    40  C   -0.335045
    41  H    0.121691
    42  H    0.210588
    43  H    0.113618
    44  H    0.184835
 Sum of Mulliken charges =  -0.00000

 Dipole moment (field-independent basis, Debye):
    X=              0.2807    Y=              0.2436    Z=             -0.5218  Tot=              0.6407

 Test job not archived.
 1\1\GINC-SE452\SP\RHF\Aug-CC-pVDZ\C14H25N1O4\OHZDE\08-Apr-2025\0\\#t h
 f aug-cc-pvdz iop(5/13=1,5/36=2,99/5=2) pseudo=read geom=check guess=(
 read,tcheck) scf=(maxcycle=1)\\title\\0,1\O,0,2.21611,-1.06179,-1.6226
 9\C,0,2.02774,-0.83238,-0.44546\C,0,0.67223,-0.74755,0.24697\O,0,3.017
 31,-0.59749,0.44953\C,0,-0.47748,-1.18835,-0.68416\C,0,0.41531,0.67776
 ,0.73964\H,0,0.71674,-1.37065,1.1517\C,0,4.36404,-0.58807,-0.0962\C,0,
 -0.48059,-2.70843,-0.88609\N,0,-1.73445,-0.60704,-0.19804\H,0,-0.28042
 ,-0.71086,-1.65614\O,0,0.54162,1.55625,-0.28219\O,0,0.14726,0.98395,1.

 Normal termination of Gaussian 16 at Tue Apr  8 18:17:05 2025.
