 Gaussian 16, Revision C.01,

 ----------------------------------------------------------------------
 #t hf aug-cc-pvdz symm=none int=(grid=ultrafine) guess=(read,tcheck) s
 table=(opt,rrhf)
 ----------------------------------------------------------------------
 -----
 title
 -----
 Symbolic Z-matrix:
 Charge =  0 Multiplicity = 1

 SCF Done:  E(RHF) =  -1667.17699833     A.U. after   13 cycles
 Normal termination of Gaussian 16 at Tue Apr  8 18:03:19 2025.
 Gaussian 16:  ES64L-G16RevC.01  3-Jul-2019

 ----------------------------------------------------------------------
 #t hf aug-cc-pvdz iop(5/13=1,5/36=2,99/5=2) pseudo=read geom=check gue
 ss=(read,tcheck) scf=(maxcycle=1)
 ----------------------------------------------------------------------
 -----
 title
 -----
 Structure from the checkpoint file:  "37Conf8_N_iprit_6_mol1.chk"
 Charge =  0 Multiplicity = 1

                         Standard orientation:
 ---------------------------------------------------------------------
 Center     Atomic      Atomic             Coordinates (Angstroms)
 Number     Number       Type             X           Y           Z
 ---------------------------------------------------------------------
      1          1           0        1.934860    0.225992    1.632640
      2          6           0        1.705910   -0.447628    0.792780
      3          6           0        2.401010    0.079712   -0.470110
      4          7           0        0.265550   -0.607789    0.708700
      5          1           0        2.152451   -1.426038    1.037750
      6         17           0        4.190710    0.033952   -0.259750
      7          1           0        2.171270   -0.537288   -1.348040
      8          1           0        2.140940    1.122472   -0.685660
      9          6           0       -0.191629   -1.656999   -0.190170
     10          6           0       -0.559910    0.580301    0.872740
     11          6           0       -1.510329   -2.304939    0.215860
     12          1           0       -0.264269   -1.356169   -1.255720
     13          1           0        0.571561   -2.453059   -0.148450
     14          6           0       -0.771990    1.428361   -0.386350
     15          1           0       -1.551950    0.284821    1.245050
     16          1           0       -0.100330    1.204671    1.653490
     17         17           0       -2.971139   -1.424110   -0.384040
     18          1           0       -1.584239   -3.310949   -0.213350
     19          1           0       -1.597709   -2.364779    1.307570
     20         17           0       -1.871041    2.806451   -0.017920
     21          1           0       -1.255340    0.850321   -1.182980
     22          1           0        0.160529    1.864701   -0.762630
 ---------------------------------------------------------------------

 SCF Done:  E(RHF) =  -1667.71487272     A.U. after    2 cycles

 The electronic state is 1-A.
 Alpha  occ. eigenvalues -- -105.56485-105.56433-105.55717 -15.51382 -11.31899
 Alpha  occ. eigenvalues --  -11.31515 -11.30710 -11.29682 -11.29053 -11.28371
 Alpha  occ. eigenvalues --  -10.61312 -10.61228 -10.60515  -7.78251  -7.78173
 Alpha  occ. eigenvalues --   -7.77896  -7.77878  -7.77803  -7.77794  -7.77460
 Alpha  occ. eigenvalues --   -7.77091  -7.77081  -1.25937  -1.12443  -1.11966
 Alpha  occ. eigenvalues --   -1.10329  -1.00911  -1.00001  -0.93311  -0.87593
 Alpha  occ. eigenvalues --   -0.86118  -0.80345  -0.72228  -0.70587  -0.67338
 Alpha  occ. eigenvalues --   -0.64862  -0.64202  -0.62032  -0.60567  -0.58021
 Alpha  occ. eigenvalues --   -0.57504  -0.56599  -0.55262  -0.53569  -0.52626
 Alpha  occ. eigenvalues --   -0.52020  -0.46742  -0.45702  -0.45437  -0.45164
 Alpha  occ. eigenvalues --   -0.44895  -0.44264  -0.39689
 Alpha virt. eigenvalues --    0.02855   0.03375   0.04152   0.04704   0.05123
 Alpha virt. eigenvalues --    0.05323   0.05818   0.06605   0.07324   0.08957
 Alpha virt. eigenvalues --    0.09352   0.09912   0.10206   0.10690   0.11326

 Mulliken charges:
               1
     1  H    0.093872
     2  C   -0.612476
     3  C   -0.462770
     4  N    1.586550
     5  H    0.123744
     6  Cl  -0.083070
     7  H    0.283398
     8  H    0.263221
     9  C   -0.570853
    10  C   -0.775251
    11  C   -0.437946
    12  H    0.044852
    13  H    0.026182
    14  C   -0.470454
    15  H    0.102994
    16  H    0.114331
    17  Cl  -0.081936
    18  H    0.177318
    19  H    0.222410
    20  Cl  -0.089307
    21  H    0.291468
    22  H    0.253724
 Sum of Mulliken charges =   0.00000

 Dipole moment (field-independent basis, Debye):
    X=              0.8759    Y=             -2.6949    Z=             -0.1203  Tot=              2.8362

 Test job not archived.
 1\1\GINC-SE059\SP\RHF\Aug-CC-pVDZ\C6H12Cl3N1\OHZDE\08-Apr-2025\0\\#t h
 f aug-cc-pvdz iop(5/13=1,5/36=2,99/5=2) pseudo=read geom=check guess=(
 read,tcheck) scf=(maxcycle=1)\\title\\0,1\H,0,1.93486,0.22599,1.63264\
 C,0,1.70591,-0.44763,0.79278\C,0,2.40101,0.07971,-0.47011\N,0,0.26555,
 -0.60779,0.7087\H,0,2.15245,-1.42604,1.03775\Cl,0,4.19071,0.03395,-0.2
 5975\H,0,2.17127,-0.53729,-1.34804\H,0,2.14094,1.12247,-0.68566\C,0,-0
 .19163,-1.657,-0.19017\C,0,-0.55991,0.5803,0.87274\C,0,-1.51033,-2.304
 94,0.21586\H,0,-0.26427,-1.35617,-1.25572\H,0,0.57156,-2.45306,-0.1484

 Normal termination of Gaussian 16 at Tue Apr  8 18:03:35 2025.
