 Gaussian 16, Revision C.01,

 ----------------------------------------------------------------------
 #t hf aug-cc-pvdz symm=none int=(grid=ultrafine) guess=(read,tcheck) s
 table=(opt,rrhf)
 ----------------------------------------------------------------------
 -----
 title
 -----
 Symbolic Z-matrix:
 Charge =  0 Multiplicity = 1

 SCF Done:  E(RHF) =  -1009.03981966     A.U. after   15 cycles
 Normal termination of Gaussian 16 at Tue Apr  8 17:33:53 2025.
 Gaussian 16:  ES64L-G16RevC.01  3-Jul-2019

 ----------------------------------------------------------------------
 #t hf aug-cc-pvdz iop(5/13=1,5/36=2,99/5=2) pseudo=read geom=check gue
 ss=(read,tcheck) scf=(maxcycle=1)
 ----------------------------------------------------------------------
 -----
 title
 -----
 Structure from the checkpoint file:  "37Conf8_Gemcitabine_2_mol1.chk"
 Charge =  0 Multiplicity = 1

                         Standard orientation:
 ---------------------------------------------------------------------
 Center     Atomic      Atomic             Coordinates (Angstroms)
 Number     Number       Type             X           Y           Z
 ---------------------------------------------------------------------
      1          1           0       -1.984629    2.635711    0.132699
      2          8           0       -2.944179    2.470351    0.153369
      3          6           0       -3.227769    1.637171   -0.964731
      4          6           0       -2.442659    0.339091   -0.935761
      5          1           0       -3.024339    2.157171   -1.919031
      6          1           0       -4.302209    1.405402   -0.925871
      7          1           0       -2.716799   -0.290079   -1.803131
      8          8           0       -1.036789    0.674151   -1.004621
      9          6           0       -2.634979   -0.521839    0.332569
     10          6           0       -0.327959   -0.430189   -0.436021
     11          1           0       -3.161939    0.040471    1.122689
     12          8           0       -3.311240   -1.706759   -0.040921
     13          6           0       -1.181310   -0.771939    0.800309
     14          1           0       -0.311890   -1.310519   -1.102831
     15          7           0        1.047071   -0.083500   -0.211281
     16          1           0       -3.323100   -2.303919    0.728209
     17          9           0       -0.978880   -2.046819    1.247059
     18          9           0       -0.886219    0.071231    1.853389
     19          6           0        2.066550   -0.971980   -0.767171
     20          6           0        1.388501    1.066610    0.432349
     21          8           0        1.702850   -1.971360   -1.372841
     22          7           0        3.364150   -0.615360   -0.554581
     23          1           0        0.564161    1.687480    0.775799
     24          6           0        2.692081    1.407380    0.615179
     25          6           0        3.670511    0.497669    0.094609
     26          1           0        2.962141    2.331370    1.122169
     27          7           0        4.991411    0.779419    0.238039
     28          1           0        5.657431    0.081879   -0.074271
     29          1           0        5.305701    1.538509    0.826419
 ---------------------------------------------------------------------

 SCF Done:  E(RHF) =  -1010.02556098     A.U. after    2 cycles

 The electronic state is 1-A.
 Alpha  occ. eigenvalues --  -26.49855 -26.49842 -20.59029 -20.58426 -20.56825
 Alpha  occ. eigenvalues --  -20.50327 -15.57320 -15.54669 -15.48678 -11.43923
 Alpha  occ. eigenvalues --  -11.38934 -11.36554 -11.36123 -11.33819 -11.32920
 Alpha  occ. eigenvalues --  -11.32141 -11.30870 -11.25701  -1.66029  -1.59417
 Alpha  occ. eigenvalues --   -1.51393  -1.48135  -1.46276  -1.45643  -1.31836
 Alpha  occ. eigenvalues --   -1.27878  -1.19347  -1.09531  -1.08484  -1.04577
 Alpha  occ. eigenvalues --   -0.96326  -0.92742  -0.91107  -0.87645  -0.84721
 Alpha  occ. eigenvalues --   -0.81219  -0.79309  -0.77494  -0.76778  -0.75803
 Alpha  occ. eigenvalues --   -0.73900  -0.71986  -0.71138  -0.69813  -0.67879
 Alpha  occ. eigenvalues --   -0.67058  -0.66326  -0.65051  -0.64886  -0.64062
 Alpha  occ. eigenvalues --   -0.63148  -0.62082  -0.61101  -0.60109  -0.59459
 Alpha  occ. eigenvalues --   -0.58111  -0.56931  -0.55463  -0.52562  -0.52337
 Alpha  occ. eigenvalues --   -0.51054  -0.48186  -0.47591  -0.46143  -0.45659
 Alpha  occ. eigenvalues --   -0.43576  -0.42603  -0.36466
 Alpha virt. eigenvalues --    0.02154   0.03108   0.03628   0.03782   0.04764
 Alpha virt. eigenvalues --    0.05384   0.06187   0.06469   0.07058   0.07091
 Alpha virt. eigenvalues --    0.07926   0.08365   0.09384   0.10207   0.10567

 Mulliken charges:
               1
     1  H    0.381947
     2  O   -1.135625
     3  C    0.688280
     4  C    0.316223
     5  H    0.188599
     6  H    0.147240
     7  H    0.199937
     8  O   -1.842660
     9  C    1.008327
    10  C   -0.544030
    11  H    0.243345
    12  O   -1.409166
    13  C    2.594933
    14  H   -0.035685
    15  N    1.574873
    16  H    0.277518
    17  F   -0.951421
    18  F   -1.027385
    19  C    0.355942
    20  C   -0.501537
    21  O   -1.357430
    22  N    1.489631
    23  H   -0.291384
    24  C    1.353484
    25  C   -2.568120
    26  H   -0.254119
    27  N    0.952159
    28  H    0.016107
    29  H    0.130016
 Sum of Mulliken charges =  -0.00000

 Dipole moment (field-independent basis, Debye):
    X=              0.3167    Y=              4.6573    Z=              2.6072  Tot=              5.3468

 Test job not archived.
 1\1\GINC-SE117\SP\RHF\Aug-CC-pVDZ\C9H11F2N3O4\OHZDE\08-Apr-2025\0\\#t
 hf aug-cc-pvdz iop(5/13=1,5/36=2,99/5=2) pseudo=read geom=check guess=
 (read,tcheck) scf=(maxcycle=1)\\title\\0,1\H,0,-1.98463,2.63571,0.1327
 \O,0,-2.94418,2.47035,0.15337\C,0,-3.22777,1.63717,-0.96473\C,0,-2.442
 66,0.33909,-0.93576\H,0,-3.02434,2.15717,-1.91903\H,0,-4.30221,1.4054,
 -0.92587\H,0,-2.7168,-0.29008,-1.80313\O,0,-1.03679,0.67415,-1.00462\C
 ,0,-2.63498,-0.52184,0.33257\C,0,-0.32796,-0.43019,-0.43602\H,0,-3.161
 94,0.04047,1.12269\O,0,-3.31124,-1.70676,-0.04092\C,0,-1.18131,-0.7719

 Normal termination of Gaussian 16 at Tue Apr  8 17:34:35 2025.
