 Gaussian 16, Revision C.01,

 ----------------------------------------------------------------------
 #t hf aug-cc-pvdz symm=none int=(grid=ultrafine) guess=(read,tcheck) s
 table=(opt,rrhf)
 ----------------------------------------------------------------------
 -----
 title
 -----
 Symbolic Z-matrix:
 Charge =  0 Multiplicity = 1

 SCF Done:  E(RHF) =  -822.384312210     A.U. after   17 cycles
 Normal termination of Gaussian 16 at Tue Apr  8 18:39:05 2025.
 Gaussian 16:  ES64L-G16RevC.01  3-Jul-2019

 ----------------------------------------------------------------------
 #t hf aug-cc-pvdz iop(5/13=1,5/36=2,99/5=2) pseudo=read geom=check gue
 ss=(read,tcheck) scf=(maxcycle=1)
 ----------------------------------------------------------------------
 -----
 title
 -----
 Structure from the checkpoint file:  "37Conf8_Propranolol_3_mol1.chk"
 Charge =  0 Multiplicity = 1

                         Standard orientation:
 ---------------------------------------------------------------------
 Center     Atomic      Atomic             Coordinates (Angstroms)
 Number     Number       Type             X           Y           Z
 ---------------------------------------------------------------------
      1          1           0        0.685880   -1.998890   -0.715621
      2          8           0        1.645560   -1.942679   -0.553661
      3          6           0        1.809920   -1.100069    0.593419
      4          6           0        3.279140   -0.701439    0.663069
      5          6           0        0.890490    0.107840    0.500129
      6          1           0        1.555260   -1.664249    1.512579
      7          7           0        3.648770    0.078641   -0.513251
      8          1           0        3.866680   -1.633509    0.793639
      9          1           0        3.432070   -0.094859    1.569739
     10          6           0        5.053810    0.509991   -0.601491
     11          1           0        3.413700   -0.480159   -1.337201
     12          6           0        6.080400   -0.633868   -0.579831
     13          6           0        5.365339    1.554082    0.471609
     14          1           0        5.131870    1.011231   -1.581731
     15          1           0        5.848920   -1.387158   -1.347681
     16          1           0        7.093120   -0.251008   -0.775291
     17          1           0        6.102460   -1.139048    0.397369
     18          1           0        6.360379    1.990452    0.305949
     19          1           0        4.620639    2.361711    0.451769
     20          1           0        5.368670    1.110472    1.478929
     21          8           0       -0.443170   -0.414170    0.411839
     22          1           0        1.134810    0.699750   -0.395141
     23          1           0        0.991660    0.745610    1.396059
     24          6           0       -1.467600    0.464040    0.197109
     25          6           0       -1.307581    1.836060    0.106449
     26          6           0       -2.763870   -0.130780    0.071489
     27          1           0       -0.323011    2.289270    0.207189
     28          6           0       -2.432391    2.663730   -0.120651
     29          6           0       -2.967270   -1.529711    0.170109
     30          6           0       -3.889070    0.726899   -0.160811
     31          1           0       -2.283101    3.742560   -0.190351
     32          6           0       -3.693981    2.130829   -0.254161
     33          1           0       -2.109740   -2.175230    0.358349
     34          6           0       -4.231720   -2.068301    0.039669
     35          6           0       -5.173150    0.136589   -0.289981
     36          1           0       -4.557511    2.774559   -0.430761
     37          1           0       -4.374389   -3.147291    0.118549
     38          6           0       -5.344010   -1.228641   -0.193721
     39          1           0       -6.029970    0.790389   -0.467721
     40          1           0       -6.339640   -1.663801   -0.295711
 ---------------------------------------------------------------------

 SCF Done:  E(RHF) =  -823.236585420     A.U. after    2 cycles

 The electronic state is 1-A.
 Alpha  occ. eigenvalues --  -20.58026 -20.54905 -15.48046 -11.31488 -11.29632
 Alpha  occ. eigenvalues --  -11.29366 -11.26212 -11.25981 -11.25409 -11.25006
 Alpha  occ. eigenvalues --  -11.24982 -11.24785 -11.24651 -11.24524 -11.24445
 Alpha  occ. eigenvalues --  -11.23997 -11.23790 -11.22454 -11.22431  -1.50519
 Alpha  occ. eigenvalues --   -1.44452  -1.20561  -1.17568  -1.11021  -1.06581
 Alpha  occ. eigenvalues --   -1.04502  -1.01632  -1.00854  -0.97822  -0.93420
 Alpha  occ. eigenvalues --   -0.92840  -0.85951  -0.85506  -0.82274  -0.80651
 Alpha  occ. eigenvalues --   -0.78033  -0.73789  -0.72454  -0.70276  -0.70007
 Alpha  occ. eigenvalues --   -0.68507  -0.67068  -0.66300  -0.64520  -0.63188
 Alpha  occ. eigenvalues --   -0.62089  -0.61254  -0.60636  -0.59160  -0.58330
 Alpha  occ. eigenvalues --   -0.58116  -0.56601  -0.55802  -0.54469  -0.54183
 Alpha  occ. eigenvalues --   -0.53460  -0.53331  -0.51743  -0.50763  -0.49872
 Alpha  occ. eigenvalues --   -0.49274  -0.49239  -0.48460  -0.47657  -0.45014
 Alpha  occ. eigenvalues --   -0.44169  -0.40042  -0.37679  -0.33278  -0.28792
 Alpha virt. eigenvalues --    0.03005   0.03300   0.03467   0.03682   0.03860
 Alpha virt. eigenvalues --    0.04163   0.04736   0.04990   0.05322   0.05654
 Alpha virt. eigenvalues --    0.06250   0.06724   0.07177   0.07358   0.08364

 Mulliken charges:
               1
     1  H    0.417559
     2  O   -1.561004
     3  C    0.946729
     4  C   -0.300784
     5  C   -0.395741
     6  H    0.140601
     7  N    0.895337
     8  H    0.112762
     9  H   -0.011248
    10  C   -1.983507
    11  H    0.320710
    12  C   -0.058387
    13  C    0.030890
    14  H    0.067578
    15  H    0.168481
    16  H    0.128915
    17  H    0.230593
    18  H    0.112301
    19  H    0.176611
    20  H    0.218958
    21  O   -2.145865
    22  H    0.284152
    23  H    0.176464
    24  C    1.424570
    25  C   -0.550352
    26  C    1.903858
    27  H   -0.394148
    28  C   -0.012430
    29  C    0.258596
    30  C    1.458305
    31  H   -0.254720
    32  C   -0.037875
    33  H   -0.305383
    34  C   -0.392073
    35  C    0.154413
    36  H   -0.299206
    37  H   -0.242387
    38  C   -0.164909
    39  H   -0.293797
    40  H   -0.224566
 Sum of Mulliken charges =  -0.00000

 Dipole moment (field-independent basis, Debye):
    X=              0.7487    Y=              0.5988    Z=              0.6508  Tot=              1.1587

 Test job not archived.
 1\1\GINC-SE127\SP\RHF\Aug-CC-pVDZ\C16H21N1O2\OHZDE\08-Apr-2025\0\\#t h
 f aug-cc-pvdz iop(5/13=1,5/36=2,99/5=2) pseudo=read geom=check guess=(
 read,tcheck) scf=(maxcycle=1)\\title\\0,1\H,0,0.68588,-1.99889,-0.7156
 2\O,0,1.64556,-1.94268,-0.55366\C,0,1.80992,-1.10007,0.59342\C,0,3.279
 14,-0.70144,0.66307\C,0,0.89049,0.10784,0.50013\H,0,1.55526,-1.66425,1
 .51258\N,0,3.64877,0.07864,-0.51325\H,0,3.86668,-1.63351,0.79364\H,0,3
 .43207,-0.09486,1.56974\C,0,5.05381,0.50999,-0.60149\H,0,3.4137,-0.480
 16,-1.3372\C,0,6.0804,-0.63387,-0.57983\C,0,5.36534,1.55408,0.47161\H,

 Normal termination of Gaussian 16 at Tue Apr  8 18:40:19 2025.
