 Gaussian 16, Revision C.01,

 ----------------------------------------------------------------------
 #t hf aug-cc-pvdz symm=none int=(grid=ultrafine) guess=(read,tcheck) s
 table=(opt,rrhf)
 ----------------------------------------------------------------------
 -----
 title
 -----
 Symbolic Z-matrix:
 Charge =  0 Multiplicity = 1

 SCF Done:  E(RHF) =  -1112.29847153     A.U. after   16 cycles
 Normal termination of Gaussian 16 at Tue Apr  8 17:28:13 2025.
 Gaussian 16:  ES64L-G16RevC.01  3-Jul-2019

 ----------------------------------------------------------------------
 #t hf aug-cc-pvdz iop(5/13=1,5/36=2,99/5=2) pseudo=read geom=check gue
 ss=(read,tcheck) scf=(maxcycle=1)
 ----------------------------------------------------------------------
 -----
 title
 -----
 Structure from the checkpoint file:  "37Conf8_Cimetidine_8_mol1.chk"
 Charge =  0 Multiplicity = 1

                         Standard orientation:
 ---------------------------------------------------------------------
 Center     Atomic      Atomic             Coordinates (Angstroms)
 Number     Number       Type             X           Y           Z
 ---------------------------------------------------------------------
      1          7           0        5.770249   -0.796023   -1.027450
      2          6           0        5.038030    0.078217   -0.732890
      3          7           0        4.241310    1.088498   -0.435340
      4          6           0        3.034110    0.801689    0.034540
      5          7           0        2.520629   -0.468231    0.042710
      6          7           0        2.286321    1.835409    0.503120
      7          6           0        1.723479   -1.042141    1.121380
      8          1           0        3.172599   -1.129292   -0.385330
      9          6           0        0.832291    1.931290    0.423990
     10          1           0        2.809771    2.705599    0.474250
     11          6           0        0.741268   -2.093570    0.605810
     12          1           0        1.192559   -0.238410    1.644750
     13          1           0        2.388959   -1.517541    1.867080
     14         16           0       -0.614961   -1.435810   -0.414780
     15          1           0        1.267428   -2.822451   -0.029240
     16          1           0        0.315828   -2.656270    1.451080
     17          6           0       -1.715551   -0.790989    0.913290
     18          6           0       -2.723020    0.138222    0.335690
     19          1           0       -2.187981   -1.644009    1.422090
     20          1           0       -1.105311   -0.239419    1.641160
     21          7           0       -2.519550    1.507912    0.336020
     22          6           0       -3.919891   -0.177058   -0.285320
     23          6           0       -3.574239    2.023172   -0.264450
     24          7           0       -4.447990    1.045123   -0.658040
     25          6           0       -4.590801   -1.475717   -0.562860
     26          1           0       -3.761739    3.079422   -0.436890
     27          1           0       -5.331200    1.184683   -1.137430
     28          1           0       -4.741461   -1.637327   -1.641920
     29          1           0       -3.967712   -2.301028   -0.196540
     30          1           0       -5.574501   -1.549117   -0.071860
     31          1           0        0.424670    1.085410   -0.143440
     32          1           0        0.547351    2.853240   -0.100600
     33          1           0        0.359281    1.951970    1.417120
 ---------------------------------------------------------------------

 SCF Done:  E(RHF) =  -1113.08786943     A.U. after    2 cycles

 The electronic state is 1-A.
 Alpha  occ. eigenvalues --  -93.95060 -15.57468 -15.54175 -15.53769 -15.50176
 Alpha  occ. eigenvalues --  -15.49218 -15.46698 -11.39229 -11.31815 -11.30158
 Alpha  occ. eigenvalues --  -11.28653 -11.28624 -11.28449 -11.27935 -11.27621
 Alpha  occ. eigenvalues --  -11.26756 -11.26466  -8.23116  -6.20930  -6.20775
 Alpha  occ. eigenvalues --   -6.20559  -1.34929  -1.33554  -1.22762  -1.22189
 Alpha  occ. eigenvalues --   -1.19040  -1.16325  -1.11481  -1.07411  -1.02453
 Alpha  occ. eigenvalues --   -0.98579  -0.96519  -0.92564  -0.87390  -0.86636
 Alpha  occ. eigenvalues --   -0.84515  -0.82402  -0.79377  -0.76102  -0.74128
 Alpha  occ. eigenvalues --   -0.69260  -0.67745  -0.67430  -0.66048  -0.65640
 Alpha  occ. eigenvalues --   -0.64383  -0.61774  -0.60966  -0.59673  -0.58889
 Alpha  occ. eigenvalues --   -0.58407  -0.58170  -0.57644  -0.57518  -0.56919
 Alpha  occ. eigenvalues --   -0.55886  -0.54785  -0.51983  -0.50032  -0.49186
 Alpha  occ. eigenvalues --   -0.46509  -0.44848  -0.43739  -0.42959  -0.38786
 Alpha  occ. eigenvalues --   -0.35859  -0.33265
 Alpha virt. eigenvalues --    0.01712   0.02573   0.02895   0.03482   0.03683
 Alpha virt. eigenvalues --    0.03838   0.04493   0.05323   0.05788   0.06094
 Alpha virt. eigenvalues --    0.06780   0.07860   0.08295   0.08571   0.09111

 Mulliken charges:
               1
     1  N    1.019005
     2  C   -1.939286
     3  N    0.937454
     4  C   -1.706182
     5  N    0.385891
     6  N    0.724179
     7  C   -0.485920
     8  H    0.475852
     9  C   -0.416892
    10  H    0.294587
    11  C   -0.608120
    12  H    0.045345
    13  H    0.078943
    14  S    0.440184
    15  H    0.151389
    16  H    0.167877
    17  C   -0.199290
    18  C   -0.571929
    19  H    0.100430
    20  H    0.149648
    21  N    1.217954
    22  C   -0.778483
    23  C   -0.803034
    24  N    1.029293
    25  C   -0.812166
    26  H   -0.126253
    27  H   -0.032400
    28  H    0.279992
    29  H    0.211462
    30  H    0.253381
    31  H    0.287971
    32  H   -0.001080
    33  H    0.230198
 Sum of Mulliken charges =  -0.00000

 Dipole moment (field-independent basis, Debye):
    X=            -12.3881    Y=              0.9297    Z=              2.8324  Tot=             12.7418

 Test job not archived.
 1\1\GINC-SE225\SP\RHF\Aug-CC-pVDZ\C10H16N6S1\OHZDE\08-Apr-2025\0\\#t h
 f aug-cc-pvdz iop(5/13=1,5/36=2,99/5=2) pseudo=read geom=check guess=(
 read,tcheck) scf=(maxcycle=1)\\title\\0,1\N,0,5.77025,-0.79602,-1.0274
 5\C,0,5.03803,0.07822,-0.73289\N,0,4.24131,1.0885,-0.43534\C,0,3.03411
 ,0.80169,0.03454\N,0,2.52063,-0.46823,0.04271\N,0,2.28632,1.83541,0.50
 312\C,0,1.72348,-1.04214,1.12138\H,0,3.1726,-1.12929,-0.38533\C,0,0.83
 229,1.93129,0.42399\H,0,2.80977,2.7056,0.47425\C,0,0.74127,-2.09357,0.
 60581\H,0,1.19256,-0.23841,1.64475\H,0,2.38896,-1.51754,1.86708\S,0,-0

 Normal termination of Gaussian 16 at Tue Apr  8 17:29:01 2025.
