 Gaussian 16, Revision C.01,

 ----------------------------------------------------------------------
 #t hf aug-cc-pvdz symm=none int=(grid=ultrafine) guess=(read,tcheck) s
 table=(opt,rrhf)
 ----------------------------------------------------------------------
 -----
 title
 -----
 Symbolic Z-matrix:
 Charge =  0 Multiplicity = 1

 SCF Done:  E(RHF) =  -1689.88914349     A.U. after   16 cycles
 Normal termination of Gaussian 16 at Tue Apr  8 17:37:34 2025.
 Gaussian 16:  ES64L-G16RevC.01  3-Jul-2019

 ----------------------------------------------------------------------
 #t hf aug-cc-pvdz iop(5/13=1,5/36=2,99/5=2) pseudo=read geom=check gue
 ss=(read,tcheck) scf=(maxcycle=1)
 ----------------------------------------------------------------------
 -----
 title
 -----
 Structure from the checkpoint file:  "37Conf8_Fotemustin_6_mol1.chk"
 Charge =  0 Multiplicity = 1

                         Standard orientation:
 ---------------------------------------------------------------------
 Center     Atomic      Atomic             Coordinates (Angstroms)
 Number     Number       Type             X           Y           Z
 ---------------------------------------------------------------------
      1          8           0       -2.211090   -0.530840    2.439330
      2          7           0       -1.476960   -0.989130    1.577120
      3          7           0       -1.747880   -0.556900    0.307010
      4          6           0       -2.878849    0.331560    0.029840
      5          6           0       -1.082770   -1.186570   -0.802200
      6          6           0       -4.192020   -0.438939   -0.072270
      7          1           0       -2.930209    1.053900    0.855060
      8          1           0       -2.668149    0.845190   -0.914330
      9         17           0       -5.536669    0.717082   -0.352360
     10          1           0       -4.413350   -0.975669    0.856750
     11          1           0       -4.165510   -1.131319   -0.920150
     12          7           0        0.166180   -1.692001   -0.592400
     13          8           0       -1.679030   -1.270230   -1.867330
     14          6           0        1.197650   -1.285501    0.366940
     15          1           0        0.538090   -2.079601   -1.460930
     16         15           0        2.194891    0.025548   -0.453580
     17          6           0        2.058220   -2.481852    0.766130
     18          1           0        0.708990   -0.876761    1.257970
     19          8           0        3.234561    0.419178    0.712540
     20          8           0        1.211271    1.292899   -0.627750
     21          8           0        2.760350   -0.387272   -1.759010
     22          6           0        4.481311    1.088007    0.342510
     23          6           0        0.746952    2.066529    0.509180
     24          6           0        5.590281    0.077977    0.139220
     25          1           0        4.695061    1.769937    1.177310
     26          1           0        4.318451    1.686607   -0.566710
     27          6           0       -0.121898    3.189469   -0.012800
     28          1           0        0.178741    1.413439    1.192350
     29          1           0        1.619002    2.452368    1.058780
     30          1           0        5.734000   -0.530303    1.043050
     31          1           0        6.533531    0.600616   -0.078420
     32          1           0        5.354170   -0.582153   -0.705530
     33          1           0       -0.493658    3.793869    0.826940
     34          1           0       -0.985388    2.794770   -0.564820
     35          1           0        0.449212    3.841479   -0.687100
     36          1           0        2.832360   -2.172262    1.479220
     37          1           0        1.427029   -3.249722    1.233380
     38          1           0        2.556489   -2.915722   -0.112570
 ---------------------------------------------------------------------

 SCF Done:  E(RHF) =  -1690.90613394     A.U. after    2 cycles

 The electronic state is 1-A.
 Alpha  occ. eigenvalues -- -105.56142 -84.42802 -20.62199 -20.59023 -20.58750
 Alpha  occ. eigenvalues --  -20.54105 -20.50498 -15.71262 -15.60771 -15.55806
 Alpha  occ. eigenvalues --  -11.42861 -11.32445 -11.32163 -11.31434 -11.31167
 Alpha  occ. eigenvalues --  -11.30672 -11.25830 -11.25179 -11.24446 -10.60950
 Alpha  occ. eigenvalues --   -7.77897  -7.77525  -7.77510  -6.88048  -4.42174
 Alpha  occ. eigenvalues --   -4.41695  -4.40997  -1.61614  -1.52970  -1.49608
 Alpha  occ. eigenvalues --   -1.47530  -1.38558  -1.33167  -1.26818  -1.13234
 Alpha  occ. eigenvalues --   -1.07721  -1.05466  -1.05117  -1.04242  -0.98080
 Alpha  occ. eigenvalues --   -0.91667  -0.89416  -0.88189  -0.87460  -0.83471
 Alpha  occ. eigenvalues --   -0.81192  -0.79638  -0.74824  -0.72552  -0.71953
 Alpha  occ. eigenvalues --   -0.71314  -0.69277  -0.68350  -0.67824  -0.66758
 Alpha  occ. eigenvalues --   -0.66492  -0.64208  -0.63143  -0.61814  -0.61055
 Alpha  occ. eigenvalues --   -0.60521  -0.60098  -0.58184  -0.57685  -0.56440
 Alpha  occ. eigenvalues --   -0.56167  -0.55827  -0.55579  -0.55121  -0.54710
 Alpha  occ. eigenvalues --   -0.53385  -0.52392  -0.50721  -0.49385  -0.49031
 Alpha  occ. eigenvalues --   -0.48296  -0.47129  -0.46500  -0.45809  -0.45186
 Alpha  occ. eigenvalues --   -0.44721  -0.44240  -0.42242
 Alpha virt. eigenvalues --    0.02560   0.03130   0.03370   0.03707   0.03999
 Alpha virt. eigenvalues --    0.04571   0.04737   0.05414   0.05857   0.06099
 Alpha virt. eigenvalues --    0.06289   0.06872   0.07175   0.07614   0.08678

 Mulliken charges:
               1
     1  O   -1.139082
     2  N    1.038894
     3  N    0.665240
     4  C   -0.279732
     5  C   -0.466453
     6  C   -0.509792
     7  H    0.133545
     8  H    0.150293
     9  Cl  -0.061992
    10  H    0.297958
    11  H    0.256219
    12  N    0.915398
    13  O   -1.254679
    14  C   -1.556599
    15  H    0.294290
    16  P    5.315723
    17  C   -0.041790
    18  H    0.128008
    19  O   -1.863940
    20  O   -1.992924
    21  O   -1.762769
    22  C    0.252654
    23  C    0.378514
    24  C   -0.457508
    25  H    0.019334
    26  H    0.299798
    27  C   -0.577258
    28  H    0.175184
    29  H    0.093682
    30  H    0.212945
    31  H    0.140625
    32  H    0.193563
    33  H    0.192597
    34  H    0.096888
    35  H    0.189506
    36  H    0.174787
    37  H    0.161183
    38  H    0.187690
 Sum of Mulliken charges =   0.00000

 Dipole moment (field-independent basis, Debye):
    X=              3.6365    Y=              1.5958    Z=              4.2713  Tot=              5.8322

 Test job not archived.
 1\1\GINC-SE334\SP\RHF\Aug-CC-pVDZ\C9H19Cl1N3O5P1\OHZDE\08-Apr-2025\0\\
 #t hf aug-cc-pvdz iop(5/13=1,5/36=2,99/5=2) pseudo=read geom=check gue
 ss=(read,tcheck) scf=(maxcycle=1)\\title\\0,1\O,0,2.21109,-0.53084,-2.
 43933\N,0,1.47696,-0.98913,-1.57712\N,0,1.74788,-0.5569,-0.30701\C,0,2
 .87885,0.33156,-0.02984\C,0,1.08277,-1.18657,0.8022\C,0,4.19202,-0.438
 94,0.07227\H,0,2.93021,1.0539,-0.85506\H,0,2.66815,0.84519,0.91433\Cl,
 0,5.53667,0.71708,0.35236\H,0,4.41335,-0.97567,-0.85675\H,0,4.16551,-1
 .13132,0.92015\N,0,-0.16618,-1.692,0.5924\O,0,1.67903,-1.27023,1.86733

 Normal termination of Gaussian 16 at Tue Apr  8 17:38:46 2025.
