 Gaussian 16, Revision C.01,

 ----------------------------------------------------------------------
 #t hf aug-cc-pvdz symm=none int=(grid=ultrafine) guess=(read,tcheck) s
 table=(opt,rrhf)
 ----------------------------------------------------------------------
 -----
 title
 -----
 Symbolic Z-matrix:
 Charge =  0 Multiplicity = 1

 SCF Done:  E(RHF) =  -1009.03505716     A.U. after   15 cycles
 Normal termination of Gaussian 16 at Tue Apr  8 17:31:03 2025.
 Gaussian 16:  ES64L-G16RevC.01  3-Jul-2019

 ----------------------------------------------------------------------
 #t hf aug-cc-pvdz iop(5/13=1,5/36=2,99/5=2) pseudo=read geom=check gue
 ss=(read,tcheck) scf=(maxcycle=1)
 ----------------------------------------------------------------------
 -----
 title
 -----
 Structure from the checkpoint file:  "37Conf8_Gemcitabine_4_mol1.chk"
 Charge =  0 Multiplicity = 1

                         Standard orientation:
 ---------------------------------------------------------------------
 Center     Atomic      Atomic             Coordinates (Angstroms)
 Number     Number       Type             X           Y           Z
 ---------------------------------------------------------------------
      1          1           0       -4.677129   -0.782797   -0.108840
      2          8           0       -4.543939   -1.577777    0.441450
      3          6           0       -3.156299   -1.887267    0.435800
      4          6           0       -2.315189   -0.631017    0.596520
      5          1           0       -2.850930   -2.409077   -0.493610
      6          1           0       -2.973500   -2.566707    1.280560
      7          1           0       -2.659189   -0.069067    1.487110
      8          8           0       -0.928529   -0.973978    0.714880
      9          6           0       -2.352549    0.303153   -0.618660
     10          6           0       -0.199369    0.250082    0.563750
     11          1           0       -2.284589   -0.306547   -1.540770
     12          8           0       -3.524149    1.092323   -0.593900
     13          6           0       -1.010159    1.062322   -0.493650
     14          1           0       -0.171029    0.837482    1.497540
     15          7           0        1.167911   -0.036508    0.234650
     16          1           0       -3.496778    1.727273   -1.331340
     17          9           0       -1.190718    2.352892   -0.086420
     18          9           0       -0.369759    1.120672   -1.714140
     19          6           0        2.209091    0.596631    1.038720
     20          6           0        1.475181   -0.907279   -0.764900
     21          8           0        1.871772    1.362991    1.931440
     22          7           0        3.496021    0.277421    0.724400
     23          1           0        0.631771   -1.357378   -1.286570
     24          6           0        2.767991   -1.205349   -1.061070
     25          6           0        3.771041   -0.560599   -0.263600
     26          1           0        3.012911   -1.902769   -1.859360
     27          7           0        5.083811   -0.795750   -0.519880
     28          1           0        5.372531   -1.510820   -1.172890
     29          1           0        5.766351   -0.390350    0.110560
 ---------------------------------------------------------------------

 SCF Done:  E(RHF) =  -1010.02107818     A.U. after    2 cycles

 The electronic state is 1-A.
 Alpha  occ. eigenvalues --  -26.50159 -26.49788 -20.60043 -20.59365 -20.56103
 Alpha  occ. eigenvalues --  -20.50394 -15.57378 -15.54759 -15.48764 -11.44547
 Alpha  occ. eigenvalues --  -11.39005 -11.36657 -11.36585 -11.34003 -11.33922
 Alpha  occ. eigenvalues --  -11.32314 -11.30718 -11.25855  -1.66230  -1.59524
 Alpha  occ. eigenvalues --   -1.51845  -1.49674  -1.45776  -1.45613  -1.31989
 Alpha  occ. eigenvalues --   -1.28009  -1.19443  -1.09644  -1.09259  -1.04448
 Alpha  occ. eigenvalues --   -0.96318  -0.92777  -0.91342  -0.87995  -0.85424
 Alpha  occ. eigenvalues --   -0.81249  -0.79426  -0.78224  -0.76833  -0.76102
 Alpha  occ. eigenvalues --   -0.73961  -0.72226  -0.71982  -0.69689  -0.69534
 Alpha  occ. eigenvalues --   -0.67028  -0.66090  -0.64961  -0.64607  -0.63476
 Alpha  occ. eigenvalues --   -0.62572  -0.62222  -0.62191  -0.60927  -0.59978
 Alpha  occ. eigenvalues --   -0.58554  -0.57308  -0.55863  -0.53694  -0.51477
 Alpha  occ. eigenvalues --   -0.50677  -0.48421  -0.48065  -0.46150  -0.45524
 Alpha  occ. eigenvalues --   -0.43715  -0.42626  -0.36591
 Alpha virt. eigenvalues --    0.02031   0.02515   0.03029   0.04231   0.04738
 Alpha virt. eigenvalues --    0.05498   0.06095   0.06534   0.06925   0.07066
 Alpha virt. eigenvalues --    0.07760   0.08727   0.08954   0.10060   0.10236

 Mulliken charges:
               1
     1  H    0.457501
     2  O   -1.311261
     3  C    0.931665
     4  C   -0.062944
     5  H    0.219175
     6  H    0.187329
     7  H    0.195285
     8  O   -1.868751
     9  C    0.709961
    10  C   -0.138276
    11  H    0.196673
    12  O   -1.429596
    13  C    2.504804
    14  H   -0.039659
    15  N    1.713834
    16  H    0.319164
    17  F   -0.967678
    18  F   -1.032298
    19  C    0.447635
    20  C   -0.527340
    21  O   -1.363846
    22  N    1.496914
    23  H   -0.356479
    24  C    1.450210
    25  C   -2.585968
    26  H   -0.254295
    27  N    0.963045
    28  H    0.126491
    29  H    0.018705
 Sum of Mulliken charges =   0.00000

 Dipole moment (field-independent basis, Debye):
    X=              0.9726    Y=             -3.8660    Z=             -6.0235  Tot=              7.2232

 Test job not archived.
 1\1\GINC-SE364\SP\RHF\Aug-CC-pVDZ\C9H11F2N3O4\OHZDE\08-Apr-2025\0\\#t
 hf aug-cc-pvdz iop(5/13=1,5/36=2,99/5=2) pseudo=read geom=check guess=
 (read,tcheck) scf=(maxcycle=1)\\title\\0,1\H,0,-4.67713,-0.7828,-0.108
 84\O,0,-4.54394,-1.57778,0.44145\C,0,-3.1563,-1.88727,0.4358\C,0,-2.31
 519,-0.63102,0.59652\H,0,-2.85093,-2.40908,-0.49361\H,0,-2.9735,-2.566
 71,1.28056\H,0,-2.65919,-0.06907,1.48711\O,0,-0.92853,-0.97398,0.71488
 \C,0,-2.35255,0.30315,-0.61866\C,0,-0.19937,0.25008,0.56375\H,0,-2.284
 59,-0.30655,-1.54077\O,0,-3.52415,1.09232,-0.5939\C,0,-1.01016,1.06232

 Normal termination of Gaussian 16 at Tue Apr  8 17:31:37 2025.
