 Gaussian 16, Revision C.01,

 ----------------------------------------------------------------------
 #t hf aug-cc-pvdz symm=none int=(grid=ultrafine) guess=(read,tcheck) s
 table=(opt,rrhf)
 ----------------------------------------------------------------------
 -----
 title
 -----
 Symbolic Z-matrix:
 Charge =  0 Multiplicity = 1

 SCF Done:  E(RHF) =  -914.168559441     A.U. after   15 cycles
 Normal termination of Gaussian 16 at Tue Apr  8 19:09:21 2025.
 Gaussian 16:  ES64L-G16RevC.01  3-Jul-2019

 ----------------------------------------------------------------------
 #t hf aug-cc-pvdz iop(5/13=1,5/36=2,99/5=2) pseudo=read geom=check gue
 ss=(read,tcheck) scf=(maxcycle=1)
 ----------------------------------------------------------------------
 -----
 title
 -----
 Structure from the checkpoint file:  "37Conf8_shiepox_depox_8_mol1.chk"
 Charge =  0 Multiplicity = 1

                         Standard orientation:
 ---------------------------------------------------------------------
 Center     Atomic      Atomic             Coordinates (Angstroms)
 Number     Number       Type             X           Y           Z
 ---------------------------------------------------------------------
      1          8           0        0.483330    2.401451   -0.451869
      2          6           0        0.088360    1.256061   -0.444729
      3          6           0        1.046440    0.049021   -0.338329
      4          6           0       -1.402230    0.935161   -0.570029
      5          8           0        0.628200   -0.950069   -1.294759
      6          8           0        2.327840    0.448401   -0.674429
      7          6           0        1.175490   -0.522879    1.109731
      8          1           0       -1.901420    1.824481   -0.993509
      9          8           0       -1.924390    0.616181    0.727531
     10          6           0       -1.740320   -0.338689   -1.345439
     11          6           0       -0.697240   -1.429419   -1.075919
     12          6           0        3.262280   -0.088759    0.295961
     13          1           0        1.011250   -1.616039    1.074011
     14          1           0        0.474860   -0.074009    1.825411
     15          8           0        2.495620   -0.192759    1.499121
     16          6           0       -3.159580   -0.089729    0.489421
     17          1           0       -1.844630   -0.154179   -2.424789
     18          8           0       -3.017460   -0.703999   -0.818069
     19          1           0       -0.835810   -2.275469   -1.761899
     20          1           0       -0.825950   -1.804859   -0.045439
     21          6           0        3.771860   -1.451879   -0.165499
     22          6           0        4.360690    0.930601    0.508451
     23          6           0       -3.311530   -1.148479    1.567791
     24          6           0       -4.337560    0.876051    0.438861
     25          1           0        4.301150   -1.347939   -1.121729
     26          1           0        2.938310   -2.150109   -0.314109
     27          1           0        4.462230   -1.866079    0.581731
     28          1           0        4.930150    1.068760   -0.419509
     29          1           0        3.916660    1.887921    0.806181
     30          1           0        5.043860    0.583380    1.294501
     31          1           0       -4.226290   -1.729439    1.392711
     32          1           0       -2.451500   -1.829389    1.558031
     33          1           0       -3.379650   -0.673599    2.555671
     34          1           0       -4.156980    1.663941   -0.303739
     35          1           0       -5.250000    0.336171    0.152541
     36          1           0       -4.491290    1.340451    1.422111
 ---------------------------------------------------------------------

 SCF Done:  E(RHF) =  -915.091225426     A.U. after    2 cycles

 The electronic state is 1-A.
 Alpha  occ. eigenvalues --  -20.57992 -20.57390 -20.56995 -20.56284 -20.56255
 Alpha  occ. eigenvalues --  -20.56169 -11.37130 -11.36601 -11.35511 -11.35375
 Alpha  occ. eigenvalues --  -11.31963 -11.31538 -11.30736 -11.30729 -11.24533
 Alpha  occ. eigenvalues --  -11.24228 -11.23235 -11.22806  -1.54678  -1.53516
 Alpha  occ. eigenvalues --   -1.48734  -1.47988  -1.43951  -1.43058  -1.11091
 Alpha  occ. eigenvalues --   -1.08631  -1.02320  -1.01039  -0.97290  -0.95995
 Alpha  occ. eigenvalues --   -0.94834  -0.88791  -0.87018  -0.81360  -0.80945
 Alpha  occ. eigenvalues --   -0.77469  -0.74323  -0.73023  -0.70080  -0.68951
 Alpha  occ. eigenvalues --   -0.67765  -0.65959  -0.65224  -0.64443  -0.63314
 Alpha  occ. eigenvalues --   -0.62221  -0.61631  -0.61549  -0.58877  -0.58118
 Alpha  occ. eigenvalues --   -0.56853  -0.56416  -0.56131  -0.55566  -0.54726
 Alpha  occ. eigenvalues --   -0.54297  -0.53310  -0.52523  -0.52456  -0.52067
 Alpha  occ. eigenvalues --   -0.51629  -0.51027  -0.50344  -0.47192  -0.46456
 Alpha  occ. eigenvalues --   -0.45476  -0.43104  -0.43025  -0.40179
 Alpha virt. eigenvalues --    0.02984   0.03240   0.03330   0.03985   0.04538
 Alpha virt. eigenvalues --    0.04757   0.04979   0.05637   0.05656   0.06636
 Alpha virt. eigenvalues --    0.07136   0.07635   0.08065   0.08419   0.09009

 Mulliken charges:
               1
     1  O   -1.632546
     2  C    1.708533
     3  C    1.866539
     4  C    0.481793
     5  O   -1.731498
     6  O   -2.001529
     7  C    0.217502
     8  H    0.060024
     9  O   -1.712725
    10  C    0.716119
    11  C    0.325244
    12  C    0.934741
    13  H    0.222303
    14  H    0.060817
    15  O   -1.700246
    16  C    1.170048
    17  H    0.029023
    18  O   -1.740762
    19  H    0.026536
    20  H    0.256250
    21  C   -0.228164
    22  C   -0.033534
    23  C   -0.085656
    24  C   -0.240564
    25  H    0.259910
    26  H    0.150198
    27  H    0.289004
    28  H    0.280841
    29  H    0.275821
    30  H    0.266173
    31  H    0.286007
    32  H    0.171901
    33  H    0.291784
    34  H    0.230145
    35  H    0.260761
    36  H    0.269205
 Sum of Mulliken charges =  -0.00000

 Dipole moment (field-independent basis, Debye):
    X=             -2.0957    Y=             -2.7352    Z=              0.5212  Tot=              3.4850

 Test job not archived.
 1\1\GINC-SE179\SP\RHF\Aug-CC-pVDZ\C12H18O6\OHZDE\08-Apr-2025\0\\#t hf
 aug-cc-pvdz iop(5/13=1,5/36=2,99/5=2) pseudo=read geom=check guess=(re
 ad,tcheck) scf=(maxcycle=1)\\title\\0,1\O,0,0.48333,2.40145,-0.45187\C
 ,0,0.08836,1.25606,-0.44473\C,0,1.04644,0.04902,-0.33833\C,0,-1.40223,
 0.93516,-0.57003\O,0,0.6282,-0.95007,-1.29476\O,0,2.32784,0.4484,-0.67
 443\C,0,1.17549,-0.52288,1.10973\H,0,-1.90142,1.82448,-0.99351\O,0,-1.
 92439,0.61618,0.72753\C,0,-1.74032,-0.33869,-1.34544\C,0,-0.69724,-1.4
 2942,-1.07592\C,0,3.26228,-0.08876,0.29596\H,0,1.01125,-1.61604,1.0740

 Normal termination of Gaussian 16 at Tue Apr  8 19:10:26 2025.
