 Gaussian 16, Revision C.01,

 ----------------------------------------------------------------------
 #t hf aug-cc-pvdz symm=none int=(grid=ultrafine) guess=(read,tcheck) s
 table=(opt,rrhf)
 ----------------------------------------------------------------------
 -----
 title
 -----
 Symbolic Z-matrix:
 Charge =  0 Multiplicity = 1

 SCF Done:  E(RHF) =  -360.953455062     A.U. after   14 cycles
 Normal termination of Gaussian 16 at Tue Apr  8 17:22:09 2025.
 Gaussian 16:  ES64L-G16RevC.01  3-Jul-2019

 ----------------------------------------------------------------------
 #t hf aug-cc-pvdz iop(5/13=1,5/36=2,99/5=2) pseudo=read geom=check gue
 ss=(read,tcheck) scf=(maxcycle=1)
 ----------------------------------------------------------------------
 -----
 title
 -----
 Structure from the checkpoint file:  "37Conf8_GABA_8_mol2.chk"
 Charge =  0 Multiplicity = 1

                         Standard orientation:
 ---------------------------------------------------------------------
 Center     Atomic      Atomic             Coordinates (Angstroms)
 Number     Number       Type             X           Y           Z
 ---------------------------------------------------------------------
      1          1           0        0.126437   -1.368137    0.333659
      2          8           0       -0.830293   -1.394946    0.006739
      3          6           0       -1.336831   -0.141976    0.049279
      4          6           0       -0.434449    0.896593    0.714809
      5          8           0       -2.432601    0.115776   -0.403661
      6          6           0        0.789811    1.319502   -0.123091
      7          1           0       -1.051068    1.779854    0.921389
      8          1           0       -0.097270    0.492313    1.682479
      9          6           0        1.639530    0.171750   -0.676311
     10          1           0        0.458932    1.935242   -0.973081
     11          1           0        1.418352    1.972781    0.505009
     12          7           0        1.836578   -0.885080    0.337869
     13          1           0        1.118739   -0.298299   -1.524321
     14          1           0        2.589750    0.579829   -1.064221
     15          1           0        2.434167   -1.628851   -0.027821
     16          1           0        2.300699   -0.511030    1.169059
 ---------------------------------------------------------------------

 SCF Done:  E(RHF) =  -361.326054945     A.U. after    2 cycles

 The electronic state is 1-A.
 Alpha  occ. eigenvalues --  -20.56392 -20.51330 -15.53114 -11.37452 -11.28919
 Alpha  occ. eigenvalues --  -11.26281 -11.25785  -1.50692  -1.42174  -1.21986
 Alpha  occ. eigenvalues --   -1.07729  -0.96604  -0.85282  -0.79581  -0.73457
 Alpha  occ. eigenvalues --   -0.70859  -0.68689  -0.64981  -0.63748  -0.60739
 Alpha  occ. eigenvalues --   -0.59172  -0.56614  -0.52984  -0.51753  -0.51022
 Alpha  occ. eigenvalues --   -0.46652  -0.44201  -0.41611
 Alpha virt. eigenvalues --    0.01999   0.03476   0.03514   0.04971   0.05687
 Alpha virt. eigenvalues --    0.06043   0.06748   0.07142   0.08311   0.11252
 Alpha virt. eigenvalues --    0.11686   0.13437   0.13958   0.14318   0.14528

 Mulliken charges:
               1
     1  H    0.772721
     2  O   -1.481799
     3  C    2.375077
     4  C   -0.616722
     5  O   -1.315737
     6  C   -0.447448
     7  H    0.094335
     8  H    0.296566
     9  C   -0.522847
    10  H    0.171140
    11  H    0.173166
    12  N   -0.135664
    13  H    0.118814
    14  H    0.056339
    15  H    0.211901
    16  H    0.250157
 Sum of Mulliken charges =  -0.00000

 Dipole moment (field-independent basis, Debye):
    X=              6.7335    Y=              1.2908    Z=              1.4084  Tot=              6.9993

 Test job not archived.
 1\1\GINC-SE079\SP\RHF\Aug-CC-pVDZ\C4H9N1O2\OHZDE\08-Apr-2025\0\\#t hf
 aug-cc-pvdz iop(5/13=1,5/36=2,99/5=2) pseudo=read geom=check guess=(re
 ad,tcheck) scf=(maxcycle=1)\\title\\0,1\H,0,0.12644,-1.36814,0.33366\O
 ,0,-0.83029,-1.39495,0.00674\C,0,-1.33683,-0.14198,0.04928\C,0,-0.4344
 5,0.89659,0.71481\O,0,-2.4326,0.11577,-0.40366\C,0,0.78981,1.3195,-0.1
 2309\H,0,-1.05107,1.77985,0.92139\H,0,-0.09727,0.49231,1.68248\C,0,1.6
 3953,0.17175,-0.67631\H,0,0.45893,1.93524,-0.97308\H,0,1.41835,1.97278
 ,0.50501\N,0,1.83658,-0.88508,0.33787\H,0,1.11874,-0.2983,-1.52432\H,0

 Normal termination of Gaussian 16 at Tue Apr  8 17:22:15 2025.
