 Gaussian 16, Revision C.01,

 ----------------------------------------------------------------------
 #t hf aug-cc-pvdz symm=none int=(grid=ultrafine) guess=(read,tcheck) s
 table=(opt,rrhf)
 ----------------------------------------------------------------------
 -----
 title
 -----
 Symbolic Z-matrix:
 Charge =  0 Multiplicity = 1

 SCF Done:  E(RHF) =  -891.119136367     A.U. after   14 cycles
 Normal termination of Gaussian 16 at Tue Apr  8 17:31:54 2025.
 Gaussian 16:  ES64L-G16RevC.01  3-Jul-2019

 ----------------------------------------------------------------------
 #t hf aug-cc-pvdz iop(5/13=1,5/36=2,99/5=2) pseudo=read geom=check gue
 ss=(read,tcheck) scf=(maxcycle=1)
 ----------------------------------------------------------------------
 -----
 title
 -----
 Structure from the checkpoint file:  "37Conf8_Glufosinate_5_mol1.chk"
 Charge =  0 Multiplicity = 1

                         Standard orientation:
 ---------------------------------------------------------------------
 Center     Atomic      Atomic             Coordinates (Angstroms)
 Number     Number       Type             X           Y           Z
 ---------------------------------------------------------------------
      1          1           0        3.610031    0.526922   -0.621670
      2          8           0        3.623122   -0.459998   -0.427120
      3          6           0        2.367372   -0.696328   -0.010720
      4          6           0        1.463151    0.551811   -0.085000
      5          8           0        1.988342   -1.791938    0.354750
      6          6           0        0.490751    0.646291    1.104570
      7          7           0        2.315210    1.740722   -0.270100
      8          1           0        0.857291    0.430861   -0.999560
      9          6           0       -0.640238   -0.393480    1.067110
     10          1           0        0.069951    1.665941    1.108070
     11          1           0        1.053351    0.532231    2.046070
     12         15           0       -1.881319   -0.061430   -0.224900
     13          1           0       -0.209028   -1.388090    0.878350
     14          1           0       -1.165468   -0.442980    2.033670
     15          6           0       -3.079399    1.106339    0.463100
     16          8           0       -2.802748   -1.405771   -0.275180
     17          8           0       -1.285059    0.345750   -1.533740
     18          1           0       -3.825179    1.331069   -0.310170
     19          1           0       -2.564040    2.035709    0.739690
     20          1           0       -3.578889    0.685659    1.345370
     21          1           0       -2.412918   -2.056351   -0.888050
     22          1           0        1.864170    2.426931   -0.874930
     23          1           0        2.514960    2.196362    0.623320
 ---------------------------------------------------------------------

 SCF Done:  E(RHF) =  -891.727049818     A.U. after    2 cycles

 The electronic state is 1-A.
 Alpha  occ. eigenvalues --  -84.39525 -20.58878 -20.58071 -20.52439 -20.49640
 Alpha  occ. eigenvalues --  -15.53083 -11.38504 -11.29445 -11.27023 -11.25911
 Alpha  occ. eigenvalues --  -11.25601  -6.85200  -4.39134  -4.38289  -4.37742
 Alpha  occ. eigenvalues --   -1.52441  -1.49214  -1.43777  -1.37873  -1.22302
 Alpha  occ. eigenvalues --   -1.08463  -1.01413  -0.96579  -0.88129  -0.79910
 Alpha  occ. eigenvalues --   -0.78867  -0.75991  -0.70653  -0.69343  -0.68144
 Alpha  occ. eigenvalues --   -0.65046  -0.63955  -0.61869  -0.61256  -0.60024
 Alpha  occ. eigenvalues --   -0.59031  -0.57978  -0.57574  -0.55310  -0.53890
 Alpha  occ. eigenvalues --   -0.52484  -0.51702  -0.49430  -0.48552  -0.45608
 Alpha  occ. eigenvalues --   -0.44398  -0.42814  -0.40915
 Alpha virt. eigenvalues --    0.02298   0.03118   0.03768   0.04267   0.05474
 Alpha virt. eigenvalues --    0.05573   0.06098   0.06682   0.07257   0.08097
 Alpha virt. eigenvalues --    0.08836   0.09126   0.10910   0.11202   0.12152

 Mulliken charges:
               1
     1  H    0.529204
     2  O   -1.383080
     3  C    2.366808
     4  C   -1.565258
     5  O   -1.337901
     6  C   -0.269905
     7  N    0.240592
     8  H    0.288365
     9  C   -0.734337
    10  H    0.167591
    11  H    0.145441
    12  P    4.213820
    13  H    0.124115
    14  H    0.099488
    15  C   -1.032272
    16  O   -1.408555
    17  O   -1.727767
    18  H    0.106823
    19  H    0.093076
    20  H    0.162617
    21  H    0.318183
    22  H    0.327627
    23  H    0.275327
 Sum of Mulliken charges =   0.00000

 Dipole moment (field-independent basis, Debye):
    X=             -2.4327    Y=              4.2589    Z=              2.7958  Tot=              5.6456

 Test job not archived.
 1\1\GINC-SE435\SP\RHF\Aug-CC-pVDZ\C5H12N1O4P1\OHZDE\08-Apr-2025\0\\#t
 hf aug-cc-pvdz iop(5/13=1,5/36=2,99/5=2) pseudo=read geom=check guess=
 (read,tcheck) scf=(maxcycle=1)\\title\\0,1\H,0,-3.61003,-0.52692,-0.62
 167\O,0,-3.62312,0.46,-0.42712\C,0,-2.36737,0.69633,-0.01072\C,0,-1.46
 315,-0.55181,-0.085\O,0,-1.98834,1.79194,0.35475\C,0,-0.49075,-0.64629
 ,1.10457\N,0,-2.31521,-1.74072,-0.2701\H,0,-0.85729,-0.43086,-0.99956\
 C,0,0.64024,0.39348,1.06711\H,0,-0.06995,-1.66594,1.10807\H,0,-1.05335
 ,-0.53223,2.04607\P,0,1.88132,0.06143,-0.2249\H,0,0.20903,1.38809,0.87

 Normal termination of Gaussian 16 at Tue Apr  8 17:32:10 2025.
