 Gaussian 16, Revision C.01,

 ----------------------------------------------------------------------
 #t hf aug-cc-pvdz symm=none int=(grid=ultrafine) guess=(read,tcheck) s
 table=(opt,rrhf)
 ----------------------------------------------------------------------
 -----
 title
 -----
 Symbolic Z-matrix:
 Charge =  0 Multiplicity = 1

 SCF Done:  E(RHF) =  -535.061760706     A.U. after   13 cycles
 Normal termination of Gaussian 16 at Tue Apr  8 18:30:38 2025.
 Gaussian 16:  ES64L-G16RevC.01  3-Jul-2019

 ----------------------------------------------------------------------
 #t hf aug-cc-pvdz iop(5/13=1,5/36=2,99/5=2) pseudo=read geom=check gue
 ss=(read,tcheck) scf=(maxcycle=1)
 ----------------------------------------------------------------------
 -----
 title
 -----
 Structure from the checkpoint file:  "37Conf8_RAMBO_2_mol2.chk"
 Charge =  0 Multiplicity = 1

                         Standard orientation:
 ---------------------------------------------------------------------
 Center     Atomic      Atomic             Coordinates (Angstroms)
 Number     Number       Type             X           Y           Z
 ---------------------------------------------------------------------
      1          1           0       -1.681180    1.755151   -0.339800
      2          7           0       -0.686120    1.928221   -0.530800
      3          7           0       -0.007360    0.709371   -0.075130
      4          1           0       -0.417380    2.647191    0.150940
      5          6           0        1.352970    0.674501   -0.642470
      6          6           0       -0.693230   -0.486219   -0.569150
      7          1           0        1.347810    1.181151   -1.625630
      8          6           0        2.385500    1.278562    0.322110
      9          6           0        1.702100   -0.840688   -0.743470
     10          1           0       -0.962940   -0.372959   -1.644160
     11          6           0       -1.953110   -0.811479    0.213240
     12          6           0        0.382151   -1.559119   -0.395950
     13          1           0        3.269150    1.614912   -0.245060
     14          1           0        1.987180    2.149302    0.863010
     15          6           0        2.760670    0.104542    1.235070
     16          1           0        2.005601   -1.096448   -1.767700
     17          6           0        2.858801   -1.072998    0.252530
     18          8           0       -2.984960    0.123831   -0.096570
     19          1           0       -2.294329   -1.836199   -0.039520
     20          1           0       -1.721370   -0.779959    1.296780
     21          6           0       -4.161820   -0.116370    0.655140
     22          1           0       -4.902710    0.634360    0.352380
     23          1           0       -4.566959   -1.126190    0.453020
     24          1           0       -3.975120   -0.026370    1.742110
     25          1           0        0.396021   -1.895399    0.654090
     26          1           0        0.193401   -2.438379   -1.026660
     27          1           0        1.944670   -0.070398    1.954130
     28          1           0        3.684050    0.269372    1.808120
     29          1           0        3.825001   -1.030418   -0.275500
     30          1           0        2.798941   -2.056898    0.741230
 ---------------------------------------------------------------------

 SCF Done:  E(RHF) =  -535.629560965     A.U. after    2 cycles

 The electronic state is 1-A.
 Alpha  occ. eigenvalues --  -20.55114 -15.50284 -15.49760 -11.28872 -11.28500
 Alpha  occ. eigenvalues --  -11.25469 -11.24285 -11.22889 -11.22737 -11.22266
 Alpha  occ. eigenvalues --  -11.21955 -11.21819  -1.46427  -1.26632  -1.13446
 Alpha  occ. eigenvalues --   -1.08179  -1.01524  -0.98929  -0.93174  -0.92048
 Alpha  occ. eigenvalues --   -0.87300  -0.80024  -0.77475  -0.75039  -0.70956
 Alpha  occ. eigenvalues --   -0.67979  -0.66260  -0.65816  -0.65112  -0.63048
 Alpha  occ. eigenvalues --   -0.62336  -0.60333  -0.58805  -0.55480  -0.55161
 Alpha  occ. eigenvalues --   -0.53018  -0.51818  -0.50394  -0.48440  -0.48004
 Alpha  occ. eigenvalues --   -0.47730  -0.46510  -0.46036  -0.45426  -0.45098
 Alpha  occ. eigenvalues --   -0.42309  -0.37059
 Alpha virt. eigenvalues --    0.03443   0.03546   0.03667   0.03918   0.04370
 Alpha virt. eigenvalues --    0.04545   0.04864   0.05674   0.06146   0.07393
 Alpha virt. eigenvalues --    0.07671   0.08100   0.08667   0.09613   0.09951

 Mulliken charges:
               1
     1  H    0.077138
     2  N    0.160318
     3  N    0.581434
     4  H    0.214965
     5  C   -0.939505
     6  C   -1.039256
     7  H   -0.009337
     8  C    0.255491
     9  C    0.037836
    10  H    0.047186
    11  C    0.651211
    12  C   -0.085114
    13  H    0.161039
    14  H    0.111835
    15  C   -0.294342
    16  H    0.097591
    17  C   -0.132959
    18  O   -1.377637
    19  H    0.170141
    20  H    0.227756
    21  C   -0.011193
    22  H   -0.023189
    23  H    0.191587
    24  H    0.204946
    25  H    0.149968
    26  H    0.105895
    27  H    0.179652
    28  H    0.085564
    29  H    0.111267
    30  H    0.089714
 Sum of Mulliken charges =  -0.00000

 Dipole moment (field-independent basis, Debye):
    X=             -0.6007    Y=             -1.6091    Z=              1.2072  Tot=              2.0993

 Test job not archived.
 1\1\GINC-SE338\SP\RHF\Aug-CC-pVDZ\C9H18N2O1\OHZDE\08-Apr-2025\0\\#t hf
  aug-cc-pvdz iop(5/13=1,5/36=2,99/5=2) pseudo=read geom=check guess=(r
 ead,tcheck) scf=(maxcycle=1)\\title\\0,1\H,0,-1.68118,1.75515,-0.3398\
 N,0,-0.68612,1.92822,-0.5308\N,0,-0.00736,0.70937,-0.07513\H,0,-0.4173
 8,2.64719,0.15094\C,0,1.35297,0.6745,-0.64247\C,0,-0.69323,-0.48622,-0
 .56915\H,0,1.34781,1.18115,-1.62563\C,0,2.3855,1.27856,0.32211\C,0,1.7
 021,-0.84069,-0.74347\H,0,-0.96294,-0.37296,-1.64416\C,0,-1.95311,-0.8
 1148,0.21324\C,0,0.38215,-1.55912,-0.39595\H,0,3.26915,1.61491,-0.2450

 Normal termination of Gaussian 16 at Tue Apr  8 18:31:03 2025.
