 Gaussian 16, Revision C.01,

 ----------------------------------------------------------------------
 #t hf aug-cc-pvdz symm=none int=(grid=ultrafine) guess=(read,tcheck) s
 table=(opt,rrhf)
 ----------------------------------------------------------------------
 -----
 title
 -----
 Symbolic Z-matrix:
 Charge =  0 Multiplicity = 1

 SCF Done:  E(RHF) =  -1689.90756820     A.U. after   15 cycles
 Normal termination of Gaussian 16 at Tue Apr  8 17:33:59 2025.
 Gaussian 16:  ES64L-G16RevC.01  3-Jul-2019

 ----------------------------------------------------------------------
 #t hf aug-cc-pvdz iop(5/13=1,5/36=2,99/5=2) pseudo=read geom=check gue
 ss=(read,tcheck) scf=(maxcycle=1)
 ----------------------------------------------------------------------
 -----
 title
 -----
 Structure from the checkpoint file:  "37Conf8_Fotemustin_2_mol2.chk"
 Charge =  0 Multiplicity = 1

                         Standard orientation:
 ---------------------------------------------------------------------
 Center     Atomic      Atomic             Coordinates (Angstroms)
 Number     Number       Type             X           Y           Z
 ---------------------------------------------------------------------
      1          8           0        3.145191    0.640189    2.434180
      2          7           0        2.176251    0.180269    1.853590
      3          7           0        2.306301    0.061449    0.500650
      4          6           0        3.509351    0.486389   -0.209900
      5          6           0        1.210491   -0.519961   -0.231780
      6          6           0        4.508511   -0.661151   -0.320400
      7          1           0        3.203891    0.823069   -1.206370
      8          1           0        3.945141    1.314969    0.363160
      9         17           0        5.986661   -0.096181   -1.166210
     10          1           0        4.090321   -1.486711   -0.907780
     11          1           0        4.815381   -1.018191    0.669480
     12          7           0        0.156561   -0.879791    0.539770
     13          8           0        1.302561   -0.653621   -1.444600
     14          6           0       -1.079849   -1.393461   -0.034720
     15          1           0        0.193071   -0.659261    1.534960
     16         15           0       -2.349199   -0.102551    0.276060
     17          6           0       -1.468929   -2.747601    0.555130
     18          1           0       -0.920379   -1.461901   -1.120160
     19          8           0       -1.938469    1.145499   -0.656540
     20          8           0       -3.607399   -0.714011   -0.504560
     21          8           0       -2.513629    0.226789    1.716430
     22          6           0       -1.239939    2.292419   -0.096490
     23          6           0       -4.884339   -0.014751   -0.433580
     24          6           0       -1.983589    3.558139   -0.464670
     25          1           0       -0.226269    2.283869   -0.526410
     26          1           0       -1.171399    2.172359    0.994610
     27          6           0       -5.951219   -0.928591   -0.992190
     28          1           0       -4.799199    0.913529   -1.020220
     29          1           0       -5.082099    0.248109    0.616840
     30          1           0       -2.090819    3.647009   -1.554520
     31          1           0       -1.430329    4.435479   -0.098680
     32          1           0       -2.983529    3.567189   -0.009270
     33          1           0       -5.729259   -1.199141   -2.033520
     34          1           0       -6.925559   -0.419771   -0.966680
     35          1           0       -6.026699   -1.849731   -0.398490
     36          1           0       -2.394449   -3.111661    0.090940
     37          1           0       -0.668999   -3.478391    0.372610
     38          1           0       -1.636779   -2.668261    1.638380
 ---------------------------------------------------------------------

 SCF Done:  E(RHF) =  -1690.92631985     A.U. after    2 cycles

 The electronic state is 1-A.
 Alpha  occ. eigenvalues -- -105.56371 -84.42303 -20.61999 -20.58243 -20.57919
 Alpha  occ. eigenvalues --  -20.54253 -20.50572 -15.71088 -15.60673 -15.55741
 Alpha  occ. eigenvalues --  -11.42826 -11.31621 -11.31390 -11.31141 -11.30481
 Alpha  occ. eigenvalues --  -11.30381 -11.25157 -11.24584 -11.24345 -10.61180
 Alpha  occ. eigenvalues --   -7.78127  -7.77751  -7.77738  -6.87548  -4.41682
 Alpha  occ. eigenvalues --   -4.41205  -4.40507  -1.61486  -1.52469  -1.49748
 Alpha  occ. eigenvalues --   -1.46845  -1.38363  -1.33693  -1.27011  -1.13440
 Alpha  occ. eigenvalues --   -1.07559  -1.05581  -1.04429  -1.03593  -0.97512
 Alpha  occ. eigenvalues --   -0.91369  -0.89024  -0.86537  -0.86196  -0.84659
 Alpha  occ. eigenvalues --   -0.82441  -0.79146  -0.75785  -0.72387  -0.71275
 Alpha  occ. eigenvalues --   -0.69634  -0.68854  -0.68009  -0.67396  -0.66999
 Alpha  occ. eigenvalues --   -0.65873  -0.64596  -0.63056  -0.62057  -0.60896
 Alpha  occ. eigenvalues --   -0.60228  -0.58903  -0.57273  -0.57070  -0.56599
 Alpha  occ. eigenvalues --   -0.56371  -0.55882  -0.55335  -0.54692  -0.54288
 Alpha  occ. eigenvalues --   -0.52845  -0.50978  -0.50183  -0.48821  -0.48692
 Alpha  occ. eigenvalues --   -0.47723  -0.46985  -0.46479  -0.45791  -0.45222
 Alpha  occ. eigenvalues --   -0.45011  -0.44472  -0.42229
 Alpha virt. eigenvalues --    0.03185   0.03258   0.03428   0.03828   0.04024
 Alpha virt. eigenvalues --    0.04285   0.04758   0.05154   0.05664   0.05807
 Alpha virt. eigenvalues --    0.06024   0.06397   0.07119   0.07580   0.08088

 Mulliken charges:
               1
     1  O   -1.058794
     2  N    0.975896
     3  N    0.983144
     4  C   -0.205431
     5  C   -0.847449
     6  C   -0.439752
     7  H    0.108483
     8  H    0.211123
     9  Cl  -0.071489
    10  H    0.240754
    11  H    0.276515
    12  N    1.753895
    13  O   -1.237015
    14  C   -2.489576
    15  H    0.054843
    16  P    5.946039
    17  C   -0.099083
    18  H   -0.024695
    19  O   -1.960819
    20  O   -1.877692
    21  O   -1.728661
    22  C    0.542193
    23  C    0.309881
    24  C   -0.778533
    25  H    0.037792
    26  H    0.149330
    27  C   -0.616107
    28  H    0.094326
    29  H    0.144009
    30  H    0.224851
    31  H    0.167293
    32  H    0.179776
    33  H    0.202099
    34  H    0.155676
    35  H    0.189406
    36  H    0.150416
    37  H    0.157898
    38  H    0.179456
 Sum of Mulliken charges =   0.00000

 Dipole moment (field-independent basis, Debye):
    X=             -3.1602    Y=              0.0074    Z=             -0.9359  Tot=              3.2959

 Test job not archived.
 1\1\GINC-SE403\SP\RHF\Aug-CC-pVDZ\C9H19Cl1N3O5P1\OHZDE\08-Apr-2025\0\\
 #t hf aug-cc-pvdz iop(5/13=1,5/36=2,99/5=2) pseudo=read geom=check gue
 ss=(read,tcheck) scf=(maxcycle=1)\\title\\0,1\O,0,3.14519,0.64019,2.43
 418\N,0,2.17625,0.18027,1.85359\N,0,2.3063,0.06145,0.50065\C,0,3.50935
 ,0.48639,-0.2099\C,0,1.21049,-0.51996,-0.23178\C,0,4.50851,-0.66115,-0
 .3204\H,0,3.20389,0.82307,-1.20637\H,0,3.94514,1.31497,0.36316\Cl,0,5.
 98666,-0.09618,-1.16621\H,0,4.09032,-1.48671,-0.90778\H,0,4.81538,-1.0
 1819,0.66948\N,0,0.15656,-0.87979,0.53977\O,0,1.30256,-0.65362,-1.4446

 Normal termination of Gaussian 16 at Tue Apr  8 17:35:04 2025.
