 Gaussian 16, Revision C.01,

 ----------------------------------------------------------------------
 #t hf aug-cc-pvdz symm=none int=(grid=ultrafine) guess=(read,tcheck) s
 table=(opt,rrhf)
 ----------------------------------------------------------------------
 -----
 title
 -----
 Symbolic Z-matrix:
 Charge =  0 Multiplicity = 1

 SCF Done:  E(RHF) =  -1667.17576348     A.U. after   13 cycles
 Normal termination of Gaussian 16 at Tue Apr  8 18:03:28 2025.
 Gaussian 16:  ES64L-G16RevC.01  3-Jul-2019

 ----------------------------------------------------------------------
 #t hf aug-cc-pvdz iop(5/13=1,5/36=2,99/5=2) pseudo=read geom=check gue
 ss=(read,tcheck) scf=(maxcycle=1)
 ----------------------------------------------------------------------
 -----
 title
 -----
 Structure from the checkpoint file:  "37Conf8_N_iprit_7_mol1.chk"
 Charge =  0 Multiplicity = 1

                         Standard orientation:
 ---------------------------------------------------------------------
 Center     Atomic      Atomic             Coordinates (Angstroms)
 Number     Number       Type             X           Y           Z
 ---------------------------------------------------------------------
      1          1           0        0.635642   -1.963529    1.859140
      2          6           0        0.804342   -1.638179    0.811350
      3          6           0        2.300212   -1.324468    0.720400
      4          7           0       -0.131878   -0.596199    0.482180
      5          1           0        0.586562   -2.507879    0.173910
      6         17           0        2.799562   -0.820028   -0.936940
      7          1           0        2.892922   -2.212628    0.978800
      8          1           0        2.588281   -0.505408    1.392210
      9          6           0       -0.671089   -0.535639   -0.860860
     10          6           0       -0.170709    0.570431    1.327580
     11          6           0       -2.122729   -0.085310   -0.925200
     12          1           0       -0.105869    0.141331   -1.533730
     13          1           0       -0.593028   -1.544049   -1.292380
     14          6           0        0.722181    1.763891    0.955650
     15          1           0       -1.208059    0.933370    1.430580
     16          1           0        0.136411    0.249631    2.338890
     17         17           0       -3.212298   -1.139400    0.050100
     18          1           0       -2.476599   -0.126120   -1.962430
     19          1           0       -2.255209    0.936940   -0.552280
     20         17           0        0.000280    2.806331   -0.335170
     21          1           0        1.698101    1.446641    0.570520
     22          1           0        0.862501    2.423401    1.822190
 ---------------------------------------------------------------------

 SCF Done:  E(RHF) =  -1667.71233142     A.U. after    2 cycles

 The electronic state is 1-A.
 Alpha  occ. eigenvalues -- -105.56269-105.55857-105.54829 -15.49765 -11.31419
 Alpha  occ. eigenvalues --  -11.31026 -11.29976 -11.28928 -11.28719 -11.27696
 Alpha  occ. eigenvalues --  -10.61085 -10.60687 -10.59639  -7.78025  -7.77668
 Alpha  occ. eigenvalues --   -7.77659  -7.77625  -7.77276  -7.77256  -7.76580
 Alpha  occ. eigenvalues --   -7.76221  -7.76213  -1.25258  -1.11956  -1.11149
 Alpha  occ. eigenvalues --   -1.09584  -1.00318  -1.00050  -0.93611  -0.87279
 Alpha  occ. eigenvalues --   -0.85154  -0.78839  -0.71500  -0.69091  -0.67458
 Alpha  occ. eigenvalues --   -0.64241  -0.62431  -0.61487  -0.61287  -0.58903
 Alpha  occ. eigenvalues --   -0.58184  -0.56087  -0.53844  -0.52486  -0.51860
 Alpha  occ. eigenvalues --   -0.51263  -0.46451  -0.45262  -0.45121  -0.44630
 Alpha  occ. eigenvalues --   -0.43877  -0.43596  -0.38268
 Alpha virt. eigenvalues --    0.02820   0.03519   0.04241   0.04367   0.04932
 Alpha virt. eigenvalues --    0.05506   0.06290   0.06485   0.07091   0.08492
 Alpha virt. eigenvalues --    0.09146   0.10301   0.10439   0.11057   0.11570

 Mulliken charges:
               1
     1  H    0.168604
     2  C   -0.792530
     3  C   -0.146202
     4  N    2.373771
     5  H    0.042976
     6  Cl  -0.137349
     7  H    0.178653
     8  H    0.217134
     9  C   -0.853025
    10  C   -0.986814
    11  C   -0.497340
    12  H    0.127176
    13  H    0.004215
    14  C   -0.398248
    15  H    0.010052
    16  H    0.062284
    17  Cl  -0.118839
    18  H    0.170525
    19  H    0.245299
    20  Cl  -0.083441
    21  H    0.187043
    22  H    0.226055
 Sum of Mulliken charges =  -0.00000

 Dipole moment (field-independent basis, Debye):
    X=              1.9238    Y=             -0.7222    Z=              2.1655  Tot=              2.9853

 Test job not archived.
 1\1\GINC-SE097\SP\RHF\Aug-CC-pVDZ\C6H12Cl3N1\OHZDE\08-Apr-2025\0\\#t h
 f aug-cc-pvdz iop(5/13=1,5/36=2,99/5=2) pseudo=read geom=check guess=(
 read,tcheck) scf=(maxcycle=1)\\title\\0,1\H,0,0.63564,-1.96353,1.85914
 \C,0,0.80434,-1.63818,0.81135\C,0,2.30021,-1.32447,0.7204\N,0,-0.13188
 ,-0.5962,0.48218\H,0,0.58656,-2.50788,0.17391\Cl,0,2.79956,-0.82003,-0
 .93694\H,0,2.89292,-2.21263,0.9788\H,0,2.58828,-0.50541,1.39221\C,0,-0
 .67109,-0.53564,-0.86086\C,0,-0.17071,0.57043,1.32758\C,0,-2.12273,-0.
 08531,-0.9252\H,0,-0.10587,0.14133,-1.53373\H,0,-0.59303,-1.54405,-1.2

 Normal termination of Gaussian 16 at Tue Apr  8 18:03:46 2025.
