 Gaussian 16, Revision C.01,

 ----------------------------------------------------------------------
 #t hf aug-cc-pvdz symm=none int=(grid=ultrafine) guess=(read,tcheck) s
 table=(opt,rrhf)
 ----------------------------------------------------------------------
 -----
 title
 -----
 Symbolic Z-matrix:
 Charge =  0 Multiplicity = 1

 SCF Done:  E(RHF) =  -936.305321952     A.U. after   16 cycles
 Normal termination of Gaussian 16 at Tue Apr  8 17:43:39 2025.
 Gaussian 16:  ES64L-G16RevC.01  3-Jul-2019

 ----------------------------------------------------------------------
 #t hf aug-cc-pvdz iop(5/13=1,5/36=2,99/5=2) pseudo=read geom=check gue
 ss=(read,tcheck) scf=(maxcycle=1)
 ----------------------------------------------------------------------
 -----
 title
 -----
 Structure from the checkpoint file:  "37Conf8_Atropine_6_mol2.chk"
 Charge =  0 Multiplicity = 1

                         Standard orientation:
 ---------------------------------------------------------------------
 Center     Atomic      Atomic             Coordinates (Angstroms)
 Number     Number       Type             X           Y           Z
 ---------------------------------------------------------------------
      1          1           0       -3.159960   -2.254900    1.149651
      2          8           0       -3.899000   -1.730460    0.775351
      3          6           0       -3.558890   -1.559230   -0.589469
      4          6           0       -2.200710   -0.862030   -0.822809
      5          1           0       -3.540070   -2.531560   -1.120109
      6          1           0       -4.350450   -0.944579   -1.042129
      7          6           0       -2.148160    0.589330   -0.381839
      8          6           0       -1.068990   -1.628680   -0.147019
      9          1           0       -1.998120   -0.885130   -1.906349
     10          6           0       -1.937250    1.601340   -1.327199
     11          6           0       -2.278610    0.944880    0.969401
     12          8           0        0.123200   -1.240930   -0.628669
     13          8           0       -1.215930   -2.461350    0.738341
     14          1           0       -1.821780    1.334100   -2.380289
     15          6           0       -1.860879    2.939520   -0.938739
     16          1           0       -2.452730    0.168300    1.713921
     17          6           0       -2.203839    2.283220    1.357971
     18          6           0        1.322790   -1.777860    0.038541
     19          1           0       -1.692739    3.713320   -1.689759
     20          6           0       -1.992449    3.284470    0.407541
     21          1           0       -2.309219    2.544510    2.412391
     22          1           0        1.104560   -2.830330    0.264941
     23          6           0        1.590300   -1.011040    1.339041
     24          6           0        2.468960   -1.659941   -0.966019
     25          1           0       -1.928589    4.329380    0.715311
     26          1           0        2.193220   -1.661161    1.991411
     27          1           0        0.637790   -0.825410    1.856331
     28          6           0        2.368310    0.293079    1.120941
     29          1           0        3.228160   -2.411791   -0.702779
     30          1           0        2.092350   -1.903121   -1.971119
     31          6           0        3.147590   -0.282831   -0.945829
     32          1           0        2.594990    0.740529    2.100051
     33          7           0        3.629850   -0.060351    0.433771
     34          6           0        1.647720    1.288460    0.169941
     35          1           0        4.002440   -0.294601   -1.638159
     36          6           0        2.167300    0.890929   -1.234339
     37          6           0        4.637490    0.990309    0.520381
     38          1           0        0.556020    1.229530    0.250941
     39          1           0        1.931491    2.320919    0.416251
     40          1           0        1.356600    0.595320   -1.911519
     41          1           0        2.702400    1.725119   -1.708799
     42          1           0        5.533460    0.678359   -0.035439
     43          1           0        4.315430    1.975899    0.123221
     44          1           0        4.925540    1.128109    1.572491
 ---------------------------------------------------------------------

 SCF Done:  E(RHF) =  -937.265418357     A.U. after    2 cycles

 The electronic state is 1-A.
 Alpha  occ. eigenvalues --  -20.59094 -20.54663 -20.53622 -15.48228 -11.40128
 Alpha  occ. eigenvalues --  -11.30246 -11.29243 -11.26868 -11.25939 -11.25822
 Alpha  occ. eigenvalues --  -11.25579 -11.25217 -11.25089 -11.25020 -11.24943
 Alpha  occ. eigenvalues --  -11.24874 -11.24570 -11.23473 -11.23101 -11.22247
 Alpha  occ. eigenvalues --  -11.21865  -1.54349  -1.45689  -1.43368  -1.24371
 Alpha  occ. eigenvalues --   -1.16678  -1.09778  -1.07130  -1.03032  -1.02664
 Alpha  occ. eigenvalues --   -1.01950  -0.99389  -0.93723  -0.89856  -0.88848
 Alpha  occ. eigenvalues --   -0.85206  -0.84148  -0.82019  -0.79490  -0.78241
 Alpha  occ. eigenvalues --   -0.73347  -0.73053  -0.71320  -0.69858  -0.68096
 Alpha  occ. eigenvalues --   -0.67035  -0.65968  -0.64646  -0.64228  -0.63829
 Alpha  occ. eigenvalues --   -0.62521  -0.61574  -0.61098  -0.60046  -0.58971
 Alpha  occ. eigenvalues --   -0.58610  -0.57279  -0.56237  -0.55937  -0.55706
 Alpha  occ. eigenvalues --   -0.55012  -0.53540  -0.51923  -0.51327  -0.51204
 Alpha  occ. eigenvalues --   -0.50991  -0.49376  -0.48449  -0.47838  -0.47390
 Alpha  occ. eigenvalues --   -0.46219  -0.45481  -0.44366  -0.43680  -0.43330
 Alpha  occ. eigenvalues --   -0.39171  -0.35027  -0.34460
 Alpha virt. eigenvalues --    0.02446   0.02590   0.03221   0.03431   0.04144
 Alpha virt. eigenvalues --    0.04356   0.04419   0.04760   0.05074   0.06013
 Alpha virt. eigenvalues --    0.06301   0.06537   0.07015   0.07330   0.07792

 Mulliken charges:
               1
     1  H    0.476351
     2  O   -1.195756
     3  C    0.774431
     4  C   -1.302592
     5  H    0.171717
     6  H    0.107808
     7  C    1.297591
     8  C    2.469783
     9  H    0.057812
    10  C    0.161365
    11  C    0.346354
    12  O   -1.409893
    13  O   -1.525049
    14  H   -0.415202
    15  C    0.203919
    16  H   -0.396967
    17  C   -0.045130
    18  C    0.982045
    19  H   -0.282710
    20  C    0.166812
    21  H   -0.289336
    22  H    0.150667
    23  C   -0.217306
    24  C   -0.389909
    25  H   -0.261260
    26  H    0.194276
    27  H    0.122976
    28  C   -1.037110
    29  H    0.177756
    30  H    0.178768
    31  C   -0.891374
    32  H   -0.083898
    33  N    1.109080
    34  C    0.542293
    35  H   -0.051422
    36  C   -0.085230
    37  C   -0.450914
    38  H    0.069405
    39  H    0.001953
    40  H    0.065055
    41  H    0.045748
    42  H    0.097835
    43  H    0.260180
    44  H    0.099076
 Sum of Mulliken charges =   0.00000

 Dipole moment (field-independent basis, Debye):
    X=              2.1418    Y=              1.9491    Z=             -2.1233  Tot=              3.5909

 Test job not archived.
 1\1\GINC-SE073\SP\RHF\Aug-CC-pVDZ\C17H23N1O3\OHZDE\08-Apr-2025\0\\#t h
 f aug-cc-pvdz iop(5/13=1,5/36=2,99/5=2) pseudo=read geom=check guess=(
 read,tcheck) scf=(maxcycle=1)\\title\\0,1\H,0,-3.15996,-2.2549,1.14965
 \O,0,-3.899,-1.73046,0.77535\C,0,-3.55889,-1.55923,-0.58947\C,0,-2.200
 71,-0.86203,-0.82281\H,0,-3.54007,-2.53156,-1.12011\H,0,-4.35045,-0.94
 458,-1.04213\C,0,-2.14816,0.58933,-0.38184\C,0,-1.06899,-1.62868,-0.14
 702\H,0,-1.99812,-0.88513,-1.90635\C,0,-1.93725,1.60134,-1.3272\C,0,-2
 .27861,0.94488,0.9694\O,0,0.1232,-1.24093,-0.62867\O,0,-1.21593,-2.461

 Normal termination of Gaussian 16 at Tue Apr  8 17:45:42 2025.
