 Gaussian 16, Revision C.01,

 ----------------------------------------------------------------------
 #t hf aug-cc-pvdz symm=none int=(grid=ultrafine) guess=(read,tcheck) s
 table=(opt,rrhf)
 ----------------------------------------------------------------------
 -----
 title
 -----
 Symbolic Z-matrix:
 Charge =  0 Multiplicity = 1

 SCF Done:  E(RHF) =  -787.709343082     A.U. after   16 cycles
 Normal termination of Gaussian 16 at Tue Apr  8 17:41:25 2025.
 Gaussian 16:  ES64L-G16RevC.01  3-Jul-2019

 ----------------------------------------------------------------------
 #t hf aug-cc-pvdz iop(5/13=1,5/36=2,99/5=2) pseudo=read geom=check gue
 ss=(read,tcheck) scf=(maxcycle=1)
 ----------------------------------------------------------------------
 -----
 title
 -----
 Structure from the checkpoint file:  "37Conf8_Eperisone_8_mol1.chk"
 Charge =  0 Multiplicity = 1

                         Standard orientation:
 ---------------------------------------------------------------------
 Center     Atomic      Atomic             Coordinates (Angstroms)
 Number     Number       Type             X           Y           Z
 ---------------------------------------------------------------------
      1          8           0        0.603761    3.101930   -0.654420
      2          6           0        0.463931    2.045250   -0.046460
      3          6           0       -0.896939    1.654810    0.528600
      4          6           0        1.616661    1.096930    0.091400
      5          6           0       -1.587939    0.712761   -0.488840
      6          6           0       -1.760849    2.876251    0.825750
      7          1           0       -0.734959    1.090100    1.460990
      8          6           0        2.832261    1.440310   -0.524190
      9          6           0        1.548230   -0.113610    0.799240
     10          7           0       -2.849690    0.177171   -0.000470
     11          1           0       -1.801229    1.306961   -1.392130
     12          1           0       -0.884710   -0.091810   -0.800860
     13          6           0       -3.748880   -0.174439   -1.106890
     14          6           0       -2.694100   -0.905729    0.990010
     15          1           0       -3.214160   -0.720829   -1.918750
     16          1           0       -4.125709    0.759521   -1.554170
     17          6           0       -4.895570   -1.043429   -0.603880
     18          1           0       -1.686500   -0.837389    1.426090
     19          1           0       -3.399040   -0.747539    1.825930
     20          6           0       -2.922970   -2.294819    0.389280
     21          1           0       -5.393450   -0.513969    0.224160
     22          1           0       -5.647340   -1.166229   -1.396700
     23          6           0       -4.369390   -2.414639   -0.129650
     24          1           0       -2.706860   -3.074159    1.135760
     25          1           0       -2.207430   -2.447699   -0.435060
     26          1           0       -4.407340   -3.140779   -0.956290
     27          1           0       -5.024130   -2.809049    0.662510
     28          1           0       -1.844369    3.511091   -0.066360
     29          1           0       -2.764149    2.548631    1.127540
     30          1           0       -1.324149    3.486090    1.628630
     31          1           0        2.879101    2.384800   -1.068240
     32          6           0        3.936631    0.602369   -0.435010
     33          1           0        0.624680   -0.410560    1.296780
     34          6           0        2.658240   -0.951310    0.884930
     35          1           0        4.875271    0.889229   -0.916140
     36          6           0        3.870690   -0.610321    0.270260
     37          1           0        2.586830   -1.887300    1.444570
     38          6           0        5.054540   -1.540351    0.322020
     39          6           0        5.073790   -2.517921   -0.863010
     40          1           0        5.984410   -0.950151    0.323890
     41          1           0        5.034980   -2.108511    1.265240
     42          1           0        5.116500   -1.974781   -1.818010
     43          1           0        4.165990   -3.138251   -0.873460
     44          1           0        5.945480   -3.185731   -0.808690
 ---------------------------------------------------------------------

 SCF Done:  E(RHF) =  -788.535872643     A.U. after    2 cycles

 The electronic state is 1-A.
 Alpha  occ. eigenvalues --  -20.52520 -15.48328 -11.33392 -11.26198 -11.26151
 Alpha  occ. eigenvalues --  -11.26069 -11.25849 -11.25528 -11.25174 -11.24813
 Alpha  occ. eigenvalues --  -11.24777 -11.24773 -11.24535 -11.24147 -11.23766
 Alpha  occ. eigenvalues --  -11.23210 -11.23199 -11.22978 -11.21339  -1.45279
 Alpha  occ. eigenvalues --   -1.23062  -1.16821  -1.09148  -1.07685  -1.05465
 Alpha  occ. eigenvalues --   -1.02260  -1.01653  -1.00105  -0.92995  -0.90683
 Alpha  occ. eigenvalues --   -0.87406  -0.86620  -0.84401  -0.83491  -0.80307
 Alpha  occ. eigenvalues --   -0.75062  -0.73843  -0.71245  -0.69053  -0.68207
 Alpha  occ. eigenvalues --   -0.67298  -0.65186  -0.63630  -0.62886  -0.61744
 Alpha  occ. eigenvalues --   -0.60847  -0.60243  -0.59581  -0.58432  -0.57981
 Alpha  occ. eigenvalues --   -0.57720  -0.55916  -0.54807  -0.54503  -0.53938
 Alpha  occ. eigenvalues --   -0.52647  -0.52298  -0.51739  -0.50968  -0.50043
 Alpha  occ. eigenvalues --   -0.49909  -0.49347  -0.48524  -0.48182  -0.47257
 Alpha  occ. eigenvalues --   -0.45880  -0.45375  -0.40473  -0.37584  -0.35344
 Alpha  occ. eigenvalues --   -0.34138
 Alpha virt. eigenvalues --    0.02485   0.02872   0.02959   0.03676   0.03864
 Alpha virt. eigenvalues --    0.04145   0.04304   0.04806   0.05255   0.05441
 Alpha virt. eigenvalues --    0.05673   0.05742   0.06771   0.07078   0.07128

 Mulliken charges:
               1
     1  O   -1.784006
     2  C    1.282340
     3  C   -1.496309
     4  C    2.221644
     5  C   -1.039514
     6  C   -0.146925
     7  H    0.229252
     8  C   -0.830458
     9  C    1.142459
    10  N    1.301708
    11  H    0.064156
    12  H    0.007308
    13  C   -0.252431
    14  C   -0.306579
    15  H    0.205114
    16  H   -0.037737
    17  C   -0.315488
    18  H   -0.111783
    19  H    0.049296
    20  C   -0.385033
    21  H    0.195569
    22  H    0.112181
    23  C   -0.293037
    24  H    0.083611
    25  H    0.196035
    26  H    0.160410
    27  H    0.157658
    28  H    0.308411
    29  H    0.308985
    30  H    0.139525
    31  H   -0.342693
    32  C    0.042806
    33  H   -0.375886
    34  C   -0.465764
    35  H   -0.336248
    36  C    1.189712
    37  H   -0.374304
    38  C   -0.733824
    39  C   -0.468566
    40  H    0.106937
    41  H    0.096379
    42  H    0.180497
    43  H    0.182132
    44  H    0.132460
 Sum of Mulliken charges =  -0.00000

 Dipole moment (field-independent basis, Debye):
    X=              0.5481    Y=             -4.1741    Z=              0.7596  Tot=              4.2779

 Test job not archived.
 1\1\GINC-SE230\SP\RHF\Aug-CC-pVDZ\C17H25N1O1\OHZDE\08-Apr-2025\0\\#t h
 f aug-cc-pvdz iop(5/13=1,5/36=2,99/5=2) pseudo=read geom=check guess=(
 read,tcheck) scf=(maxcycle=1)\\title\\0,1\O,0,0.60376,3.10193,-0.65442
 \C,0,0.46393,2.04525,-0.04646\C,0,-0.89694,1.65481,0.5286\C,0,1.61666,
 1.09693,0.0914\C,0,-1.58794,0.71276,-0.48884\C,0,-1.76085,2.87625,0.82
 575\H,0,-0.73496,1.0901,1.46099\C,0,2.83226,1.44031,-0.52419\C,0,1.548
 23,-0.11361,0.79924\N,0,-2.84969,0.17717,-0.00047\H,0,-1.80123,1.30696
 ,-1.39213\H,0,-0.88471,-0.09181,-0.80086\C,0,-3.74888,-0.17444,-1.1068

 Normal termination of Gaussian 16 at Tue Apr  8 17:42:59 2025.
