 Gaussian 16, Revision C.01,

 ----------------------------------------------------------------------
 #t hf aug-cc-pvdz symm=none int=(grid=ultrafine) guess=(read,tcheck) s
 table=(opt,rrhf)
 ----------------------------------------------------------------------
 -----
 title
 -----
 Symbolic Z-matrix:
 Charge =  0 Multiplicity = 1

 SCF Done:  E(RHF) =  -1112.29963069     A.U. after   16 cycles
 Normal termination of Gaussian 16 at Tue Apr  8 17:35:24 2025.
 Gaussian 16:  ES64L-G16RevC.01  3-Jul-2019

 ----------------------------------------------------------------------
 #t hf aug-cc-pvdz iop(5/13=1,5/36=2,99/5=2) pseudo=read geom=check gue
 ss=(read,tcheck) scf=(maxcycle=1)
 ----------------------------------------------------------------------
 -----
 title
 -----
 Structure from the checkpoint file:  "37Conf8_Cimetidine_5_mol1.chk"
 Charge =  0 Multiplicity = 1

                         Standard orientation:
 ---------------------------------------------------------------------
 Center     Atomic      Atomic             Coordinates (Angstroms)
 Number     Number       Type             X           Y           Z
 ---------------------------------------------------------------------
      1          7           0       -3.638477   -1.243157   -0.889089
      2          6           0       -2.689728   -0.592725   -1.156229
      3          7           0       -1.569239    0.034527   -1.429139
      4          6           0       -1.223601    1.064687   -0.658859
      5          7           0       -0.005382    1.635559   -0.890519
      6          7           0       -2.030642    1.551386    0.314131
      7          6           0        0.876747    2.065131    0.202481
      8          1           0        0.503429    1.066030   -1.575949
      9          6           0       -1.948634    2.861496    0.937001
     10          1           0       -2.898411    1.030954    0.424431
     11          6           0        2.344578    1.873873   -0.189639
     12          1           0        0.731866    3.134191    0.426201
     13          1           0        0.662558    1.485800    1.113741
     14         16           0        2.788430    0.258764   -0.898479
     15          1           0        2.628766    2.587424   -0.978749
     16          1           0        2.976277    2.081024    0.686211
     17          6           0        2.545212   -0.899006    0.519921
     18          6           0        1.140723   -1.237289    0.877821
     19          1           0        3.107194   -1.788285    0.198321
     20          1           0        3.060392   -0.477446    1.394071
     21          7           0        0.535962   -0.698360    2.003281
     22          6           0        0.253824   -2.056480    0.197391
     23          6           0       -0.696077   -1.177872    2.004321
     24          7           0       -0.907506   -2.010382    0.941331
     25          6           0        0.367316   -2.807370   -1.080129
     26          1           0       -1.463347   -0.968933    2.744391
     27          1           0       -1.809685   -2.378234    0.642131
     28          1           0       -0.196055   -2.302111   -1.880499
     29          1           0        1.416866   -2.862328   -1.395949
     30          1           0       -0.014683   -3.835191   -0.988029
     31          1           0       -1.576715    3.605987    0.219751
     32          1           0       -2.957925    3.161104    1.244851
     33          1           0       -1.300594    2.866117    1.826351
 ---------------------------------------------------------------------

 SCF Done:  E(RHF) =  -1113.08832600     A.U. after    2 cycles

 The electronic state is 1-A.
 Alpha  occ. eigenvalues --  -93.95073 -15.55687 -15.55504 -15.54043 -15.50039
 Alpha  occ. eigenvalues --  -15.49080 -15.48337 -11.40194 -11.30346 -11.30234
 Alpha  occ. eigenvalues --  -11.29847 -11.29239 -11.28633 -11.27847 -11.27124
 Alpha  occ. eigenvalues --  -11.25126 -11.24234  -8.23144  -6.20969  -6.20794
 Alpha  occ. eigenvalues --   -6.20603  -1.34721  -1.33460  -1.23984  -1.23314
 Alpha  occ. eigenvalues --   -1.17787  -1.17496  -1.10824  -1.06343  -1.02021
 Alpha  occ. eigenvalues --   -0.99426  -0.95741  -0.92274  -0.88381  -0.85382
 Alpha  occ. eigenvalues --   -0.84941  -0.81949  -0.77818  -0.74817  -0.74361
 Alpha  occ. eigenvalues --   -0.70230  -0.69533  -0.67070  -0.66190  -0.64457
 Alpha  occ. eigenvalues --   -0.63988  -0.61188  -0.60057  -0.59303  -0.59241
 Alpha  occ. eigenvalues --   -0.59030  -0.58072  -0.57554  -0.57047  -0.56093
 Alpha  occ. eigenvalues --   -0.55860  -0.55498  -0.52666  -0.50247  -0.48185
 Alpha  occ. eigenvalues --   -0.46443  -0.45041  -0.44363  -0.42801  -0.40083
 Alpha  occ. eigenvalues --   -0.36516  -0.31468
 Alpha virt. eigenvalues --    0.02560   0.02689   0.03582   0.03743   0.03914
 Alpha virt. eigenvalues --    0.04429   0.04814   0.05577   0.06085   0.07240
 Alpha virt. eigenvalues --    0.07500   0.08109   0.08242   0.08952   0.09392

 Mulliken charges:
               1
     1  N    1.125437
     2  C   -2.073682
     3  N    1.594540
     4  C   -3.825527
     5  N    1.349443
     6  N    1.262943
     7  C    0.032147
     8  H    0.450257
     9  C   -0.355538
    10  H    0.283087
    11  C   -0.814082
    12  H   -0.045246
    13  H    0.240335
    14  S    0.524985
    15  H    0.174669
    16  H    0.181611
    17  C   -0.681621
    18  C   -0.722841
    19  H    0.131538
    20  H    0.121886
    21  N    1.443167
    22  C   -1.065857
    23  C   -1.341171
    24  N    1.980944
    25  C   -0.680311
    26  H   -0.311409
    27  H   -0.011509
    28  H    0.295447
    29  H    0.248968
    30  H    0.172397
    31  H    0.181166
    32  H   -0.060888
    33  H    0.194714
 Sum of Mulliken charges =  -0.00000

 Dipole moment (field-independent basis, Debye):
    X=              2.2725    Y=              4.1273    Z=              2.4255  Tot=              5.2993

 Test job not archived.
 1\1\GINC-SE100\SP\RHF\Aug-CC-pVDZ\C10H16N6S1\OHZDE\08-Apr-2025\0\\#t h
 f aug-cc-pvdz iop(5/13=1,5/36=2,99/5=2) pseudo=read geom=check guess=(
 read,tcheck) scf=(maxcycle=1)\\title\\0,1\N,0,-3.63848,-1.24315,-0.889
 09\C,0,-2.68973,-0.59272,-1.15623\N,0,-1.56924,0.03453,-1.42914\C,0,-1
 .2236,1.06469,-0.65886\N,0,-0.00538,1.63556,-0.89052\N,0,-2.03064,1.55
 139,0.31413\C,0,0.87675,2.06513,0.20248\H,0,0.50343,1.06603,-1.57595\C
 ,0,-1.94863,2.8615,0.937\H,0,-2.89841,1.03096,0.42443\C,0,2.34458,1.87
 387,-0.18964\H,0,0.73187,3.13419,0.4262\H,0,0.66256,1.4858,1.11374\S,0

 Normal termination of Gaussian 16 at Tue Apr  8 17:36:22 2025.
