 Gaussian 16, Revision C.01,

 ----------------------------------------------------------------------
 #t hf aug-cc-pvdz symm=none int=(grid=ultrafine) guess=(read,tcheck) s
 table=(opt,rrhf)
 ----------------------------------------------------------------------
 -----
 title
 -----
 Symbolic Z-matrix:
 Charge =  0 Multiplicity = 1

 SCF Done:  E(RHF) =  -1673.88693931     A.U. after   17 cycles
 Normal termination of Gaussian 16 at Tue Apr  8 18:40:41 2025.
 Gaussian 16:  ES64L-G16RevC.01  3-Jul-2019

 ----------------------------------------------------------------------
 #t hf aug-cc-pvdz iop(5/13=1,5/36=2,99/5=2) pseudo=read geom=check gue
 ss=(read,tcheck) scf=(maxcycle=1)
 ----------------------------------------------------------------------
 -----
 title
 -----
 Structure from the checkpoint file:  "37Conf8_Pantoprazole_2_mol1.chk"
 Charge =  0 Multiplicity = 1

                         Standard orientation:
 ---------------------------------------------------------------------
 Center     Atomic      Atomic             Coordinates (Angstroms)
 Number     Number       Type             X           Y           Z
 ---------------------------------------------------------------------
      1          1           0       -4.428281   -3.278720    0.309880
      2          6           0       -4.002161   -2.311460    0.050340
      3          6           0       -2.743851   -2.245500   -0.543940
      4          6           0       -4.675211   -1.116440    0.329760
      5          1           0       -2.191421   -3.164590   -0.755520
      6          7           0       -2.142751   -1.101330   -0.877800
      7          8           0       -5.873241   -1.031570    0.952530
      8          6           0       -4.058251    0.104510   -0.037500
      9          6           0       -2.791871    0.061580   -0.643800
     10          6           0       -6.495171   -2.252050    1.367280
     11          8           0       -4.602190    1.323010    0.249590
     12          6           0       -2.100480    1.326830   -1.023540
     13          1           0       -6.716171   -2.899200    0.504000
     14          1           0       -7.430011   -1.955349    1.853820
     15          1           0       -5.860581   -2.793780    2.085730
     16          6           0       -5.882030    1.623640   -0.341140
     17         16           0       -1.025970    2.062620    0.346920
     18          1           0       -1.470900    1.209400   -1.912770
     19          1           0       -2.812080    2.148720   -1.161620
     20          6           0        0.468480    1.094609   -0.024760
     21          8           0       -0.759860    3.475930   -0.045820
     22          7           0        1.653680    1.526549    0.360070
     23          7           0        0.482449   -0.152681   -0.603750
     24          6           0        2.519569    0.506239    0.007890
     25          1           0       -0.367821   -0.687631   -0.885630
     26          6           0        1.800289   -0.565801   -0.589250
     27          6           0        3.914149    0.435609    0.153550
     28          6           0        2.438559   -1.723651   -1.042950
     29          1           0        4.469250    1.279789    0.559780
     30          6           0        4.531779   -0.732191   -0.281850
     31          1           0        1.891059   -2.543291   -1.509490
     32          6           0        3.815919   -1.795061   -0.871890
     33          8           0        5.909059   -0.943002   -0.195730
     34          1           0        4.375089   -2.674021   -1.192160
     35          6           0        6.587699   -0.278942    0.793770
     36          9           0        6.960530    0.980888    0.380050
     37          9           0        7.731719   -0.972362    1.024410
     38          1           0        6.008259   -0.177332    1.727030
     39          1           0       -5.836650    1.500610   -1.435020
     40          1           0       -6.077150    2.674020   -0.098430
     41          1           0       -6.675610    0.988480    0.073510
 ---------------------------------------------------------------------

 SCF Done:  E(RHF) =  -1675.19954748     A.U. after    2 cycles

 The electronic state is 1-A.
 Alpha  occ. eigenvalues --  -94.09259 -26.48078 -26.47459 -20.62124 -20.59740
 Alpha  occ. eigenvalues --  -20.59259 -20.50653 -15.55803 -15.54237 -15.50073
 Alpha  occ. eigenvalues --  -11.47601 -11.36651 -11.33931 -11.33560 -11.33529
 Alpha  occ. eigenvalues --  -11.32653 -11.32220 -11.31695 -11.31218 -11.29515
 Alpha  occ. eigenvalues --  -11.28289 -11.28173 -11.27200 -11.26282 -11.25168
 Alpha  occ. eigenvalues --  -11.25090  -8.35878  -6.33706  -6.33581  -6.33359
 Alpha  occ. eigenvalues --   -1.65784  -1.57579  -1.54842  -1.51704  -1.51028
 Alpha  occ. eigenvalues --   -1.44363  -1.34569  -1.29664  -1.18878  -1.14958
 Alpha  occ. eigenvalues --   -1.12132  -1.11301  -1.05592  -1.02816  -1.01955
 Alpha  occ. eigenvalues --   -1.00192  -0.97097  -0.95230  -0.92698  -0.89527
 Alpha  occ. eigenvalues --   -0.87047  -0.86638  -0.85282  -0.83109  -0.79112
 Alpha  occ. eigenvalues --   -0.78159  -0.77216  -0.76811  -0.76071  -0.74802
 Alpha  occ. eigenvalues --   -0.72450  -0.71199  -0.70001  -0.68449  -0.66946
 Alpha  occ. eigenvalues --   -0.66465  -0.66174  -0.65480  -0.64735  -0.64471
 Alpha  occ. eigenvalues --   -0.64189  -0.63918  -0.63199  -0.63048  -0.62073
 Alpha  occ. eigenvalues --   -0.61307  -0.59935  -0.59873  -0.58558  -0.58171
 Alpha  occ. eigenvalues --   -0.57345  -0.56091  -0.55493  -0.55000  -0.54679
 Alpha  occ. eigenvalues --   -0.54228  -0.53167  -0.52824  -0.50871  -0.48541
 Alpha  occ. eigenvalues --   -0.47761  -0.47281  -0.46679  -0.43635  -0.40413
 Alpha  occ. eigenvalues --   -0.38491  -0.36401  -0.33706  -0.31448
 Alpha virt. eigenvalues --    0.01369   0.01989   0.02577   0.03077   0.03477
 Alpha virt. eigenvalues --    0.04207   0.04798   0.05137   0.05378   0.05487
 Alpha virt. eigenvalues --    0.05809   0.06654   0.06882   0.07012   0.07205

 Mulliken charges:
               1
     1  H   -0.361616
     2  C    0.793799
     3  C   -0.820828
     4  C    1.980384
     5  H   -0.288857
     6  N    1.890559
     7  O   -2.064314
     8  C    1.947007
     9  C   -1.690622
    10  C    0.148758
    11  O   -2.132325
    12  C   -0.516214
    13  H    0.200746
    14  H   -0.015574
    15  H    0.202253
    16  C   -0.053719
    17  S    2.338052
    18  H    0.172810
    19  H    0.087931
    20  C   -2.293453
    21  O   -1.579504
    22  N    1.410401
    23  N    1.358999
    24  C   -2.236904
    25  H    0.166791
    26  C   -1.175448
    27  C    1.253588
    28  C    1.474301
    29  H   -0.263340
    30  C    1.650577
    31  H   -0.299615
    32  C   -0.025270
    33  O   -1.980451
    34  H   -0.293646
    35  C    2.035029
    36  F   -0.708381
    37  F   -0.796137
    38  H    0.081872
    39  H    0.198920
    40  H    0.024591
    41  H    0.178850
 Sum of Mulliken charges =  -0.00000

 Dipole moment (field-independent basis, Debye):
    X=            -12.3299    Y=             -8.3523    Z=             -0.1754  Tot=             14.8936

 Test job not archived.
 1\1\GINC-SE228\SP\RHF\Aug-CC-pVDZ\C16H15F2N3O4S1\OHZDE\08-Apr-2025\0\\
 #t hf aug-cc-pvdz iop(5/13=1,5/36=2,99/5=2) pseudo=read geom=check gue
 ss=(read,tcheck) scf=(maxcycle=1)\\title\\0,1\H,0,-4.42828,-3.27872,0.
 30988\C,0,-4.00216,-2.31146,0.05034\C,0,-2.74385,-2.2455,-0.54394\C,0,
 -4.67521,-1.11644,0.32976\H,0,-2.19142,-3.16459,-0.75552\N,0,-2.14275,
 -1.10133,-0.8778\O,0,-5.87324,-1.03157,0.95253\C,0,-4.05825,0.10451,-0
 .0375\C,0,-2.79187,0.06158,-0.6438\C,0,-6.49517,-2.25205,1.36728\O,0,-
 4.60219,1.32301,0.24959\C,0,-2.10048,1.32683,-1.02354\H,0,-6.71617,-2.

 Normal termination of Gaussian 16 at Tue Apr  8 18:42:26 2025.
