 Gaussian 16, Revision C.01,

 ----------------------------------------------------------------------
 #t hf aug-cc-pvdz symm=none int=(grid=ultrafine) guess=(read,tcheck) s
 table=(opt,rrhf)
 ----------------------------------------------------------------------
 -----
 title
 -----
 Symbolic Z-matrix:
 Charge =  0 Multiplicity = 1

 SCF Done:  E(RHF) =  -1673.90290553     A.U. after   16 cycles
 Normal termination of Gaussian 16 at Tue Apr  8 18:42:53 2025.
 Gaussian 16:  ES64L-G16RevC.01  3-Jul-2019

 ----------------------------------------------------------------------
 #t hf aug-cc-pvdz iop(5/13=1,5/36=2,99/5=2) pseudo=read geom=check gue
 ss=(read,tcheck) scf=(maxcycle=1)
 ----------------------------------------------------------------------
 -----
 title
 -----
 Structure from the checkpoint file:  "37Conf8_Pantoprazole_2_mol2.chk"
 Charge =  0 Multiplicity = 1

                         Standard orientation:
 ---------------------------------------------------------------------
 Center     Atomic      Atomic             Coordinates (Angstroms)
 Number     Number       Type             X           Y           Z
 ---------------------------------------------------------------------
      1          1           0        6.774449   -1.807912   -0.378991
      2          6           0        5.727249   -1.535532   -0.255831
      3          6           0        4.734309   -2.275612   -0.903171
      4          6           0        5.340020   -0.461702    0.550949
      5          1           0        5.018239   -3.119342   -1.539051
      6          7           0        3.428539   -2.027432   -0.800331
      7          8           0        6.183800    0.328488    1.258939
      8          6           0        3.958780   -0.168232    0.658129
      9          6           0        3.052149   -0.987412   -0.029111
     10          6           0        7.580220    0.038367    1.176209
     11          8           0        3.502340    0.823628    1.483229
     12          6           0        1.585759   -0.710071    0.046439
     13          1           0        7.948480    0.139927    0.142739
     14          1           0        7.797729   -0.976073    1.546679
     15          1           0        8.074370    0.776547    1.816749
     16          6           0        3.763650    2.170488    1.032869
     17         16           0        1.052330    0.166199   -1.507961
     18          1           0        0.994759   -1.636391    0.045189
     19          1           0        1.314590   -0.057031    0.883769
     20          6           0       -0.667220    0.319089   -0.995011
     21          8           0        1.565620    1.583499   -1.465291
     22          7           0       -1.549191   -0.638331   -0.802501
     23          7           0       -1.161110    1.585959   -0.837591
     24          6           0       -2.716120    0.040779   -0.477661
     25          1           0       -0.591450    2.422239   -0.943751
     26          6           0       -2.493920    1.446239   -0.495251
     27          6           0       -3.986081   -0.474030   -0.176681
     28          6           0       -3.510060    2.362160   -0.215411
     29          1           0       -4.168581   -1.546780   -0.213691
     30          6           0       -4.984550    0.449350    0.118799
     31          1           0       -3.342620    3.439370   -0.232971
     32          6           0       -4.759610    1.841560    0.099379
     33          8           0       -6.291570    0.082160    0.433759
     34          1           0       -5.594770    2.499380    0.338689
     35          6           0       -6.484621   -1.159730    0.986799
     36          9           0       -6.591241   -2.124810    0.010359
     37          9           0       -7.673251   -1.121650    1.637629
     38          1           0       -5.678861   -1.457420    1.679179
     39          1           0        3.230010    2.355788    0.088259
     40          1           0        4.842680    2.342778    0.910609
     41          1           0        3.375220    2.826038    1.821209
 ---------------------------------------------------------------------

 SCF Done:  E(RHF) =  -1675.21545343     A.U. after    2 cycles

 The electronic state is 1-A.
 Alpha  occ. eigenvalues --  -94.09819 -26.48782 -26.48221 -20.60547 -20.60093
 Alpha  occ. eigenvalues --  -20.56952 -20.52225 -15.57845 -15.51740 -15.51366
 Alpha  occ. eigenvalues --  -11.48357 -11.35439 -11.34206 -11.32690 -11.31849
 Alpha  occ. eigenvalues --  -11.31261 -11.30190 -11.29564 -11.29470 -11.29182
 Alpha  occ. eigenvalues --  -11.28628 -11.28554 -11.27220 -11.26100 -11.26095
 Alpha  occ. eigenvalues --  -11.26025  -8.36592  -6.34403  -6.34286  -6.34061
 Alpha  occ. eigenvalues --   -1.66569  -1.58341  -1.52716  -1.52495  -1.48598
 Alpha  occ. eigenvalues --   -1.45625  -1.36156  -1.26998  -1.20592  -1.16102
 Alpha  occ. eigenvalues --   -1.10954  -1.09450  -1.05567  -1.03920  -1.01922
 Alpha  occ. eigenvalues --   -0.98710  -0.96351  -0.94431  -0.92336  -0.88336
 Alpha  occ. eigenvalues --   -0.86951  -0.86722  -0.85697  -0.83145  -0.80109
 Alpha  occ. eigenvalues --   -0.78264  -0.77553  -0.75735  -0.75549  -0.74424
 Alpha  occ. eigenvalues --   -0.71904  -0.70051  -0.68208  -0.67679  -0.67338
 Alpha  occ. eigenvalues --   -0.66475  -0.65394  -0.65137  -0.64275  -0.64048
 Alpha  occ. eigenvalues --   -0.64002  -0.63587  -0.63432  -0.62311  -0.61627
 Alpha  occ. eigenvalues --   -0.61198  -0.60673  -0.60152  -0.58819  -0.57308
 Alpha  occ. eigenvalues --   -0.56940  -0.56656  -0.55586  -0.54648  -0.53697
 Alpha  occ. eigenvalues --   -0.53429  -0.51990  -0.51034  -0.50247  -0.49036
 Alpha  occ. eigenvalues --   -0.48398  -0.48074  -0.45401  -0.43922  -0.40227
 Alpha  occ. eigenvalues --   -0.37876  -0.35205  -0.34729  -0.32533
 Alpha virt. eigenvalues --    0.02471   0.02850   0.03135   0.03942   0.04004
 Alpha virt. eigenvalues --    0.04179   0.04631   0.05139   0.05652   0.05795
 Alpha virt. eigenvalues --    0.06105   0.06320   0.06789   0.07882   0.08146

 Mulliken charges:
               1
     1  H   -0.341477
     2  C    1.272867
     3  C   -1.450945
     4  C    1.447222
     5  H   -0.252355
     6  N    1.965761
     7  O   -2.043526
     8  C    2.527759
     9  C   -2.218302
    10  C    0.102869
    11  O   -2.130961
    12  C    0.149581
    13  H    0.180473
    14  H    0.184885
    15  H   -0.015274
    16  C   -0.045584
    17  S    2.569650
    18  H    0.256269
    19  H    0.136729
    20  C   -2.957968
    21  O   -1.721197
    22  N    1.582887
    23  N    1.218674
    24  C   -2.124637
    25  H    0.030353
    26  C   -0.547338
    27  C    1.247764
    28  C    1.205485
    29  H   -0.277668
    30  C    1.454496
    31  H   -0.272506
    32  C    0.145592
    33  O   -1.932571
    34  H   -0.295977
    35  C    2.007713
    36  F   -0.729521
    37  F   -0.797839
    38  H    0.082228
    39  H    0.166264
    40  H    0.180126
    41  H    0.039994
 Sum of Mulliken charges =  -0.00000

 Dipole moment (field-independent basis, Debye):
    X=              7.1776    Y=              2.5980    Z=              2.1255  Tot=              7.9237

 Test job not archived.
 1\1\GINC-SE045\SP\RHF\Aug-CC-pVDZ\C16H15F2N3O4S1\OHZDE\08-Apr-2025\0\\
 #t hf aug-cc-pvdz iop(5/13=1,5/36=2,99/5=2) pseudo=read geom=check gue
 ss=(read,tcheck) scf=(maxcycle=1)\\title\\0,1\H,0,6.77445,-1.80791,-0.
 37899\C,0,5.72725,-1.53553,-0.25583\C,0,4.73431,-2.27561,-0.90317\C,0,
 5.34002,-0.4617,0.55095\H,0,5.01824,-3.11934,-1.53905\N,0,3.42854,-2.0
 2743,-0.80033\O,0,6.1838,0.32849,1.25894\C,0,3.95878,-0.16823,0.65813\
 C,0,3.05215,-0.98741,-0.02911\C,0,7.58022,0.03837,1.17621\O,0,3.50234,
 0.82363,1.48323\C,0,1.58576,-0.71007,0.04644\H,0,7.94848,0.13993,0.142

 Normal termination of Gaussian 16 at Tue Apr  8 18:44:33 2025.
