 Gaussian 16, Revision C.01,

 ----------------------------------------------------------------------
 #t hf aug-cc-pvdz symm=none int=(grid=ultrafine) guess=(read,tcheck) s
 table=(opt,rrhf)
 ----------------------------------------------------------------------
 -----
 title
 -----
 Symbolic Z-matrix:
 Charge =  0 Multiplicity = 1

 SCF Done:  E(RHF) =  -917.594300472     A.U. after   11 cycles
 Normal termination of Gaussian 16 at Tue Apr  8 17:25:42 2025.
 Gaussian 16:  ES64L-G16RevC.01  3-Jul-2019

 ----------------------------------------------------------------------
 #t hf aug-cc-pvdz iop(5/13=1,5/36=2,99/5=2) pseudo=read geom=check gue
 ss=(read,tcheck) scf=(maxcycle=1)
 ----------------------------------------------------------------------
 -----
 title
 -----
 Structure from the checkpoint file:  "37Conf8_18crown6_3_mol2.chk"
 Charge =  0 Multiplicity = 1

                         Standard orientation:
 ---------------------------------------------------------------------
 Center     Atomic      Atomic             Coordinates (Angstroms)
 Number     Number       Type             X           Y           Z
 ---------------------------------------------------------------------
      1          1           0        1.026364    3.550782    1.237661
      2          6           0        0.427489    2.756838    0.743911
      3          1           0        0.642033    1.805311    1.258711
      4          8           0        0.779006    2.682857   -0.638439
      5          6           0       -1.044376    3.101099    0.877901
      6          6           0        2.164418    2.455562   -0.877439
      7          1           0       -1.288098    3.953407    0.213271
      8          1           0       -1.229789    3.411194    1.918231
      9          8           0       -1.935899    2.016663    0.638621
     10          1           0        2.340111    2.771801   -1.917609
     11          1           0        2.779210    3.093705   -0.212329
     12          6           0        2.604860    1.009526   -0.743669
     13          6           0       -2.176193    1.749883   -0.743789
     14          1           0        1.890384    0.346910   -1.260299
     15          1           0        3.593075    0.890253   -1.235659
     16          8           0        2.714584    0.667435    0.638681
     17          1           0       -1.244922    1.461144   -1.259399
     18          1           0       -2.565584    2.665370   -1.236799
     19          6           0       -3.209224    0.646348   -0.877839
     20          6           0        3.209244   -0.646477    0.877721
     21          1           0       -3.570521    0.640632   -1.918159
     22          1           0       -4.069378    0.860541   -0.213159
     23          8           0       -2.714614   -0.667544   -0.638619
     24          1           0        4.069368   -0.860570    0.212971
     25          1           0        3.570611   -0.640881    1.918031
     26          6           0        2.176233   -1.750012    0.743631
     27          6           0       -2.604641   -1.009375    0.743771
     28          1           0        2.565744   -2.665579    1.236401
     29          1           0        1.245042   -1.461403    1.259461
     30          8           0        1.935689   -2.016552   -0.638789
     31          1           0       -3.592745   -0.889912    1.235951
     32          1           0       -1.890004   -0.346719    1.260131
     33          6           0       -2.164288   -2.455421    0.877741
     34          6           0        1.044235   -3.101049   -0.878069
     35          1           0       -2.779250   -3.093645    0.212861
     36          1           0       -2.339811   -2.771460    1.917991
     37          8           0       -0.778936   -2.682866    0.638531
     38          1           0        1.229539   -3.411013   -1.918469
     39          1           0        1.288137   -3.953396   -0.213579
     40          6           0       -0.427640   -2.756917   -0.743869
     41          1           0       -0.642363   -1.805461   -1.258709
     42          1           0       -1.026504   -3.550971   -1.237469
 ---------------------------------------------------------------------

 SCF Done:  E(RHF) =  -918.538679971     A.U. after    2 cycles

 The electronic state is 1-A.
 Alpha  occ. eigenvalues --  -20.53882 -20.53882 -20.53882 -20.53882 -20.53877
 Alpha  occ. eigenvalues --  -20.53877 -11.28125 -11.28125 -11.28125 -11.28124
 Alpha  occ. eigenvalues --  -11.28123 -11.28122 -11.27556 -11.27555 -11.27555
 Alpha  occ. eigenvalues --  -11.27551 -11.27550 -11.27550  -1.46552  -1.45748
 Alpha  occ. eigenvalues --   -1.45748  -1.44247  -1.44246  -1.43598  -1.05143
 Alpha  occ. eigenvalues --   -1.03192  -1.03191  -0.98322  -0.98320  -0.93909
 Alpha  occ. eigenvalues --   -0.87106  -0.83273  -0.83272  -0.81456  -0.80922
 Alpha  occ. eigenvalues --   -0.80919  -0.70284  -0.68377  -0.68375  -0.68346
 Alpha  occ. eigenvalues --   -0.68344  -0.66587  -0.66585  -0.65173  -0.63085
 Alpha  occ. eigenvalues --   -0.62914  -0.62913  -0.62623  -0.60303  -0.58315
 Alpha  occ. eigenvalues --   -0.58311  -0.57925  -0.56290  -0.56284  -0.54681
 Alpha  occ. eigenvalues --   -0.52991  -0.52989  -0.52503  -0.52500  -0.51082
 Alpha  occ. eigenvalues --   -0.47736  -0.47735  -0.47353  -0.47351  -0.47282
 Alpha  occ. eigenvalues --   -0.46499  -0.41939  -0.40765  -0.40727  -0.40720
 Alpha  occ. eigenvalues --   -0.40251  -0.40245
 Alpha virt. eigenvalues --    0.03038   0.03498   0.03498   0.03985   0.04705
 Alpha virt. eigenvalues --    0.04706   0.05059   0.05060   0.05313   0.06706
 Alpha virt. eigenvalues --    0.06854   0.07028   0.07029   0.08039   0.08042

 Mulliken charges:
               1
     1  H    0.145163
     2  C    0.478986
     3  H    0.279817
     4  O   -1.355173
     5  C    0.204276
     6  C    0.204937
     7  H    0.260718
     8  H   -0.013919
     9  O   -1.355924
    10  H   -0.014061
    11  H    0.260450
    12  C    0.479034
    13  C    0.479146
    14  H    0.280404
    15  H    0.144990
    16  O   -1.355569
    17  H    0.280251
    18  H    0.144848
    19  C    0.204488
    20  C    0.204367
    21  H   -0.013864
    22  H    0.260974
    23  O   -1.355609
    24  H    0.261042
    25  H   -0.013801
    26  C    0.479207
    27  C    0.479028
    28  H    0.144873
    29  H    0.280195
    30  O   -1.355890
    31  H    0.145000
    32  H    0.280443
    33  C    0.204931
    34  C    0.204250
    35  H    0.260427
    36  H   -0.014088
    37  O   -1.355216
    38  H   -0.013881
    39  H    0.260668
    40  C    0.479081
    41  H    0.279836
    42  H    0.145165
 Sum of Mulliken charges =  -0.00000

 Dipole moment (field-independent basis, Debye):
    X=              0.0003    Y=              0.0001    Z=              0.0000  Tot=              0.0004

 Test job not archived.
 1\1\GINC-SE082\SP\RHF\Aug-CC-pVDZ\C12H24O6\OHZDE\08-Apr-2025\0\\#t hf
 aug-cc-pvdz iop(5/13=1,5/36=2,99/5=2) pseudo=read geom=check guess=(re
 ad,tcheck) scf=(maxcycle=1)\\title\\0,1\H,0,1.02858,3.55014,1.23766\C,
 0,0.42921,2.75657,0.74391\H,0,0.64316,1.80491,1.25871\O,0,0.78068,2.68
 237,-0.63844\C,0,-1.04244,3.10175,0.8779\C,0,2.16595,2.45421,-0.87744\
 H,0,-1.28563,3.95421,0.21327\H,0,-1.22766,3.41196,1.91823\O,0,-1.93464
 ,2.01787,0.63862\H,0,2.34184,2.77034,-1.91761\H,0,2.78114,3.09197,-0.2
 1233\C,0,2.60549,1.0079,-0.74367\C,0,-2.1751,1.75124,-0.74379\H,0,1.89

 Normal termination of Gaussian 16 at Tue Apr  8 17:27:09 2025.
