 Gaussian 16, Revision C.01,

 ----------------------------------------------------------------------
 #t hf aug-cc-pvdz symm=none int=(grid=ultrafine) guess=(read,tcheck) s
 table=(opt,rrhf)
 ----------------------------------------------------------------------
 -----
 title
 -----
 Symbolic Z-matrix:
 Charge =  0 Multiplicity = 1

 SCF Done:  E(RHF) =  -798.303537579     A.U. after   14 cycles

 1\1\GINC-SE195\Stability\RHF\Aug-CC-pVDZ\C9H14O6\OHZDE\08-Apr-2025\0\\
 #t hf aug-cc-pvdz symm=none int=(grid=ultrafine) guess=(read,tcheck) s
 table=(opt,rrhf)\\title\\0,1\H,0,-3.19293,2.72349,0.96449\C,0,-2.65325
 ,2.96704,0.03714\C,0,-1.88474,1.75231,-0.4089\H,0,-3.3776,3.24502,-0.7
 3472\H,0,-1.97876,3.80371,0.25772\O,0,-0.76265,1.59882,0.35815\O,0,-2.
 2087,1.00229,-1.30558\C,0,0.04805,0.42303,0.10867\C,0,1.49002,0.89492,
 0.21839\C,0,-0.29244,-0.64673,1.13584\H,0,-0.16257,0.04895,-0.90301\O,
 0,2.32608,-0.22744,-0.12574\H,0,1.67364,1.72921,-0.4735\H,0,1.72846,1.

 Normal termination of Gaussian 16 at Tue Apr  8 18:40:53 2025.
 Gaussian 16:  ES64L-G16RevC.01  3-Jul-2019

 ----------------------------------------------------------------------
 #t hf aug-cc-pvdz iop(5/13=1,5/36=2,99/5=2) pseudo=read geom=check gue
 ss=(read,tcheck) scf=(maxcycle=1)
 ----------------------------------------------------------------------
 -----
 title
 -----
 Structure from the checkpoint file:  "37Conf8_Triacetin_2_mol1.chk"
 Charge =  0 Multiplicity = 1

                         Standard orientation:
 ---------------------------------------------------------------------
 Center     Atomic      Atomic             Coordinates (Angstroms)
 Number     Number       Type             X           Y           Z
 ---------------------------------------------------------------------
      1          1           0       -3.192930    2.723491    0.964491
      2          6           0       -2.653250    2.967040    0.037141
      3          6           0       -1.884741    1.752310   -0.408899
      4          1           0       -3.377600    3.245021   -0.734719
      5          1           0       -1.978760    3.803710    0.257721
      6          8           0       -0.762651    1.598820    0.358151
      7          8           0       -2.208701    1.002290   -1.305579
      8          6           0        0.048049    0.423030    0.108671
      9          6           0        1.490019    0.894920    0.218391
     10          6           0       -0.292441   -0.646730    1.135841
     11          1           0       -0.162571    0.048950   -0.903009
     12          8           0        2.326079   -0.227440   -0.125739
     13          1           0        1.673639    1.729210   -0.473499
     14          1           0        1.728459    1.241500    1.236331
     15          8           0       -1.673031   -1.042120    1.026431
     16          1           0        0.365819   -1.514120    0.990841
     17          1           0       -0.183801   -0.247760    2.153731
     18          6           0        3.667519    0.030760   -0.119929
     19          6           0       -1.941581   -1.964810    0.048791
     20          6           0        4.445129   -1.209160   -0.470639
     21          8           0        4.132859    1.118410    0.147651
     22          6           0       -3.424131   -2.145539   -0.109779
     23          8           0       -1.080851   -2.520020   -0.600579
     24          1           0        4.013799   -1.702260   -1.351339
     25          1           0        5.491409   -0.944180   -0.650369
     26          1           0        4.389309   -1.923460    0.363881
     27          1           0       -3.794321   -1.321219   -0.738599
     28          1           0       -3.628351   -3.096609   -0.611759
     29          1           0       -3.941181   -2.092729    0.856111
 ---------------------------------------------------------------------

 SCF Done:  E(RHF) =  -799.101993563     A.U. after    2 cycles

 The electronic state is 1-A.
 Alpha  occ. eigenvalues --  -20.59987 -20.59941 -20.59184 -20.54433 -20.54310
 Alpha  occ. eigenvalues --  -20.53501 -11.40434 -11.40008 -11.39283 -11.31338
 Alpha  occ. eigenvalues --  -11.31233 -11.30573 -11.26150 -11.25914 -11.24955
 Alpha  occ. eigenvalues --   -1.54998  -1.54337  -1.53378  -1.45845  -1.45395
 Alpha  occ. eigenvalues --   -1.44648  -1.10041  -1.04101  -1.03347  -1.00451
 Alpha  occ. eigenvalues --   -0.94749  -0.86717  -0.81811  -0.78534  -0.77502
 Alpha  occ. eigenvalues --   -0.71977  -0.71258  -0.70581  -0.69791  -0.68439
 Alpha  occ. eigenvalues --   -0.67865  -0.67370  -0.65772  -0.63464  -0.61608
 Alpha  occ. eigenvalues --   -0.60194  -0.59682  -0.58887  -0.58155  -0.56664
 Alpha  occ. eigenvalues --   -0.56209  -0.55293  -0.55000  -0.53624  -0.52383
 Alpha  occ. eigenvalues --   -0.51529  -0.51115  -0.47767  -0.46376  -0.45326
 Alpha  occ. eigenvalues --   -0.45030  -0.44435  -0.43727
 Alpha virt. eigenvalues --    0.03073   0.03545   0.03814   0.04077   0.04984
 Alpha virt. eigenvalues --    0.05115   0.05755   0.06090   0.06302   0.07030
 Alpha virt. eigenvalues --    0.07655   0.08229   0.08712   0.09248   0.09651

 Mulliken charges:
               1
     1  H    0.261968
     2  C   -0.720957
     3  C    1.908168
     4  H    0.198628
     5  H    0.223961
     6  O   -1.525836
     7  O   -1.258177
     8  C    0.644959
     9  C    0.213074
    10  C    0.682678
    11  H    0.241970
    12  O   -1.185703
    13  H    0.158717
    14  H    0.187719
    15  O   -1.402320
    16  H    0.344140
    17  H    0.030723
    18  C    1.639179
    19  C    1.981520
    20  C   -0.755221
    21  O   -1.201954
    22  C   -0.729932
    23  O   -1.320887
    24  H    0.239671
    25  H    0.181073
    26  H    0.271506
    27  H    0.275263
    28  H    0.195678
    29  H    0.220392
 Sum of Mulliken charges =  -0.00000

 Dipole moment (field-independent basis, Debye):
    X=             -1.3636    Y=              0.4751    Z=              1.9172  Tot=              2.4002

 Test job not archived.
 1\1\GINC-SE195\SP\RHF\Aug-CC-pVDZ\C9H14O6\OHZDE\08-Apr-2025\0\\#t hf a
 ug-cc-pvdz iop(5/13=1,5/36=2,99/5=2) pseudo=read geom=check guess=(rea
 d,tcheck) scf=(maxcycle=1)\\title\\0,1\H,0,-3.19293,2.72349,0.96449\C,
 0,-2.65325,2.96704,0.03714\C,0,-1.88474,1.75231,-0.4089\H,0,-3.3776,3.
 24502,-0.73472\H,0,-1.97876,3.80371,0.25772\O,0,-0.76265,1.59882,0.358
 15\O,0,-2.2087,1.00229,-1.30558\C,0,0.04805,0.42303,0.10867\C,0,1.4900
 2,0.89492,0.21839\C,0,-0.29244,-0.64673,1.13584\H,0,-0.16257,0.04895,-
 0.90301\O,0,2.32608,-0.22744,-0.12574\H,0,1.67364,1.72921,-0.4735\H,0,

 Normal termination of Gaussian 16 at Tue Apr  8 18:41:25 2025.
