 Gaussian 16, Revision C.01,

 ----------------------------------------------------------------------
 #t hf aug-cc-pvdz symm=none int=(grid=ultrafine) guess=(read,tcheck) s
 table=(opt,rrhf)
 ----------------------------------------------------------------------
 -----
 title
 -----
 Symbolic Z-matrix:
 Charge =  0 Multiplicity = 1

 SCF Done:  E(RHF) =  -382.157155423     A.U. after   12 cycles

 1\1\GINC-SE187\Stability\RHF\Aug-CC-pVDZ\C7H14N2\OHZDE\08-Apr-2025\0\\
 #t hf aug-cc-pvdz symm=none int=(grid=ultrafine) guess=(read,tcheck) s
 table=(opt,rrhf)\\title\\0,1\H,0,0.76351,0.,-1.75009\N,0,1.49086,0.,-1
 .03025\C,0,1.29354,-1.21771,-0.23748\C,0,1.29354,1.21771,-0.23748\H,0,
 1.29398,-2.0757,-0.92868\H,0,2.1665,-1.34454,0.42931\C,0,0.02075,-1.23
 429,0.63846\H,0,1.29398,2.0757,-0.92868\H,0,2.1665,1.34454,0.42931\C,0
 ,0.02075,1.23429,0.63846\H,0,0.02977,-2.15562,1.24583\C,0,-1.2828,-1.2
 2442,-0.17347\C,0,0.03923,0.,1.54893\H,0,0.02977,2.15562,1.24583\C,0,-

 Normal termination of Gaussian 16 at Tue Apr  8 17:10:24 2025.
 Gaussian 16:  ES64L-G16RevC.01  3-Jul-2019

 ----------------------------------------------------------------------
 #t hf aug-cc-pvdz iop(5/13=1,5/36=2,99/5=2) pseudo=read geom=check gue
 ss=(read,tcheck) scf=(maxcycle=1)
 ----------------------------------------------------------------------
 -----
 title
 -----
 Structure from the checkpoint file:  "37Conf8_Bispidin_3_mol2.chk"
 Charge =  0 Multiplicity = 1

                         Standard orientation:
 ---------------------------------------------------------------------
 Center     Atomic      Atomic             Coordinates (Angstroms)
 Number     Number       Type             X           Y           Z
 ---------------------------------------------------------------------
      1          1           0        1.889163   -0.277182    0.000000
      2          7           0        1.662698    0.720776    0.000000
      3          6           0        0.885463    0.972420    1.217710
      4          6           0        0.885463    0.972420   -1.217710
      5          1           0        1.472395    0.607361    2.075700
      6          1           0        0.781010    2.065927    1.344540
      7          6           0       -0.530962    0.355162    1.234290
      8          1           0        1.472395    0.607361   -2.075700
      9          1           0        0.781010    2.065927   -1.344540
     10          6           0       -0.530962    0.355162   -1.234290
     11          1           0       -1.041737    0.683930    2.155620
     12          6           0       -0.530962   -1.180570    1.224420
     13          6           0       -1.294010    0.852206   -0.000000
     14          1           0       -1.041737    0.683930   -2.155620
     15          6           0       -0.530962   -1.180570   -1.224420
     16          1           0        0.034016   -1.569454    2.087270
     17          1           0       -1.585653   -1.522710    1.338590
     18          7           0        0.092481   -1.697020   -0.000000
     19          1           0       -2.328099    0.467298   -0.000000
     20          1           0       -1.352382    1.953439    0.000000
     21          1           0        0.034016   -1.569454   -2.087270
     22          1           0       -1.585653   -1.522710   -1.338590
     23          1           0        0.066588   -2.717327   -0.000000
 ---------------------------------------------------------------------

 SCF Done:  E(RHF) =  -382.567877649     A.U. after    2 cycles

 The electronic state is 1-A'.
 Alpha  occ. eigenvalues --  -15.48614 -15.46431 -11.25699 -11.25686 -11.24489
 Alpha  occ. eigenvalues --  -11.24478 -11.22833 -11.22799 -11.22474  -1.22358
 Alpha  occ. eigenvalues --   -1.17981  -1.06307  -1.04423  -0.93569  -0.87751
 Alpha  occ. eigenvalues --   -0.85413  -0.81824  -0.73317  -0.71155  -0.66253
 Alpha  occ. eigenvalues --   -0.63715  -0.62282  -0.60471  -0.59693  -0.58741
 Alpha  occ. eigenvalues --   -0.58230  -0.53046  -0.52750  -0.51333  -0.49524
 Alpha  occ. eigenvalues --   -0.47918  -0.44960  -0.44021  -0.41750  -0.36433
 Alpha virt. eigenvalues --    0.03361   0.03589   0.03634   0.04135   0.04851
 Alpha virt. eigenvalues --    0.04976   0.05400   0.06121   0.06293   0.09008
 Alpha virt. eigenvalues --    0.09148   0.09276   0.09323   0.09896   0.13061

 Mulliken charges:
               1
     1  H    0.501675
     2  N    0.597362
     3  C   -0.705070
     4  C   -0.705070
     5  H    0.056076
     6  H    0.086067
     7  C   -0.119205
     8  H    0.056076
     9  H    0.086067
    10  C   -0.119205
    11  H    0.146695
    12  C   -0.444176
    13  C   -0.134032
    14  H    0.146695
    15  C   -0.444176
    16  H    0.073905
    17  H    0.139992
    18  N    0.027993
    19  H    0.099943
    20  H    0.105370
    21  H    0.073905
    22  H    0.139992
    23  H    0.333125
 Sum of Mulliken charges =   0.00000

 Dipole moment (field-independent basis, Debye):
    X=             -2.2507    Y=             -1.3222    Z=             -0.0000  Tot=              2.6103

 Test job not archived.
 1\1\GINC-SE187\SP\RHF\Aug-CC-pVDZ\C7H14N2\OHZDE\08-Apr-2025\0\\#t hf a
 ug-cc-pvdz iop(5/13=1,5/36=2,99/5=2) pseudo=read geom=check guess=(rea
 d,tcheck) scf=(maxcycle=1)\\title\\0,1\H,0,0.76351,0.,-1.75009\N,0,1.4
 9086,0.,-1.03025\C,0,1.29354,-1.21771,-0.23748\C,0,1.29354,1.21771,-0.
 23748\H,0,1.29398,-2.0757,-0.92868\H,0,2.1665,-1.34454,0.42931\C,0,0.0
 2075,-1.23429,0.63846\H,0,1.29398,2.0757,-0.92868\H,0,2.1665,1.34454,0
 .42931\C,0,0.02075,1.23429,0.63846\H,0,0.02977,-2.15562,1.24583\C,0,-1
 .2828,-1.22442,-0.17347\C,0,0.03923,0.,1.54893\H,0,0.02977,2.15562,1.2

 Normal termination of Gaussian 16 at Tue Apr  8 17:10:33 2025.
