 Gaussian 16, Revision C.01,

 ----------------------------------------------------------------------
 #t hf aug-cc-pvdz symm=none int=(grid=ultrafine) guess=(read,tcheck) s
 table=(opt,rrhf)
 ----------------------------------------------------------------------
 -----
 title
 -----
 Symbolic Z-matrix:
 Charge =  0 Multiplicity = 1

 SCF Done:  E(RHF) =  -382.148066143     A.U. after   12 cycles

 1\1\GINC-SE100\Stability\RHF\Aug-CC-pVDZ\C7H14N2\OHZDE\08-Apr-2025\0\\
 #t hf aug-cc-pvdz symm=none int=(grid=ultrafine) guess=(read,tcheck) s
 table=(opt,rrhf)\\title\\0,1\H,0,-2.75704,0.,-0.91999\N,0,-1.96634,0.,
 -0.2751\C,0,-1.17088,1.21528,-0.44365\C,0,-1.17088,-1.21528,-0.44365\H
 ,0,-0.76709,1.31606,-1.47889\H,0,-1.83263,2.0783,-0.27825\C,0,0.01193,
 1.23695,0.56541\H,0,-0.76709,-1.31606,-1.47889\H,0,-1.83263,-2.0783,-0
 .27825\C,0,0.01193,-1.23695,0.56541\H,0,-0.04355,2.15244,1.17606\C,0,1
 .37599,1.22002,-0.15393\C,0,-0.06989,0.,1.47087\H,0,-0.04355,-2.15244,

 Normal termination of Gaussian 16 at Tue Apr  8 17:11:32 2025.
 Gaussian 16:  ES64L-G16RevC.01  3-Jul-2019

 ----------------------------------------------------------------------
 #t hf aug-cc-pvdz iop(5/13=1,5/36=2,99/5=2) pseudo=read geom=check gue
 ss=(read,tcheck) scf=(maxcycle=1)
 ----------------------------------------------------------------------
 -----
 title
 -----
 Structure from the checkpoint file:  "37Conf8_Bispidin_5_mol1.chk"
 Charge =  0 Multiplicity = 1

                         Standard orientation:
 ---------------------------------------------------------------------
 Center     Atomic      Atomic             Coordinates (Angstroms)
 Number     Number       Type             X           Y           Z
 ---------------------------------------------------------------------
      1          1           0        1.089467   -2.694573    0.000000
      2          7           0        1.066903   -1.674484    0.000000
      3          6           0        0.422406   -1.178712    1.215280
      4          6           0        0.422406   -1.178712   -1.215280
      5          1           0       -0.627243   -1.543409    1.316060
      6          1           0        0.977726   -1.574806    2.078300
      7          6           0        0.422406    0.376036    1.236950
      8          1           0       -0.627243   -1.543409   -1.316060
      9          1           0        0.977726   -1.574806   -2.078300
     10          6           0        0.422406    0.376036   -1.236950
     11          1           0        0.922980    0.730152    2.152440
     12          6           0       -1.010148    0.946911    1.220020
     13          6           0        1.164358    0.901450   -0.000000
     14          1           0        0.922980    0.730152   -2.152440
     15          6           0       -1.010148    0.946911   -1.220020
     16          1           0       -1.587704    0.567213    2.077860
     17          1           0       -0.953421    2.044975    1.331120
     18          7           0       -1.764071    0.654800    0.000000
     19          1           0        1.160078    2.004279   -0.000000
     20          1           0        2.210475    0.567919   -0.000000
     21          1           0       -1.587704    0.567213   -2.077860
     22          1           0       -0.953421    2.044975   -1.331120
     23          1           0       -2.046651   -0.327608    0.000000
 ---------------------------------------------------------------------

 SCF Done:  E(RHF) =  -382.558519993     A.U. after    2 cycles

 The electronic state is 1-A'.
 Alpha  occ. eigenvalues --  -15.48200 -15.47872 -11.25492 -11.25473 -11.24988
 Alpha  occ. eigenvalues --  -11.24979 -11.22722 -11.22694 -11.21901  -1.22347
 Alpha  occ. eigenvalues --   -1.18973  -1.05533  -1.04245  -0.93692  -0.88207
 Alpha  occ. eigenvalues --   -0.85382  -0.81832  -0.71912  -0.71054  -0.67477
 Alpha  occ. eigenvalues --   -0.66957  -0.63912  -0.60066  -0.58759  -0.56830
 Alpha  occ. eigenvalues --   -0.56596  -0.53817  -0.53703  -0.50083  -0.49404
 Alpha  occ. eigenvalues --   -0.48838  -0.45799  -0.43790  -0.39493  -0.37961
 Alpha virt. eigenvalues --    0.03458   0.03777   0.03925   0.04210   0.04821
 Alpha virt. eigenvalues --    0.04847   0.05488   0.05650   0.06515   0.08723
 Alpha virt. eigenvalues --    0.08831   0.09220   0.09685   0.09820   0.12936

 Mulliken charges:
               1
     1  H    0.204634
     2  N    0.506679
     3  C   -0.634549
     4  C   -0.634549
     5  H    0.112070
     6  H    0.010223
     7  C   -0.028911
     8  H    0.112070
     9  H    0.010223
    10  C   -0.028911
    11  H    0.121302
    12  C   -0.576183
    13  C   -0.219601
    14  H    0.121302
    15  C   -0.576183
    16  H    0.025255
    17  H    0.123980
    18  N    0.576569
    19  H    0.102742
    20  H    0.126658
    21  H    0.025255
    22  H    0.123980
    23  H    0.395945
 Sum of Mulliken charges =  -0.00000

 Dipole moment (field-independent basis, Debye):
    X=              0.3651    Y=             -1.1209    Z=             -0.0000  Tot=              1.1789

 Test job not archived.
 1\1\GINC-SE100\SP\RHF\Aug-CC-pVDZ\C7H14N2\OHZDE\08-Apr-2025\0\\#t hf a
 ug-cc-pvdz iop(5/13=1,5/36=2,99/5=2) pseudo=read geom=check guess=(rea
 d,tcheck) scf=(maxcycle=1)\\title\\0,1\H,0,-2.75704,0.,-0.91999\N,0,-1
 .96634,0.,-0.2751\C,0,-1.17088,1.21528,-0.44365\C,0,-1.17088,-1.21528,
 -0.44365\H,0,-0.76709,1.31606,-1.47889\H,0,-1.83263,2.0783,-0.27825\C,
 0,0.01193,1.23695,0.56541\H,0,-0.76709,-1.31606,-1.47889\H,0,-1.83263,
 -2.0783,-0.27825\C,0,0.01193,-1.23695,0.56541\H,0,-0.04355,2.15244,1.1
 7606\C,0,1.37599,1.22002,-0.15393\C,0,-0.06989,0.,1.47087\H,0,-0.04355

 Normal termination of Gaussian 16 at Tue Apr  8 17:11:41 2025.
