 Gaussian 16, Revision C.01,

 ----------------------------------------------------------------------
 #t hf aug-cc-pvdz symm=none int=(grid=ultrafine) guess=(read,tcheck) s
 table=(opt,rrhf)
 ----------------------------------------------------------------------
 -----
 title
 -----
 Symbolic Z-matrix:
 Charge =  0 Multiplicity = 1

 SCF Done:  E(RHF) =  -1673.89003381     A.U. after   17 cycles
 Normal termination of Gaussian 16 at Tue Apr  8 18:54:09 2025.
 Gaussian 16:  ES64L-G16RevC.01  3-Jul-2019

 ----------------------------------------------------------------------
 #t hf aug-cc-pvdz iop(5/13=1,5/36=2,99/5=2) pseudo=read geom=check gue
 ss=(read,tcheck) scf=(maxcycle=1)
 ----------------------------------------------------------------------
 -----
 title
 -----
 Structure from the checkpoint file:  "37Conf8_Pantoprazole_5_mol1.chk"
 Charge =  0 Multiplicity = 1

                         Standard orientation:
 ---------------------------------------------------------------------
 Center     Atomic      Atomic             Coordinates (Angstroms)
 Number     Number       Type             X           Y           Z
 ---------------------------------------------------------------------
      1          1           0       -1.014160    2.690870    2.831741
      2          6           0       -1.510340    2.177150    2.007261
      3          6           0       -2.728120    1.523520    2.174531
      4          6           0       -0.901530    2.166870    0.748961
      5          1           0       -3.230760    1.535580    3.146061
      6          7           0       -3.347360    0.846180    1.199731
      7          8           0        0.281890    2.830440    0.596991
      8          6           0       -1.574790    1.518200   -0.308769
      9          6           0       -2.775950    0.833180   -0.017309
     10          6           0        1.382540    2.052390    0.073281
     11          8           0       -1.094170    1.506620   -1.595269
     12          6           0       -3.442370    0.011230   -1.065939
     13          1           0        1.164510    1.649350   -0.924399
     14          1           0        2.235790    2.736850    0.027851
     15          1           0        1.612060    1.223460    0.758441
     16          6           0       -1.002670    2.804450   -2.213069
     17         16           0       -3.184260   -1.844900   -0.849839
     18          1           0       -3.069890    0.220390   -2.076639
     19          1           0       -4.536670    0.091881   -1.017619
     20          6           0       -1.419790   -1.738210   -0.503839
     21          8           0       -3.782440   -2.268140    0.457801
     22          7           0       -0.429660   -1.638610   -1.361909
     23          7           0       -1.034940   -1.767720    0.811231
     24          6           0        0.700820   -1.564850   -0.559109
     25          1           0       -1.696880   -1.834560    1.582101
     26          6           0        0.339280   -1.643940    0.818621
     27          6           0        2.044840   -1.418970   -0.924269
     28          6           0        1.285860   -1.589310    1.843691
     29          1           0        2.350490   -1.352090   -1.967149
     30          6           0        2.971230   -1.346470    0.106451
     31          1           0        1.005780   -1.654780    2.895231
     32          6           0        2.617420   -1.436300    1.465241
     33          8           0        4.343110   -1.244421   -0.217039
     34          1           0        3.405420   -1.378780    2.214961
     35          6           0        4.855100    0.014209   -0.338689
     36          9           0        4.214080    0.746269   -1.313809
     37          9           0        4.717880    0.746729    0.819271
     38          1           0        5.921010   -0.067911   -0.591179
     39          1           0       -0.609570    2.628850   -3.220879
     40          1           0       -2.000909    3.266390   -2.278749
     41          1           0       -0.328309    3.472050   -1.656949
 ---------------------------------------------------------------------

 SCF Done:  E(RHF) =  -1675.19761990     A.U. after    2 cycles

 The electronic state is 1-A.
 Alpha  occ. eigenvalues --  -94.09557 -26.49268 -26.49238 -20.60869 -20.58027
 Alpha  occ. eigenvalues --  -20.58000 -20.51337 -15.57262 -15.51510 -15.51402
 Alpha  occ. eigenvalues --  -11.48919 -11.34927 -11.33242 -11.31843 -11.31704
 Alpha  occ. eigenvalues --  -11.30372 -11.30356 -11.29724 -11.29290 -11.29246
 Alpha  occ. eigenvalues --  -11.29040 -11.28275 -11.26934 -11.26362 -11.26250
 Alpha  occ. eigenvalues --  -11.25682  -8.36274  -6.34090  -6.33968  -6.33760
 Alpha  occ. eigenvalues --   -1.66744  -1.58736  -1.52555  -1.51015  -1.48918
 Alpha  occ. eigenvalues --   -1.45134  -1.35875  -1.26851  -1.20255  -1.16121
 Alpha  occ. eigenvalues --   -1.10530  -1.09016  -1.05120  -1.04069  -1.01518
 Alpha  occ. eigenvalues --   -0.96723  -0.96093  -0.94433  -0.93238  -0.88104
 Alpha  occ. eigenvalues --   -0.86923  -0.86091  -0.85452  -0.82843  -0.79985
 Alpha  occ. eigenvalues --   -0.78458  -0.77624  -0.76572  -0.75202  -0.72969
 Alpha  occ. eigenvalues --   -0.71292  -0.70662  -0.68871  -0.67634  -0.66798
 Alpha  occ. eigenvalues --   -0.65800  -0.65737  -0.65159  -0.65102  -0.64200
 Alpha  occ. eigenvalues --   -0.63854  -0.63016  -0.62030  -0.61593  -0.61416
 Alpha  occ. eigenvalues --   -0.61070  -0.61007  -0.59712  -0.59135  -0.57284
 Alpha  occ. eigenvalues --   -0.56856  -0.55987  -0.55786  -0.54512  -0.52990
 Alpha  occ. eigenvalues --   -0.52499  -0.51567  -0.50530  -0.50040  -0.49571
 Alpha  occ. eigenvalues --   -0.48073  -0.47166  -0.44241  -0.43671  -0.39993
 Alpha  occ. eigenvalues --   -0.38248  -0.35095  -0.34497  -0.33170
 Alpha virt. eigenvalues --    0.02727   0.03035   0.03215   0.03442   0.03898
 Alpha virt. eigenvalues --    0.04180   0.04835   0.05572   0.05884   0.06203
 Alpha virt. eigenvalues --    0.06515   0.07039   0.07481   0.07796   0.08057

 Mulliken charges:
               1
     1  H   -0.282236
     2  C    0.859621
     3  C   -0.815743
     4  C    1.374252
     5  H   -0.262106
     6  N    2.072708
     7  O   -2.202668
     8  C    3.081588
     9  C   -2.175590
    10  C    0.147328
    11  O   -2.063700
    12  C   -0.616741
    13  H    0.231812
    14  H    0.021557
    15  H    0.122203
    16  C   -0.112699
    17  S    2.132378
    18  H    0.163194
    19  H    0.165920
    20  C   -3.481287
    21  O   -1.654123
    22  N    1.642460
    23  N    1.903112
    24  C   -0.834866
    25  H   -0.059232
    26  C   -0.993728
    27  C    0.882621
    28  C    1.091038
    29  H   -0.298826
    30  C    1.814937
    31  H   -0.329121
    32  C    0.126562
    33  O   -2.124905
    34  H   -0.343010
    35  C    1.906192
    36  F   -0.760538
    37  F   -0.753616
    38  H    0.033213
    39  H    0.047528
    40  H    0.142463
    41  H    0.202049
 Sum of Mulliken charges =  -0.00000

 Dipole moment (field-independent basis, Debye):
    X=              2.9392    Y=              3.2250    Z=             -0.0148  Tot=              4.3634

 Test job not archived.
 1\1\GINC-SE362\SP\RHF\Aug-CC-pVDZ\C16H15F2N3O4S1\OHZDE\08-Apr-2025\0\\
 #t hf aug-cc-pvdz iop(5/13=1,5/36=2,99/5=2) pseudo=read geom=check gue
 ss=(read,tcheck) scf=(maxcycle=1)\\title\\0,1\H,0,-1.01416,2.69087,2.8
 3174\C,0,-1.51034,2.17715,2.00726\C,0,-2.72812,1.52352,2.17453\C,0,-0.
 90153,2.16687,0.74896\H,0,-3.23076,1.53558,3.14606\N,0,-3.34736,0.8461
 8,1.19973\O,0,0.28189,2.83044,0.59699\C,0,-1.57479,1.5182,-0.30877\C,0
 ,-2.77595,0.83318,-0.01731\C,0,1.38254,2.05239,0.07328\O,0,-1.09417,1.
 50662,-1.59527\C,0,-3.44237,0.01123,-1.06594\H,0,1.16451,1.64935,-0.92

 Normal termination of Gaussian 16 at Tue Apr  8 18:56:05 2025.
