 Gaussian 16, Revision C.01,

 ----------------------------------------------------------------------
 #t hf aug-cc-pvdz symm=none int=(grid=ultrafine) guess=(read,tcheck) s
 table=(opt,rrhf)
 ----------------------------------------------------------------------
 -----
 title
 -----
 Symbolic Z-matrix:
 Charge =  0 Multiplicity = 1

 SCF Done:  E(RHF) =  -983.486737892     A.U. after   14 cycles
 Normal termination of Gaussian 16 at Tue Apr  8 19:09:39 2025.
 Gaussian 16:  ES64L-G16RevC.01  3-Jul-2019

 ----------------------------------------------------------------------
 #t hf aug-cc-pvdz iop(5/13=1,5/36=2,99/5=2) pseudo=read geom=check gue
 ss=(read,tcheck) scf=(maxcycle=1)
 ----------------------------------------------------------------------
 -----
 title
 -----
 Structure from the checkpoint file:  "37Conf8_Tsogoeva_6_mol1.chk"
 Charge =  0 Multiplicity = 1

                         Standard orientation:
 ---------------------------------------------------------------------
 Center     Atomic      Atomic             Coordinates (Angstroms)
 Number     Number       Type             X           Y           Z
 ---------------------------------------------------------------------
      1          1           0        3.459249    1.944862   -1.204240
      2          8           0        4.289349    2.143613   -0.669140
      3          6           0        4.095959    1.426502    0.451550
      4          6           0        2.751529    0.675032    0.457210
      5          8           0        4.886089    1.370933    1.368470
      6          1           0        2.135969    1.152362    1.234180
      7          7           0        2.091849    0.799252   -0.867430
      8          6           0        2.938850   -0.843558    0.734440
      9          1           0        1.121319    1.091341   -0.752310
     10          6           0        2.137990   -0.539528   -1.489020
     11          1           0        3.989980   -1.127088    0.592810
     12          1           0        2.670710   -1.118888    1.762390
     13          6           0        2.057720   -1.530408   -0.314430
     14          1           0        3.101590   -0.669448   -2.007080
     15          1           0        1.331920   -0.675359   -2.218110
     16          1           0        2.430341   -2.525288   -0.603730
     17          7           0        0.693560   -1.646009    0.180150
     18          6           0       -0.307229   -2.232659   -0.521520
     19          1           0        0.437770   -1.403179    1.141480
     20          6           0       -1.655659   -2.281360    0.228880
     21          8           0       -0.196999   -2.676229   -1.665200
     22          1           0       -1.950089   -3.341490    0.246630
     23          7           0       -1.566260   -1.707250    1.597070
     24          6           0       -2.697730   -1.426150   -0.509690
     25          1           0       -1.771829   -2.400920    2.312580
     26          6           0       -2.451330   -0.534900    1.688170
     27          1           0       -3.708130   -1.842911   -0.369920
     28          1           0       -2.496650   -1.361640   -1.585430
     29          6           0       -2.599170   -0.081550    0.224310
     30          1           0       -3.454810   -0.777591    2.086110
     31          1           0       -2.016980    0.248870    2.327300
     32          1           0       -1.671701    0.421290   -0.085050
     33          7           0       -3.698111    0.818889   -0.024240
     34          6           0       -3.658971    2.177509   -0.231070
     35          1           0       -4.643781    0.442379    0.023650
     36          6           0       -2.286041    2.825660   -0.298230
     37          8           0       -4.694231    2.822889   -0.367040
     38          1           0       -1.703961    2.437230   -1.148080
     39          1           0       -2.431952    3.901670   -0.432430
     40          1           0       -1.705401    2.652450    0.620070
 ---------------------------------------------------------------------

 SCF Done:  E(RHF) =  -984.485247740     A.U. after    2 cycles

 The electronic state is 1-A.
 Alpha  occ. eigenvalues --  -20.58728 -20.52921 -20.52321 -20.51806 -15.54228
 Alpha  occ. eigenvalues --  -15.54197 -15.53637 -15.53188 -11.38947 -11.37482
 Alpha  occ. eigenvalues --  -11.36959 -11.31098 -11.30785 -11.30665 -11.29959
 Alpha  occ. eigenvalues --  -11.29552 -11.28492 -11.26850 -11.26838 -11.26692
 Alpha  occ. eigenvalues --   -1.52921  -1.46408  -1.46059  -1.44346  -1.28923
 Alpha  occ. eigenvalues --   -1.27372  -1.24710  -1.23172  -1.07617  -1.07319
 Alpha  occ. eigenvalues --   -1.04407  -1.02672  -1.01878  -0.90933  -0.89562
 Alpha  occ. eigenvalues --   -0.87725  -0.84720  -0.83146  -0.81778  -0.79963
 Alpha  occ. eigenvalues --   -0.76889  -0.75772  -0.75508  -0.73930  -0.71178
 Alpha  occ. eigenvalues --   -0.69439  -0.67733  -0.67034  -0.65878  -0.65558
 Alpha  occ. eigenvalues --   -0.64885  -0.63101  -0.62588  -0.62036  -0.61148
 Alpha  occ. eigenvalues --   -0.59883  -0.59418  -0.58616  -0.58244  -0.58049
 Alpha  occ. eigenvalues --   -0.56685  -0.56400  -0.55051  -0.53573  -0.53402
 Alpha  occ. eigenvalues --   -0.52441  -0.52153  -0.51726  -0.48051  -0.47094
 Alpha  occ. eigenvalues --   -0.45951  -0.43261  -0.43240  -0.42524  -0.42156
 Alpha  occ. eigenvalues --   -0.42024
 Alpha virt. eigenvalues --    0.01514   0.02400   0.02783   0.03201   0.03348
 Alpha virt. eigenvalues --    0.03703   0.03911   0.04435   0.04797   0.05860
 Alpha virt. eigenvalues --    0.06525   0.06871   0.07133   0.07526   0.07799

 Mulliken charges:
               1
     1  H    0.576598
     2  O   -1.373008
     3  C    2.481423
     4  C   -1.031520
     5  O   -1.388852
     6  H    0.100488
     7  N    0.701409
     8  C   -0.147848
     9  H    0.355934
    10  C   -0.391757
    11  H    0.079552
    12  H    0.089977
    13  C   -1.206723
    14  H    0.025513
    15  H    0.033545
    16  H   -0.111629
    17  N    1.673362
    18  C    0.763150
    19  H    0.361755
    20  C   -1.086865
    21  O   -1.581818
    22  H    0.208933
    23  N    0.670865
    24  C   -0.062837
    25  H    0.305105
    26  C   -0.083830
    27  H    0.134208
    28  H    0.082353
    29  C   -1.826975
    30  H    0.121690
    31  H    0.114031
    32  H    0.150451
    33  N    1.270724
    34  C    0.986430
    35  H    0.146471
    36  C   -0.417103
    37  O   -1.405320
    38  H    0.375073
    39  H   -0.022874
    40  H    0.329920
 Sum of Mulliken charges =  -0.00000

 Dipole moment (field-independent basis, Debye):
    X=             -3.3765    Y=             -4.2082    Z=              2.2093  Tot=              5.8301

 Test job not archived.
 1\1\GINC-SE364\SP\RHF\Aug-CC-pVDZ\C12H20N4O4\OHZDE\08-Apr-2025\0\\#t h
 f aug-cc-pvdz iop(5/13=1,5/36=2,99/5=2) pseudo=read geom=check guess=(
 read,tcheck) scf=(maxcycle=1)\\title\\0,1\H,0,3.45925,1.94486,-1.20424
 \O,0,4.28935,2.14361,-0.66914\C,0,4.09596,1.4265,0.45155\C,0,2.75153,0
 .67503,0.45721\O,0,4.88609,1.37093,1.36847\H,0,2.13597,1.15236,1.23418
 \N,0,2.09185,0.79925,-0.86743\C,0,2.93885,-0.84356,0.73444\H,0,1.12132
 ,1.09134,-0.75231\C,0,2.13799,-0.53953,-1.48902\H,0,3.98998,-1.12709,0
 .59281\H,0,2.67071,-1.11889,1.76239\C,0,2.05772,-1.53041,-0.31443\H,0,

 Normal termination of Gaussian 16 at Tue Apr  8 19:11:02 2025.
