 Gaussian 16, Revision C.01,

 ----------------------------------------------------------------------
 #t hf aug-cc-pvdz symm=none int=(grid=ultrafine) guess=(read,tcheck) s
 table=(opt,rrhf)
 ----------------------------------------------------------------------
 -----
 title
 -----
 Symbolic Z-matrix:
 Charge =  0 Multiplicity = 1

 SCF Done:  E(RHF) =  -1673.88318717     A.U. after   16 cycles
 Normal termination of Gaussian 16 at Tue Apr  8 18:50:45 2025.
 Gaussian 16:  ES64L-G16RevC.01  3-Jul-2019

 ----------------------------------------------------------------------
 #t hf aug-cc-pvdz iop(5/13=1,5/36=2,99/5=2) pseudo=read geom=check gue
 ss=(read,tcheck) scf=(maxcycle=1)
 ----------------------------------------------------------------------
 -----
 title
 -----
 Structure from the checkpoint file:  "37Conf8_Pantoprazole_6_mol1.chk"
 Charge =  0 Multiplicity = 1

                         Standard orientation:
 ---------------------------------------------------------------------
 Center     Atomic      Atomic             Coordinates (Angstroms)
 Number     Number       Type             X           Y           Z
 ---------------------------------------------------------------------
      1          1           0       -6.935960   -0.389639   -0.543699
      2          6           0       -5.906830   -0.035829   -0.576929
      3          6           0       -5.618770    1.225661   -1.098109
      4          6           0       -4.847610   -0.825959   -0.116739
      5          1           0       -6.433460    1.861841   -1.455669
      6          7           0       -4.387740    1.732020   -1.202339
      7          8           0       -4.971421   -2.084089    0.375611
      8          6           0       -3.544570   -0.286350   -0.182949
      9          6           0       -3.363070    0.981520   -0.756039
     10          6           0       -6.286561   -2.644359    0.430481
     11          8           0       -2.433700   -0.996990    0.227231
     12          6           0       -1.990430    1.554770   -0.914989
     13          1           0       -6.730671   -2.710679   -0.575029
     14          1           0       -6.161581   -3.650649    0.843881
     15          1           0       -6.943881   -2.053359    1.087451
     16          6           0       -2.406720   -1.377170    1.624361
     17         16           0       -1.123350    1.847080    0.736731
     18          1           0       -1.340280    0.930290   -1.540309
     19          1           0       -2.054480    2.564770   -1.338639
     20          6           0        0.400770    0.950339    0.300861
     21          8           0       -0.798019    3.295380    0.829221
     22          7           0        1.607540    1.420869    0.515011
     23          7           0        0.380040   -0.358331   -0.136259
     24          6           0        2.453250    0.371419    0.182011
     25          1           0       -0.468600   -0.894030   -0.316729
     26          6           0        1.700940   -0.762871   -0.225109
     27          6           0        3.854210    0.319489    0.221791
     28          6           0        2.309719   -1.960891   -0.604179
     29          1           0        4.425830    1.173449    0.581861
     30          6           0        4.450260   -0.874941   -0.173449
     31          1           0        1.734999   -2.832901   -0.918049
     32          6           0        3.699649   -1.997921   -0.577429
     33          8           0        5.830470   -1.071482   -0.181549
     34          1           0        4.240209   -2.897571   -0.870829
     35          6           0        6.626760    0.037628   -0.326629
     36          9           0        7.825530   -0.395062   -0.790169
     37          9           0        6.859740    0.640818    0.888901
     38          1           0        6.202190    0.792048   -1.010479
     39          1           0       -1.395450   -1.757130    1.812671
     40          1           0       -3.148201   -2.158120    1.830951
     41          1           0       -2.588000   -0.495070    2.255671
 ---------------------------------------------------------------------

 SCF Done:  E(RHF) =  -1675.19545424     A.U. after    2 cycles

 The electronic state is 1-A.
 Alpha  occ. eigenvalues --  -94.09621 -26.48531 -26.47942 -20.61621 -20.60493
 Alpha  occ. eigenvalues --  -20.60290 -20.50997 -15.57319 -15.52467 -15.51125
 Alpha  occ. eigenvalues --  -11.48082 -11.35786 -11.34914 -11.33144 -11.32895
 Alpha  occ. eigenvalues --  -11.32389 -11.31722 -11.31664 -11.30696 -11.29466
 Alpha  occ. eigenvalues --  -11.29259 -11.28099 -11.27300 -11.27042 -11.25911
 Alpha  occ. eigenvalues --  -11.25846  -8.36273  -6.34115  -6.33976  -6.33765
 Alpha  occ. eigenvalues --   -1.66983  -1.58170  -1.54339  -1.52230  -1.51447
 Alpha  occ. eigenvalues --   -1.44916  -1.35636  -1.28161  -1.20067  -1.15815
 Alpha  occ. eigenvalues --   -1.11305  -1.10783  -1.05733  -1.03618  -1.02083
 Alpha  occ. eigenvalues --   -0.99980  -0.97229  -0.95451  -0.93134  -0.88660
 Alpha  occ. eigenvalues --   -0.87961  -0.86615  -0.85692  -0.84102  -0.79798
 Alpha  occ. eigenvalues --   -0.77842  -0.77337  -0.76977  -0.75969  -0.75364
 Alpha  occ. eigenvalues --   -0.72286  -0.71908  -0.69634  -0.67924  -0.67224
 Alpha  occ. eigenvalues --   -0.66979  -0.66183  -0.65674  -0.64886  -0.64655
 Alpha  occ. eigenvalues --   -0.64496  -0.64332  -0.63880  -0.63496  -0.62896
 Alpha  occ. eigenvalues --   -0.60894  -0.60436  -0.59459  -0.58934  -0.57905
 Alpha  occ. eigenvalues --   -0.57760  -0.56610  -0.55685  -0.55518  -0.54513
 Alpha  occ. eigenvalues --   -0.53580  -0.53372  -0.53198  -0.50172  -0.49434
 Alpha  occ. eigenvalues --   -0.48607  -0.47625  -0.47271  -0.43653  -0.39706
 Alpha  occ. eigenvalues --   -0.38517  -0.36375  -0.34582  -0.32259
 Alpha virt. eigenvalues --    0.01639   0.02125   0.02655   0.03126   0.03977
 Alpha virt. eigenvalues --    0.04093   0.04620   0.04938   0.05225   0.05397
 Alpha virt. eigenvalues --    0.06465   0.06656   0.06755   0.07058   0.07423

 Mulliken charges:
               1
     1  H   -0.355471
     2  C    1.379355
     3  C   -1.265731
     4  C    1.814681
     5  H   -0.244853
     6  N    2.026280
     7  O   -2.160877
     8  C    2.006401
     9  C   -2.448520
    10  C    0.078835
    11  O   -2.244089
    12  C    0.059864
    13  H    0.199917
    14  H   -0.014758
    15  H    0.201914
    16  C   -0.096469
    17  S    2.411041
    18  H    0.231255
    19  H    0.140453
    20  C   -2.721493
    21  O   -1.644921
    22  N    1.514915
    23  N    1.963962
    24  C   -2.719454
    25  H   -0.033824
    26  C   -1.223673
    27  C    1.146695
    28  C    1.219377
    29  H   -0.340544
    30  C    1.705263
    31  H   -0.335597
    32  C    0.468051
    33  O   -1.819859
    34  H   -0.283067
    35  C    3.159462
    36  F   -0.994742
    37  F   -0.993813
    38  H   -0.271735
    39  H    0.006188
    40  H    0.115280
    41  H    0.364302
 Sum of Mulliken charges =   0.00000

 Dipole moment (field-independent basis, Debye):
    X=             -9.1315    Y=             -8.0132    Z=             -1.3895  Tot=             12.2281

 Test job not archived.
 1\1\GINC-SE143\SP\RHF\Aug-CC-pVDZ\C16H15F2N3O4S1\OHZDE\08-Apr-2025\0\\
 #t hf aug-cc-pvdz iop(5/13=1,5/36=2,99/5=2) pseudo=read geom=check gue
 ss=(read,tcheck) scf=(maxcycle=1)\\title\\0,1\H,0,-6.93596,-0.38964,-0
 .5437\C,0,-5.90683,-0.03583,-0.57693\C,0,-5.61877,1.22566,-1.09811\C,0
 ,-4.84761,-0.82596,-0.11674\H,0,-6.43346,1.86184,-1.45567\N,0,-4.38774
 ,1.73202,-1.20234\O,0,-4.97142,-2.08409,0.37561\C,0,-3.54457,-0.28635,
 -0.18295\C,0,-3.36307,0.98152,-0.75604\C,0,-6.28656,-2.64436,0.43048\O
 ,0,-2.4337,-0.99699,0.22723\C,0,-1.99043,1.55477,-0.91499\H,0,-6.73067

 Normal termination of Gaussian 16 at Tue Apr  8 18:52:35 2025.
