 Gaussian 16, Revision C.01,

 ----------------------------------------------------------------------
 #t hf aug-cc-pvdz symm=none int=(grid=ultrafine) guess=(read,tcheck) s
 table=(opt,rrhf)
 ----------------------------------------------------------------------
 -----
 title
 -----
 Symbolic Z-matrix:
 Charge =  0 Multiplicity = 1

 SCF Done:  E(RHF) =  -1587.90209467     A.U. after   16 cycles
 Normal termination of Gaussian 16 at Tue Apr  8 19:21:37 2025.
 Gaussian 16:  ES64L-G16RevC.01  3-Jul-2019

 ----------------------------------------------------------------------
 #t hf aug-cc-pvdz iop(5/13=1,5/36=2,99/5=2) pseudo=read geom=check gue
 ss=(read,tcheck) scf=(maxcycle=1)
 ----------------------------------------------------------------------
 -----
 title
 -----
 Structure from the checkpoint file:  "37Conf8_XylitolPentanit_8_mol1.chk"
 Charge =  0 Multiplicity = 1

                         Standard orientation:
 ---------------------------------------------------------------------
 Center     Atomic      Atomic             Coordinates (Angstroms)
 Number     Number       Type             X           Y           Z
 ---------------------------------------------------------------------
      1          1           0       -2.779091   -0.568478   -1.870040
      2          6           0       -2.449960   -0.272908   -0.863780
      3          6           0       -0.930470   -0.048709   -0.843300
      4          8           0       -2.970070    1.025952   -0.517560
      5          1           0       -2.784521   -1.024488   -0.140190
      6          6           0       -0.365450    0.028031    0.583830
      7          8           0       -0.161111   -0.891589   -1.715870
      8          1           0       -0.753010    0.933131   -1.308140
      9          7           0       -4.441430    1.028642   -0.357530
     10          6           0        1.071130    0.571730    0.792520
     11          8           0       -0.420371   -1.293759    1.133940
     12          1           0       -1.032920    0.696361    1.152810
     13          7           0       -0.372501   -2.381579   -1.631800
     14          8           0       -5.005780   -0.018868   -0.565480
     15          8           0       -4.850100    2.111242   -0.040890
     16          6           0        2.155790   -0.085700   -0.053380
     17          8           0        1.115810    2.016400    0.886750
     18          1           0        1.307990    0.333540    1.843440
     19          7           0       -0.856781   -1.353069    2.581280
     20          8           0        0.558249   -2.962009   -2.111040
     21          8           0       -1.412681   -2.768309   -1.166750
     22          8           0        3.395470    0.336280    0.541700
     23          1           0        2.116730    0.188920   -1.111880
     24          1           0        2.037379   -1.177170    0.031010
     25          7           0        4.567810   -0.265141   -0.119920
     26          8           0        4.341039   -1.029521   -1.028650
     27          8           0        5.597100    0.111859    0.369790
     28          7           0        1.167721    2.817350   -0.349600
     29          8           0       -0.838591   -2.478839    2.982160
     30          8           0       -1.152080   -0.306439    3.099650
     31          8           0        1.038580    2.237790   -1.407050
     32          8           0        1.332971    3.977320   -0.104370
 ---------------------------------------------------------------------

 SCF Done:  E(RHF) =  -1589.40298466     A.U. after    2 cycles

 The electronic state is 1-A.
 Alpha  occ. eigenvalues --  -20.69580 -20.69263 -20.69193 -20.68488 -20.67745
 Alpha  occ. eigenvalues --  -20.67428 -20.67424 -20.66451 -20.66342 -20.66340
 Alpha  occ. eigenvalues --  -20.65858 -20.65494 -20.65413 -20.64607 -20.64503
 Alpha  occ. eigenvalues --  -15.90978 -15.90088 -15.89985 -15.89290 -15.88415
 Alpha  occ. eigenvalues --  -11.38667 -11.38461 -11.38375 -11.36346 -11.35712
 Alpha  occ. eigenvalues --   -1.77308  -1.76485  -1.76292  -1.75602  -1.74744
 Alpha  occ. eigenvalues --   -1.61340  -1.60356  -1.59798  -1.59228  -1.58282
 Alpha  occ. eigenvalues --   -1.55953  -1.54885  -1.54224  -1.53670  -1.53033
 Alpha  occ. eigenvalues --   -1.16403  -1.11919  -1.05417  -1.02842  -1.02339
 Alpha  occ. eigenvalues --   -0.97874  -0.96468  -0.94426  -0.92316  -0.89872
 Alpha  occ. eigenvalues --   -0.87831  -0.86119  -0.85877  -0.84979  -0.83823
 Alpha  occ. eigenvalues --   -0.83416  -0.83180  -0.83093  -0.82846  -0.82466
 Alpha  occ. eigenvalues --   -0.82353  -0.81957  -0.81567  -0.80582  -0.79496
 Alpha  occ. eigenvalues --   -0.74490  -0.73256  -0.71559  -0.70271  -0.68540
 Alpha  occ. eigenvalues --   -0.66319  -0.66218  -0.64372  -0.63033  -0.62542
 Alpha  occ. eigenvalues --   -0.61930  -0.59331  -0.57951  -0.56193  -0.55681
 Alpha  occ. eigenvalues --   -0.55604  -0.55409  -0.55092  -0.54636  -0.54421
 Alpha  occ. eigenvalues --   -0.54174  -0.53677  -0.53532  -0.53247  -0.52560
 Alpha  occ. eigenvalues --   -0.52180  -0.52023  -0.51715  -0.51150  -0.50686
 Alpha  occ. eigenvalues --   -0.50057
 Alpha virt. eigenvalues --    0.01863   0.02381   0.02493   0.03281   0.03457
 Alpha virt. eigenvalues --    0.04088   0.04373   0.05068   0.05285   0.05957
 Alpha virt. eigenvalues --    0.06501   0.06893   0.07191   0.08640   0.09975

 Mulliken charges:
               1
     1  H    0.209934
     2  C   -0.005804
     3  C    1.632270
     4  O   -1.203251
     5  H    0.335945
     6  C   -0.078700
     7  O   -1.560081
     8  H    0.252049
     9  N    2.896993
    10  C    0.927895
    11  O   -1.419517
    12  H    0.545438
    13  N    2.944428
    14  O   -1.192869
    15  O   -1.199484
    16  C   -0.007380
    17  O   -1.573166
    18  H    0.129923
    19  N    2.846654
    20  O   -1.259067
    21  O   -1.267676
    22  O   -1.423685
    23  H    0.339609
    24  H    0.290850
    25  N    3.241888
    26  O   -1.226214
    27  O   -1.275447
    28  N    2.958279
    29  O   -1.207517
    30  O   -1.184790
    31  O   -1.281668
    32  O   -1.185842
 Sum of Mulliken charges =  -0.00000

 Dipole moment (field-independent basis, Debye):
    X=             -1.4913    Y=             -0.4472    Z=             -0.2687  Tot=              1.5799

 Test job not archived.
 1\1\GINC-SE087\SP\RHF\Aug-CC-pVDZ\C5H7N5O15\OHZDE\08-Apr-2025\0\\#t hf
  aug-cc-pvdz iop(5/13=1,5/36=2,99/5=2) pseudo=read geom=check guess=(r
 ead,tcheck) scf=(maxcycle=1)\\title\\0,1\H,0,-2.77909,-0.56848,-1.8700
 4\C,0,-2.44996,-0.27291,-0.86378\C,0,-0.93047,-0.04871,-0.8433\O,0,-2.
 97007,1.02595,-0.51756\H,0,-2.78452,-1.02449,-0.14019\C,0,-0.36545,0.0
 2803,0.58383\O,0,-0.16111,-0.89159,-1.71587\H,0,-0.75301,0.93313,-1.30
 814\N,0,-4.44143,1.02864,-0.35753\C,0,1.07113,0.57173,0.79252\O,0,-0.4
 2037,-1.29376,1.13394\H,0,-1.03292,0.69636,1.15281\N,0,-0.3725,-2.3815

 Normal termination of Gaussian 16 at Tue Apr  8 19:22:48 2025.
