 Gaussian 16, Revision C.01,

 ----------------------------------------------------------------------
 #t hf aug-cc-pvdz symm=none int=(grid=ultrafine) guess=(read,tcheck) s
 table=(opt,rrhf)
 ----------------------------------------------------------------------
 -----
 title
 -----
 Symbolic Z-matrix:
 Charge =  0 Multiplicity = 1

 SCF Done:  E(RHF) =  -914.177712538     A.U. after   14 cycles
 Normal termination of Gaussian 16 at Tue Apr  8 19:01:54 2025.
 Gaussian 16:  ES64L-G16RevC.01  3-Jul-2019

 ----------------------------------------------------------------------
 #t hf aug-cc-pvdz iop(5/13=1,5/36=2,99/5=2) pseudo=read geom=check gue
 ss=(read,tcheck) scf=(maxcycle=1)
 ----------------------------------------------------------------------
 -----
 title
 -----
 Structure from the checkpoint file:  "37Conf8_shiepox_depox_3_mol1.chk"
 Charge =  0 Multiplicity = 1

                         Standard orientation:
 ---------------------------------------------------------------------
 Center     Atomic      Atomic             Coordinates (Angstroms)
 Number     Number       Type             X           Y           Z
 ---------------------------------------------------------------------
      1          8           0       -0.598882    2.431569   -0.596159
      2          6           0       -0.072861    1.395219   -0.253569
      3          6           0       -0.877350    0.113239    0.068901
      4          6           0        1.437699    1.249401   -0.093509
      5          8           0       -0.148069   -0.725761    0.961301
      6          8           0       -2.130390    0.488818    0.577151
      7          6           0       -1.203479   -0.725812   -1.196339
      8          1           0        1.919939    2.216931   -0.312419
      9          8           0        1.878160    0.219181   -0.969149
     10          6           0        1.788900    0.707131    1.313671
     11          6           0        0.579210    0.018830    1.944011
     12          6           0       -3.151749   -0.298353   -0.085999
     13          1           0       -0.691009   -0.369661   -2.098709
     14          1           0       -0.901648   -1.768361   -0.992569
     15          8           0       -2.598989   -0.576253   -1.376179
     16          6           0        2.980401   -0.464288   -0.340079
     17          1           0        2.154439    1.507381    1.978671
     18          8           0        2.851401   -0.211698    1.070841
     19          1           0        0.914081   -0.703170    2.700051
     20          1           0       -0.077770    0.762269    2.432781
     21          6           0       -3.418698   -1.582074    0.697491
     22          6           0       -4.379090    0.569506   -0.265759
     23          6           0        2.826342   -1.949678   -0.614309
     24          6           0        4.305050    0.111973   -0.828609
     25          1           0       -4.176958   -2.185844    0.180531
     26          1           0       -2.499498   -2.172133    0.804261
     27          1           0       -3.784908   -1.336574    1.703241
     28          1           0       -5.141720    0.023145   -0.836129
     29          1           0       -4.101991    1.482116   -0.806779
     30          1           0       -4.796370    0.840015    0.712761
     31          1           0        2.864532   -2.140778   -1.695199
     32          1           0        1.862752   -2.291799   -0.217149
     33          1           0        3.638583   -2.507038   -0.129559
     34          1           0        4.426341   -0.070317   -1.904799
     35          1           0        4.339149    1.194383   -0.645099
     36          1           0        5.139941   -0.357966   -0.291739
 ---------------------------------------------------------------------

 SCF Done:  E(RHF) =  -915.099774925     A.U. after    2 cycles

 The electronic state is 1-A.
 Alpha  occ. eigenvalues --  -20.57404 -20.57163 -20.56460 -20.56296 -20.56067
 Alpha  occ. eigenvalues --  -20.55732 -11.36676 -11.36061 -11.35525 -11.35118
 Alpha  occ. eigenvalues --  -11.31988 -11.31791 -11.30605 -11.30021 -11.23919
 Alpha  occ. eigenvalues --  -11.23508 -11.23094 -11.22676  -1.54227  -1.53195
 Alpha  occ. eigenvalues --   -1.48747  -1.48134  -1.43951  -1.42562  -1.11092
 Alpha  occ. eigenvalues --   -1.08403  -1.02404  -1.01237  -0.96241  -0.95589
 Alpha  occ. eigenvalues --   -0.94010  -0.89458  -0.86127  -0.81378  -0.80627
 Alpha  occ. eigenvalues --   -0.76991  -0.73865  -0.72457  -0.70238  -0.68567
 Alpha  occ. eigenvalues --   -0.66757  -0.65847  -0.65122  -0.64141  -0.63324
 Alpha  occ. eigenvalues --   -0.62294  -0.62110  -0.61215  -0.58955  -0.56804
 Alpha  occ. eigenvalues --   -0.56497  -0.56262  -0.55633  -0.54990  -0.54493
 Alpha  occ. eigenvalues --   -0.53389  -0.53174  -0.52495  -0.52152  -0.51739
 Alpha  occ. eigenvalues --   -0.51398  -0.50864  -0.50060  -0.48614  -0.46023
 Alpha  occ. eigenvalues --   -0.44354  -0.42708  -0.42409  -0.40413
 Alpha virt. eigenvalues --    0.03018   0.03328   0.03480   0.04012   0.04582
 Alpha virt. eigenvalues --    0.04675   0.04854   0.05549   0.05738   0.06901
 Alpha virt. eigenvalues --    0.07003   0.07279   0.07940   0.08217   0.08810

 Mulliken charges:
               1
     1  O   -1.619229
     2  C    1.707313
     3  C    1.891917
     4  C    0.262893
     5  O   -1.692548
     6  O   -1.930990
     7  C    0.219546
     8  H   -0.037650
     9  O   -1.632888
    10  C    0.728265
    11  C    0.268132
    12  C    1.038747
    13  H    0.064506
    14  H    0.274576
    15  O   -1.699037
    16  C    1.176763
    17  H    0.101243
    18  O   -1.793321
    19  H    0.019549
    20  H    0.369734
    21  C   -0.363636
    22  C   -0.087056
    23  C   -0.068900
    24  C   -0.188693
    25  H    0.273445
    26  H    0.140604
    27  H    0.265523
    28  H    0.260452
    29  H    0.269210
    30  H    0.277246
    31  H    0.266923
    32  H    0.226079
    33  H    0.267671
    34  H    0.253953
    35  H    0.228874
    36  H    0.260786
 Sum of Mulliken charges =  -0.00000

 Dipole moment (field-independent basis, Debye):
    X=              1.9095    Y=             -1.4902    Z=              1.4644  Tot=              2.8305

 Test job not archived.
 1\1\GINC-SE081\SP\RHF\Aug-CC-pVDZ\C12H18O6\OHZDE\08-Apr-2025\0\\#t hf
 aug-cc-pvdz iop(5/13=1,5/36=2,99/5=2) pseudo=read geom=check guess=(re
 ad,tcheck) scf=(maxcycle=1)\\title\\0,1\O,0,-0.59888,2.43157,-0.59616\
 C,0,-0.07286,1.39522,-0.25357\C,0,-0.87735,0.11324,0.0689\C,0,1.4377,1
 .2494,-0.09351\O,0,-0.14807,-0.72576,0.9613\O,0,-2.13039,0.48882,0.577
 15\C,0,-1.20348,-0.72581,-1.19634\H,0,1.91994,2.21693,-0.31242\O,0,1.8
 7816,0.21918,-0.96915\C,0,1.7889,0.70713,1.31367\C,0,0.57921,0.01883,1
 .94401\C,0,-3.15175,-0.29835,-0.086\H,0,-0.69101,-0.36966,-2.09871\H,0

 Normal termination of Gaussian 16 at Tue Apr  8 19:03:00 2025.
