 Gaussian 16, Revision C.01,

 ----------------------------------------------------------------------
 #t hf aug-cc-pvdz symm=none int=(grid=ultrafine) guess=(read,tcheck) s
 table=(opt,rrhf)
 ----------------------------------------------------------------------
 -----
 title
 -----
 Symbolic Z-matrix:
 Charge =  0 Multiplicity = 1

 SCF Done:  E(RHF) =  -1374.24040324     A.U. after   14 cycles
 Normal termination of Gaussian 16 at Tue Apr  8 19:07:29 2025.
 Gaussian 16:  ES64L-G16RevC.01  3-Jul-2019

 ----------------------------------------------------------------------
 #t hf aug-cc-pvdz iop(5/13=1,5/36=2,99/5=2) pseudo=read geom=check gue
 ss=(read,tcheck) scf=(maxcycle=1)
 ----------------------------------------------------------------------
 -----
 title
 -----
 Structure from the checkpoint file:  "37Conf8_VX_6_mol1.chk"
 Charge =  0 Multiplicity = 1

                         Standard orientation:
 ---------------------------------------------------------------------
 Center     Atomic      Atomic             Coordinates (Angstroms)
 Number     Number       Type             X           Y           Z
 ---------------------------------------------------------------------
      1          1           0       -2.793581    2.384521    0.406591
      2          6           0       -1.964701    1.999390   -0.205179
      3          6           0       -1.595591    2.948880   -1.322819
      4          8           0       -2.379381    0.739090   -0.799969
      5          1           0       -1.107691    1.813860    0.463211
      6          1           0       -2.451451    3.119360   -1.990169
      7          1           0       -0.763421    2.551330   -1.921139
      8          1           0       -1.286021    3.915850   -0.900929
      9         15           0       -2.777141   -0.468739    0.210681
     10          6           0       -3.558442   -1.597079   -0.966809
     11         16           0       -0.981652   -1.341520    0.877981
     12          8           0       -3.600031   -0.096059    1.390851
     13          1           0       -2.896752   -1.839199   -1.807499
     14          1           0       -4.467861   -1.112789   -1.347489
     15          1           0       -3.825802   -2.514089   -0.428189
     16          6           0       -0.004432   -1.502480   -0.673489
     17          6           0        0.984089   -0.359710   -0.925519
     18          1           0       -0.696502   -1.606320   -1.521989
     19          1           0        0.540608   -2.449720   -0.561129
     20          7           0        2.007839   -0.232370    0.096301
     21          1           0        1.447709   -0.558440   -1.907189
     22          1           0        0.421459    0.581670   -1.051729
     23          6           0        3.387359   -0.524770   -0.312879
     24          6           0        1.787299    0.847810    1.069691
     25          6           0        3.907339    0.252420   -1.538739
     26          6           0        3.572928   -2.031270   -0.528669
     27          1           0        4.015319   -0.238520    0.544701
     28          6           0        2.198319    2.253720    0.598481
     29          6           0        2.405809    0.516900    2.428731
     30          1           0        0.696959    0.852320    1.224341
     31          1           0        3.390719   -0.051530   -2.461929
     32          1           0        4.977519    0.045830   -1.688599
     33          1           0        3.783319    1.335860   -1.421229
     34          1           0        2.968978   -2.384280   -1.379629
     35          1           0        4.623098   -2.270000   -0.753159
     36          1           0        3.265018   -2.590000    0.365241
     37          1           0        1.768119    2.489590   -0.386549
     38          1           0        3.291809    2.351590    0.528441
     39          1           0        1.844369    3.014630    1.310411
     40          1           0        3.505919    0.522960    2.397531
     41          1           0        2.072599   -0.473400    2.766991
     42          1           0        2.099689    1.263800    3.175271
 ---------------------------------------------------------------------

 SCF Done:  E(RHF) =  -1375.02664743     A.U. after    2 cycles

 The electronic state is 1-A.
 Alpha  occ. eigenvalues --  -93.95020 -84.40290 -20.57555 -20.48941 -15.47897
 Alpha  occ. eigenvalues --  -11.30525 -11.27877 -11.26961 -11.26594 -11.26166
 Alpha  occ. eigenvalues --  -11.25421 -11.24253 -11.22766 -11.22736 -11.22717
 Alpha  occ. eigenvalues --  -11.22156  -8.23269  -6.85764  -6.21049  -6.20891
 Alpha  occ. eigenvalues --   -6.20695  -4.39720  -4.38691  -4.38143  -1.48931
 Alpha  occ. eigenvalues --   -1.37188  -1.22945  -1.08961  -1.06245  -1.04725
 Alpha  occ. eigenvalues --   -1.02294  -0.99291  -0.94946  -0.93762  -0.93048
 Alpha  occ. eigenvalues --   -0.86129  -0.85136  -0.82786  -0.76508  -0.74893
 Alpha  occ. eigenvalues --   -0.68616  -0.67801  -0.67196  -0.64428  -0.63462
 Alpha  occ. eigenvalues --   -0.62193  -0.62005  -0.60913  -0.59950  -0.59537
 Alpha  occ. eigenvalues --   -0.58704  -0.57321  -0.56922  -0.56208  -0.55183
 Alpha  occ. eigenvalues --   -0.54870  -0.54295  -0.54145  -0.53441  -0.52996
 Alpha  occ. eigenvalues --   -0.52266  -0.50869  -0.50727  -0.50305  -0.48915
 Alpha  occ. eigenvalues --   -0.47964  -0.47419  -0.46677  -0.44528  -0.43531
 Alpha  occ. eigenvalues --   -0.40508  -0.38563  -0.36463
 Alpha virt. eigenvalues --    0.02619   0.02984   0.03123   0.03640   0.04061
 Alpha virt. eigenvalues --    0.04264   0.04549   0.04748   0.05330   0.06430
 Alpha virt. eigenvalues --    0.06630   0.07046   0.07321   0.07804   0.08372

 Mulliken charges:
               1
     1  H    0.030402
     2  C    0.749572
     3  C   -0.609634
     4  O   -1.659477
     5  H    0.106073
     6  H    0.138569
     7  H    0.139283
     8  H    0.181553
     9  P    3.714226
    10  C   -1.000505
    11  S   -0.322412
    12  O   -1.724668
    13  H    0.092005
    14  H    0.092389
    15  H    0.163211
    16  C   -0.180234
    17  C   -0.427958
    18  H    0.030695
    19  H    0.275078
    20  N    2.136128
    21  H   -0.018453
    22  H   -0.027243
    23  C   -1.405624
    24  C   -2.360181
    25  C   -0.138571
    26  C   -0.094361
    27  H   -0.057838
    28  C    0.044619
    29  C   -0.187621
    30  H    0.057528
    31  H    0.268559
    32  H    0.142506
    33  H    0.120532
    34  H    0.238737
    35  H    0.115847
    36  H    0.247674
    37  H    0.193443
    38  H    0.257593
    39  H    0.091277
    40  H    0.201298
    41  H    0.252570
    42  H    0.133412
 Sum of Mulliken charges =   0.00000

 Dipole moment (field-independent basis, Debye):
    X=              2.9946    Y=              0.5713    Z=             -4.2015  Tot=              5.1910

 Test job not archived.
 1\1\GINC-SE284\SP\RHF\Aug-CC-pVDZ\C11H26N1O2P1S1\OHZDE\08-Apr-2025\0\\
 #t hf aug-cc-pvdz iop(5/13=1,5/36=2,99/5=2) pseudo=read geom=check gue
 ss=(read,tcheck) scf=(maxcycle=1)\\title\\0,1\H,0,-2.79358,2.38452,0.4
 0659\C,0,-1.9647,1.99939,-0.20518\C,0,-1.59559,2.94888,-1.32282\O,0,-2
 .37938,0.73909,-0.79997\H,0,-1.10769,1.81386,0.46321\H,0,-2.45145,3.11
 936,-1.99017\H,0,-0.76342,2.55133,-1.92114\H,0,-1.28602,3.91585,-0.900
 93\P,0,-2.77714,-0.46874,0.21068\C,0,-3.55844,-1.59708,-0.96681\S,0,-0
 .98165,-1.34152,0.87798\O,0,-3.60003,-0.09606,1.39085\H,0,-2.89675,-1.

 Normal termination of Gaussian 16 at Tue Apr  8 19:08:50 2025.
