 Gaussian 16, Revision C.01,

 ----------------------------------------------------------------------
 #t hf aug-cc-pvdz symm=none int=(grid=ultrafine) guess=(read,tcheck) s
 table=(opt,rrhf)
 ----------------------------------------------------------------------
 -----
 title
 -----
 Symbolic Z-matrix:
 Charge =  0 Multiplicity = 1

 SCF Done:  E(RHF) =  -1689.89144450     A.U. after   18 cycles
 Normal termination of Gaussian 16 at Tue Apr  8 17:42:10 2025.
 Gaussian 16:  ES64L-G16RevC.01  3-Jul-2019

 ----------------------------------------------------------------------
 #t hf aug-cc-pvdz iop(5/13=1,5/36=2,99/5=2) pseudo=read geom=check gue
 ss=(read,tcheck) scf=(maxcycle=1)
 ----------------------------------------------------------------------
 -----
 title
 -----
 Structure from the checkpoint file:  "37Conf8_Fotemustin_5_mol1.chk"
 Charge =  0 Multiplicity = 1

                         Standard orientation:
 ---------------------------------------------------------------------
 Center     Atomic      Atomic             Coordinates (Angstroms)
 Number     Number       Type             X           Y           Z
 ---------------------------------------------------------------------
      1          8           0        2.444039   -1.959720   -2.078280
      2          7           0        1.657009   -2.187710   -1.173890
      3          7           0        1.793489   -1.364870   -0.085970
      4          6           0        2.856969   -0.363990   -0.008210
      5          6           0        1.012269   -1.665840    1.082680
      6          6           0        2.449619    0.893440   -0.773190
      7          1           0        3.772589   -0.795050   -0.435440
      8          1           0        3.011849   -0.151860    1.055030
      9         17           0        3.602958    2.224860   -0.418510
     10          1           0        2.467579    0.727200   -1.855510
     11          1           0        1.452979    1.230730   -0.466760
     12          7           0       -0.252201   -2.127871    0.854740
     13          8           0        1.501919   -1.528640    2.195670
     14          6           0       -1.143091   -1.748831   -0.243000
     15          1           0       -0.723591   -2.354691    1.730690
     16         15           0       -1.978421   -0.171141    0.216000
     17          6           0       -2.154941   -2.851791   -0.533880
     18          1           0       -0.538701   -1.557331   -1.136310
     19          8           0       -2.477601    0.303159   -1.231990
     20          8           0       -0.773371    0.855219    0.557930
     21          8           0       -2.992431   -0.288041    1.295750
     22          6           0       -3.373491    1.450969   -1.343670
     23          6           0       -0.557171    1.317579    1.931400
     24          6           0       -2.608352    2.685109   -1.775300
     25          1           0       -4.123381    1.159219   -2.091680
     26          1           0       -3.888631    1.596929   -0.381960
     27          6           0       -0.053322    2.743169    1.885610
     28          1           0        0.177869    0.645619    2.399650
     29          1           0       -1.507471    1.232079    2.475660
     30          1           0       -2.092022    2.510169   -2.729050
     31          1           0       -3.305932    3.525039   -1.909410
     32          1           0       -1.861302    2.970309   -1.022910
     33          1           0        0.890458    2.822340    1.327480
     34          1           0       -0.793292    3.410249    1.421630
     35          1           0        0.131268    3.096269    2.910630
     36          1           0       -2.817411   -2.551031   -1.355720
     37          1           0       -1.626450   -3.770891   -0.820510
     38          1           0       -2.779841   -3.052341    0.347660
 ---------------------------------------------------------------------

 SCF Done:  E(RHF) =  -1690.90834548     A.U. after    2 cycles

 The electronic state is 1-A.
 Alpha  occ. eigenvalues -- -105.56519 -84.42954 -20.61688 -20.58799 -20.58616
 Alpha  occ. eigenvalues --  -20.54647 -20.51149 -15.70786 -15.60153 -15.56104
 Alpha  occ. eigenvalues --  -11.43027 -11.31890 -11.31415 -11.31407 -11.30977
 Alpha  occ. eigenvalues --  -11.30366 -11.25698 -11.24829 -11.24496 -10.61318
 Alpha  occ. eigenvalues --   -7.78265  -7.77894  -7.77886  -6.88181  -4.42294
 Alpha  occ. eigenvalues --   -4.41802  -4.41088  -1.61199  -1.52815  -1.49945
 Alpha  occ. eigenvalues --   -1.47308  -1.38855  -1.32988  -1.26982  -1.13261
 Alpha  occ. eigenvalues --   -1.07833  -1.05346  -1.04637  -1.03876  -0.98059
 Alpha  occ. eigenvalues --   -0.91887  -0.89449  -0.87996  -0.86179  -0.83154
 Alpha  occ. eigenvalues --   -0.80691  -0.79247  -0.75637  -0.72745  -0.71562
 Alpha  occ. eigenvalues --   -0.71424  -0.69269  -0.67750  -0.67279  -0.66341
 Alpha  occ. eigenvalues --   -0.65564  -0.64444  -0.63225  -0.62313  -0.60881
 Alpha  occ. eigenvalues --   -0.60425  -0.60208  -0.58053  -0.57124  -0.56844
 Alpha  occ. eigenvalues --   -0.56427  -0.56110  -0.55585  -0.55190  -0.54681
 Alpha  occ. eigenvalues --   -0.53325  -0.51153  -0.50216  -0.49849  -0.48779
 Alpha  occ. eigenvalues --   -0.48142  -0.47164  -0.46377  -0.46158  -0.45683
 Alpha  occ. eigenvalues --   -0.45039  -0.44218  -0.42487
 Alpha virt. eigenvalues --    0.03016   0.03267   0.03564   0.03848   0.04436
 Alpha virt. eigenvalues --    0.04719   0.04996   0.05437   0.05865   0.06015
 Alpha virt. eigenvalues --    0.06909   0.07090   0.07417   0.07758   0.08200

 Mulliken charges:
               1
     1  O   -1.155528
     2  N    1.549288
     3  N    0.466553
     4  C   -0.397903
     5  C   -0.602164
     6  C   -0.112942
     7  H    0.201761
     8  H    0.004188
     9  Cl  -0.120406
    10  H    0.268167
    11  H    0.152829
    12  N    1.548552
    13  O   -1.419682
    14  C   -2.287517
    15  H    0.190187
    16  P    5.670185
    17  C   -0.032373
    18  H    0.066904
    19  O   -1.668867
    20  O   -2.140666
    21  O   -1.763663
    22  C    0.264159
    23  C    0.336765
    24  C   -0.354621
    25  H   -0.001405
    26  H    0.196437
    27  C   -0.415139
    28  H   -0.006493
    29  H    0.173764
    30  H    0.171558
    31  H    0.160267
    32  H    0.099349
    33  H    0.091365
    34  H    0.192382
    35  H    0.172815
    36  H    0.190980
    37  H    0.163006
    38  H    0.147906
 Sum of Mulliken charges =  -0.00000

 Dipole moment (field-independent basis, Debye):
    X=             -2.2402    Y=              1.5028    Z=             -1.9032  Tot=              3.3014

 Test job not archived.
 1\1\GINC-SE159\SP\RHF\Aug-CC-pVDZ\C9H19Cl1N3O5P1\OHZDE\08-Apr-2025\0\\
 #t hf aug-cc-pvdz iop(5/13=1,5/36=2,99/5=2) pseudo=read geom=check gue
 ss=(read,tcheck) scf=(maxcycle=1)\\title\\0,1\O,0,2.44404,-1.95972,-2.
 07828\N,0,1.65701,-2.18771,-1.17389\N,0,1.79349,-1.36487,-0.08597\C,0,
 2.85697,-0.36399,-0.00821\C,0,1.01227,-1.66584,1.08268\C,0,2.44962,0.8
 9344,-0.77319\H,0,3.77259,-0.79505,-0.43544\H,0,3.01185,-0.15186,1.055
 03\Cl,0,3.60296,2.22486,-0.41851\H,0,2.46758,0.7272,-1.85551\H,0,1.452
 98,1.23073,-0.46676\N,0,-0.2522,-2.12787,0.85474\O,0,1.50192,-1.52864,

 Normal termination of Gaussian 16 at Tue Apr  8 17:43:32 2025.
