 Gaussian 16, Revision C.01,

 ----------------------------------------------------------------------
 #t hf aug-cc-pvdz symm=none int=(grid=ultrafine) guess=(read,tcheck) s
 table=(opt,rrhf)
 ----------------------------------------------------------------------
 -----
 title
 -----
 Symbolic Z-matrix:
 Charge =  0 Multiplicity = 1

 SCF Done:  E(RHF) =  -917.597002552     A.U. after   12 cycles
 Normal termination of Gaussian 16 at Tue Apr  8 17:23:59 2025.
 Gaussian 16:  ES64L-G16RevC.01  3-Jul-2019

 ----------------------------------------------------------------------
 #t hf aug-cc-pvdz iop(5/13=1,5/36=2,99/5=2) pseudo=read geom=check gue
 ss=(read,tcheck) scf=(maxcycle=1)
 ----------------------------------------------------------------------
 -----
 title
 -----
 Structure from the checkpoint file:  "37Conf8_18crown6_6_mol1.chk"
 Charge =  0 Multiplicity = 1

                         Standard orientation:
 ---------------------------------------------------------------------
 Center     Atomic      Atomic             Coordinates (Angstroms)
 Number     Number       Type             X           Y           Z
 ---------------------------------------------------------------------
      1          1           0        3.592939    2.004389   -0.272840
      2          6           0        2.640857    1.438558   -0.293330
      3          1           0        2.345979    1.312498   -1.353320
      4          8           0        2.782033    0.174465    0.339930
      5          6           0        1.540303    2.182732    0.443750
      6          6           0        3.669436   -0.704255   -0.338250
      7          1           0        0.660434    1.526450    0.529500
      8          1           0        1.868225    2.452123    1.466790
      9          8           0        1.236430    3.358275   -0.305840
     10          1           0        3.471813   -0.683715   -1.427930
     11          1           0        4.723741   -0.394265   -0.177670
     12          6           0        3.476145   -2.122996    0.172180
     13          6           0        0.100457    4.071010    0.170970
     14          1           0        3.504404   -2.127965    1.278660
     15          1           0        4.313559   -2.737830   -0.193840
     16          8           0        2.290925   -2.748896   -0.306700
     17          1           0        0.214011    5.103475   -0.195590
     18          1           0        0.089065    4.098703    1.277450
     19          6           0       -1.223858    3.527772   -0.340790
     20          6           0        1.120893   -2.426720    0.443910
     21          1           0       -2.019918    4.285974   -0.183150
     22          1           0       -1.140844    3.344317   -1.429990
     23          8           0       -1.542405    2.321169    0.339150
     24          1           0        1.189084   -2.850871    1.464760
     25          1           0        0.993704   -1.336902    0.535170
     26          6           0       -0.074022   -3.002608   -0.296890
     27          6           0       -2.565114    1.565779   -0.295140
     28          1           0       -0.034924   -2.678569   -1.355130
     29          1           0       -0.060958   -4.110152   -0.282290
     30          8           0       -1.239318   -2.495293    0.338380
     31          1           0       -3.530499    2.108783   -0.280410
     32          1           0       -2.304714    1.369190   -1.353420
     33          6           0       -2.664286    0.243340    0.446240
     34          6           0       -2.444068   -2.823968   -0.339980
     35          1           0       -1.656918   -0.191347    0.538330
     36          1           0       -3.066429    0.396692    1.466760
     37          8           0       -3.527805   -0.609078   -0.304730
     38          1           0       -2.701772   -3.892549   -0.181410
     39          1           0       -2.328078   -2.660843   -1.429390
     40          6           0       -3.576592   -1.949103    0.172580
     41          1           0       -4.527629   -2.367415   -0.193160
     42          1           0       -3.594079   -1.972548    1.279050
 ---------------------------------------------------------------------

 SCF Done:  E(RHF) =  -918.544500035     A.U. after    2 cycles

 The electronic state is 1-A.
 Alpha  occ. eigenvalues --  -20.54614 -20.54613 -20.54613 -20.54207 -20.54205
 Alpha  occ. eigenvalues --  -20.54204 -11.28782 -11.28781 -11.28780 -11.28681
 Alpha  occ. eigenvalues --  -11.28680 -11.28680 -11.28239 -11.28239 -11.28237
 Alpha  occ. eigenvalues --  -11.27508 -11.27506 -11.27503  -1.47179  -1.46537
 Alpha  occ. eigenvalues --   -1.46536  -1.44921  -1.44919  -1.44371  -1.06048
 Alpha  occ. eigenvalues --   -1.03727  -1.03725  -0.98082  -0.98081  -0.93104
 Alpha  occ. eigenvalues --   -0.86055  -0.83511  -0.83509  -0.83287  -0.81813
 Alpha  occ. eigenvalues --   -0.81809  -0.70775  -0.69701  -0.69699  -0.68056
 Alpha  occ. eigenvalues --   -0.68054  -0.67985  -0.66081  -0.66079  -0.65260
 Alpha  occ. eigenvalues --   -0.62500  -0.62500  -0.61638  -0.61575  -0.61573
 Alpha  occ. eigenvalues --   -0.59988  -0.58002  -0.56862  -0.56853  -0.54096
 Alpha  occ. eigenvalues --   -0.54092  -0.53425  -0.51070  -0.51067  -0.50278
 Alpha  occ. eigenvalues --   -0.49469  -0.48208  -0.48205  -0.47183  -0.46693
 Alpha  occ. eigenvalues --   -0.46690  -0.43261  -0.42593  -0.42592  -0.40239
 Alpha  occ. eigenvalues --   -0.40227  -0.40224
 Alpha virt. eigenvalues --    0.03077   0.03506   0.03507   0.04011   0.04617
 Alpha virt. eigenvalues --    0.04618   0.05131   0.05266   0.05268   0.06038
 Alpha virt. eigenvalues --    0.06801   0.07260   0.07265   0.08043   0.08048

 Mulliken charges:
               1
     1  H    0.147218
     2  C    0.105496
     3  H    0.167835
     4  O   -1.407075
     5  C    0.867676
     6  C    0.362636
     7  H    0.168420
     8  H    0.151332
     9  O   -1.460108
    10  H    0.280860
    11  H    0.142456
    12  C    0.137957
    13  C    0.138133
    14  H    0.327899
    15  H    0.006270
    16  O   -1.460970
    17  H    0.005895
    18  H    0.327794
    19  C    0.361599
    20  C    0.869245
    21  H    0.142357
    22  H    0.281790
    23  O   -1.408559
    24  H    0.150116
    25  H    0.170470
    26  C    0.106178
    27  C    0.106759
    28  H    0.167408
    29  H    0.147991
    30  O   -1.408100
    31  H    0.148470
    32  H    0.167857
    33  C    0.868241
    34  C    0.362291
    35  H    0.172762
    36  H    0.149074
    37  O   -1.460998
    38  H    0.142176
    39  H    0.281756
    40  C    0.137141
    41  H    0.006031
    42  H    0.328219
 Sum of Mulliken charges =  -0.00000

 Dipole moment (field-independent basis, Debye):
    X=              0.0003    Y=             -0.0015    Z=             -0.0739  Tot=              0.0740

 Test job not archived.
 1\1\GINC-SE335\SP\RHF\Aug-CC-pVDZ\C12H24O6\OHZDE\08-Apr-2025\0\\#t hf
 aug-cc-pvdz iop(5/13=1,5/36=2,99/5=2) pseudo=read geom=check guess=(re
 ad,tcheck) scf=(maxcycle=1)\\title\\0,1\H,0,3.59233,2.00548,-0.27284\C
 ,0,2.64042,1.43936,-0.29333\H,0,2.34558,1.31321,-1.35332\O,0,2.78198,0
 .17531,0.33993\C,0,1.53964,2.1832,0.44375\C,0,3.66965,-0.70314,-0.3382
 5\H,0,0.65997,1.52665,0.5295\H,0,1.86748,2.45269,1.46679\O,0,1.23541,3
 .35865,-0.30584\H,0,3.47202,-0.68266,-1.42793\H,0,4.72386,-0.39283,-0.
 17767\C,0,3.47679,-2.12194,0.17218\C,0,0.09922,4.07104,0.17097\H,0,3.5

 Normal termination of Gaussian 16 at Tue Apr  8 17:25:14 2025.
