 Gaussian 16, Revision C.01,

 ----------------------------------------------------------------------
 #t hf aug-cc-pvdz symm=none int=(grid=ultrafine) guess=(read,tcheck) s
 table=(opt,rrhf)
 ----------------------------------------------------------------------
 -----
 title
 -----
 Symbolic Z-matrix:
 Charge =  0 Multiplicity = 1

 SCF Done:  E(RHF) =  -1813.69087619     A.U. after   16 cycles
 Normal termination of Gaussian 16 at Tue Apr  8 19:23:55 2025.
 Gaussian 16:  ES64L-G16RevC.01  3-Jul-2019

 ----------------------------------------------------------------------
 #t hf aug-cc-pvdz iop(5/13=1,5/36=2,99/5=2) pseudo=read geom=check gue
 ss=(read,tcheck) scf=(maxcycle=1)
 ----------------------------------------------------------------------
 -----
 title
 -----
 Structure from the checkpoint file:  "37Conf8_Takemoto_1_mol1.chk"
 Charge =  0 Multiplicity = 1

                         Standard orientation:
 ---------------------------------------------------------------------
 Center     Atomic      Atomic             Coordinates (Angstroms)
 Number     Number       Type             X           Y           Z
 ---------------------------------------------------------------------
      1          1           0       -1.224200    0.369211   -0.384010
      2          7           0       -0.599130   -0.480589   -0.422390
      3          6           0       -1.242151   -1.582549   -0.916000
      4          6           0        0.765040   -0.264679   -0.240510
      5          7           0       -2.614981   -1.466838   -0.860140
      6         16           0       -0.542731   -2.929519   -1.616310
      7          6           0        1.685109   -1.287430    0.046470
      8          6           0        1.220250    1.061560   -0.293950
      9          6           0       -3.419131   -0.808308    0.185100
     10          1           0       -3.049601   -2.291468   -1.268580
     11          1           0        1.347409   -2.320190    0.081370
     12          6           0        3.022809   -0.966630    0.268650
     13          1           0        0.519420    1.862381   -0.532050
     14          6           0        2.560460    1.363840   -0.057880
     15          1           0       -2.849011   -0.821388    1.132760
     16          6           0       -4.683511   -1.669508    0.348520
     17          6           0       -3.773440    0.658382   -0.158560
     18          6           0        3.479980    0.353560    0.220450
     19          6           0        3.991939   -2.062120    0.641260
     20          6           0        3.010591    2.796700   -0.169850
     21          1           0       -5.127611   -1.804618   -0.654950
     22          1           0       -4.380381   -2.668368    0.697910
     23          6           0       -5.740501   -1.063278    1.266570
     24          1           0       -4.149250    0.639772   -1.195280
     25          7           0       -2.550950    1.508742   -0.187470
     26          6           0       -4.879780    1.222392    0.748490
     27          1           0        4.528340    0.587190    0.396280
     28          9           0        4.094909   -2.189330    1.998060
     29          9           0        5.245959   -1.810521    0.179180
     30          9           0        3.617669   -3.271470    0.160280
     31          9           0        4.169821    3.030120    0.492370
     32          9           0        2.079131    3.660630    0.330530
     33          9           0        3.213841    3.162010   -1.468280
     34          1           0       -5.353581   -1.002428    2.298560
     35          1           0       -6.620471   -1.723147    1.299540
     36          6           0       -6.122020    0.334593    0.784360
     37          6           0       -2.142960    2.038681    1.116770
     38          6           0       -2.626400    2.572672   -1.186810
     39          1           0       -2.088560    1.228491    1.856590
     40          1           0       -2.817939    2.824422    1.502800
     41          1           0       -1.137810    2.474621    1.027330
     42          1           0       -3.417319    3.317822   -0.969240
     43          1           0       -1.666489    3.108101   -1.223400
     44          1           0       -2.814570    2.137072   -2.177060
     45          1           0       -5.135300    2.240752    0.415710
     46          1           0       -4.499020    1.315242    1.778780
     47          1           0       -6.571260    0.268713   -0.221950
     48          1           0       -6.883350    0.780703    1.442030
 ---------------------------------------------------------------------

 SCF Done:  E(RHF) =  -1815.12869272     A.U. after    2 cycles

 The electronic state is 1-A.
 Alpha  occ. eigenvalues --  -93.88863 -26.51159 -26.51078 -26.50539 -26.50173
 Alpha  occ. eigenvalues --  -26.50142 -26.49693 -15.54803 -15.54009 -15.53152
 Alpha  occ. eigenvalues --  -11.53264 -11.52389 -11.38500 -11.31927 -11.30421
 Alpha  occ. eigenvalues --  -11.29401 -11.29089 -11.28736 -11.28631 -11.28578
 Alpha  occ. eigenvalues --  -11.28108 -11.27996 -11.27325 -11.26097 -11.25661
 Alpha  occ. eigenvalues --  -11.25491 -11.25440  -8.17175  -6.15055  -6.14718
 Alpha  occ. eigenvalues --   -6.14633  -1.70905  -1.70041  -1.61379  -1.60753
 Alpha  occ. eigenvalues --   -1.60487  -1.59891  -1.32362  -1.26212  -1.23972
 Alpha  occ. eigenvalues --   -1.19049  -1.13804  -1.09653  -1.07179  -1.04061
 Alpha  occ. eigenvalues --   -1.03386  -0.99643  -0.99215  -0.97001  -0.96192
 Alpha  occ. eigenvalues --   -0.92198  -0.90460  -0.87941  -0.87435  -0.85425
 Alpha  occ. eigenvalues --   -0.83622  -0.81060  -0.80539  -0.80371  -0.79685
 Alpha  occ. eigenvalues --   -0.79621  -0.78852  -0.77240  -0.74720  -0.72478
 Alpha  occ. eigenvalues --   -0.71948  -0.71318  -0.69824  -0.69393  -0.68626
 Alpha  occ. eigenvalues --   -0.67969  -0.67656  -0.67432  -0.66910  -0.66073
 Alpha  occ. eigenvalues --   -0.64839  -0.63781  -0.63624  -0.63313  -0.62778
 Alpha  occ. eigenvalues --   -0.62708  -0.62207  -0.62146  -0.61454  -0.61305
 Alpha  occ. eigenvalues --   -0.60301  -0.59581  -0.59128  -0.57916  -0.57576
 Alpha  occ. eigenvalues --   -0.56529  -0.55844  -0.55718  -0.54698  -0.54102
 Alpha  occ. eigenvalues --   -0.53555  -0.52407  -0.52049  -0.49872  -0.49469
 Alpha  occ. eigenvalues --   -0.49034  -0.46571  -0.42376  -0.38960  -0.36572
 Alpha  occ. eigenvalues --   -0.33481  -0.33285
 Alpha virt. eigenvalues --    0.01945   0.02043   0.02247   0.02835   0.03595
 Alpha virt. eigenvalues --    0.03795   0.04844   0.04995   0.05562   0.06054
 Alpha virt. eigenvalues --    0.06625   0.06854   0.07059   0.07255   0.07414

 Mulliken charges:
               1
     1  H   -0.064208
     2  N    2.878648
     3  C   -1.510601
     4  C   -3.540203
     5  N    0.744423
     6  S    0.022522
     7  C    1.057898
     8  C    0.747871
     9  C   -0.657845
    10  H    0.443411
    11  H   -0.281767
    12  C    0.525945
    13  H   -0.452466
    14  C    0.391490
    15  H   -0.065613
    16  C   -0.036674
    17  C   -2.490142
    18  C   -0.415525
    19  C    2.708139
    20  C    2.673279
    21  H    0.217797
    22  H    0.090401
    23  C   -0.242881
    24  H   -0.080327
    25  N    1.606412
    26  C    0.102480
    27  H   -0.279151
    28  F   -0.771889
    29  F   -0.846513
    30  F   -0.855083
    31  F   -0.856440
    32  F   -0.869445
    33  F   -0.782920
    34  H    0.208476
    35  H    0.114232
    36  C   -0.319329
    37  C   -0.399346
    38  C   -0.117889
    39  H    0.210910
    40  H    0.065145
    41  H   -0.018126
    42  H    0.210003
    43  H    0.152209
    44  H    0.215106
    45  H    0.087693
    46  H    0.182244
    47  H    0.183600
    48  H    0.114051
 Sum of Mulliken charges =  -0.00000

 Dipole moment (field-independent basis, Debye):
    X=             -8.5690    Y=              4.0702    Z=              2.3970  Tot=              9.7847

 Test job not archived.
 1\1\GINC-SE456\SP\RHF\Aug-CC-pVDZ\C17H21F6N3S1\OHZDE\08-Apr-2025\0\\#t
  hf aug-cc-pvdz iop(5/13=1,5/36=2,99/5=2) pseudo=read geom=check guess
 =(read,tcheck) scf=(maxcycle=1)\\title\\0,1\H,0,1.2242,0.36921,0.38401
 \N,0,0.59913,-0.48059,0.42239\C,0,1.24215,-1.58255,0.916\C,0,-0.76504,
 -0.26468,0.24051\N,0,2.61498,-1.46684,0.86014\S,0,0.54273,-2.92952,1.6
 1631\C,0,-1.68511,-1.28743,-0.04647\C,0,-1.22025,1.06156,0.29395\C,0,3
 .41913,-0.80831,-0.1851\H,0,3.0496,-2.29147,1.26858\H,0,-1.34741,-2.32
 019,-0.08137\C,0,-3.02281,-0.96663,-0.26865\H,0,-0.51942,1.86238,0.532

 Normal termination of Gaussian 16 at Tue Apr  8 19:26:31 2025.
