 Gaussian 16, Revision C.01,

 ----------------------------------------------------------------------
 #t hf aug-cc-pvdz symm=none int=(grid=ultrafine) guess=(read,tcheck) s
 table=(opt,rrhf)
 ----------------------------------------------------------------------
 -----
 title
 -----
 Symbolic Z-matrix:
 Charge =  0 Multiplicity = 1

 SCF Done:  E(RHF) =  -1689.89551113     A.U. after   17 cycles
 Normal termination of Gaussian 16 at Tue Apr  8 17:38:19 2025.
 Gaussian 16:  ES64L-G16RevC.01  3-Jul-2019

 ----------------------------------------------------------------------
 #t hf aug-cc-pvdz iop(5/13=1,5/36=2,99/5=2) pseudo=read geom=check gue
 ss=(read,tcheck) scf=(maxcycle=1)
 ----------------------------------------------------------------------
 -----
 title
 -----
 Structure from the checkpoint file:  "37Conf8_Fotemustin_4_mol1.chk"
 Charge =  0 Multiplicity = 1

                         Standard orientation:
 ---------------------------------------------------------------------
 Center     Atomic      Atomic             Coordinates (Angstroms)
 Number     Number       Type             X           Y           Z
 ---------------------------------------------------------------------
      1          8           0       -2.668410   -1.443940   -2.266519
      2          7           0       -1.859600   -1.160390   -1.391679
      3          7           0       -2.393790   -0.903140   -0.174399
      4          6           0       -3.829800   -0.961530    0.071901
      5          6           0       -1.483730   -0.602130    0.911391
      6          6           0       -4.593720    0.209840   -0.533089
      7          1           0       -4.211880   -1.889730   -0.382339
      8          1           0       -3.950140   -0.995060    1.160431
      9         17           0       -4.045160    1.788530    0.125541
     10          1           0       -4.469280    0.254090   -1.619379
     11          1           0       -5.659130    0.109440   -0.292229
     12          7           0       -0.188790   -0.513669    0.525921
     13          8           0       -1.910710   -0.470800    2.047861
     14          6           0        0.838950   -0.075189    1.467221
     15          1           0       -0.012840   -0.486269   -0.476139
     16         15           0        2.377530    0.426891    0.598621
     17          6           0        1.169410   -1.120859    2.537381
     18          1           0        0.495260    0.847691    1.966561
     19          8           0        1.753560    1.123371   -0.717629
     20          8           0        3.115840   -0.908649    0.075651
     21          8           0        3.297690    1.231281    1.429021
     22          6           0        2.634380    1.929981   -1.560739
     23          6           0        2.515100   -1.821199   -0.878719
     24          6           0        2.572829    3.386991   -1.154989
     25          1           0        2.269290    1.772981   -2.585279
     26          1           0        3.661410    1.538541   -1.492339
     27          6           0        3.600260   -2.738329   -1.398719
     28          1           0        2.056100   -1.242879   -1.697199
     29          1           0        1.720370   -2.394409   -0.373999
     30          1           0        3.195799    3.987571   -1.834369
     31          1           0        1.541459    3.761651   -1.209169
     32          1           0        2.946789    3.513731   -0.130839
     33          1           0        3.171820   -3.453409   -2.115589
     34          1           0        4.386210   -2.163179   -1.906589
     35          1           0        4.059330   -3.302589   -0.575899
     36          1           0        1.521060   -2.055739    2.080761
     37          1           0        0.274000   -1.327629    3.135741
     38          1           0        1.958600   -0.738339    3.198591
 ---------------------------------------------------------------------

 SCF Done:  E(RHF) =  -1690.91338567     A.U. after    2 cycles

 The electronic state is 1-A.
 Alpha  occ. eigenvalues -- -105.56304 -84.42573 -20.61627 -20.58648 -20.58236
 Alpha  occ. eigenvalues --  -20.53990 -20.49883 -15.70952 -15.60641 -15.55378
 Alpha  occ. eigenvalues --  -11.42460 -11.32119 -11.31937 -11.31767 -11.30945
 Alpha  occ. eigenvalues --  -11.30454 -11.24924 -11.24260 -11.23822 -10.61123
 Alpha  occ. eigenvalues --   -7.78069  -7.77699  -7.77681  -6.87778  -4.41918
 Alpha  occ. eigenvalues --   -4.41400  -4.40730  -1.61034  -1.52638  -1.49491
 Alpha  occ. eigenvalues --   -1.47120  -1.38016  -1.33814  -1.26706  -1.13556
 Alpha  occ. eigenvalues --   -1.07024  -1.05507  -1.04630  -1.03840  -0.97944
 Alpha  occ. eigenvalues --   -0.91991  -0.88846  -0.87378  -0.85542  -0.83785
 Alpha  occ. eigenvalues --   -0.82532  -0.79125  -0.75602  -0.73454  -0.71369
 Alpha  occ. eigenvalues --   -0.70838  -0.69087  -0.67972  -0.66965  -0.66178
 Alpha  occ. eigenvalues --   -0.64949  -0.64027  -0.62997  -0.62051  -0.61816
 Alpha  occ. eigenvalues --   -0.60560  -0.59669  -0.59140  -0.56541  -0.56285
 Alpha  occ. eigenvalues --   -0.55963  -0.55159  -0.54760  -0.54126  -0.53783
 Alpha  occ. eigenvalues --   -0.52731  -0.51314  -0.49904  -0.48584  -0.48293
 Alpha  occ. eigenvalues --   -0.47535  -0.46873  -0.46513  -0.45374  -0.44983
 Alpha  occ. eigenvalues --   -0.44543  -0.44203  -0.43578
 Alpha virt. eigenvalues --    0.02863   0.03330   0.03525   0.03697   0.03974
 Alpha virt. eigenvalues --    0.04273   0.04719   0.04887   0.05433   0.05622
 Alpha virt. eigenvalues --    0.06023   0.06607   0.06995   0.07689   0.07929

 Mulliken charges:
               1
     1  O   -1.126596
     2  N    0.817587
     3  N    1.414956
     4  C   -0.201987
     5  C   -0.055105
     6  C   -0.446405
     7  H    0.286995
     8  H    0.095051
     9  Cl  -0.042846
    10  H    0.243811
    11  H    0.250086
    12  N    1.466487
    13  O   -1.144974
    14  C   -2.590474
    15  H    0.089855
    16  P    5.157351
    17  C    0.003289
    18  H   -0.032669
    19  O   -2.082089
    20  O   -1.931775
    21  O   -1.699537
    22  C    0.235847
    23  C    0.508615
    24  C   -0.471070
    25  H    0.009251
    26  H    0.303845
    27  C   -0.851133
    28  H    0.127931
    29  H    0.090496
    30  H    0.135347
    31  H    0.204700
    32  H    0.194954
    33  H    0.188478
    34  H    0.202569
    35  H    0.200483
    36  H    0.105714
    37  H    0.135531
    38  H    0.207434
 Sum of Mulliken charges =   0.00000

 Dipole moment (field-independent basis, Debye):
    X=             -1.6208    Y=             -2.9261    Z=             -4.1002  Tot=              5.2916

 Test job not archived.
 1\1\GINC-SE398\SP\RHF\Aug-CC-pVDZ\C9H19Cl1N3O5P1\OHZDE\08-Apr-2025\0\\
 #t hf aug-cc-pvdz iop(5/13=1,5/36=2,99/5=2) pseudo=read geom=check gue
 ss=(read,tcheck) scf=(maxcycle=1)\\title\\0,1\O,0,-2.66841,-1.44394,-2
 .26652\N,0,-1.8596,-1.16039,-1.39168\N,0,-2.39379,-0.90314,-0.1744\C,0
 ,-3.8298,-0.96153,0.0719\C,0,-1.48373,-0.60213,0.91139\C,0,-4.59372,0.
 20984,-0.53309\H,0,-4.21188,-1.88973,-0.38234\H,0,-3.95014,-0.99506,1.
 16043\Cl,0,-4.04516,1.78853,0.12554\H,0,-4.46928,0.25409,-1.61938\H,0,
 -5.65913,0.10944,-0.29223\N,0,-0.18879,-0.51367,0.52592\O,0,-1.91071,-

 Normal termination of Gaussian 16 at Tue Apr  8 17:39:33 2025.
