 Gaussian 16, Revision C.01,

 ----------------------------------------------------------------------
 #t hf aug-cc-pvdz symm=none int=(grid=ultrafine) guess=(read,tcheck) s
 table=(opt,rrhf)
 ----------------------------------------------------------------------
 -----
 title
 -----
 Symbolic Z-matrix:
 Charge =  0 Multiplicity = 1

 SCF Done:  E(RHF) =  -1153.32618191     A.U. after   16 cycles
 Normal termination of Gaussian 16 at Tue Apr  8 18:27:22 2025.
 Gaussian 16:  ES64L-G16RevC.01  3-Jul-2019

 ----------------------------------------------------------------------
 #t hf aug-cc-pvdz iop(5/13=1,5/36=2,99/5=2) pseudo=read geom=check gue
 ss=(read,tcheck) scf=(maxcycle=1)
 ----------------------------------------------------------------------
 -----
 title
 -----
 Structure from the checkpoint file:  "37Conf8_Pyridoxalphosphate_3_mol1.chk"
 Charge =  0 Multiplicity = 1

                         Standard orientation:
 ---------------------------------------------------------------------
 Center     Atomic      Atomic             Coordinates (Angstroms)
 Number     Number       Type             X           Y           Z
 ---------------------------------------------------------------------
      1          1           0       -2.274988    2.356441    0.150862
      2          8           0       -2.928669    1.618101    0.394442
      3          6           0       -2.311809    0.478831    0.063882
      4          6           0       -1.011159    0.465560   -0.500138
      5          6           0       -2.988490   -0.751299    0.292842
      6          6           0       -0.338339    1.738470   -0.715298
      7          6           0       -0.434780   -0.790210   -0.823018
      8          7           0       -2.424490   -1.914419   -0.026908
      9          6           0       -4.357450   -0.746398    0.897232
     10          8           0       -0.853438    2.834160   -0.439398
     11          1           0        0.681341    1.722000   -1.147478
     12          6           0       -1.192070   -1.926959   -0.570148
     13          6           0        0.941520   -0.959771   -1.406168
     14          1           0       -5.059720   -0.171638    0.274162
     15          1           0       -4.714000   -1.776958    0.999322
     16          1           0       -4.350080   -0.257218    1.883272
     17          1           0       -0.787841   -2.913720   -0.816328
     18          8           0        1.944200   -1.264121   -0.387658
     19          1           0        0.954620   -1.843071   -2.057298
     20          1           0        1.274780   -0.096531   -1.995628
     21         15           0        2.758060   -0.175661    0.439832
     22          8           0        3.149121    0.873028   -0.721888
     23          8           0        1.682181    0.699809    1.279462
     24          8           0        3.835420   -0.754452    1.258322
     25          1           0        3.771531    1.547488   -0.395728
     26          1           0        1.629831    0.367499    2.194342
 ---------------------------------------------------------------------

 SCF Done:  E(RHF) =  -1154.17240216     A.U. after    2 cycles

 The electronic state is 1-A.
 Alpha  occ. eigenvalues --  -84.47865 -20.61947 -20.61388 -20.60247 -20.58452
 Alpha  occ. eigenvalues --  -20.58047 -20.52030 -15.53368 -11.38272 -11.34546
 Alpha  occ. eigenvalues --  -11.34522 -11.30276 -11.29030 -11.28718 -11.28363
 Alpha  occ. eigenvalues --  -11.24276  -6.92559  -4.46704  -4.46129  -4.45867
 Alpha  occ. eigenvalues --   -1.57317  -1.52105  -1.49278  -1.49223  -1.48722
 Alpha  occ. eigenvalues --   -1.39957  -1.27857  -1.14004  -1.07837  -1.02564
 Alpha  occ. eigenvalues --   -0.95567  -0.94329  -0.88004  -0.86416  -0.84005
 Alpha  occ. eigenvalues --   -0.77288  -0.76031  -0.73965  -0.71676  -0.71101
 Alpha  occ. eigenvalues --   -0.69340  -0.67660  -0.66874  -0.64828  -0.64477
 Alpha  occ. eigenvalues --   -0.64063  -0.63541  -0.60638  -0.59460  -0.58078
 Alpha  occ. eigenvalues --   -0.57875  -0.56005  -0.55692  -0.55084  -0.54643
 Alpha  occ. eigenvalues --   -0.53618  -0.53307  -0.51075  -0.49100  -0.47591
 Alpha  occ. eigenvalues --   -0.47081  -0.44205  -0.41571  -0.33790
 Alpha virt. eigenvalues --    0.01817   0.02849   0.03425   0.03437   0.04302
 Alpha virt. eigenvalues --    0.04645   0.05161   0.05508   0.06125   0.07433
 Alpha virt. eigenvalues --    0.08041   0.08208   0.09403   0.09558   0.09995

 Mulliken charges:
               1
     1  H    0.530183
     2  O   -1.905486
     3  C    1.316214
     4  C    1.243528
     5  C   -2.193048
     6  C    1.056120
     7  C    1.797688
     8  N    1.536295
     9  C   -0.227828
    10  O   -1.580971
    11  H   -0.112384
    12  C   -1.549470
    13  C    0.058453
    14  H    0.297585
    15  H    0.122515
    16  H    0.296671
    17  H   -0.265238
    18  O   -1.605027
    19  H   -0.031521
    20  H    0.187737
    21  P    4.306777
    22  O   -1.276407
    23  O   -1.391881
    24  O   -1.406961
    25  H    0.356748
    26  H    0.439710
 Sum of Mulliken charges =  -0.00000

 Dipole moment (field-independent basis, Debye):
    X=             -0.2494    Y=              1.8085    Z=             -1.8077  Tot=              2.5692

 Test job not archived.
 1\1\GINC-SE454\SP\RHF\Aug-CC-pVDZ\C8H10N1O6P1\OHZDE\08-Apr-2025\0\\#t
 hf aug-cc-pvdz iop(5/13=1,5/36=2,99/5=2) pseudo=read geom=check guess=
 (read,tcheck) scf=(maxcycle=1)\\title\\0,1\H,0,-2.27499,2.35644,0.1508
 6\O,0,-2.92867,1.6181,0.39444\C,0,-2.31181,0.47883,0.06388\C,0,-1.0111
 6,0.46556,-0.50014\C,0,-2.98849,-0.7513,0.29284\C,0,-0.33834,1.73847,-
 0.7153\C,0,-0.43478,-0.79021,-0.82302\N,0,-2.42449,-1.91442,-0.02691\C
 ,0,-4.35745,-0.7464,0.89723\O,0,-0.85344,2.83416,-0.4394\H,0,0.68134,1
 .722,-1.14748\C,0,-1.19207,-1.92696,-0.57015\C,0,0.94152,-0.95977,-1.4

 Normal termination of Gaussian 16 at Tue Apr  8 18:27:54 2025.
