 Gaussian 16, Revision C.01,

 ----------------------------------------------------------------------
 #t hf aug-cc-pvdz symm=none int=(grid=ultrafine) guess=(read,tcheck) s
 table=(opt,rrhf)
 ----------------------------------------------------------------------
 -----
 title
 -----
 Symbolic Z-matrix:
 Charge =  0 Multiplicity = 1

 SCF Done:  E(RHF) =  -1080.80562913     A.U. after   16 cycles
 Normal termination of Gaussian 16 at Tue Apr  8 19:09:01 2025.
 Gaussian 16:  ES64L-G16RevC.01  3-Jul-2019

 ----------------------------------------------------------------------
 #t hf aug-cc-pvdz iop(5/13=1,5/36=2,99/5=2) pseudo=read geom=check gue
 ss=(read,tcheck) scf=(maxcycle=1)
 ----------------------------------------------------------------------
 -----
 title
 -----
 Structure from the checkpoint file:  "37Conf8_RH34_6_mol2.chk"
 Charge =  0 Multiplicity = 1

                         Standard orientation:
 ---------------------------------------------------------------------
 Center     Atomic      Atomic             Coordinates (Angstroms)
 Number     Number       Type             X           Y           Z
 ---------------------------------------------------------------------
      1          1           0       -4.917699    3.460570    0.541359
      2          6           0       -4.361809    2.530690    0.409279
      3          6           0       -3.088999    2.386970    0.952669
      4          6           0       -4.942719    1.483540   -0.314331
      5          1           0       -2.633759    3.202690    1.515889
      6          6           0       -2.391809    1.186660    0.772919
      7          1           0       -5.938089    1.609020   -0.738061
      8          6           0       -4.238379    0.287920   -0.487301
      9          1           0       -1.387489    1.070290    1.183049
     10          6           0       -2.947679    0.123590    0.061599
     11          8           0       -4.717710   -0.790500   -1.185451
     12          6           0       -2.228170   -1.187140   -0.141071
     13          6           0       -6.014860   -0.680560   -1.758221
     14          7           0       -0.957650   -1.245390    0.559409
     15          1           0       -2.031130   -1.328300   -1.219401
     16          1           0       -2.917030   -2.016850    0.132939
     17          6           0       -0.217790   -2.473480    0.325859
     18          1           0       -1.089700   -1.100610    1.563589
     19          6           0        1.097890   -2.478421    1.103799
     20          1           0       -0.002940   -2.550090   -0.751961
     21          1           0       -0.774640   -3.395820    0.607379
     22          7           0        1.910140   -1.290331    0.820609
     23          1           0        1.689440   -3.357371    0.821679
     24          1           0        0.912100   -2.484931    2.184719
     25          6           0        1.751360   -0.195041    1.676279
     26          6           0        2.706330   -1.309851   -0.339911
     27          8           0        1.039210   -0.209581    2.674889
     28          7           0        2.479791    0.927349    1.328519
     29          8           0        2.755620   -2.311441   -1.048051
     30          6           0        3.448861   -0.070301   -0.620361
     31          1           0        2.354331    1.714399    1.958429
     32          6           0        3.309741    1.040709    0.230119
     33          6           0        4.284911    0.016449   -1.741531
     34          6           0        4.005751    2.228509   -0.043971
     35          1           0        4.366300   -0.862991   -2.381311
     36          6           0        4.976671    1.189649   -2.013831
     37          1           0        3.893451    3.089729    0.617859
     38          6           0        4.831591    2.293659   -1.159881
     39          1           0        5.627471    1.254879   -2.885911
     40          1           0        5.371181    3.218499   -1.370181
     41          1           0       -6.061509    0.136470   -2.497791
     42          1           0       -6.203920   -1.636559   -2.259821
     43          1           0       -6.784650   -0.513559   -0.986051
 ---------------------------------------------------------------------

 SCF Done:  E(RHF) =  -1081.89537036     A.U. after    2 cycles

 The electronic state is 1-A.
 Alpha  occ. eigenvalues --  -20.57026 -20.52750 -20.52507 -15.56779 -15.56019
 Alpha  occ. eigenvalues --  -15.47935 -11.41511 -11.38384 -11.32829 -11.30007
 Alpha  occ. eigenvalues --  -11.29620 -11.27955 -11.27306 -11.27174 -11.26594
 Alpha  occ. eigenvalues --  -11.26421 -11.25697 -11.25617 -11.25532 -11.24007
 Alpha  occ. eigenvalues --  -11.23558 -11.23490 -11.23344 -11.22894  -1.49173
 Alpha  occ. eigenvalues --   -1.48397  -1.46807  -1.31499  -1.25827  -1.20566
 Alpha  occ. eigenvalues --   -1.17169  -1.14097  -1.06897  -1.04595  -1.04000
 Alpha  occ. eigenvalues --   -1.01224  -1.00543  -0.94512  -0.92984  -0.92520
 Alpha  occ. eigenvalues --   -0.89820  -0.88007  -0.84903  -0.81445  -0.80801
 Alpha  occ. eigenvalues --   -0.80507  -0.77218  -0.74916  -0.72219  -0.70076
 Alpha  occ. eigenvalues --   -0.69327  -0.68001  -0.67888  -0.66860  -0.65624
 Alpha  occ. eigenvalues --   -0.65423  -0.65097  -0.63929  -0.63449  -0.62534
 Alpha  occ. eigenvalues --   -0.62231  -0.61647  -0.61288  -0.58615  -0.58473
 Alpha  occ. eigenvalues --   -0.56921  -0.56006  -0.55906  -0.55245  -0.53706
 Alpha  occ. eigenvalues --   -0.53453  -0.52194  -0.51707  -0.51089  -0.50574
 Alpha  occ. eigenvalues --   -0.47939  -0.47583  -0.46761  -0.46348  -0.44188
 Alpha  occ. eigenvalues --   -0.42693  -0.40148  -0.37411  -0.34195  -0.33649
 Alpha  occ. eigenvalues --   -0.30891
 Alpha virt. eigenvalues --    0.02402   0.03035   0.03413   0.03547   0.04076
 Alpha virt. eigenvalues --    0.04398   0.04699   0.05038   0.05557   0.05582
 Alpha virt. eigenvalues --    0.05996   0.06279   0.06683   0.07203   0.07304

 Mulliken charges:
               1
     1  H   -0.232010
     2  C   -0.093372
     3  C   -0.253280
     4  C    0.096409
     5  H   -0.295521
     6  C    1.322554
     7  H   -0.421555
     8  C    1.731156
     9  H   -0.277351
    10  C    1.152254
    11  O   -2.204920
    12  C   -2.416626
    13  C    0.084383
    14  N    1.134555
    15  H    0.181237
    16  H    0.224727
    17  C   -0.270348
    18  H    0.268255
    19  C   -0.735268
    20  H    0.029845
    21  H    0.081821
    22  N    1.763672
    23  H    0.109826
    24  H    0.030105
    25  C   -0.343817
    26  C   -0.715455
    27  O   -1.352071
    28  N    1.361209
    29  O   -1.538245
    30  C    2.980403
    31  H    0.118798
    32  C   -1.810823
    33  C   -0.107899
    34  C    1.132457
    35  H   -0.327274
    36  C    0.062976
    37  H   -0.320368
    38  C   -0.080312
    39  H   -0.223782
    40  H   -0.224788
    41  H    0.202346
    42  H   -0.028974
    43  H    0.205072
 Sum of Mulliken charges =  -0.00000

 Dipole moment (field-independent basis, Debye):
    X=              0.3703    Y=              2.6365    Z=             -1.0559  Tot=              2.8641

 Test job not archived.
 1\1\GINC-SE039\SP\RHF\Aug-CC-pVDZ\C18H19N3O3\OHZDE\08-Apr-2025\0\\#t h
 f aug-cc-pvdz iop(5/13=1,5/36=2,99/5=2) pseudo=read geom=check guess=(
 read,tcheck) scf=(maxcycle=1)\\title\\0,1\H,0,-4.9177,3.46057,0.54136\
 C,0,-4.36181,2.53069,0.40928\C,0,-3.089,2.38697,0.95267\C,0,-4.94272,1
 .48354,-0.31433\H,0,-2.63376,3.20269,1.51589\C,0,-2.39181,1.18666,0.77
 292\H,0,-5.93809,1.60902,-0.73806\C,0,-4.23838,0.28792,-0.4873\H,0,-1.
 38749,1.07029,1.18305\C,0,-2.94768,0.12359,0.0616\O,0,-4.71771,-0.7905
 ,-1.18545\C,0,-2.22817,-1.18714,-0.14107\C,0,-6.01486,-0.68056,-1.7582

 Normal termination of Gaussian 16 at Tue Apr  8 19:10:54 2025.
