 Gaussian 16, Revision C.01,

 ----------------------------------------------------------------------
 #t hf aug-cc-pvdz symm=none int=(grid=ultrafine) guess=(read,tcheck) s
 table=(opt,rrhf)
 ----------------------------------------------------------------------
 -----
 title
 -----
 Symbolic Z-matrix:
 Charge =  0 Multiplicity = 1

 SCF Done:  E(RHF) =  -1112.30655297     A.U. after   16 cycles
 Normal termination of Gaussian 16 at Tue Apr  8 17:35:58 2025.
 Gaussian 16:  ES64L-G16RevC.01  3-Jul-2019

 ----------------------------------------------------------------------
 #t hf aug-cc-pvdz iop(5/13=1,5/36=2,99/5=2) pseudo=read geom=check gue
 ss=(read,tcheck) scf=(maxcycle=1)
 ----------------------------------------------------------------------
 -----
 title
 -----
 Structure from the checkpoint file:  "37Conf8_Cimetidine_2_mol2.chk"
 Charge =  0 Multiplicity = 1

                         Standard orientation:
 ---------------------------------------------------------------------
 Center     Atomic      Atomic             Coordinates (Angstroms)
 Number     Number       Type             X           Y           Z
 ---------------------------------------------------------------------
      1          7           0        3.349502   -1.163300   -1.086980
      2          6           0        2.860608   -0.183267   -0.646750
      3          7           0        2.349174    0.864816   -0.044810
      4          6           0        1.129387    1.283293   -0.370130
      5          7           0        0.368003    0.712737   -1.338870
      6          7           0        0.609893    2.352256    0.291510
      7          6           0       -0.832013    1.279044   -1.932540
      8          1           0        0.727308   -0.159705   -1.719520
      9          6           0        1.361837    2.988181    1.361450
     10          1           0       -0.405038    2.282782    0.429100
     11          6           0       -2.161407    0.706752   -1.427030
     12          1           0       -0.780724    1.106614   -3.020940
     13          1           0       -0.799847    2.368524   -1.785370
     14         16           0       -2.469985    0.991134    0.350410
     15          1           0       -2.983984    1.174427   -1.988070
     16          1           0       -2.199233   -0.379128   -1.595650
     17          6           0       -2.332075   -0.734497    1.039230
     18          6           0       -1.158930   -1.506744    0.569640
     19          1           0       -3.260858   -1.255421    0.774570
     20          1           0       -2.320824   -0.574637    2.125680
     21          7           0       -1.218524   -2.219073   -0.619150
     22          6           0        0.113800   -1.584741    1.117020
     23          6           0       -0.003587   -2.709681   -0.796910
     24          7           0        0.827245   -2.367375    0.232130
     25          6           0        0.708683   -1.009545    2.353690
     26          1           0        0.326870   -3.320363   -1.632320
     27          1           0        1.842905   -2.469031    0.212490
     28          1           0        1.594047   -0.396280    2.125290
     29          1           0       -0.023663   -0.365930    2.857800
     30          1           0        1.013289   -1.793207    3.065130
     31          1           0        2.358338    3.265716    0.999350
     32          1           0        0.825292    3.894745    1.667060
     33          1           0        1.491013    2.329561    2.235990
 ---------------------------------------------------------------------

 SCF Done:  E(RHF) =  -1113.09524011     A.U. after    2 cycles

 The electronic state is 1-A.
 Alpha  occ. eigenvalues --  -93.95280 -15.55707 -15.54940 -15.53971 -15.50174
 Alpha  occ. eigenvalues --  -15.49364 -15.48183 -11.39998 -11.30569 -11.30294
 Alpha  occ. eigenvalues --  -11.29977 -11.28391 -11.28053 -11.27795 -11.27727
 Alpha  occ. eigenvalues --  -11.25772 -11.25173  -8.23364  -6.21184  -6.21033
 Alpha  occ. eigenvalues --   -6.20846  -1.34515  -1.33814  -1.23674  -1.23091
 Alpha  occ. eigenvalues --   -1.17967  -1.17717  -1.10777  -1.06788  -1.02314
 Alpha  occ. eigenvalues --   -0.98410  -0.95733  -0.92332  -0.89900  -0.85779
 Alpha  occ. eigenvalues --   -0.84011  -0.81608  -0.78343  -0.76264  -0.74737
 Alpha  occ. eigenvalues --   -0.70480  -0.68538  -0.66363  -0.65319  -0.64633
 Alpha  occ. eigenvalues --   -0.63134  -0.62500  -0.60439  -0.59806  -0.59135
 Alpha  occ. eigenvalues --   -0.58680  -0.58322  -0.57307  -0.57090  -0.56451
 Alpha  occ. eigenvalues --   -0.56362  -0.55538  -0.52365  -0.50616  -0.48718
 Alpha  occ. eigenvalues --   -0.45472  -0.44969  -0.44287  -0.43396  -0.40313
 Alpha  occ. eigenvalues --   -0.36656  -0.32042
 Alpha virt. eigenvalues --    0.02898   0.02976   0.03220   0.03578   0.04145
 Alpha virt. eigenvalues --    0.04604   0.04896   0.05221   0.06454   0.06869
 Alpha virt. eigenvalues --    0.07367   0.07943   0.08336   0.09196   0.09557

 Mulliken charges:
               1
     1  N    1.068364
     2  C   -1.753798
     3  N    1.496789
     4  C   -4.652971
     5  N    2.079552
     6  N    1.529993
     7  C   -0.764135
     8  H    0.347146
     9  C   -0.138119
    10  H    0.287622
    11  C   -0.235767
    12  H   -0.005735
    13  H    0.063179
    14  S    0.313269
    15  H    0.132566
    16  H    0.204738
    17  C   -0.754973
    18  C   -0.715682
    19  H    0.176546
    20  H    0.148261
    21  N    1.256653
    22  C   -1.408000
    23  C   -1.033650
    24  N    1.917784
    25  C   -0.377402
    26  H   -0.284761
    27  H    0.039284
    28  H    0.245244
    29  H    0.255038
    30  H    0.185479
    31  H    0.148733
    32  H    0.048726
    33  H    0.180025
 Sum of Mulliken charges =  -0.00000

 Dipole moment (field-independent basis, Debye):
    X=             -3.3155    Y=              2.9420    Z=              1.5102  Tot=              4.6828

 Test job not archived.
 1\1\GINC-SE187\SP\RHF\Aug-CC-pVDZ\C10H16N6S1\OHZDE\08-Apr-2025\0\\#t h
 f aug-cc-pvdz iop(5/13=1,5/36=2,99/5=2) pseudo=read geom=check guess=(
 read,tcheck) scf=(maxcycle=1)\\title\\0,1\N,0,-3.34951,1.16328,-1.0869
 8\C,0,-2.86061,0.18325,-0.64675\N,0,-2.34917,-0.86483,-0.04481\C,0,-1.
 12938,-1.2833,-0.37013\N,0,-0.368,-0.71274,-1.33887\N,0,-0.60988,-2.35
 226,0.29151\C,0,0.83202,-1.27904,-1.93254\H,0,-0.72731,0.1597,-1.71952
 \C,0,-1.36182,-2.98819,1.36145\H,0,0.40505,-2.28278,0.4291\C,0,2.16141
 ,-0.70674,-1.42703\H,0,0.78073,-1.10661,-3.02094\H,0,0.79986,-2.36852,

 Normal termination of Gaussian 16 at Tue Apr  8 17:36:58 2025.
