 Gaussian 16, Revision C.01,

 ----------------------------------------------------------------------
 #t hf aug-cc-pvdz symm=none int=(grid=ultrafine) guess=(read,tcheck) s
 table=(opt,rrhf)
 ----------------------------------------------------------------------
 -----
 title
 -----
 Symbolic Z-matrix:
 Charge =  0 Multiplicity = 1

 SCF Done:  E(RHF) =  -898.731106546     A.U. after   15 cycles
 Normal termination of Gaussian 16 at Tue Apr  8 18:14:25 2025.
 Gaussian 16:  ES64L-G16RevC.01  3-Jul-2019

 ----------------------------------------------------------------------
 #t hf aug-cc-pvdz iop(5/13=1,5/36=2,99/5=2) pseudo=read geom=check gue
 ss=(read,tcheck) scf=(maxcycle=1)
 ----------------------------------------------------------------------
 -----
 title
 -----
 Structure from the checkpoint file:  "37Conf8_Knoevenagel_cond_7_mol1.chk"
 Charge =  0 Multiplicity = 1

                         Standard orientation:
 ---------------------------------------------------------------------
 Center     Atomic      Atomic             Coordinates (Angstroms)
 Number     Number       Type             X           Y           Z
 ---------------------------------------------------------------------
      1          8           0        2.349280   -0.745671   -1.468320
      2          6           0        2.067150   -0.482091   -0.314030
      3          6           0        0.682370   -0.611360    0.312660
      4          8           0        2.954580   -0.044701    0.607580
      5          6           0       -0.397480   -0.983890   -0.730820
      6          6           0        0.313620    0.591020    1.210470
      7          1           0        0.774270   -1.429830    1.044440
      8          6           0        4.333240    0.094259    0.162240
      9          6           0       -0.330850   -2.479020   -1.070440
     10          7           0       -1.703330   -0.491670   -0.277130
     11          1           0       -0.167120   -0.429200   -1.652890
     12          8           0        0.299570    1.847450    0.702040
     13          8           0        0.094090    0.442210    2.393480
     14          6           0        5.082220   -1.218361    0.284370
     15          1           0        4.331890    0.460389   -0.873710
     16          1           0        4.749230    0.863619    0.825100
     17          1           0        4.661060   -1.972341   -0.393470
     18          1           0        6.138140   -1.067931    0.016100
     19          1           0        5.040100   -1.598411    1.314290
     20          1           0       -1.099630   -2.745470   -1.809600
     21          1           0        0.649160   -2.723390   -1.500700
     22          1           0       -0.484170   -3.100520   -0.176220
     23          6           0       -2.670440   -0.318040   -1.357960
     24          6           0       -2.293010   -1.225140    0.846730
     25          6           0        0.320490    2.108130   -0.718130
     26          1           0       -3.029310   -1.296860   -1.753590
     27          1           0       -2.168670    0.198910   -2.191980
     28          6           0       -3.872040    0.493040   -0.874500
     29          1           0       -2.641940   -2.233890    0.529960
     30          1           0       -1.528430   -1.365230    1.623110
     31          6           0       -3.473340   -0.445530    1.422370
     32          6           0        0.498051    3.600660   -0.898500
     33          1           0        1.140800    1.558279   -1.204000
     34          1           0       -0.635430    1.764300   -1.141610
     35          1           0        0.496311    3.849300   -1.969340
     36          1           0        1.449351    3.937479   -0.464550
     37          1           0       -0.318989    4.150070   -0.411830
     38          1           0       -4.597160    0.600700   -1.696320
     39          1           0       -3.527060    1.504470   -0.602470
     40          6           0       -4.521070   -0.172310    0.341390
     41          1           0       -3.913070   -1.013780    2.256480
     42          1           0       -3.095640    0.503750    1.834710
     43          1           0       -5.336240    0.453180    0.736240
     44          1           0       -4.977800   -1.128390    0.028420
 ---------------------------------------------------------------------

 SCF Done:  E(RHF) =  -899.656896591     A.U. after    2 cycles

 The electronic state is 1-A.
 Alpha  occ. eigenvalues --  -20.59966 -20.57979 -20.54996 -20.52276 -15.49141
 Alpha  occ. eigenvalues --  -11.40852 -11.39190 -11.30762 -11.30432 -11.28004
 Alpha  occ. eigenvalues --  -11.27644 -11.26052 -11.25167 -11.24108 -11.23906
 Alpha  occ. eigenvalues --  -11.23119 -11.22929 -11.22705 -11.22183  -1.54948
 Alpha  occ. eigenvalues --   -1.52586  -1.45970  -1.43696  -1.24165  -1.10641
 Alpha  occ. eigenvalues --   -1.06835  -1.04324  -1.03753  -1.01887  -0.98631
 Alpha  occ. eigenvalues --   -0.90525  -0.88526  -0.87425  -0.85869  -0.81779
 Alpha  occ. eigenvalues --   -0.80813  -0.77919  -0.75782  -0.74517  -0.70590
 Alpha  occ. eigenvalues --   -0.68483  -0.68061  -0.67446  -0.66297  -0.65412
 Alpha  occ. eigenvalues --   -0.64113  -0.63175  -0.62225  -0.61331  -0.59351
 Alpha  occ. eigenvalues --   -0.58597  -0.58408  -0.58064  -0.56509  -0.56477
 Alpha  occ. eigenvalues --   -0.55879  -0.55162  -0.54726  -0.53968  -0.53402
 Alpha  occ. eigenvalues --   -0.52859  -0.52205  -0.50707  -0.50588  -0.49485
 Alpha  occ. eigenvalues --   -0.48387  -0.47263  -0.46560  -0.45943  -0.45743
 Alpha  occ. eigenvalues --   -0.45594  -0.43281  -0.42272  -0.38979
 Alpha virt. eigenvalues --    0.02767   0.03175   0.03241   0.03761   0.03872
 Alpha virt. eigenvalues --    0.04016   0.04448   0.04818   0.05535   0.05704
 Alpha virt. eigenvalues --    0.06269   0.06886   0.07491   0.07894   0.08564

 Mulliken charges:
               1
     1  O   -1.615429
     2  C    3.295788
     3  C   -0.979794
     4  O   -1.702465
     5  C   -2.215703
     6  C    2.738855
     7  H    0.110727
     8  C    0.277390
     9  C   -0.382478
    10  N    2.350383
    11  H   -0.053086
    12  O   -1.670498
    13  O   -1.530674
    14  C   -0.427063
    15  H    0.259434
    16  H   -0.018211
    17  H    0.190481
    18  H    0.142361
    19  H    0.176316
    20  H    0.210196
    21  H    0.178575
    22  H    0.279443
    23  C   -0.305435
    24  C   -0.448071
    25  C    0.255550
    26  H    0.097566
    27  H   -0.014253
    28  C   -0.117983
    29  H    0.075118
    30  H    0.045856
    31  C   -0.171005
    32  C   -0.555636
    33  H    0.136045
    34  H    0.096245
    35  H    0.191592
    36  H    0.205460
    37  H    0.216845
    38  H    0.124063
    39  H    0.234434
    40  C   -0.341857
    41  H    0.119534
    42  H    0.223218
    43  H    0.117282
    44  H    0.200886
 Sum of Mulliken charges =  -0.00000

 Dipole moment (field-independent basis, Debye):
    X=              0.6550    Y=             -0.5587    Z=             -2.9972  Tot=              3.1184

 Test job not archived.
 1\1\GINC-SE452\SP\RHF\Aug-CC-pVDZ\C14H25N1O4\OHZDE\08-Apr-2025\0\\#t h
 f aug-cc-pvdz iop(5/13=1,5/36=2,99/5=2) pseudo=read geom=check guess=(
 read,tcheck) scf=(maxcycle=1)\\title\\0,1\O,0,2.34928,-0.74567,-1.4683
 2\C,0,2.06715,-0.48209,-0.31403\C,0,0.68237,-0.61136,0.31266\O,0,2.954
 58,-0.0447,0.60758\C,0,-0.39748,-0.98389,-0.73082\C,0,0.31362,0.59102,
 1.21047\H,0,0.77427,-1.42983,1.04444\C,0,4.33324,0.09426,0.16224\C,0,-
 0.33085,-2.47902,-1.07044\N,0,-1.70333,-0.49167,-0.27713\H,0,-0.16712,
 -0.4292,-1.65289\O,0,0.29957,1.84745,0.70204\O,0,0.09409,0.44221,2.393

 Normal termination of Gaussian 16 at Tue Apr  8 18:16:04 2025.
