 Gaussian 16, Revision C.01,

 ----------------------------------------------------------------------
 #t hf aug-cc-pvdz symm=none int=(grid=ultrafine) guess=(read,tcheck) s
 table=(opt,rrhf)
 ----------------------------------------------------------------------
 -----
 title
 -----
 Symbolic Z-matrix:
 Charge =  0 Multiplicity = 1

 SCF Done:  E(RHF) =  -1153.33337978     A.U. after   16 cycles
 Normal termination of Gaussian 16 at Tue Apr  8 18:25:45 2025.
 Gaussian 16:  ES64L-G16RevC.01  3-Jul-2019

 ----------------------------------------------------------------------
 #t hf aug-cc-pvdz iop(5/13=1,5/36=2,99/5=2) pseudo=read geom=check gue
 ss=(read,tcheck) scf=(maxcycle=1)
 ----------------------------------------------------------------------
 -----
 title
 -----
 Structure from the checkpoint file:  "37Conf8_Pyridoxalphosphate_2_mol2.chk"
 Charge =  0 Multiplicity = 1

                         Standard orientation:
 ---------------------------------------------------------------------
 Center     Atomic      Atomic             Coordinates (Angstroms)
 Number     Number       Type             X           Y           Z
 ---------------------------------------------------------------------
      1          1           0        2.483109    2.370330    0.046509
      2          8           0        3.204799    1.667021    0.196019
      3          6           0        2.583619    0.495300    0.038039
      4          6           0        1.204809    0.415930   -0.275151
      5          6           0        3.338669   -0.704159    0.185969
      6          6           0        0.453539    1.652840   -0.443001
      7          6           0        0.625750   -0.871610   -0.418581
      8          7           0        2.767460   -1.896199    0.039609
      9          6           0        4.796589   -0.627819    0.514599
     10          8           0        0.972619    2.774630   -0.299851
     11          1           0       -0.620521    1.589050   -0.711551
     12          6           0        1.451680   -1.972400   -0.249051
     13          6           0       -0.824380   -1.075510   -0.737251
     14          1           0        5.343159   -0.060929   -0.254541
     15          1           0        5.207030   -1.640629    0.587909
     16          1           0        4.957539   -0.093229    1.463279
     17          1           0        1.041700   -2.981950   -0.349831
     18          8           0       -1.635681   -0.699051    0.421409
     19          1           0       -1.140831   -0.478781   -1.607191
     20          1           0       -1.018940   -2.136411   -0.947811
     21         15           0       -3.034851    0.019719    0.138989
     22          8           0       -3.951860   -1.208201   -0.344561
     23          8           0       -3.557931    0.296659    1.628809
     24          8           0       -3.004871    1.193509   -0.764911
     25          1           0       -4.714640   -0.884162   -0.857361
     26          1           0       -3.385311    1.222359    1.879729
 ---------------------------------------------------------------------

 SCF Done:  E(RHF) =  -1154.18086737     A.U. after    2 cycles

 The electronic state is 1-A.
 Alpha  occ. eigenvalues --  -84.48159 -20.61614 -20.61412 -20.60493 -20.58081
 Alpha  occ. eigenvalues --  -20.57348 -20.53219 -15.53033 -11.37289 -11.34265
 Alpha  occ. eigenvalues --  -11.34204 -11.29993 -11.28700 -11.28345 -11.27673
 Alpha  occ. eigenvalues --  -11.23992  -6.92878  -4.46979  -4.46411  -4.46347
 Alpha  occ. eigenvalues --   -1.57436  -1.51597  -1.49384  -1.49327  -1.48040
 Alpha  occ. eigenvalues --   -1.40826  -1.27511  -1.13610  -1.07468  -1.02263
 Alpha  occ. eigenvalues --   -0.95050  -0.93817  -0.87239  -0.86044  -0.83790
 Alpha  occ. eigenvalues --   -0.76702  -0.75513  -0.73741  -0.72004  -0.70987
 Alpha  occ. eigenvalues --   -0.69174  -0.67160  -0.66138  -0.65872  -0.63761
 Alpha  occ. eigenvalues --   -0.63488  -0.63216  -0.59845  -0.59401  -0.57679
 Alpha  occ. eigenvalues --   -0.57362  -0.56012  -0.55637  -0.55025  -0.54360
 Alpha  occ. eigenvalues --   -0.54109  -0.53188  -0.51478  -0.48934  -0.48193
 Alpha  occ. eigenvalues --   -0.47774  -0.43556  -0.41038  -0.33504
 Alpha virt. eigenvalues --    0.02044   0.02808   0.03623   0.03787   0.04431
 Alpha virt. eigenvalues --    0.04891   0.05643   0.05830   0.06192   0.07586
 Alpha virt. eigenvalues --    0.08153   0.08332   0.09498   0.09980   0.10533

 Mulliken charges:
               1
     1  H    0.530823
     2  O   -1.900090
     3  C    1.320701
     4  C    0.982031
     5  C   -2.182332
     6  C    0.971786
     7  C    2.017758
     8  N    1.531426
     9  C   -0.271980
    10  O   -1.569014
    11  H   -0.131334
    12  C   -1.549067
    13  C    0.216982
    14  H    0.295054
    15  H    0.121785
    16  H    0.294440
    17  H   -0.243659
    18  O   -1.713673
    19  H    0.248769
    20  H   -0.143224
    21  P    4.504548
    22  O   -1.250553
    23  O   -1.329040
    24  O   -1.459262
    25  H    0.340868
    26  H    0.366254
 Sum of Mulliken charges =   0.00000

 Dipole moment (field-independent basis, Debye):
    X=             -2.5735    Y=             -1.0943    Z=             -0.4225  Tot=              2.8283

 Test job not archived.
 1\1\GINC-SE040\SP\RHF\Aug-CC-pVDZ\C8H10N1O6P1\OHZDE\08-Apr-2025\0\\#t
 hf aug-cc-pvdz iop(5/13=1,5/36=2,99/5=2) pseudo=read geom=check guess=
 (read,tcheck) scf=(maxcycle=1)\\title\\0,1\H,0,2.48311,2.37033,0.04651
 \O,0,3.2048,1.66702,0.19602\C,0,2.58362,0.4953,0.03804\C,0,1.20481,0.4
 1593,-0.27515\C,0,3.33867,-0.70416,0.18597\C,0,0.45354,1.65284,-0.443\
 C,0,0.62575,-0.87161,-0.41858\N,0,2.76746,-1.8962,0.03961\C,0,4.79659,
 -0.62782,0.5146\O,0,0.97262,2.77463,-0.29985\H,0,-0.62052,1.58905,-0.7
 1155\C,0,1.45168,-1.9724,-0.24905\C,0,-0.82438,-1.07551,-0.73725\H,0,5

 Normal termination of Gaussian 16 at Tue Apr  8 18:26:14 2025.
