 Gaussian 16, Revision C.01,

 ----------------------------------------------------------------------
 #t hf aug-cc-pvdz symm=none int=(grid=ultrafine) guess=(read,tcheck) s
 table=(opt,rrhf)
 ----------------------------------------------------------------------
 -----
 title
 -----
 Symbolic Z-matrix:
 Charge =  0 Multiplicity = 1

 SCF Done:  E(RHF) =  -891.125014454     A.U. after   14 cycles
 Normal termination of Gaussian 16 at Tue Apr  8 17:34:19 2025.
 Gaussian 16:  ES64L-G16RevC.01  3-Jul-2019

 ----------------------------------------------------------------------
 #t hf aug-cc-pvdz iop(5/13=1,5/36=2,99/5=2) pseudo=read geom=check gue
 ss=(read,tcheck) scf=(maxcycle=1)
 ----------------------------------------------------------------------
 -----
 title
 -----
 Structure from the checkpoint file:  "37Conf8_Glufosinate_7_mol1.chk"
 Charge =  0 Multiplicity = 1

                         Standard orientation:
 ---------------------------------------------------------------------
 Center     Atomic      Atomic             Coordinates (Angstroms)
 Number     Number       Type             X           Y           Z
 ---------------------------------------------------------------------
      1          1           0        3.943041    1.919238   -0.022800
      2          8           0        3.214361    1.491509   -0.520400
      3          6           0        2.982670    0.299369    0.096880
      4          6           0        1.817250   -0.457020   -0.539800
      5          8           0        3.620480   -0.082521    1.057020
      6          6           0        0.498120    0.174870   -0.039200
      7          7           0        1.834659   -1.884210   -0.252390
      8          1           0        1.875910   -0.312190   -1.630570
      9          6           0       -0.715540   -0.414289   -0.757080
     10          1           0        0.547870    1.264470   -0.181690
     11          1           0        0.419720   -0.009910    1.044830
     12         15           0       -2.336230   -0.002978   -0.041700
     13          1           0       -0.746670   -0.102779   -1.814040
     14          1           0       -0.651901   -1.514149   -0.749330
     15          6           0       -2.425869    1.799972    0.089420
     16          8           0       -2.196200   -0.419318    1.537000
     17          8           0       -3.477111   -0.655627   -0.742010
     18          1           0       -2.350669    2.239882   -0.913940
     19          1           0       -3.399189    2.062883    0.523400
     20          1           0       -1.624979    2.195942    0.727670
     21          1           0       -2.690311   -1.247298    1.680730
     22          1           0        2.592748   -2.336771   -0.766400
     23          1           0        2.053259   -2.014921    0.740190
 ---------------------------------------------------------------------

 SCF Done:  E(RHF) =  -891.732990490     A.U. after    2 cycles

 The electronic state is 1-A.
 Alpha  occ. eigenvalues --  -84.38763 -20.61882 -20.58140 -20.55662 -20.48635
 Alpha  occ. eigenvalues --  -15.50736 -11.40821 -11.30240 -11.26512 -11.25250
 Alpha  occ. eigenvalues --  -11.25183  -6.84425  -4.38363  -4.37491  -4.36935
 Alpha  occ. eigenvalues --   -1.55703  -1.48427  -1.46406  -1.36750  -1.21394
 Alpha  occ. eigenvalues --   -1.08099  -1.01034  -0.97678  -0.87913  -0.81398
 Alpha  occ. eigenvalues --   -0.78445  -0.73770  -0.72375  -0.70526  -0.66694
 Alpha  occ. eigenvalues --   -0.65808  -0.64248  -0.62869  -0.61946  -0.60414
 Alpha  occ. eigenvalues --   -0.59566  -0.57490  -0.56673  -0.56361  -0.52820
 Alpha  occ. eigenvalues --   -0.51929  -0.50977  -0.49141  -0.48423  -0.47930
 Alpha  occ. eigenvalues --   -0.44955  -0.43329  -0.40967
 Alpha virt. eigenvalues --    0.02900   0.03444   0.03845   0.03925   0.05158
 Alpha virt. eigenvalues --    0.05749   0.05948   0.06941   0.07206   0.08161
 Alpha virt. eigenvalues --    0.08741   0.09594   0.10142   0.11170   0.11924

 Mulliken charges:
               1
     1  H    0.390851
     2  O   -1.374989
     3  C    3.069455
     4  C   -1.919888
     5  O   -1.385691
     6  C   -0.369533
     7  N    0.477631
     8  H    0.155141
     9  C   -0.940141
    10  H    0.088619
    11  H    0.159694
    12  P    4.135221
    13  H    0.124824
    14  H    0.183031
    15  C   -0.991123
    16  O   -1.408612
    17  O   -1.672868
    18  H    0.160419
    19  H    0.066970
    20  H    0.145118
    21  H    0.338989
    22  H    0.257918
    23  H    0.308962
 Sum of Mulliken charges =  -0.00000

 Dipole moment (field-independent basis, Debye):
    X=              3.2928    Y=              2.2887    Z=              0.1231  Tot=              4.0120

 Test job not archived.
 1\1\GINC-SE059\SP\RHF\Aug-CC-pVDZ\C5H12N1O4P1\OHZDE\08-Apr-2025\0\\#t
 hf aug-cc-pvdz iop(5/13=1,5/36=2,99/5=2) pseudo=read geom=check guess=
 (read,tcheck) scf=(maxcycle=1)\\title\\0,1\H,0,3.94304,1.91924,-0.0228
 \O,0,3.21436,1.49151,-0.5204\C,0,2.98267,0.29937,0.09688\C,0,1.81725,-
 0.45702,-0.5398\O,0,3.62048,-0.08252,1.05702\C,0,0.49812,0.17487,-0.03
 92\N,0,1.83466,-1.88421,-0.25239\H,0,1.87591,-0.31219,-1.63057\C,0,-0.
 71554,-0.41429,-0.75708\H,0,0.54787,1.26447,-0.18169\H,0,0.41972,-0.00
 991,1.04483\P,0,-2.33623,-0.00298,-0.0417\H,0,-0.74667,-0.10278,-1.814

 Normal termination of Gaussian 16 at Tue Apr  8 17:34:35 2025.
