 Gaussian 16, Revision C.01,

 ----------------------------------------------------------------------
 #t hf aug-cc-pvdz symm=none int=(grid=ultrafine) guess=(read,tcheck) s
 table=(opt,rrhf)
 ----------------------------------------------------------------------
 -----
 title
 -----
 Symbolic Z-matrix:
 Charge =  0 Multiplicity = 1

 SCF Done:  E(RHF) =  -1667.16735860     A.U. after   12 cycles
 Normal termination of Gaussian 16 at Tue Apr  8 18:04:08 2025.
 Gaussian 16:  ES64L-G16RevC.01  3-Jul-2019

 ----------------------------------------------------------------------
 #t hf aug-cc-pvdz iop(5/13=1,5/36=2,99/5=2) pseudo=read geom=check gue
 ss=(read,tcheck) scf=(maxcycle=1)
 ----------------------------------------------------------------------
 -----
 title
 -----
 Structure from the checkpoint file:  "37Conf8_N_iprit_8_mol1.chk"
 Charge =  0 Multiplicity = 1

                         Standard orientation:
 ---------------------------------------------------------------------
 Center     Atomic      Atomic             Coordinates (Angstroms)
 Number     Number       Type             X           Y           Z
 ---------------------------------------------------------------------
      1          1           0        1.691080   -0.349603    1.645732
      2          6           0        0.961609   -1.118192    1.358952
      3          6           0        1.575188   -2.019293    0.286062
      4          7           0       -0.299900   -0.462061    1.064592
      5          1           0        0.841108   -1.796982    2.233542
      6         17           0        1.949749   -1.200124   -1.273738
      7          1           0        0.911627   -2.854222    0.030442
      8          1           0        2.520087   -2.432504    0.662162
      9          6           0       -1.239981   -1.234400    0.274962
     10          6           0       -0.335169    0.986349    1.026852
     11          6           0       -2.691241   -0.788208    0.368772
     12          1           0       -0.967721   -1.315870   -0.798748
     13          1           0       -1.220382   -2.265040    0.675882
     14          6           0        0.277622    1.715338   -0.178288
     15          1           0       -1.388228    1.298530    1.080842
     16          1           0        0.142652    1.368568    1.942852
     17         17           0       -3.119249    0.544162   -0.781138
     18          1           0       -3.354612   -1.617728    0.099452
     19          1           0       -2.943390   -0.435688    1.376562
     20         17           0        2.027402    2.102346    0.067082
     21          1           0        0.213481    1.116608   -1.093658
     22          1           0       -0.218897    2.680259   -0.338528
 ---------------------------------------------------------------------

 SCF Done:  E(RHF) =  -1667.70393849     A.U. after    2 cycles

 The electronic state is 1-A.
 Alpha  occ. eigenvalues -- -105.56275-105.55418-105.54441 -15.50107 -11.31716
 Alpha  occ. eigenvalues --  -11.31003 -11.29533 -11.28831 -11.28492 -11.27759
 Alpha  occ. eigenvalues --  -10.61099 -10.60249 -10.59274  -7.78036  -7.77683
 Alpha  occ. eigenvalues --   -7.77669  -7.77193  -7.76836  -7.76816  -7.76212
 Alpha  occ. eigenvalues --   -7.75860  -7.75842  -1.24976  -1.11931  -1.10947
 Alpha  occ. eigenvalues --   -1.09176  -1.00468  -0.99769  -0.93246  -0.87133
 Alpha  occ. eigenvalues --   -0.85190  -0.78332  -0.70973  -0.70493  -0.66227
 Alpha  occ. eigenvalues --   -0.63661  -0.62478  -0.61896  -0.60586  -0.58217
 Alpha  occ. eigenvalues --   -0.57150  -0.56725  -0.54861  -0.52341  -0.52061
 Alpha  occ. eigenvalues --   -0.50680  -0.45688  -0.45313  -0.45114  -0.44723
 Alpha  occ. eigenvalues --   -0.43807  -0.42460  -0.38388
 Alpha virt. eigenvalues --    0.02722   0.03472   0.03639   0.04663   0.05223
 Alpha virt. eigenvalues --    0.05495   0.05626   0.06460   0.07244   0.08879
 Alpha virt. eigenvalues --    0.09137   0.09932   0.10652   0.11449   0.11548

 Mulliken charges:
               1
     1  H   -0.019673
     2  C   -0.722707
     3  C   -0.319826
     4  N    1.838547
     5  H    0.173187
     6  Cl  -0.114242
     7  H    0.274524
     8  H    0.182165
     9  C   -0.441126
    10  C   -0.889639
    11  C   -0.503883
    12  H    0.081093
    13  H    0.032424
    14  C   -0.378365
    15  H    0.020626
    16  H    0.135675
    17  Cl  -0.070932
    18  H    0.134476
    19  H    0.243767
    20  Cl  -0.096797
    21  H    0.205233
    22  H    0.235473
 Sum of Mulliken charges =  -0.00000

 Dipole moment (field-independent basis, Debye):
    X=             -1.8102    Y=             -3.0229    Z=              2.5929  Tot=              4.3747

 Test job not archived.
 1\1\GINC-SE102\SP\RHF\Aug-CC-pVDZ\C6H12Cl3N1\OHZDE\08-Apr-2025\0\\#t h
 f aug-cc-pvdz iop(5/13=1,5/36=2,99/5=2) pseudo=read geom=check guess=(
 read,tcheck) scf=(maxcycle=1)\\title\\0,1\H,0,1.69108,-0.3496,1.64573\
 C,0,0.96161,-1.11819,1.35895\C,0,1.57519,-2.01929,0.28606\N,0,-0.2999,
 -0.46206,1.06459\H,0,0.84111,-1.79698,2.23354\Cl,0,1.94975,-1.20012,-1
 .27374\H,0,0.91163,-2.85422,0.03044\H,0,2.52009,-2.4325,0.66216\C,0,-1
 .23998,-1.2344,0.27496\C,0,-0.33517,0.98635,1.02685\C,0,-2.69124,-0.78
 821,0.36877\H,0,-0.96772,-1.31587,-0.79875\H,0,-1.22038,-2.26504,0.675

 Normal termination of Gaussian 16 at Tue Apr  8 18:04:25 2025.
