 Gaussian 16, Revision C.01,

 ----------------------------------------------------------------------
 #t hf aug-cc-pvdz symm=none int=(grid=ultrafine) guess=(read,tcheck) s
 table=(opt,rrhf)
 ----------------------------------------------------------------------
 -----
 title
 -----
 Symbolic Z-matrix:
 Charge =  0 Multiplicity = 1

 SCF Done:  E(RHF) =  -1374.23619522     A.U. after   14 cycles
 Normal termination of Gaussian 16 at Tue Apr  8 19:04:48 2025.
 Gaussian 16:  ES64L-G16RevC.01  3-Jul-2019

 ----------------------------------------------------------------------
 #t hf aug-cc-pvdz iop(5/13=1,5/36=2,99/5=2) pseudo=read geom=check gue
 ss=(read,tcheck) scf=(maxcycle=1)
 ----------------------------------------------------------------------
 -----
 title
 -----
 Structure from the checkpoint file:  "37Conf8_VX_8_mol1.chk"
 Charge =  0 Multiplicity = 1

                         Standard orientation:
 ---------------------------------------------------------------------
 Center     Atomic      Atomic             Coordinates (Angstroms)
 Number     Number       Type             X           Y           Z
 ---------------------------------------------------------------------
      1          1           0       -2.625840    0.789790   -1.872510
      2          6           0       -2.966580    1.506390   -1.106310
      3          6           0       -2.381650    2.881300   -1.350270
      4          8           0       -2.528370    1.051890    0.195280
      5          1           0       -4.069270    1.535310   -1.116200
      6          1           0       -2.728480    3.268960   -2.319080
      7          1           0       -1.284030    2.837500   -1.365720
      8          1           0       -2.690920    3.582510   -0.563400
      9         15           0       -2.474980   -0.518590    0.598160
     10          6           0       -4.174670   -1.120270    0.441340
     11         16           0       -1.471230   -1.558900   -0.942150
     12          8           0       -1.850750   -0.667930    1.938470
     13          1           0       -4.539090   -1.016490   -0.590120
     14          1           0       -4.206220   -2.176010    0.735840
     15          1           0       -4.808340   -0.529650    1.117180
     16          6           0        0.242100   -1.313530   -0.320830
     17          6           0        0.804270    0.080630   -0.649110
     18          1           0        0.821270   -2.109760   -0.809310
     19          1           0        0.223940   -1.503980    0.760850
     20          7           0        2.172100    0.321479   -0.213340
     21          1           0        0.758960    0.230550   -1.740240
     22          1           0        0.142260    0.837360   -0.209280
     23          6           0        3.162110   -0.454211   -1.000470
     24          6           0        2.386640    0.434249    1.243450
     25          6           0        4.246990    0.444299   -1.611910
     26          6           0        3.771740   -1.672981   -0.290950
     27          1           0        2.591540   -0.854111   -1.855720
     28          6           0        3.695340    1.171239    1.551870
     29          6           0        1.237580    1.177709    1.930440
     30          1           0        2.452630   -0.571251    1.713870
     31          1           0        4.844870   -0.122701   -2.342280
     32          1           0        3.782740    1.295749   -2.127600
     33          1           0        4.933520    0.842779   -0.854140
     34          1           0        4.384380   -2.245201   -1.002710
     35          1           0        2.996850   -2.345101    0.103830
     36          1           0        4.424480   -1.386631    0.545290
     37          1           0        3.682450    2.171649    1.094240
     38          1           0        4.583000    0.640019    1.188400
     39          1           0        3.804680    1.285379    2.640000
     40          1           0        1.083530    2.164169    1.465710
     41          1           0        0.286910    0.628340    1.920950
     42          1           0        1.503630    1.341099    2.984030
 ---------------------------------------------------------------------

 SCF Done:  E(RHF) =  -1375.02245390     A.U. after    2 cycles

 The electronic state is 1-A.
 Alpha  occ. eigenvalues --  -93.95496 -84.40741 -20.57460 -20.49277 -15.47641
 Alpha  occ. eigenvalues --  -11.31159 -11.27135 -11.26105 -11.26052 -11.25914
 Alpha  occ. eigenvalues --  -11.25380 -11.24230 -11.22429 -11.21727 -11.21442
 Alpha  occ. eigenvalues --  -11.20633  -8.23790  -6.86209  -6.21572  -6.21429
 Alpha  occ. eigenvalues --   -6.21227  -4.40127  -4.39211  -4.38645  -1.49066
 Alpha  occ. eigenvalues --   -1.37580  -1.21937  -1.08755  -1.05304  -1.04346
 Alpha  occ. eigenvalues --   -1.02358  -1.00408  -0.93678  -0.93041  -0.91639
 Alpha  occ. eigenvalues --   -0.86791  -0.84397  -0.82110  -0.76296  -0.73848
 Alpha  occ. eigenvalues --   -0.68320  -0.67116  -0.66806  -0.65871  -0.64199
 Alpha  occ. eigenvalues --   -0.62406  -0.61484  -0.60542  -0.59560  -0.58710
 Alpha  occ. eigenvalues --   -0.58011  -0.56666  -0.56034  -0.55362  -0.54989
 Alpha  occ. eigenvalues --   -0.54418  -0.53959  -0.53574  -0.52957  -0.51571
 Alpha  occ. eigenvalues --   -0.50901  -0.50414  -0.49748  -0.49249  -0.48033
 Alpha  occ. eigenvalues --   -0.47704  -0.46344  -0.46126  -0.45649  -0.44037
 Alpha  occ. eigenvalues --   -0.41256  -0.38951  -0.35989
 Alpha virt. eigenvalues --    0.02815   0.03171   0.03372   0.04041   0.04266
 Alpha virt. eigenvalues --    0.04381   0.04488   0.05231   0.05487   0.06291
 Alpha virt. eigenvalues --    0.06440   0.06503   0.07137   0.07567   0.08513

 Mulliken charges:
               1
     1  H    0.358109
     2  C    0.288633
     3  C   -0.456185
     4  O   -1.836483
     5  H    0.053967
     6  H    0.173582
     7  H    0.149825
     8  H    0.185079
     9  P    3.980806
    10  C   -0.969705
    11  S   -0.045425
    12  O   -1.805636
    13  H    0.161072
    14  H    0.098298
    15  H    0.148126
    16  C   -0.580378
    17  C   -1.236185
    18  H    0.154723
    19  H    0.322133
    20  N    2.219178
    21  H    0.032836
    22  H   -0.045464
    23  C   -1.555306
    24  C   -1.125961
    25  C   -0.173922
    26  C   -0.079087
    27  H    0.055723
    28  C   -0.373326
    29  C    0.000317
    30  H    0.022904
    31  H    0.169814
    32  H    0.204215
    33  H    0.139352
    34  H    0.023467
    35  H    0.168459
    36  H    0.222584
    37  H    0.259581
    38  H    0.206927
    39  H    0.093212
    40  H    0.317579
    41  H   -0.009579
    42  H    0.082142
 Sum of Mulliken charges =  -0.00000

 Dipole moment (field-independent basis, Debye):
    X=             -1.6854    Y=              0.2136    Z=             -3.2890  Tot=              3.7019

 Test job not archived.
 1\1\GINC-SE335\SP\RHF\Aug-CC-pVDZ\C11H26N1O2P1S1\OHZDE\08-Apr-2025\0\\
 #t hf aug-cc-pvdz iop(5/13=1,5/36=2,99/5=2) pseudo=read geom=check gue
 ss=(read,tcheck) scf=(maxcycle=1)\\title\\0,1\H,0,-2.62584,0.78979,-1.
 87251\C,0,-2.96658,1.50639,-1.10631\C,0,-2.38165,2.8813,-1.35027\O,0,-
 2.52837,1.05189,0.19528\H,0,-4.06927,1.53531,-1.1162\H,0,-2.72848,3.26
 896,-2.31908\H,0,-1.28403,2.8375,-1.36572\H,0,-2.69092,3.58251,-0.5634
 \P,0,-2.47498,-0.51859,0.59816\C,0,-4.17467,-1.12027,0.44134\S,0,-1.47
 123,-1.5589,-0.94215\O,0,-1.85075,-0.66793,1.93847\H,0,-4.53909,-1.016

 Normal termination of Gaussian 16 at Tue Apr  8 19:06:09 2025.
