 Gaussian 16, Revision C.01,

 ----------------------------------------------------------------------
 #t hf aug-cc-pvdz symm=none int=(grid=ultrafine) guess=(read,tcheck) s
 table=(opt,rrhf)
 ----------------------------------------------------------------------
 -----
 title
 -----
 Symbolic Z-matrix:
 Charge =  0 Multiplicity = 1

 SCF Done:  E(RHF) =  -891.124605003     A.U. after   14 cycles
 Normal termination of Gaussian 16 at Tue Apr  8 17:29:59 2025.
 Gaussian 16:  ES64L-G16RevC.01  3-Jul-2019

 ----------------------------------------------------------------------
 #t hf aug-cc-pvdz iop(5/13=1,5/36=2,99/5=2) pseudo=read geom=check gue
 ss=(read,tcheck) scf=(maxcycle=1)
 ----------------------------------------------------------------------
 -----
 title
 -----
 Structure from the checkpoint file:  "37Conf8_Glufosinate_2_mol1.chk"
 Charge =  0 Multiplicity = 1

                         Standard orientation:
 ---------------------------------------------------------------------
 Center     Atomic      Atomic             Coordinates (Angstroms)
 Number     Number       Type             X           Y           Z
 ---------------------------------------------------------------------
      1          1           0       -4.299780    1.108482    0.211600
      2          8           0       -3.337570    1.187062    0.380400
      3          6           0       -2.798920   -0.015948    0.058530
      4          6           0       -1.291430   -0.044839    0.268420
      5          8           0       -3.462451   -0.950198   -0.347650
      6          6           0       -0.597950    1.022761   -0.613020
      7          7           0       -0.787921   -1.403059   -0.004360
      8          1           0       -1.112050    0.220021    1.324290
      9          6           0        0.824760    1.393180   -0.162930
     10          1           0       -0.575980    0.637351   -1.644260
     11          1           0       -1.210129    1.935691   -0.617160
     12         15           0        1.929860   -0.042150    0.143250
     13          1           0        1.283781    2.039550   -0.927330
     14          1           0        0.792861    1.964910    0.777960
     15          6           0        3.624460    0.506469   -0.164490
     16          8           0        1.659619   -1.027290   -1.102650
     17          8           0        1.693819   -0.623450    1.503050
     18          1           0        3.744390    0.863689   -1.195340
     19          1           0        4.293200   -0.347252    0.007290
     20          1           0        3.882800    1.305579    0.542540
     21          1           0        0.706979   -1.354010   -0.943390
     22          1           0       -1.578801   -1.995179   -0.278000
     23          1           0       -0.352581   -1.783879    0.839340
 ---------------------------------------------------------------------

 SCF Done:  E(RHF) =  -891.732453646     A.U. after    2 cycles

 The electronic state is 1-A.
 Alpha  occ. eigenvalues --  -84.37776 -20.62246 -20.56195 -20.55245 -20.47807
 Alpha  occ. eigenvalues --  -15.51381 -11.41567 -11.30555 -11.26514 -11.25530
 Alpha  occ. eigenvalues --  -11.24739  -6.83457  -4.37417  -4.36520  -4.36066
 Alpha  occ. eigenvalues --   -1.56377  -1.47101  -1.46175  -1.35792  -1.21711
 Alpha  occ. eigenvalues --   -1.08060  -1.00631  -0.97945  -0.87672  -0.81801
 Alpha  occ. eigenvalues --   -0.76278  -0.75420  -0.73356  -0.70100  -0.67033
 Alpha  occ. eigenvalues --   -0.65656  -0.65079  -0.62042  -0.60891  -0.59786
 Alpha  occ. eigenvalues --   -0.58508  -0.57854  -0.56854  -0.55619  -0.53688
 Alpha  occ. eigenvalues --   -0.52527  -0.50204  -0.49465  -0.47124  -0.46856
 Alpha  occ. eigenvalues --   -0.45715  -0.42572  -0.40269
 Alpha virt. eigenvalues --    0.03045   0.03264   0.04236   0.04415   0.05010
 Alpha virt. eigenvalues --    0.05931   0.06363   0.06625   0.07301   0.08288
 Alpha virt. eigenvalues --    0.08843   0.09518   0.11084   0.11604   0.12460

 Mulliken charges:
               1
     1  H    0.417385
     2  O   -1.407253
     3  C    2.933563
     4  C   -1.780801
     5  O   -1.358107
     6  C   -0.282347
     7  N    0.196016
     8  H    0.218823
     9  C   -0.801080
    10  H    0.191763
    11  H    0.128902
    12  P    4.246614
    13  H    0.094837
    14  H    0.142932
    15  C   -1.149426
    16  O   -1.683954
    17  O   -1.716161
    18  H    0.156379
    19  H    0.108414
    20  H    0.148176
    21  H    0.633508
    22  H    0.291754
    23  H    0.270066
 Sum of Mulliken charges =   0.00000

 Dipole moment (field-independent basis, Debye):
    X=             -1.2738    Y=              3.5339    Z=             -1.2785  Tot=              3.9680

 Test job not archived.
 1\1\GINC-SE461\SP\RHF\Aug-CC-pVDZ\C5H12N1O4P1\OHZDE\08-Apr-2025\0\\#t
 hf aug-cc-pvdz iop(5/13=1,5/36=2,99/5=2) pseudo=read geom=check guess=
 (read,tcheck) scf=(maxcycle=1)\\title\\0,1\H,0,-4.29978,1.10848,0.2116
 \O,0,-3.33757,1.18706,0.3804\C,0,-2.79892,-0.01595,0.05853\C,0,-1.2914
 3,-0.04484,0.26842\O,0,-3.46245,-0.9502,-0.34765\C,0,-0.59795,1.02276,
 -0.61302\N,0,-0.78792,-1.40306,-0.00436\H,0,-1.11205,0.22002,1.32429\C
 ,0,0.82476,1.39318,-0.16293\H,0,-0.57598,0.63735,-1.64426\H,0,-1.21013
 ,1.93569,-0.61716\P,0,1.92986,-0.04215,0.14325\H,0,1.28378,2.03955,-0.

 Normal termination of Gaussian 16 at Tue Apr  8 17:30:15 2025.
