 Gaussian 16, Revision C.01,

 ----------------------------------------------------------------------
 #t hf aug-cc-pvdz symm=none int=(grid=ultrafine) guess=(read,tcheck) s
 table=(opt,rrhf)
 ----------------------------------------------------------------------
 -----
 title
 -----
 Symbolic Z-matrix:
 Charge =  0 Multiplicity = 1

 SCF Done:  E(RHF) =  -1673.89510137     A.U. after   17 cycles
 Normal termination of Gaussian 16 at Tue Apr  8 18:46:23 2025.
 Gaussian 16:  ES64L-G16RevC.01  3-Jul-2019

 ----------------------------------------------------------------------
 #t hf aug-cc-pvdz iop(5/13=1,5/36=2,99/5=2) pseudo=read geom=check gue
 ss=(read,tcheck) scf=(maxcycle=1)
 ----------------------------------------------------------------------
 -----
 title
 -----
 Structure from the checkpoint file:  "37Conf8_Pantoprazole_3_mol1.chk"
 Charge =  0 Multiplicity = 1

                         Standard orientation:
 ---------------------------------------------------------------------
 Center     Atomic      Atomic             Coordinates (Angstroms)
 Number     Number       Type             X           Y           Z
 ---------------------------------------------------------------------
      1          1           0       -4.939500    2.739069    0.728331
      2          6           0       -4.440330    1.863889    0.315001
      3          6           0       -5.154289    0.678929    0.123051
      4          6           0       -3.083220    1.885119   -0.018659
      5          1           0       -6.218249    0.643018    0.374901
      6          7           0       -4.624079   -0.445441   -0.357349
      7          8           0       -2.255430    2.948840    0.145621
      8          6           0       -2.505889    0.707399   -0.548569
      9          6           0       -3.317629   -0.429691   -0.690489
     10          6           0       -2.818030    4.139569    0.699571
     11          8           0       -1.172479    0.619750   -0.842459
     12          6           0       -2.766379   -1.716551   -1.205169
     13          1           0       -3.617230    4.540639    0.055931
     14          1           0       -1.993980    4.858960    0.753771
     15          1           0       -3.216420    3.957589    1.710401
     16          6           0       -0.681029    1.457810   -1.903229
     17         16           0       -2.054548   -2.798740    0.172401
     18          1           0       -1.936839   -1.611560   -1.916309
     19          1           0       -3.580738   -2.322801   -1.618789
     20          6           0       -0.430889   -2.024530    0.177891
     21          8           0       -2.651108   -2.395401    1.490921
     22          7           0        0.482721   -2.060940   -0.767109
     23          7           0       -0.077459   -1.314810    1.290391
     24          6           0        1.511461   -1.276779   -0.263429
     25          1           0       -0.712919   -1.157220    2.069461
     26          6           0        1.174451   -0.789840    1.034511
     27          6           0        2.739131   -0.936959   -0.842069
     28          6           0        2.027511    0.039111    1.759551
     29          1           0        3.033261   -1.303479   -1.824889
     30          6           0        3.581021   -0.105079   -0.111409
     31          1           0        1.762851    0.423691    2.744861
     32          6           0        3.238881    0.390171    1.163971
     33          8           0        4.777881    0.247421   -0.741069
     34          1           0        3.910251    1.078771    1.675101
     35          6           0        5.878391    0.435002    0.054361
     36          9           0        6.972341    0.223482   -0.718729
     37          9           0        5.952850    1.740822    0.497531
     38          1           0        5.899571   -0.227098    0.936361
     39          1           0       -1.240859    1.266560   -2.832999
     40          1           0        0.367941    1.171190   -2.040139
     41          1           0       -0.749260    2.521810   -1.638569
 ---------------------------------------------------------------------

 SCF Done:  E(RHF) =  -1675.20569292     A.U. after    2 cycles

 The electronic state is 1-A.
 Alpha  occ. eigenvalues --  -94.09487 -26.48713 -26.48172 -20.60303 -20.60253
 Alpha  occ. eigenvalues --  -20.57470 -20.51593 -15.57015 -15.51136 -15.50924
 Alpha  occ. eigenvalues --  -11.48297 -11.34909 -11.34224 -11.32283 -11.32026
 Alpha  occ. eigenvalues --  -11.31432 -11.30217 -11.29669 -11.29307 -11.29240
 Alpha  occ. eigenvalues --  -11.29083 -11.28197 -11.26886 -11.26074 -11.26016
 Alpha  occ. eigenvalues --  -11.25541  -8.36235  -6.34057  -6.33932  -6.33719
 Alpha  occ. eigenvalues --   -1.66334  -1.58205  -1.52885  -1.52246  -1.49308
 Alpha  occ. eigenvalues --   -1.45170  -1.35568  -1.26754  -1.19978  -1.15721
 Alpha  occ. eigenvalues --   -1.10393  -1.09475  -1.05169  -1.03983  -1.01268
 Alpha  occ. eigenvalues --   -0.98712  -0.95908  -0.94882  -0.92884  -0.88191
 Alpha  occ. eigenvalues --   -0.86990  -0.86091  -0.85634  -0.82793  -0.79844
 Alpha  occ. eigenvalues --   -0.77803  -0.77219  -0.76121  -0.75641  -0.74403
 Alpha  occ. eigenvalues --   -0.70731  -0.70024  -0.68534  -0.68310  -0.67041
 Alpha  occ. eigenvalues --   -0.65997  -0.65179  -0.64936  -0.64291  -0.64100
 Alpha  occ. eigenvalues --   -0.64025  -0.63700  -0.63073  -0.62581  -0.62282
 Alpha  occ. eigenvalues --   -0.61474  -0.60692  -0.58520  -0.58046  -0.57911
 Alpha  occ. eigenvalues --   -0.57024  -0.56292  -0.55371  -0.54595  -0.53801
 Alpha  occ. eigenvalues --   -0.53184  -0.51966  -0.51504  -0.49664  -0.48601
 Alpha  occ. eigenvalues --   -0.48468  -0.47694  -0.44986  -0.43992  -0.39771
 Alpha  occ. eigenvalues --   -0.37853  -0.34916  -0.34029  -0.32484
 Alpha virt. eigenvalues --    0.02216   0.02740   0.03048   0.03530   0.04193
 Alpha virt. eigenvalues --    0.04530   0.04780   0.04844   0.05658   0.05802
 Alpha virt. eigenvalues --    0.06155   0.06666   0.07384   0.07797   0.07971

 Mulliken charges:
               1
     1  H   -0.363646
     2  C    1.162704
     3  C   -1.030338
     4  C    1.917132
     5  H   -0.249386
     6  N    1.786583
     7  O   -2.119095
     8  C    2.031566
     9  C   -1.657028
    10  C    0.100494
    11  O   -1.738688
    12  C   -0.654621
    13  H    0.199343
    14  H   -0.014636
    15  H    0.186653
    16  C   -0.024599
    17  S    2.159723
    18  H    0.300953
    19  H    0.035229
    20  C   -3.261996
    21  O   -1.636682
    22  N    1.694112
    23  N    1.567552
    24  C   -1.066725
    25  H    0.017859
    26  C   -0.830786
    27  C    0.574737
    28  C    0.769468
    29  H   -0.232084
    30  C    1.805614
    31  H   -0.328153
    32  C    0.300452
    33  O   -1.938477
    34  H   -0.306402
    35  C    1.913815
    36  F   -0.729533
    37  F   -0.725979
    38  H    0.075649
    39  H    0.205779
    40  H   -0.033904
    41  H    0.137339
 Sum of Mulliken charges =  -0.00000

 Dipole moment (field-independent basis, Debye):
    X=             -2.6083    Y=              5.0706    Z=              1.1126  Tot=              5.8097

 Test job not archived.
 1\1\GINC-SE088\SP\RHF\Aug-CC-pVDZ\C16H15F2N3O4S1\OHZDE\08-Apr-2025\0\\
 #t hf aug-cc-pvdz iop(5/13=1,5/36=2,99/5=2) pseudo=read geom=check gue
 ss=(read,tcheck) scf=(maxcycle=1)\\title\\0,1\H,0,-4.9395,2.73907,0.72
 833\C,0,-4.44033,1.86389,0.315\C,0,-5.15429,0.67893,0.12305\C,0,-3.083
 22,1.88512,-0.01866\H,0,-6.21825,0.64302,0.3749\N,0,-4.62408,-0.44544,
 -0.35735\O,0,-2.25543,2.94884,0.14562\C,0,-2.50589,0.7074,-0.54857\C,0
 ,-3.31763,-0.42969,-0.69049\C,0,-2.81803,4.13957,0.69957\O,0,-1.17248,
 0.61975,-0.84246\C,0,-2.76638,-1.71655,-1.20517\H,0,-3.61723,4.54064,0

 Normal termination of Gaussian 16 at Tue Apr  8 18:48:25 2025.
