 Gaussian 16, Revision C.01,

 ----------------------------------------------------------------------
 #t hf aug-cc-pvdz symm=none int=(grid=ultrafine) guess=(read,tcheck) s
 table=(opt,rrhf)
 ----------------------------------------------------------------------
 -----
 title
 -----
 Symbolic Z-matrix:
 Charge =  0 Multiplicity = 1

 SCF Done:  E(RHF) =  -1673.89622838     A.U. after   17 cycles
 Normal termination of Gaussian 16 at Tue Apr  8 18:39:02 2025.
 Gaussian 16:  ES64L-G16RevC.01  3-Jul-2019

 ----------------------------------------------------------------------
 #t hf aug-cc-pvdz iop(5/13=1,5/36=2,99/5=2) pseudo=read geom=check gue
 ss=(read,tcheck) scf=(maxcycle=1)
 ----------------------------------------------------------------------
 -----
 title
 -----
 Structure from the checkpoint file:  "37Conf8_Pantoprazole_4_mol1.chk"
 Charge =  0 Multiplicity = 1

                         Standard orientation:
 ---------------------------------------------------------------------
 Center     Atomic      Atomic             Coordinates (Angstroms)
 Number     Number       Type             X           Y           Z
 ---------------------------------------------------------------------
      1          1           0       -6.844979    1.837219   -0.324669
      2          6           0       -5.786219    1.608339   -0.197449
      3          6           0       -4.789169    2.466619   -0.656459
      4          6           0       -5.416999    0.409019    0.414431
      5          1           0       -5.055580    3.409609   -1.141969
      6          7           0       -3.482159    2.200289   -0.559679
      7          8           0       -6.404459   -0.428081    0.855821
      8          6           0       -4.041049    0.144199    0.586941
      9          6           0       -3.115579    1.064039    0.056911
     10          6           0       -6.355629   -1.777471    0.348181
     11          8           0       -3.581879   -0.982861    1.226881
     12          6           0       -1.650239    0.780740    0.121971
     13          1           0       -6.453969   -1.768371   -0.748359
     14          1           0       -5.422359   -2.286941    0.624561
     15          1           0       -7.216129   -2.290751    0.791431
     16          6           0       -3.920579   -1.046411    2.625691
     17         16           0       -1.080919    0.195900   -1.556669
     18          1           0       -1.061759    1.691020    0.300511
     19          1           0       -1.396119   -0.014920    0.830861
     20          6           0        0.615801   -0.092950   -1.020659
     21          8           0       -1.622749   -1.186100   -1.797389
     22          7           0        1.513321    0.785710   -0.627179
     23          7           0        1.070501   -1.382650   -1.076929
     24          6           0        2.649171    0.022150   -0.391799
     25          1           0        0.480881   -2.166930   -1.347359
     26          6           0        2.391381   -1.349910   -0.668479
     27          6           0        3.910121    0.428981    0.069601
     28          6           0        3.365441   -2.336459   -0.501989
     29          1           0        4.091681    1.470391    0.330301
     30          6           0        4.876611   -0.562019    0.213631
     31          1           0        3.168602   -3.388349   -0.710619
     32          6           0        4.616561   -1.920439   -0.062249
     33          8           0        6.170291   -0.303419    0.663391
     34          1           0        5.425942   -2.636459    0.078171
     35          6           0        6.673841    0.956431    0.452511
     36          9           0        8.024501    0.856201    0.508381
     37          9           0        6.292321    1.816191    1.458871
     38          1           0        6.361991    1.394011   -0.511039
     39          1           0       -5.010049   -1.034491    2.779191
     40          1           0       -3.500469   -1.988831    2.995501
     41          1           0       -3.466459   -0.201051    3.167171
 ---------------------------------------------------------------------

 SCF Done:  E(RHF) =  -1675.20813757     A.U. after    2 cycles

 The electronic state is 1-A.
 Alpha  occ. eigenvalues --  -94.09736 -26.48829 -26.48276 -20.60590 -20.58805
 Alpha  occ. eigenvalues --  -20.58416 -20.51938 -15.57768 -15.51873 -15.51715
 Alpha  occ. eigenvalues --  -11.48403 -11.35360 -11.33656 -11.32716 -11.32004
 Alpha  occ. eigenvalues --  -11.30815 -11.30640 -11.30572 -11.29465 -11.29447
 Alpha  occ. eigenvalues --  -11.29346 -11.28638 -11.27233 -11.26125 -11.26042
 Alpha  occ. eigenvalues --  -11.25990  -8.36494  -6.34305  -6.34188  -6.33963
 Alpha  occ. eigenvalues --   -1.66710  -1.58437  -1.52540  -1.51530  -1.49474
 Alpha  occ. eigenvalues --   -1.45475  -1.36108  -1.27327  -1.20544  -1.16106
 Alpha  occ. eigenvalues --   -1.10956  -1.09506  -1.05644  -1.03935  -1.01874
 Alpha  occ. eigenvalues --   -0.97268  -0.96537  -0.94924  -0.93252  -0.88342
 Alpha  occ. eigenvalues --   -0.87119  -0.86708  -0.85919  -0.83498  -0.80138
 Alpha  occ. eigenvalues --   -0.78257  -0.77608  -0.75769  -0.75673  -0.73452
 Alpha  occ. eigenvalues --   -0.71901  -0.70924  -0.67672  -0.67356  -0.66642
 Alpha  occ. eigenvalues --   -0.66274  -0.66146  -0.65500  -0.64987  -0.64153
 Alpha  occ. eigenvalues --   -0.64065  -0.63260  -0.63069  -0.62601  -0.62042
 Alpha  occ. eigenvalues --   -0.61300  -0.60730  -0.60302  -0.58824  -0.57543
 Alpha  occ. eigenvalues --   -0.56972  -0.56498  -0.55761  -0.54510  -0.53698
 Alpha  occ. eigenvalues --   -0.53484  -0.52978  -0.50922  -0.50216  -0.49047
 Alpha  occ. eigenvalues --   -0.48241  -0.47652  -0.44823  -0.44350  -0.40000
 Alpha  occ. eigenvalues --   -0.38734  -0.35594  -0.34770  -0.32529
 Alpha virt. eigenvalues --    0.02709   0.02938   0.03260   0.03446   0.04065
 Alpha virt. eigenvalues --    0.04411   0.04770   0.04910   0.05106   0.05530
 Alpha virt. eigenvalues --    0.05746   0.06792   0.06924   0.07351   0.07778

 Mulliken charges:
               1
     1  H   -0.250663
     2  C    0.874514
     3  C   -1.013489
     4  C    1.081084
     5  H   -0.243052
     6  N    1.899912
     7  O   -1.940407
     8  C    2.893773
     9  C   -2.568065
    10  C    0.021736
    11  O   -2.053766
    12  C    0.210732
    13  H    0.156120
    14  H    0.202827
    15  H    0.030329
    16  C   -0.016875
    17  S    2.614927
    18  H    0.265128
    19  H    0.094661
    20  C   -2.951025
    21  O   -1.698085
    22  N    1.567384
    23  N    1.163172
    24  C   -2.083532
    25  H    0.030040
    26  C   -0.483262
    27  C    1.173625
    28  C    1.165806
    29  H   -0.282071
    30  C    1.344307
    31  H   -0.271297
    32  C    0.117941
    33  O   -1.928749
    34  H   -0.301019
    35  C    2.560273
    36  F   -1.011151
    37  F   -0.696730
    38  H   -0.082486
    39  H    0.171934
    40  H    0.066490
    41  H    0.169008
 Sum of Mulliken charges =  -0.00000

 Dipole moment (field-independent basis, Debye):
    X=             -4.7303    Y=             -3.0865    Z=              1.0470  Tot=              5.7444

 Test job not archived.
 1\1\GINC-SE393\SP\RHF\Aug-CC-pVDZ\C16H15F2N3O4S1\OHZDE\08-Apr-2025\0\\
 #t hf aug-cc-pvdz iop(5/13=1,5/36=2,99/5=2) pseudo=read geom=check gue
 ss=(read,tcheck) scf=(maxcycle=1)\\title\\0,1\H,0,-6.84498,1.83722,-0.
 32467\C,0,-5.78622,1.60834,-0.19745\C,0,-4.78917,2.46662,-0.65646\C,0,
 -5.417,0.40902,0.41443\H,0,-5.05558,3.40961,-1.14197\N,0,-3.48216,2.20
 029,-0.55968\O,0,-6.40446,-0.42808,0.85582\C,0,-4.04105,0.1442,0.58694
 \C,0,-3.11558,1.06404,0.05691\C,0,-6.35563,-1.77747,0.34818\O,0,-3.581
 88,-0.98286,1.22688\C,0,-1.65024,0.78074,0.12197\H,0,-6.45397,-1.76837

 Normal termination of Gaussian 16 at Tue Apr  8 18:40:42 2025.
