 Gaussian 16, Revision C.01,

 ----------------------------------------------------------------------
 #t hf aug-cc-pvdz symm=none int=(grid=ultrafine) guess=(read,tcheck) s
 table=(opt,rrhf)
 ----------------------------------------------------------------------
 -----
 title
 -----
 Symbolic Z-matrix:
 Charge =  0 Multiplicity = 1

 SCF Done:  E(RHF) =  -1542.36740831     A.U. after   17 cycles
 Normal termination of Gaussian 16 at Tue Apr  8 18:16:20 2025.
 Gaussian 16:  ES64L-G16RevC.01  3-Jul-2019

 ----------------------------------------------------------------------
 #t hf aug-cc-pvdz iop(5/13=1,5/36=2,99/5=2) pseudo=read geom=check gue
 ss=(read,tcheck) scf=(maxcycle=1)
 ----------------------------------------------------------------------
 -----
 title
 -----
 Structure from the checkpoint file:  "37Conf8_Indometacin_2_mol1.chk"
 Charge =  0 Multiplicity = 1

                         Standard orientation:
 ---------------------------------------------------------------------
 Center     Atomic      Atomic             Coordinates (Angstroms)
 Number     Number       Type             X           Y           Z
 ---------------------------------------------------------------------
      1          1           0       -0.859051    4.266821   -1.435110
      2          8           0       -0.695911    3.783461   -0.598410
      3          6           0       -1.930151    3.438870   -0.127110
      4          6           0       -1.828391    2.631200    1.155450
      5          8           0       -2.957581    3.739300   -0.696300
      6          6           0       -1.376081    1.230210    0.879010
      7          1           0       -2.825641    2.632200    1.615130
      8          1           0       -1.126211    3.139670    1.832120
      9          6           0       -2.230581    0.168500    0.403820
     10          6           0       -0.109001    0.721261    1.049390
     11          6           0       -3.577661    0.133540    0.038850
     12          6           0       -1.441580   -1.006170    0.340360
     13          7           0       -0.123041   -0.649829    0.698250
     14          6           0        1.069319    1.403581    1.656560
     15          1           0       -4.202011    1.027710    0.047840
     16          6           0       -4.124730   -1.086340   -0.375660
     17          6           0       -1.979390   -2.219900   -0.073620
     18          6           0        0.949480   -1.562089    0.684510
     19          1           0        1.756699    1.825661    0.909250
     20          1           0        0.719909    2.234041    2.284510
     21          1           0        1.654319    0.722391    2.288950
     22          8           0       -5.452110   -1.054120   -0.712720
     23          6           0       -3.330970   -2.249940   -0.430380
     24          1           0       -1.377060   -3.125120   -0.097000
     25          6           0        2.291220   -1.040439    0.298980
     26          8           0        0.767040   -2.755849    0.893690
     27          6           0       -6.049470   -2.265610   -1.157190
     28          1           0       -3.764360   -3.197590   -0.744650
     29          6           0        3.430220   -1.634639    0.860620
     30          6           0        2.445009   -0.076599   -0.707680
     31          1           0       -5.561330   -2.647800   -2.069850
     32          1           0       -7.093920   -2.019750   -1.380640
     33          1           0       -6.017490   -3.044640   -0.376550
     34          1           0        3.301030   -2.411379    1.615370
     35          6           0        4.703720   -1.244849    0.460190
     36          1           0        1.562989    0.368721   -1.171010
     37          6           0        3.714339    0.302451   -1.137850
     38          1           0        5.593210   -1.688639    0.906470
     39          6           0        4.835969   -0.276209   -0.539720
     40          1           0        3.840409    1.038221   -1.931600
     41         17           0        6.423569    0.207351   -1.055430
 ---------------------------------------------------------------------

 SCF Done:  E(RHF) =  -1543.52098519     A.U. after    2 cycles

 The electronic state is 1-A.
 Alpha  occ. eigenvalues -- -105.58946 -20.60919 -20.56666 -20.54718 -20.54540
 Alpha  occ. eigenvalues --  -15.56794 -11.40448 -11.39362 -11.33601 -11.30547
 Alpha  occ. eigenvalues --  -11.30306 -11.29354 -11.28469 -11.28133 -11.27887
 Alpha  occ. eigenvalues --  -11.27766 -11.27666 -11.27529 -11.27310 -11.26092
 Alpha  occ. eigenvalues --  -11.25251 -11.24913 -11.24851 -11.23970 -11.23586
 Alpha  occ. eigenvalues --  -10.63770  -7.80741  -7.80330  -7.80318  -1.54776
 Alpha  occ. eigenvalues --   -1.48798  -1.48450  -1.45449  -1.31142  -1.20632
 Alpha  occ. eigenvalues --   -1.15149  -1.12550  -1.11654  -1.05495  -1.04523
 Alpha  occ. eigenvalues --   -1.03807  -1.02754  -1.01120  -0.95337  -0.94339
 Alpha  occ. eigenvalues --   -0.89779  -0.87828  -0.85392  -0.84172  -0.82626
 Alpha  occ. eigenvalues --   -0.80029  -0.78346  -0.74734  -0.72077  -0.71122
 Alpha  occ. eigenvalues --   -0.70361  -0.69273  -0.68729  -0.68182  -0.67492
 Alpha  occ. eigenvalues --   -0.65897  -0.65564  -0.64906  -0.64218  -0.63534
 Alpha  occ. eigenvalues --   -0.62345  -0.61670  -0.60742  -0.59808  -0.59161
 Alpha  occ. eigenvalues --   -0.58758  -0.58028  -0.57853  -0.56756  -0.56237
 Alpha  occ. eigenvalues --   -0.55479  -0.54952  -0.54635  -0.53521  -0.51773
 Alpha  occ. eigenvalues --   -0.51137  -0.49161  -0.48654  -0.48134  -0.47984
 Alpha  occ. eigenvalues --   -0.45930  -0.45246  -0.44855  -0.39872  -0.37963
 Alpha  occ. eigenvalues --   -0.36383  -0.30726  -0.30486
 Alpha virt. eigenvalues --    0.02584   0.02866   0.03256   0.03625   0.04037
 Alpha virt. eigenvalues --    0.04264   0.04566   0.04795   0.05042   0.05332
 Alpha virt. eigenvalues --    0.06269   0.06673   0.06869   0.07466   0.07874

 Mulliken charges:
               1
     1  H    0.437883
     2  O   -1.435277
     3  C    2.854439
     4  C   -0.641388
     5  O   -1.362019
     6  C    0.862311
     7  H    0.149056
     8  H    0.224352
     9  C    0.601121
    10  C   -2.411924
    11  C    0.899145
    12  C   -1.253572
    13  N    2.296471
    14  C   -0.439013
    15  H   -0.361868
    16  C    1.578664
    17  C    0.605896
    18  C   -0.943080
    19  H    0.401175
    20  H    0.103809
    21  H    0.324543
    22  O   -2.031607
    23  C   -0.156519
    24  H   -0.368216
    25  C    2.124559
    26  O   -1.404045
    27  C    0.079048
    28  H   -0.448973
    29  C   -0.351789
    30  C    0.600876
    31  H    0.202825
    32  H   -0.043722
    33  H    0.199306
    34  H   -0.363562
    35  C    0.518888
    36  H   -0.383861
    37  C    0.212645
    38  H   -0.179085
    39  C   -0.201259
    40  H   -0.194930
    41  Cl  -0.301302
 Sum of Mulliken charges =  -0.00000

 Dipole moment (field-independent basis, Debye):
    X=              1.9484    Y=              0.7272    Z=              0.4568  Tot=              2.1292

 Test job not archived.
 1\1\GINC-SE366\SP\RHF\Aug-CC-pVDZ\C19H16Cl1N1O4\OHZDE\08-Apr-2025\0\\#
 t hf aug-cc-pvdz iop(5/13=1,5/36=2,99/5=2) pseudo=read geom=check gues
 s=(read,tcheck) scf=(maxcycle=1)\\title\\0,1\H,0,-0.85905,4.26682,-1.4
 3511\O,0,-0.69591,3.78346,-0.59841\C,0,-1.93015,3.43887,-0.12711\C,0,-
 1.82839,2.6312,1.15545\O,0,-2.95758,3.7393,-0.6963\C,0,-1.37608,1.2302
 1,0.87901\H,0,-2.82564,2.6322,1.61513\H,0,-1.12621,3.13967,1.83212\C,0
 ,-2.23058,0.1685,0.40382\C,0,-0.109,0.72126,1.04939\C,0,-3.57766,0.133
 54,0.03885\C,0,-1.44158,-1.00617,0.34036\N,0,-0.12304,-0.64983,0.69825

 Normal termination of Gaussian 16 at Tue Apr  8 18:17:57 2025.
