 Gaussian 16, Revision C.01,

 ----------------------------------------------------------------------
 #t hf aug-cc-pvdz symm=none int=(grid=ultrafine) guess=(read,tcheck) s
 table=(opt,rrhf)
 ----------------------------------------------------------------------
 -----
 title
 -----
 Symbolic Z-matrix:
 Charge =  0 Multiplicity = 1

 SCF Done:  E(RHF) =  -983.487013546     A.U. after   14 cycles
 Normal termination of Gaussian 16 at Tue Apr  8 19:04:42 2025.
 Gaussian 16:  ES64L-G16RevC.01  3-Jul-2019

 ----------------------------------------------------------------------
 #t hf aug-cc-pvdz iop(5/13=1,5/36=2,99/5=2) pseudo=read geom=check gue
 ss=(read,tcheck) scf=(maxcycle=1)
 ----------------------------------------------------------------------
 -----
 title
 -----
 Structure from the checkpoint file:  "37Conf8_Tsogoeva_8_mol1.chk"
 Charge =  0 Multiplicity = 1

                         Standard orientation:
 ---------------------------------------------------------------------
 Center     Atomic      Atomic             Coordinates (Angstroms)
 Number     Number       Type             X           Y           Z
 ---------------------------------------------------------------------
      1          1           0        6.588191   -1.998161   -0.014951
      2          8           0        5.681471   -1.980231   -0.387961
      3          6           0        5.194981   -0.729371   -0.134761
      4          6           0        3.736171   -0.618421   -0.569551
      5          8           0        5.844091    0.121849    0.440089
      6          1           0        3.589341   -1.231781   -1.470251
      7          7           0        2.864101   -1.124201    0.520969
      8          6           0        3.292221    0.851369   -0.744521
      9          1           0        3.269641   -1.921831    1.012709
     10          6           0        2.579571    0.031609    1.384379
     11          1           0        4.145662    1.515709   -0.557801
     12          1           0        2.905332    1.051679   -1.750361
     13          6           0        2.202892    1.077679    0.330539
     14          1           0        3.451601    0.381729    1.969309
     15          1           0        1.753381   -0.193601    2.072679
     16          1           0        2.193892    2.105139    0.713209
     17          7           0        0.866991    0.813940   -0.179251
     18          6           0       -0.144498    1.730980   -0.134841
     19          1           0        0.649031   -0.155230   -0.396741
     20          6           0       -1.529018    1.212270   -0.549731
     21          8           0        0.007062    2.894500    0.233109
     22          1           0       -2.007288    2.061870   -1.061271
     23          7           0       -1.588379    0.012520   -1.400831
     24          6           0       -2.334839    0.800060    0.719069
     25          1           0       -0.808189   -0.087850   -2.047341
     26          6           0       -1.880969   -1.155470   -0.565581
     27          1           0       -3.102558    1.534050    0.986309
     28          1           0       -1.659589    0.696170    1.580799
     29          6           0       -2.943529   -0.574410    0.369669
     30          1           0       -2.262699   -1.989130   -1.171771
     31          1           0       -1.025809   -1.531030    0.036469
     32          1           0       -3.131969   -1.182010    1.263229
     33          7           0       -4.210539   -0.459550   -0.330721
     34          6           0       -5.412699   -0.721300    0.267309
     35          1           0       -4.176529   -0.132450   -1.291831
     36          6           0       -6.631049   -0.526870   -0.617281
     37          8           0       -5.508159   -1.090770    1.436899
     38          1           0       -6.389939   -0.226150   -1.645991
     39          1           0       -7.201699   -1.464760   -0.640301
     40          1           0       -7.276179    0.237140   -0.162601
 ---------------------------------------------------------------------

 SCF Done:  E(RHF) =  -984.484998819     A.U. after    2 cycles

 The electronic state is 1-A.
 Alpha  occ. eigenvalues --  -20.61907 -20.55756 -20.50772 -20.50172 -15.52951
 Alpha  occ. eigenvalues --  -15.52623 -15.52116 -15.51087 -11.40962 -11.35871
 Alpha  occ. eigenvalues --  -11.35750 -11.30113 -11.28399 -11.28353 -11.28126
 Alpha  occ. eigenvalues --  -11.27907 -11.27562 -11.24979 -11.24956 -11.24790
 Alpha  occ. eigenvalues --   -1.55681  -1.46409  -1.44982  -1.44469  -1.27604
 Alpha  occ. eigenvalues --   -1.25998  -1.22874  -1.21411  -1.05670  -1.05483
 Alpha  occ. eigenvalues --   -1.03866  -1.01657  -0.99156  -0.90549  -0.88717
 Alpha  occ. eigenvalues --   -0.84950  -0.83967  -0.82726  -0.81543  -0.80229
 Alpha  occ. eigenvalues --   -0.75917  -0.74111  -0.72912  -0.71501  -0.70134
 Alpha  occ. eigenvalues --   -0.68909  -0.68342  -0.67592  -0.65255  -0.64248
 Alpha  occ. eigenvalues --   -0.63366  -0.62332  -0.61684  -0.60582  -0.59622
 Alpha  occ. eigenvalues --   -0.58734  -0.57878  -0.57095  -0.56700  -0.56309
 Alpha  occ. eigenvalues --   -0.55712  -0.54905  -0.53712  -0.52709  -0.52047
 Alpha  occ. eigenvalues --   -0.51849  -0.50717  -0.49442  -0.48970  -0.48502
 Alpha  occ. eigenvalues --   -0.44930  -0.42901  -0.41938  -0.41419  -0.41170
 Alpha  occ. eigenvalues --   -0.39708
 Alpha virt. eigenvalues --    0.02390   0.02877   0.03265   0.03524   0.03794
 Alpha virt. eigenvalues --    0.04444   0.04494   0.04794   0.05150   0.05374
 Alpha virt. eigenvalues --    0.05902   0.06572   0.07117   0.07181   0.08013

 Mulliken charges:
               1
     1  H    0.388433
     2  O   -1.375311
     3  C    2.364320
     4  C   -0.324673
     5  O   -1.296229
     6  H   -0.038598
     7  N    0.343642
     8  C    0.103535
     9  H    0.123922
    10  C    0.067255
    11  H    0.101875
    12  H    0.157597
    13  C   -1.687637
    14  H    0.076977
    15  H    0.036380
    16  H   -0.137235
    17  N    1.516483
    18  C    0.380728
    19  H    0.358687
    20  C   -0.391455
    21  O   -1.499936
    22  H    0.021351
    23  N    0.844269
    24  C   -0.009820
    25  H    0.089088
    26  C    0.087404
    27  H    0.120868
    28  H    0.113659
    29  C   -1.449710
    30  H    0.023737
    31  H    0.061408
    32  H   -0.037466
    33  N    1.273811
    34  C    0.718518
    35  H    0.252770
    36  C   -0.537576
    37  O   -1.401302
    38  H    0.064602
    39  H    0.245516
    40  H    0.250113
 Sum of Mulliken charges =  -0.00000

 Dipole moment (field-independent basis, Debye):
    X=              2.2539    Y=             -3.3717    Z=             -3.3833  Tot=              5.2815

 Test job not archived.
 1\1\GINC-SE403\SP\RHF\Aug-CC-pVDZ\C12H20N4O4\OHZDE\08-Apr-2025\0\\#t h
 f aug-cc-pvdz iop(5/13=1,5/36=2,99/5=2) pseudo=read geom=check guess=(
 read,tcheck) scf=(maxcycle=1)\\title\\0,1\H,0,6.58819,-1.99816,-0.0149
 5\O,0,5.68147,-1.98023,-0.38796\C,0,5.19498,-0.72937,-0.13476\C,0,3.73
 617,-0.61842,-0.56955\O,0,5.84409,0.12185,0.44009\H,0,3.58934,-1.23178
 ,-1.47025\N,0,2.8641,-1.1242,0.52097\C,0,3.29222,0.85137,-0.74452\H,0,
 3.26964,-1.92183,1.01271\C,0,2.57957,0.03161,1.38438\H,0,4.14566,1.515
 71,-0.5578\H,0,2.90533,1.05168,-1.75036\C,0,2.20289,1.07768,0.33054\H,

 Normal termination of Gaussian 16 at Tue Apr  8 19:06:01 2025.
