 Gaussian 16, Revision C.01,

 ----------------------------------------------------------------------
 #t hf aug-cc-pvdz symm=none int=(grid=ultrafine) guess=(read,tcheck) s
 table=(opt,rrhf)
 ----------------------------------------------------------------------
 -----
 title
 -----
 Symbolic Z-matrix:
 Charge =  0 Multiplicity = 1

 SCF Done:  E(RHF) =  -1542.35955732     A.U. after   17 cycles
 Normal termination of Gaussian 16 at Tue Apr  8 18:23:29 2025.
 Gaussian 16:  ES64L-G16RevC.01  3-Jul-2019

 ----------------------------------------------------------------------
 #t hf aug-cc-pvdz iop(5/13=1,5/36=2,99/5=2) pseudo=read geom=check gue
 ss=(read,tcheck) scf=(maxcycle=1)
 ----------------------------------------------------------------------
 -----
 title
 -----
 Structure from the checkpoint file:  "37Conf8_Indometacin_7_mol1.chk"
 Charge =  0 Multiplicity = 1

                         Standard orientation:
 ---------------------------------------------------------------------
 Center     Atomic      Atomic             Coordinates (Angstroms)
 Number     Number       Type             X           Y           Z
 ---------------------------------------------------------------------
      1          1           0       -6.172101   -0.812960   -1.269200
      2          8           0       -6.132341   -1.103710   -0.338530
      3          6           0       -4.822751   -1.233041    0.043330
      4          6           0       -3.805141   -0.971811   -1.075350
      5          8           0       -4.550501   -1.566081    1.167670
      6          6           0       -2.412351   -0.763351   -0.590880
      7          1           0       -3.863971   -1.840411   -1.754370
      8          1           0       -4.130901   -0.100271   -1.668290
      9          6           0       -1.824891    0.517789   -0.291090
     10          6           0       -1.483791   -1.736721   -0.310970
     11          6           0       -2.333610    1.817739   -0.327270
     12          6           0       -0.496201    0.282149    0.147310
     13          7           0       -0.287411   -1.116531    0.111590
     14          6           0       -1.619461   -3.210211   -0.450790
     15          1           0       -3.355650    2.032009   -0.642980
     16          6           0       -1.517780    2.874799    0.088570
     17          6           0        0.301860    1.328609    0.600300
     18          6           0        0.861289   -1.818561    0.533600
     19          1           0       -2.529301   -3.441751   -1.019860
     20          1           0       -0.758531   -3.657361   -0.966780
     21          1           0       -1.692321   -3.699541    0.529970
     22          8           0       -2.081300    4.121799    0.020410
     23          6           0       -0.212990    2.627869    0.558460
     24          1           0        1.305900    1.164969    0.986120
     25          6           0        2.181109   -1.177621    0.270560
     26          8           0        0.781229   -2.929311    1.041390
     27          6           0       -1.301360    5.222279    0.471780
     28          1           0        0.413300    3.446549    0.907410
     29          6           0        2.428479   -0.432491   -0.891610
     30          6           0        3.233179   -1.432311    1.161290
     31          1           0       -0.379210    5.337319   -0.123030
     32          1           0       -1.930660    6.109739    0.339350
     33          1           0       -1.034810    5.120099    1.537350
     34          1           0        1.618599   -0.240131   -1.595940
     35          6           0        3.703079    0.059429   -1.158410
     36          1           0        3.037509   -2.038411    2.046620
     37          6           0        4.505539   -0.923971    0.919810
     38          1           0        3.905669    0.626909   -2.066160
     39          6           0        4.730749   -0.180881   -0.242640
     40          1           0        5.323639   -1.103392    1.616740
     41         17           0        6.319309    0.448978   -0.558920
 ---------------------------------------------------------------------

 SCF Done:  E(RHF) =  -1543.51275169     A.U. after    2 cycles

 The electronic state is 1-A.
 Alpha  occ. eigenvalues -- -105.58881 -20.60535 -20.57453 -20.54610 -20.53704
 Alpha  occ. eigenvalues --  -15.56830 -11.39865 -11.39408 -11.33546 -11.31104
 Alpha  occ. eigenvalues --  -11.30189 -11.30022 -11.28391 -11.28330 -11.28279
 Alpha  occ. eigenvalues --  -11.28047 -11.27737 -11.27607 -11.27526 -11.26047
 Alpha  occ. eigenvalues --  -11.25601 -11.24698 -11.24679 -11.24496 -11.24378
 Alpha  occ. eigenvalues --  -10.63705  -7.80676  -7.80266  -7.80254  -1.53839
 Alpha  occ. eigenvalues --   -1.49554  -1.48604  -1.45165  -1.31224  -1.20534
 Alpha  occ. eigenvalues --   -1.15535  -1.12908  -1.11485  -1.05287  -1.04089
 Alpha  occ. eigenvalues --   -1.03980  -1.03220  -1.01129  -0.95464  -0.94744
 Alpha  occ. eigenvalues --   -0.89857  -0.87699  -0.85773  -0.83743  -0.83259
 Alpha  occ. eigenvalues --   -0.80684  -0.77673  -0.76140  -0.72762  -0.71957
 Alpha  occ. eigenvalues --   -0.70356  -0.69319  -0.68552  -0.67545  -0.66639
 Alpha  occ. eigenvalues --   -0.66053  -0.65843  -0.65463  -0.64478  -0.63412
 Alpha  occ. eigenvalues --   -0.62678  -0.62003  -0.61122  -0.60334  -0.58826
 Alpha  occ. eigenvalues --   -0.57991  -0.57530  -0.57078  -0.56918  -0.56059
 Alpha  occ. eigenvalues --   -0.55506  -0.54858  -0.54487  -0.53729  -0.52367
 Alpha  occ. eigenvalues --   -0.51673  -0.49659  -0.48582  -0.48058  -0.47298
 Alpha  occ. eigenvalues --   -0.45552  -0.45431  -0.44645  -0.40553  -0.37814
 Alpha  occ. eigenvalues --   -0.36346  -0.31281  -0.30721
 Alpha virt. eigenvalues --    0.02244   0.02723   0.03028   0.03271   0.03631
 Alpha virt. eigenvalues --    0.03971   0.04477   0.04907   0.05203   0.05532
 Alpha virt. eigenvalues --    0.06099   0.06571   0.06861   0.06991   0.07679

 Mulliken charges:
               1
     1  H    0.451107
     2  O   -1.411739
     3  C    2.361802
     4  C   -0.535228
     5  O   -1.244829
     6  C    1.229125
     7  H    0.272666
     8  H    0.077573
     9  C    0.534171
    10  C   -1.311508
    11  C    0.943351
    12  C   -2.661561
    13  N    2.328219
    14  C   -0.663358
    15  H   -0.355130
    16  C    1.569695
    17  C    0.893081
    18  C   -0.885051
    19  H    0.098884
    20  H    0.303919
    21  H    0.389042
    22  O   -2.053101
    23  C   -0.300779
    24  H   -0.151662
    25  C    2.099663
    26  O   -1.381798
    27  C    0.090855
    28  H   -0.486728
    29  C    0.615013
    30  C   -0.268036
    31  H    0.200311
    32  H   -0.041283
    33  H    0.210742
    34  H   -0.339974
    35  C    0.200743
    36  H   -0.361343
    37  C    0.499471
    38  H   -0.219967
    39  C   -0.199059
    40  H   -0.177850
    41  Cl  -0.319451
 Sum of Mulliken charges =  -0.00000

 Dipole moment (field-independent basis, Debye):
    X=              1.4967    Y=              2.7151    Z=             -4.1627  Tot=              5.1904

 Test job not archived.
 1\1\GINC-SE457\SP\RHF\Aug-CC-pVDZ\C19H16Cl1N1O4\OHZDE\08-Apr-2025\0\\#
 t hf aug-cc-pvdz iop(5/13=1,5/36=2,99/5=2) pseudo=read geom=check gues
 s=(read,tcheck) scf=(maxcycle=1)\\title\\0,1\H,0,-6.1721,-0.81296,-1.2
 692\O,0,-6.13234,-1.10371,-0.33853\C,0,-4.82275,-1.23304,0.04333\C,0,-
 3.80514,-0.97181,-1.07535\O,0,-4.5505,-1.56608,1.16767\C,0,-2.41235,-0
 .76335,-0.59088\H,0,-3.86397,-1.84041,-1.75437\H,0,-4.1309,-0.10027,-1
 .66829\C,0,-1.82489,0.51779,-0.29109\C,0,-1.48379,-1.73672,-0.31097\C,
 0,-2.33361,1.81774,-0.32727\C,0,-0.4962,0.28215,0.14731\N,0,-0.28741,-

 Normal termination of Gaussian 16 at Tue Apr  8 18:25:24 2025.
