 Gaussian 16, Revision C.01,

 ----------------------------------------------------------------------
 #t hf aug-cc-pvdz symm=none int=(grid=ultrafine) guess=(read,tcheck) s
 table=(opt,rrhf)
 ----------------------------------------------------------------------
 -----
 title
 -----
 Symbolic Z-matrix:
 Charge =  0 Multiplicity = 1

 SCF Done:  E(RHF) =  -1009.02785647     A.U. after   15 cycles
 Normal termination of Gaussian 16 at Tue Apr  8 17:35:56 2025.
 Gaussian 16:  ES64L-G16RevC.01  3-Jul-2019

 ----------------------------------------------------------------------
 #t hf aug-cc-pvdz iop(5/13=1,5/36=2,99/5=2) pseudo=read geom=check gue
 ss=(read,tcheck) scf=(maxcycle=1)
 ----------------------------------------------------------------------
 -----
 title
 -----
 Structure from the checkpoint file:  "37Conf8_Gemcitabine_6_mol1.chk"
 Charge =  0 Multiplicity = 1

                         Standard orientation:
 ---------------------------------------------------------------------
 Center     Atomic      Atomic             Coordinates (Angstroms)
 Number     Number       Type             X           Y           Z
 ---------------------------------------------------------------------
      1          1           0       -0.797880    2.822850   -0.352130
      2          8           0       -1.761620    3.009590   -0.360560
      3          6           0       -2.321900    1.929300    0.348840
      4          6           0       -2.430010    0.668150   -0.521210
      5          1           0       -3.348470    2.207820    0.642710
      6          1           0       -1.749890    1.711480    1.265410
      7          1           0       -3.198040    0.829900   -1.293190
      8          8           0       -1.197580    0.390600   -1.263600
      9          6           0       -2.719210   -0.606420    0.273410
     10          6           0       -0.481130   -0.661340   -0.676930
     11          1           0       -3.250570   -0.413580    1.216310
     12          8           0       -3.467070   -1.577070   -0.441310
     13          6           0       -1.282750   -1.101700    0.577870
     14          1           0       -0.479790   -1.533550   -1.357500
     15          7           0        0.939260   -0.366110   -0.454870
     16          1           0       -3.242850   -1.498120   -1.385380
     17          9           0       -1.198880   -2.457180    0.745010
     18          9           0       -0.804830   -0.532240    1.726250
     19          6           0        1.404440    0.873830    0.141030
     20          6           0        1.832140   -1.336150   -0.802200
     21          8           0        0.595780    1.746830    0.437640
     22          7           0        2.746610    0.995990    0.337950
     23          1           0        1.408430   -2.233990   -1.254900
     24          6           0        3.168150   -1.198560   -0.594190
     25          6           0        3.589750    0.031190    0.006070
     26          1           0        3.863060   -1.982370   -0.887920
     27          7           0        4.908120    0.257290    0.235340
     28          1           0        5.595750   -0.474190    0.120050
     29          1           0        5.162740    1.108940    0.722700
 ---------------------------------------------------------------------

 SCF Done:  E(RHF) =  -1010.01325396     A.U. after    2 cycles

 The electronic state is 1-A.
 Alpha  occ. eigenvalues --  -26.49365 -26.49239 -20.58329 -20.57941 -20.52103
 Alpha  occ. eigenvalues --  -20.50823 -15.58401 -15.55239 -15.49334 -11.43858
 Alpha  occ. eigenvalues --  -11.39886 -11.37691 -11.37167 -11.34788 -11.32834
 Alpha  occ. eigenvalues --  -11.31194 -11.27923 -11.26563  -1.65711  -1.58935
 Alpha  occ. eigenvalues --   -1.50715  -1.47766  -1.46308  -1.42216  -1.32656
 Alpha  occ. eigenvalues --   -1.28455  -1.19887  -1.09714  -1.08571  -1.04134
 Alpha  occ. eigenvalues --   -0.95212  -0.93834  -0.91144  -0.86860  -0.84829
 Alpha  occ. eigenvalues --   -0.81655  -0.79763  -0.77543  -0.77240  -0.74541
 Alpha  occ. eigenvalues --   -0.73951  -0.72371  -0.70342  -0.68505  -0.66769
 Alpha  occ. eigenvalues --   -0.66231  -0.66188  -0.65547  -0.64748  -0.63193
 Alpha  occ. eigenvalues --   -0.62580  -0.61760  -0.61391  -0.60102  -0.58800
 Alpha  occ. eigenvalues --   -0.57984  -0.55594  -0.55338  -0.51978  -0.51234
 Alpha  occ. eigenvalues --   -0.49221  -0.48359  -0.47641  -0.45895  -0.44559
 Alpha  occ. eigenvalues --   -0.43143  -0.41036  -0.37279
 Alpha virt. eigenvalues --    0.01818   0.02541   0.03341   0.04349   0.04855
 Alpha virt. eigenvalues --    0.05558   0.05852   0.06501   0.06898   0.07353
 Alpha virt. eigenvalues --    0.07975   0.08615   0.09099   0.09611   0.10463

 Mulliken charges:
               1
     1  H    0.500707
     2  O   -1.283826
     3  C    0.996393
     4  C    0.067005
     5  H    0.104978
     6  H    0.302681
     7  H   -0.003602
     8  O   -1.897961
     9  C    1.161724
    10  C   -0.314752
    11  H    0.178322
    12  O   -1.471212
    13  C    2.505515
    14  H    0.016678
    15  N    1.800502
    16  H    0.287751
    17  F   -0.934853
    18  F   -1.057470
    19  C   -0.617667
    20  C   -0.215007
    21  O   -1.697952
    22  N    1.569059
    23  H   -0.308575
    24  C    1.342453
    25  C   -1.941415
    26  H   -0.238360
    27  N    0.992738
    28  H    0.139723
    29  H    0.016423
 Sum of Mulliken charges =  -0.00000

 Dipole moment (field-independent basis, Debye):
    X=              4.3119    Y=             -5.6300    Z=             -2.1145  Tot=              7.4000

 Test job not archived.
 1\1\GINC-SE247\SP\RHF\Aug-CC-pVDZ\C9H11F2N3O4\OHZDE\08-Apr-2025\0\\#t
 hf aug-cc-pvdz iop(5/13=1,5/36=2,99/5=2) pseudo=read geom=check guess=
 (read,tcheck) scf=(maxcycle=1)\\title\\0,1\H,0,-0.79788,2.82285,-0.352
 13\O,0,-1.76162,3.00959,-0.36056\C,0,-2.3219,1.9293,0.34884\C,0,-2.430
 01,0.66815,-0.52121\H,0,-3.34847,2.20782,0.64271\H,0,-1.74989,1.71148,
 1.26541\H,0,-3.19804,0.8299,-1.29319\O,0,-1.19758,0.3906,-1.2636\C,0,-
 2.71921,-0.60642,0.27341\C,0,-0.48113,-0.66134,-0.67693\H,0,-3.25057,-
 0.41358,1.21631\O,0,-3.46707,-1.57707,-0.44131\C,0,-1.28275,-1.1017,0.

 Normal termination of Gaussian 16 at Tue Apr  8 17:36:38 2025.
