 Gaussian 16, Revision C.01,

 ----------------------------------------------------------------------
 #t hf aug-cc-pvdz symm=none int=(grid=ultrafine) guess=(read,tcheck) s
 table=(opt,rrhf)
 ----------------------------------------------------------------------
 -----
 title
 -----
 Symbolic Z-matrix:
 Charge =  0 Multiplicity = 1

 SCF Done:  E(RHF) =  -1542.36312933     A.U. after   17 cycles
 Normal termination of Gaussian 16 at Tue Apr  8 18:32:19 2025.
 Gaussian 16:  ES64L-G16RevC.01  3-Jul-2019

 ----------------------------------------------------------------------
 #t hf aug-cc-pvdz iop(5/13=1,5/36=2,99/5=2) pseudo=read geom=check gue
 ss=(read,tcheck) scf=(maxcycle=1)
 ----------------------------------------------------------------------
 -----
 title
 -----
 Structure from the checkpoint file:  "37Conf8_Indometacin_3_mol1.chk"
 Charge =  0 Multiplicity = 1

                         Standard orientation:
 ---------------------------------------------------------------------
 Center     Atomic      Atomic             Coordinates (Angstroms)
 Number     Number       Type             X           Y           Z
 ---------------------------------------------------------------------
      1          1           0        3.480260   -1.281660    1.186959
      2          8           0        4.463980   -1.320420    1.199369
      3          6           0        4.888960   -1.194321   -0.083151
      4          6           0        3.778420   -1.111110   -1.145841
      5          8           0        6.065040   -1.177371   -0.358291
      6          6           0        2.401440   -0.861110   -0.626321
      7          1           0        4.086180   -0.326220   -1.851821
      8          1           0        3.832190   -2.057630   -1.705631
      9          6           0        1.857100    0.442440   -0.317181
     10          6           0        1.431580   -1.801600   -0.339611
     11          6           0        2.413310    1.722290   -0.360551
     12          6           0        0.526450    0.251901    0.134319
     13          7           0        0.267210   -1.137849    0.098049
     14          6           0        1.487559   -3.277110   -0.524231
     15          1           0        3.437421    1.896530   -0.692961
     16          6           0        1.638111    2.806930    0.063259
     17          6           0       -0.231330    1.325241    0.595679
     18          6           0       -0.895500   -1.801919    0.556889
     19          1           0        2.391509   -3.542910   -1.086581
     20          1           0        0.612609   -3.648800   -1.076491
     21          1           0        1.499879   -3.810230    0.435979
     22          8           0        2.240691    4.032070   -0.012731
     23          6           0        0.329741    2.604131    0.547439
     24          1           0       -1.237970    1.196601    0.988179
     25          6           0       -2.200280   -1.139879    0.286629
     26          8           0       -0.825151   -2.894909    1.102179
     27          6           0        1.502321    5.162180    0.438049
     28          1           0       -0.263909    3.445201    0.900299
     29          6           0       -3.260460   -1.375429    1.174009
     30          6           0       -2.428630   -0.386829   -0.874941
     31          1           0        0.580561    5.305021   -0.150941
     32          1           0        2.161412    6.025730    0.294839
     33          1           0        1.241731    5.075460    1.506329
     34          1           0       -3.079530   -1.986299    2.059159
     35          6           0       -4.521300   -0.842068    0.928919
     36          1           0       -1.613950   -0.210649   -1.577881
     37          6           0       -3.691910    0.131222   -1.144171
     38          1           0       -5.345400   -1.007108    1.622269
     39          6           0       -4.727740   -0.091328   -0.232591
     40          1           0       -3.880160    0.704612   -2.051261
     41         17           0       -6.300990    0.570032   -0.552391
 ---------------------------------------------------------------------

 SCF Done:  E(RHF) =  -1543.51691269     A.U. after    2 cycles

 The electronic state is 1-A.
 Alpha  occ. eigenvalues -- -105.59520 -20.59370 -20.58081 -20.55901 -20.52657
 Alpha  occ. eigenvalues --  -15.58135 -11.40614 -11.39165 -11.34331 -11.31995
 Alpha  occ. eigenvalues --  -11.31982 -11.30544 -11.29622 -11.29184 -11.28890
 Alpha  occ. eigenvalues --  -11.28589 -11.28330 -11.28252 -11.27538 -11.27066
 Alpha  occ. eigenvalues --  -11.26702 -11.26132 -11.26126 -11.25772 -11.25329
 Alpha  occ. eigenvalues --  -10.64344  -7.81315  -7.80903  -7.80891  -1.53054
 Alpha  occ. eigenvalues --   -1.50262  -1.49883  -1.44242  -1.32596  -1.21320
 Alpha  occ. eigenvalues --   -1.16589  -1.13826  -1.12318  -1.06078  -1.05288
 Alpha  occ. eigenvalues --   -1.04536  -1.04010  -1.01663  -0.96462  -0.95646
 Alpha  occ. eigenvalues --   -0.90628  -0.88498  -0.86709  -0.84563  -0.83170
 Alpha  occ. eigenvalues --   -0.80894  -0.78594  -0.77046  -0.73257  -0.72476
 Alpha  occ. eigenvalues --   -0.71254  -0.70188  -0.69375  -0.68242  -0.66913
 Alpha  occ. eigenvalues --   -0.66771  -0.66287  -0.66195  -0.64933  -0.64223
 Alpha  occ. eigenvalues --   -0.63489  -0.62537  -0.61229  -0.60771  -0.59506
 Alpha  occ. eigenvalues --   -0.58619  -0.58531  -0.58135  -0.56924  -0.56402
 Alpha  occ. eigenvalues --   -0.56066  -0.55741  -0.55133  -0.54480  -0.53093
 Alpha  occ. eigenvalues --   -0.52585  -0.50406  -0.49380  -0.48690  -0.46787
 Alpha  occ. eigenvalues --   -0.46483  -0.45955  -0.44954  -0.41114  -0.38607
 Alpha  occ. eigenvalues --   -0.37149  -0.32352  -0.32107
 Alpha virt. eigenvalues --    0.02349   0.02587   0.02873   0.03262   0.03571
 Alpha virt. eigenvalues --    0.03747   0.04206   0.04336   0.04873   0.05339
 Alpha virt. eigenvalues --    0.06091   0.06188   0.06384   0.07003   0.07504

 Mulliken charges:
               1
     1  H    0.633269
     2  O   -1.322774
     3  C    2.266607
     4  C   -0.560865
     5  O   -1.397064
     6  C    0.652212
     7  H    0.157724
     8  H    0.220920
     9  C    0.768978
    10  C   -1.174744
    11  C    0.855399
    12  C   -2.599478
    13  N    2.314461
    14  C   -0.602619
    15  H   -0.359683
    16  C    1.615564
    17  C    0.795107
    18  C   -0.731134
    19  H    0.094797
    20  H    0.331214
    21  H    0.368249
    22  O   -2.042344
    23  C   -0.260504
    24  H   -0.156661
    25  C    2.102373
    26  O   -1.388063
    27  C    0.084109
    28  H   -0.479938
    29  C   -0.316725
    30  C    0.679023
    31  H    0.200852
    32  H   -0.037497
    33  H    0.207990
    34  H   -0.364520
    35  C    0.487333
    36  H   -0.337141
    37  C    0.219258
    38  H   -0.178628
    39  C   -0.209190
    40  H   -0.218363
    41  Cl  -0.317502
 Sum of Mulliken charges =  -0.00000

 Dipole moment (field-independent basis, Debye):
    X=             -6.3049    Y=              2.2388    Z=             -1.1583  Tot=              6.7902

 Test job not archived.
 1\1\GINC-SE079\SP\RHF\Aug-CC-pVDZ\C19H16Cl1N1O4\OHZDE\08-Apr-2025\0\\#
 t hf aug-cc-pvdz iop(5/13=1,5/36=2,99/5=2) pseudo=read geom=check gues
 s=(read,tcheck) scf=(maxcycle=1)\\title\\0,1\H,0,3.48026,-1.28166,1.18
 696\O,0,4.46398,-1.32042,1.19937\C,0,4.88896,-1.19432,-0.08315\C,0,3.7
 7842,-1.11111,-1.14584\O,0,6.06504,-1.17737,-0.35829\C,0,2.40144,-0.86
 111,-0.62632\H,0,4.08618,-0.32622,-1.85182\H,0,3.83219,-2.05763,-1.705
 63\C,0,1.8571,0.44244,-0.31718\C,0,1.43158,-1.8016,-0.33961\C,0,2.4133
 1,1.72229,-0.36055\C,0,0.52645,0.2519,0.13432\N,0,0.26721,-1.13785,0.0

 Normal termination of Gaussian 16 at Tue Apr  8 18:34:19 2025.
