 Gaussian 16, Revision C.01,

 ----------------------------------------------------------------------
 #t hf aug-cc-pvdz symm=none int=(grid=ultrafine) guess=(read,tcheck) s
 table=(opt,rrhf)
 ----------------------------------------------------------------------
 -----
 title
 -----
 Symbolic Z-matrix:
 Charge =  0 Multiplicity = 1

 SCF Done:  E(RHF) =  -1153.31888194     A.U. after   17 cycles
 Normal termination of Gaussian 16 at Tue Apr  8 18:31:54 2025.
 Gaussian 16:  ES64L-G16RevC.01  3-Jul-2019

 ----------------------------------------------------------------------
 #t hf aug-cc-pvdz iop(5/13=1,5/36=2,99/5=2) pseudo=read geom=check gue
 ss=(read,tcheck) scf=(maxcycle=1)
 ----------------------------------------------------------------------
 -----
 title
 -----
 Structure from the checkpoint file:  "37Conf8_Pyridoxalphosphate_8_mol1.chk"
 Charge =  0 Multiplicity = 1

                         Standard orientation:
 ---------------------------------------------------------------------
 Center     Atomic      Atomic             Coordinates (Angstroms)
 Number     Number       Type             X           Y           Z
 ---------------------------------------------------------------------
      1          1           0        4.030310    0.467988   -1.057321
      2          8           0        3.297850    1.029109   -0.740021
      3          6           0        2.379530    0.229479   -0.149091
      4          6           0        1.203170    0.791539    0.387949
      5          6           0        2.584550   -1.172131   -0.072621
      6          6           0        0.908871    2.245829    0.324699
      7          6           0        0.284190   -0.095071    0.998429
      8          7           0        1.699249   -1.986001    0.504319
      9          6           0        3.827309   -1.785032   -0.656441
     10          8           0        1.648881    3.104539   -0.120721
     11          1           0       -0.093029    2.523920    0.729849
     12          6           0        0.582750   -1.455621    1.025759
     13          6           0       -1.017530    0.358260    1.604889
     14          1           0        4.743160   -1.400342   -0.175311
     15          1           0        3.793669   -2.868912   -0.501851
     16          1           0        3.911440   -1.597132   -1.740861
     17          1           0       -0.122801   -2.157140    1.480169
     18          8           0       -1.974710    0.823790    0.605279
     19          1           0       -0.891240    1.211930    2.282159
     20          1           0       -1.470810   -0.473140    2.163129
     21         15           0       -2.654730   -0.284710   -0.339431
     22          8           0       -3.859760    0.555661   -0.982061
     23          8           0       -1.658040   -0.384110   -1.594911
     24          8           0       -2.987260   -1.568540    0.316389
     25          1           0       -4.622370    0.587801   -0.376611
     26          1           0       -1.604850   -1.309430   -1.895211
 ---------------------------------------------------------------------

 SCF Done:  E(RHF) =  -1154.16534665     A.U. after    2 cycles

 The electronic state is 1-A.
 Alpha  occ. eigenvalues --  -84.47269 -20.60629 -20.60483 -20.60080 -20.59953
 Alpha  occ. eigenvalues --  -20.55059 -20.52253 -15.53272 -11.35194 -11.34163
 Alpha  occ. eigenvalues --  -11.33621 -11.30672 -11.28959 -11.28204 -11.28105
 Alpha  occ. eigenvalues --  -11.26391  -6.91982  -4.46090  -4.45488  -4.45393
 Alpha  occ. eigenvalues --   -1.56568  -1.51755  -1.48680  -1.48378  -1.47084
 Alpha  occ. eigenvalues --   -1.39842  -1.28009  -1.13432  -1.07982  -1.02601
 Alpha  occ. eigenvalues --   -0.95227  -0.93964  -0.87748  -0.84679  -0.82229
 Alpha  occ. eigenvalues --   -0.77982  -0.73899  -0.73641  -0.71726  -0.70407
 Alpha  occ. eigenvalues --   -0.68233  -0.66898  -0.65605  -0.64612  -0.64209
 Alpha  occ. eigenvalues --   -0.63086  -0.62524  -0.60609  -0.58744  -0.57955
 Alpha  occ. eigenvalues --   -0.57478  -0.57001  -0.56584  -0.54975  -0.54436
 Alpha  occ. eigenvalues --   -0.53287  -0.52980  -0.50914  -0.47866  -0.47245
 Alpha  occ. eigenvalues --   -0.47130  -0.42152  -0.40622  -0.34412
 Alpha virt. eigenvalues --    0.02780   0.02818   0.03295   0.03985   0.04180
 Alpha virt. eigenvalues --    0.04587   0.05040   0.05293   0.06210   0.07589
 Alpha virt. eigenvalues --    0.08182   0.08757   0.09351   0.09736   0.10275

 Mulliken charges:
               1
     1  H    0.430299
     2  O   -1.979931
     3  C    1.715167
     4  C    0.552641
     5  C   -1.759276
     6  C    0.651895
     7  C    1.923979
     8  N    1.513603
     9  C   -0.474985
    10  O   -1.331172
    11  H   -0.094893
    12  C   -1.552447
    13  C    0.444445
    14  H    0.355752
    15  H    0.073480
    16  H    0.355994
    17  H   -0.345123
    18  O   -1.711681
    19  H    0.111021
    20  H   -0.029700
    21  P    4.432670
    22  O   -1.267460
    23  O   -1.301690
    24  O   -1.406738
    25  H    0.349601
    26  H    0.344550
 Sum of Mulliken charges =  -0.00000

 Dipole moment (field-independent basis, Debye):
    X=              0.5271    Y=             -1.2554    Z=              0.4639  Tot=              1.4385

 Test job not archived.
 1\1\GINC-SE435\SP\RHF\Aug-CC-pVDZ\C8H10N1O6P1\OHZDE\08-Apr-2025\0\\#t
 hf aug-cc-pvdz iop(5/13=1,5/36=2,99/5=2) pseudo=read geom=check guess=
 (read,tcheck) scf=(maxcycle=1)\\title\\0,1\H,0,-4.03031,0.46799,1.0573
 2\O,0,-3.29785,1.02911,0.74002\C,0,-2.37953,0.22948,0.14909\C,0,-1.203
 17,0.79154,-0.38795\C,0,-2.58455,-1.17213,0.07262\C,0,-0.90887,2.24583
 ,-0.3247\C,0,-0.28419,-0.09507,-0.99843\N,0,-1.69925,-1.986,-0.50432\C
 ,0,-3.82731,-1.78503,0.65644\O,0,-1.64888,3.10454,0.12072\H,0,0.09303,
 2.52392,-0.72985\C,0,-0.58275,-1.45562,-1.02576\C,0,1.01753,0.35826,-1

 Normal termination of Gaussian 16 at Tue Apr  8 18:32:19 2025.
