 Gaussian 16, Revision C.01,

 ----------------------------------------------------------------------
 #t hf aug-cc-pvdz symm=none int=(grid=ultrafine) guess=(read,tcheck) s
 table=(opt,rrhf)
 ----------------------------------------------------------------------
 -----
 title
 -----
 Symbolic Z-matrix:
 Charge =  0 Multiplicity = 1

 SCF Done:  E(RHF) =  -1689.90401739     A.U. after   18 cycles
 Normal termination of Gaussian 16 at Tue Apr  8 17:38:30 2025.
 Gaussian 16:  ES64L-G16RevC.01  3-Jul-2019

 ----------------------------------------------------------------------
 #t hf aug-cc-pvdz iop(5/13=1,5/36=2,99/5=2) pseudo=read geom=check gue
 ss=(read,tcheck) scf=(maxcycle=1)
 ----------------------------------------------------------------------
 -----
 title
 -----
 Structure from the checkpoint file:  "37Conf8_Fotemustin_2_mol1.chk"
 Charge =  0 Multiplicity = 1

                         Standard orientation:
 ---------------------------------------------------------------------
 Center     Atomic      Atomic             Coordinates (Angstroms)
 Number     Number       Type             X           Y           Z
 ---------------------------------------------------------------------
      1          8           0        3.469870   -2.764593   -0.507709
      2          7           0        2.385790   -2.459813   -0.040489
      3          7           0        2.287910   -1.182983    0.430241
      4          6           0        3.387620   -0.226383    0.341611
      5          6           0        1.003480   -0.740362    0.889051
      6          6           0        3.327750    0.524787   -0.986169
      7          1           0        4.322170   -0.795673    0.421141
      8          1           0        3.288990    0.470957    1.180301
      9         17           0        4.657731    1.727977   -1.057799
     10          1           0        3.456390   -0.156193   -1.835019
     11          1           0        2.380881    1.067717   -1.085049
     12          7           0        0.037510   -1.688942    0.876951
     13          8           0        0.859280    0.421068    1.253581
     14          6           0       -1.368090   -1.323622    1.013201
     15          1           0        0.278260   -2.556082    0.400341
     16         15           0       -1.839180   -0.058982   -0.270629
     17          6           0       -1.766980   -0.934542    2.435881
     18          1           0       -1.938470   -2.213872    0.710521
     19          8           0       -3.328610   -0.604421   -0.559399
     20          8           0       -2.156549    1.338728    0.459731
     21          8           0       -0.904390    0.015678   -1.422429
     22          6           0       -4.169990    0.133199   -1.488489
     23          6           0       -1.282949    2.494958    0.297661
     24          6           0       -5.433000   -0.667201   -1.715469
     25          1           0       -3.612040    0.282009   -2.426169
     26          1           0       -4.390409    1.119239   -1.049979
     27          6           0       -1.026629    3.117808    1.651251
     28          1           0       -1.807949    3.190218   -0.375139
     29          1           0       -0.350839    2.175858   -0.186509
     30          1           0       -6.095150   -0.128661   -2.408609
     31          1           0       -5.200890   -1.648591   -2.150989
     32          1           0       -5.973110   -0.821881   -0.771239
     33          1           0       -0.432359    4.035118    1.526541
     34          1           0       -1.969819    3.383768    2.148701
     35          1           0       -0.462149    2.426818    2.290111
     36          1           0       -2.841920   -0.714261    2.477701
     37          1           0       -1.218250   -0.044742    2.763891
     38          1           0       -1.549620   -1.764002    3.123211
 ---------------------------------------------------------------------

 SCF Done:  E(RHF) =  -1690.92208817     A.U. after    2 cycles

 The electronic state is 1-A.
 Alpha  occ. eigenvalues -- -105.55827 -84.42108 -20.61707 -20.57603 -20.57200
 Alpha  occ. eigenvalues --  -20.54188 -20.50118 -15.70783 -15.60291 -15.55427
 Alpha  occ. eigenvalues --  -11.42503 -11.30924 -11.30911 -11.30880 -11.30042
 Alpha  occ. eigenvalues --  -11.29902 -11.24661 -11.24336 -11.22968 -10.60639
 Alpha  occ. eigenvalues --   -7.77586  -7.77212  -7.77200  -6.87266  -4.41414
 Alpha  occ. eigenvalues --   -4.40878  -4.40149  -1.61204  -1.51818  -1.49823
 Alpha  occ. eigenvalues --   -1.45980  -1.37941  -1.33487  -1.26714  -1.12853
 Alpha  occ. eigenvalues --   -1.07079  -1.05198  -1.03864  -1.02717  -0.97299
 Alpha  occ. eigenvalues --   -0.91136  -0.88585  -0.86160  -0.85491  -0.83441
 Alpha  occ. eigenvalues --   -0.82000  -0.78468  -0.75292  -0.72201  -0.71092
 Alpha  occ. eigenvalues --   -0.69613  -0.68795  -0.67570  -0.66548  -0.66119
 Alpha  occ. eigenvalues --   -0.65165  -0.64271  -0.62495  -0.61541  -0.60396
 Alpha  occ. eigenvalues --   -0.59717  -0.58558  -0.57140  -0.56269  -0.55736
 Alpha  occ. eigenvalues --   -0.55490  -0.55174  -0.54912  -0.54377  -0.53639
 Alpha  occ. eigenvalues --   -0.51955  -0.50607  -0.49721  -0.48677  -0.47877
 Alpha  occ. eigenvalues --   -0.47286  -0.46384  -0.46204  -0.45590  -0.44493
 Alpha  occ. eigenvalues --   -0.44442  -0.43919  -0.42188
 Alpha virt. eigenvalues --    0.02939   0.03201   0.03592   0.03911   0.04199
 Alpha virt. eigenvalues --    0.04604   0.04614   0.05388   0.05592   0.05956
 Alpha virt. eigenvalues --    0.06515   0.06931   0.07128   0.07724   0.08500

 Mulliken charges:
               1
     1  O   -1.121009
     2  N    1.417777
     3  N    0.628510
     4  C   -0.343045
     5  C   -0.788797
     6  C   -0.313299
     7  H    0.170972
     8  H    0.100959
     9  Cl  -0.085697
    10  H    0.270499
    11  H    0.289453
    12  N    1.652108
    13  O   -1.310510
    14  C   -2.128924
    15  H    0.228537
    16  P    5.717781
    17  C   -0.166221
    18  H   -0.035247
    19  O   -1.973812
    20  O   -1.916983
    21  O   -1.800550
    22  C    0.277912
    23  C    0.396040
    24  C   -0.615667
    25  H    0.151093
    26  H    0.134975
    27  C   -0.521926
    28  H    0.033304
    29  H    0.188547
    30  H    0.152166
    31  H    0.183477
    32  H    0.203054
    33  H    0.149523
    34  H    0.166182
    35  H    0.199187
    36  H    0.106781
    37  H    0.143789
    38  H    0.159061
 Sum of Mulliken charges =  -0.00000

 Dipole moment (field-independent basis, Debye):
    X=             -4.1235    Y=             -0.4802    Z=              1.5726  Tot=              4.4392

 Test job not archived.
 1\1\GINC-SE342\SP\RHF\Aug-CC-pVDZ\C9H19Cl1N3O5P1\OHZDE\08-Apr-2025\0\\
 #t hf aug-cc-pvdz iop(5/13=1,5/36=2,99/5=2) pseudo=read geom=check gue
 ss=(read,tcheck) scf=(maxcycle=1)\\title\\0,1\O,0,3.46987,-2.76459,-0.
 50771\N,0,2.38579,-2.45981,-0.04049\N,0,2.28791,-1.18298,0.43024\C,0,3
 .38762,-0.22638,0.34161\C,0,1.00348,-0.74036,0.88905\C,0,3.32775,0.524
 79,-0.98617\H,0,4.32217,-0.79567,0.42114\H,0,3.28899,0.47096,1.1803\Cl
 ,0,4.65773,1.72798,-1.0578\H,0,3.45639,-0.15619,-1.83502\H,0,2.38088,1
 .06772,-1.08505\N,0,0.03751,-1.68894,0.87695\O,0,0.85928,0.42107,1.253

 Normal termination of Gaussian 16 at Tue Apr  8 17:39:45 2025.
