 Gaussian 16, Revision C.01,

 ----------------------------------------------------------------------
 #t hf aug-cc-pvdz symm=none int=(grid=ultrafine) guess=(read,tcheck) s
 table=(opt,rrhf)
 ----------------------------------------------------------------------
 -----
 title
 -----
 Symbolic Z-matrix:
 Charge =  0 Multiplicity = 1

 SCF Done:  E(RHF) =  -914.179865656     A.U. after   16 cycles
 Normal termination of Gaussian 16 at Tue Apr  8 19:04:37 2025.
 Gaussian 16:  ES64L-G16RevC.01  3-Jul-2019

 ----------------------------------------------------------------------
 #t hf aug-cc-pvdz iop(5/13=1,5/36=2,99/5=2) pseudo=read geom=check gue
 ss=(read,tcheck) scf=(maxcycle=1)
 ----------------------------------------------------------------------
 -----
 title
 -----
 Structure from the checkpoint file:  "37Conf8_shiepox_depox_3_mol2.chk"
 Charge =  0 Multiplicity = 1

                         Standard orientation:
 ---------------------------------------------------------------------
 Center     Atomic      Atomic             Coordinates (Angstroms)
 Number     Number       Type             X           Y           Z
 ---------------------------------------------------------------------
      1          8           0        0.420510    2.116330   -0.050120
      2          6           0        0.191810    0.943540    0.158350
      3          6           0       -1.038331    0.215730   -0.419760
      4          6           0        1.120349    0.023960    0.962550
      5          8           0       -0.538011   -0.806070   -1.284700
      6          8           0       -1.798451   -0.283359    0.666140
      7          6           0       -2.012300    1.089611   -1.222900
      8          1           0        0.648999   -0.157660    1.942900
      9          8           0        2.413349    0.556609    1.154260
     10          6           0        1.387259   -1.279330    0.195900
     11          6           0        0.208499   -1.814760   -0.595360
     12          6           0       -3.206011   -0.073469    0.346690
     13          1           0       -2.162091    0.641041   -2.218660
     14          1           0       -1.645010    2.118291   -1.320300
     15          8           0       -3.209380    1.106641   -0.447510
     16          6           0        3.260179    0.058899    0.080870
     17          1           0        1.728549   -2.067450    0.897580
     18          8           0        2.448989   -0.871201   -0.663400
     19          1           0       -0.454421   -2.366920    0.091790
     20          1           0        0.565619   -2.502730   -1.373030
     21          6           0       -3.746811   -1.278229   -0.422090
     22          6           0       -3.950471    0.202771    1.635680
     23          6           0        3.664040    1.188099   -0.850170
     24          6           0        4.447569   -0.648911    0.720790
     25          1           0       -3.173221   -1.439989   -1.343630
     26          1           0       -4.800781   -1.110009   -0.681630
     27          1           0       -3.675151   -2.184319    0.194710
     28          1           0       -5.002801    0.424191    1.415020
     29          1           0       -3.500560    1.064991    2.142490
     30          1           0       -3.906341   -0.673159    2.295740
     31          1           0        4.244209    0.788899   -1.693290
     32          1           0        2.771560    1.698009   -1.230020
     33          1           0        4.282500    1.914529   -0.306870
     34          1           0        5.134179   -1.013121   -0.055120
     35          1           0        4.105549   -1.499801    1.324930
     36          1           0        4.988479    0.046139    1.376770
 ---------------------------------------------------------------------

 SCF Done:  E(RHF) =  -915.102323927     A.U. after    2 cycles

 The electronic state is 1-A.
 Alpha  occ. eigenvalues --  -20.57636 -20.57587 -20.56352 -20.56200 -20.56055
 Alpha  occ. eigenvalues --  -20.55618 -11.37004 -11.36114 -11.35264 -11.35164
 Alpha  occ. eigenvalues --  -11.31544 -11.31467 -11.30774 -11.29669 -11.23953
 Alpha  occ. eigenvalues --  -11.23805 -11.23363 -11.22448  -1.54682  -1.52702
 Alpha  occ. eigenvalues --   -1.48638  -1.48029  -1.43338  -1.42930  -1.10610
 Alpha  occ. eigenvalues --   -1.09130  -1.02434  -1.01334  -0.96852  -0.95456
 Alpha  occ. eigenvalues --   -0.94672  -0.88542  -0.85780  -0.81169  -0.80166
 Alpha  occ. eigenvalues --   -0.77835  -0.73341  -0.72094  -0.70407  -0.68876
 Alpha  occ. eigenvalues --   -0.68104  -0.66393  -0.64592  -0.63675  -0.63440
 Alpha  occ. eigenvalues --   -0.62618  -0.61950  -0.60341  -0.59166  -0.57258
 Alpha  occ. eigenvalues --   -0.56362  -0.55704  -0.55564  -0.55054  -0.54183
 Alpha  occ. eigenvalues --   -0.53728  -0.53065  -0.52911  -0.52407  -0.51592
 Alpha  occ. eigenvalues --   -0.51331  -0.50615  -0.49130  -0.48721  -0.46227
 Alpha  occ. eigenvalues --   -0.45656  -0.43374  -0.42555  -0.39485
 Alpha virt. eigenvalues --    0.02733   0.03333   0.03500   0.04076   0.04564
 Alpha virt. eigenvalues --    0.04716   0.04881   0.05511   0.06029   0.06508
 Alpha virt. eigenvalues --    0.06834   0.07437   0.07864   0.08009   0.09308

 Mulliken charges:
               1
     1  O   -1.630593
     2  C    1.423275
     3  C    1.665020
     4  C    0.800919
     5  O   -1.760699
     6  O   -1.878861
     7  C    0.626878
     8  H    0.180779
     9  O   -1.788216
    10  C    0.362965
    11  C    0.199812
    12  C    1.262860
    13  H    0.273753
    14  H    0.081903
    15  O   -1.661781
    16  C    1.052552
    17  H    0.098471
    18  O   -1.793379
    19  H    0.378978
    20  H   -0.002219
    21  C   -0.332338
    22  C   -0.087492
    23  C   -0.157188
    24  C   -0.268859
    25  H    0.190591
    26  H    0.240033
    27  H    0.250561
    28  H    0.239630
    29  H    0.256002
    30  H    0.275806
    31  H    0.272134
    32  H    0.206411
    33  H    0.263406
    34  H    0.277648
    35  H    0.213254
    36  H    0.267985
 Sum of Mulliken charges =  -0.00000

 Dipole moment (field-independent basis, Debye):
    X=             -0.5864    Y=             -3.6987    Z=              0.8193  Tot=              3.8335

 Test job not archived.
 1\1\GINC-SE104\SP\RHF\Aug-CC-pVDZ\C12H18O6\OHZDE\08-Apr-2025\0\\#t hf
 aug-cc-pvdz iop(5/13=1,5/36=2,99/5=2) pseudo=read geom=check guess=(re
 ad,tcheck) scf=(maxcycle=1)\\title\\0,1\O,0,0.42051,2.11633,-0.05012\C
 ,0,0.19181,0.94354,0.15835\C,0,-1.03833,0.21573,-0.41976\C,0,1.12035,0
 .02396,0.96255\O,0,-0.53801,-0.80607,-1.2847\O,0,-1.79845,-0.28336,0.6
 6614\C,0,-2.0123,1.08961,-1.2229\H,0,0.649,-0.15766,1.9429\O,0,2.41335
 ,0.55661,1.15426\C,0,1.38726,-1.27933,0.1959\C,0,0.2085,-1.81476,-0.59
 536\C,0,-3.20601,-0.07347,0.34669\H,0,-2.16209,0.64104,-2.21866\H,0,-1

 Normal termination of Gaussian 16 at Tue Apr  8 19:05:47 2025.
