 Gaussian 16, Revision C.01,

 ----------------------------------------------------------------------
 #t hf aug-cc-pvdz symm=none int=(grid=ultrafine) guess=(read,tcheck) s
 table=(opt,rrhf)
 ----------------------------------------------------------------------
 -----
 title
 -----
 Symbolic Z-matrix:
 Charge =  0 Multiplicity = 1

 SCF Done:  E(RHF) =  -891.126844676     A.U. after   14 cycles
 Normal termination of Gaussian 16 at Tue Apr  8 17:30:30 2025.
 Gaussian 16:  ES64L-G16RevC.01  3-Jul-2019

 ----------------------------------------------------------------------
 #t hf aug-cc-pvdz iop(5/13=1,5/36=2,99/5=2) pseudo=read geom=check gue
 ss=(read,tcheck) scf=(maxcycle=1)
 ----------------------------------------------------------------------
 -----
 title
 -----
 Structure from the checkpoint file:  "37Conf8_Glufosinate_4_mol1.chk"
 Charge =  0 Multiplicity = 1

                         Standard orientation:
 ---------------------------------------------------------------------
 Center     Atomic      Atomic             Coordinates (Angstroms)
 Number     Number       Type             X           Y           Z
 ---------------------------------------------------------------------
      1          1           0       -0.407310   -1.461930   -0.830531
      2          8           0       -1.250980   -1.811390   -0.405291
      3          6           0       -2.041690   -0.801090   -0.004921
      4          6           0       -1.554380    0.633000   -0.311541
      5          8           0       -3.082760   -1.004930    0.590229
      6          6           0       -0.671010    1.145690    0.846299
      7          7           0       -2.654060    1.578280   -0.489951
      8          1           0       -0.961720    0.613160   -1.239341
      9          6           0        0.531530    0.275350    1.242799
     10          1           0       -0.334770    2.157570    0.576259
     11          1           0       -1.319070    1.258440    1.730199
     12         15           0        1.707420   -0.037120   -0.106911
     13          1           0        0.208560   -0.713120    1.608889
     14          1           0        1.085970    0.759330    2.062029
     15          6           0        3.191040   -0.761240    0.612099
     16          8           0        2.260000    1.419480   -0.572981
     17          8           0        1.101160   -0.829660   -1.233931
     18          1           0        3.900050   -0.971660   -0.199131
     19          1           0        2.925130   -1.702810    1.110229
     20          1           0        3.652210   -0.076080    1.335099
     21          1           0        1.747300    1.756960   -1.330111
     22          1           0       -3.136620    1.367060   -1.366981
     23          1           0       -3.344900    1.383670    0.244059
 ---------------------------------------------------------------------

 SCF Done:  E(RHF) =  -891.734971375     A.U. after    2 cycles

 The electronic state is 1-A.
 Alpha  occ. eigenvalues --  -84.41830 -20.60887 -20.57137 -20.52453 -20.52045
 Alpha  occ. eigenvalues --  -15.49807 -11.37804 -11.29085 -11.27637 -11.27435
 Alpha  occ. eigenvalues --  -11.26900  -6.87535  -4.41471  -4.40614  -4.40132
 Alpha  occ. eigenvalues --   -1.51654  -1.51368  -1.43097  -1.40690  -1.20190
 Alpha  occ. eigenvalues --   -1.09054  -1.03012  -0.96399  -0.87967  -0.81146
 Alpha  occ. eigenvalues --   -0.80285  -0.74338  -0.70845  -0.69658  -0.66573
 Alpha  occ. eigenvalues --   -0.65906  -0.64337  -0.63164  -0.61617  -0.60316
 Alpha  occ. eigenvalues --   -0.59544  -0.58599  -0.58442  -0.55717  -0.54518
 Alpha  occ. eigenvalues --   -0.53794  -0.52471  -0.51210  -0.47644  -0.46259
 Alpha  occ. eigenvalues --   -0.44685  -0.43992  -0.41656
 Alpha virt. eigenvalues --    0.02466   0.03090   0.03485   0.04529   0.05273
 Alpha virt. eigenvalues --    0.05589   0.05888   0.06901   0.07659   0.07949
 Alpha virt. eigenvalues --    0.08629   0.09913   0.10620   0.11741   0.12484

 Mulliken charges:
               1
     1  H    0.651445
     2  O   -1.437766
     3  C    2.570535
     4  C   -1.890661
     5  O   -1.381306
     6  C   -0.260074
     7  N    0.782825
     8  H    0.064593
     9  C   -1.002061
    10  H    0.177788
    11  H    0.201372
    12  P    4.356083
    13  H    0.254810
    14  H    0.113833
    15  C   -1.182419
    16  O   -1.431852
    17  O   -1.760141
    18  H    0.095858
    19  H    0.168222
    20  H    0.158395
    21  H    0.334201
    22  H    0.155931
    23  H    0.260388
 Sum of Mulliken charges =  -0.00000

 Dipole moment (field-independent basis, Debye):
    X=              5.0993    Y=              2.8290    Z=              1.0663  Tot=              5.9281

 Test job not archived.
 1\1\GINC-SE079\SP\RHF\Aug-CC-pVDZ\C5H12N1O4P1\OHZDE\08-Apr-2025\0\\#t
 hf aug-cc-pvdz iop(5/13=1,5/36=2,99/5=2) pseudo=read geom=check guess=
 (read,tcheck) scf=(maxcycle=1)\\title\\0,1\H,0,-0.40731,-1.46193,-0.83
 053\O,0,-1.25098,-1.81139,-0.40529\C,0,-2.04169,-0.80109,-0.00492\C,0,
 -1.55438,0.633,-0.31154\O,0,-3.08276,-1.00493,0.59023\C,0,-0.67101,1.1
 4569,0.8463\N,0,-2.65406,1.57828,-0.48995\H,0,-0.96172,0.61316,-1.2393
 4\C,0,0.53153,0.27535,1.2428\H,0,-0.33477,2.15757,0.57626\H,0,-1.31907
 ,1.25844,1.7302\P,0,1.70742,-0.03712,-0.10691\H,0,0.20856,-0.71312,1.6

 Normal termination of Gaussian 16 at Tue Apr  8 17:30:47 2025.
