 Gaussian 16, Revision C.01,

 ----------------------------------------------------------------------
 #t hf aug-cc-pvdz symm=none int=(grid=ultrafine) guess=(read,tcheck) s
 table=(opt,rrhf)
 ----------------------------------------------------------------------
 -----
 title
 -----
 Symbolic Z-matrix:
 Charge =  0 Multiplicity = 1

 SCF Done:  E(RHF) =  -1673.87818271     A.U. after   16 cycles
 Normal termination of Gaussian 16 at Tue Apr  8 18:53:09 2025.
 Gaussian 16:  ES64L-G16RevC.01  3-Jul-2019

 ----------------------------------------------------------------------
 #t hf aug-cc-pvdz iop(5/13=1,5/36=2,99/5=2) pseudo=read geom=check gue
 ss=(read,tcheck) scf=(maxcycle=1)
 ----------------------------------------------------------------------
 -----
 title
 -----
 Structure from the checkpoint file:  "37Conf8_Pantoprazole_8_mol1.chk"
 Charge =  0 Multiplicity = 1

                         Standard orientation:
 ---------------------------------------------------------------------
 Center     Atomic      Atomic             Coordinates (Angstroms)
 Number     Number       Type             X           Y           Z
 ---------------------------------------------------------------------
      1          1           0        7.025210    0.405521   -0.286650
      2          6           0        6.005800    0.033501   -0.394450
      3          6           0        5.732550   -1.218679   -0.937240
      4          6           0        4.939040    0.843061    0.004000
      5          1           0        6.550340   -1.872639   -1.251950
      6          7           0        4.494130   -1.691619   -1.127530
      7          8           0        5.218090    2.071241    0.539480
      8          6           0        3.635860    0.323710   -0.118460
      9          6           0        3.460080   -0.933240   -0.729760
     10          6           0        4.598600    3.196691   -0.111770
     11          8           0        2.518970    1.019550    0.315850
     12          6           0        2.089560   -1.484560   -0.960210
     13          1           0        4.900440    3.233311   -1.170020
     14          1           0        3.501730    3.158670   -0.046190
     15          1           0        4.975110    4.084201    0.408580
     16          6           0        2.494190    1.272120    1.744060
     17         16           0        1.198190   -1.914420    0.652170
     18          1           0        1.448570   -0.806800   -1.536900
     19          1           0        2.157081   -2.457140   -1.463330
     20          6           0       -0.327130   -1.000570    0.262440
     21          8           0        0.888251   -3.368060    0.629240
     22          7           0       -1.532800   -1.494860    0.419690
     23          7           0       -0.310220    0.339910   -0.065490
     24          6           0       -2.382040   -0.427390    0.160790
     25          1           0        0.535770    0.893500   -0.195890
     26          6           0       -1.633140    0.741380   -0.141260
     27          6           0       -3.783760   -0.388911    0.183600
     28          6           0       -2.246300    1.961870   -0.431100
     29          1           0       -4.353130   -1.273471    0.464570
     30          6           0       -4.384050    0.829469   -0.122150
     31          1           0       -1.674890    2.860880   -0.664710
     32          6           0       -3.636650    1.986779   -0.422310
     33          8           0       -5.764830    1.017019   -0.135160
     34          1           0       -4.180320    2.903519   -0.649580
     35          6           0       -6.551560   -0.083151   -0.374910
     36          9           0       -7.748110    0.376849   -0.816200
     37          9           0       -6.791800   -0.780681    0.787160
     38          1           0       -6.114220   -0.778751   -1.111110
     39          1           0        1.566810    1.823260    1.939170
     40          1           0        3.362110    1.869940    2.052690
     41          1           0        2.479590    0.316710    2.288350
 ---------------------------------------------------------------------

 SCF Done:  E(RHF) =  -1675.18952915     A.U. after    2 cycles

 The electronic state is 1-A.
 Alpha  occ. eigenvalues --  -94.10010 -26.48762 -26.48180 -20.61386 -20.60560
 Alpha  occ. eigenvalues --  -20.60409 -20.51380 -15.57772 -15.52998 -15.51505
 Alpha  occ. eigenvalues --  -11.48326 -11.35289 -11.35171 -11.33524 -11.32714
 Alpha  occ. eigenvalues --  -11.32573 -11.32405 -11.32087 -11.30573 -11.29876
 Alpha  occ. eigenvalues --  -11.29644 -11.28456 -11.27417 -11.27189 -11.26255
 Alpha  occ. eigenvalues --  -11.26170  -8.36662  -6.34504  -6.34365  -6.34154
 Alpha  occ. eigenvalues --   -1.67141  -1.58402  -1.53506  -1.52495  -1.51507
 Alpha  occ. eigenvalues --   -1.45320  -1.36041  -1.28460  -1.20476  -1.16164
 Alpha  occ. eigenvalues --   -1.11466  -1.10902  -1.05972  -1.03968  -1.02158
 Alpha  occ. eigenvalues --   -0.98899  -0.97167  -0.96199  -0.93829  -0.88747
 Alpha  occ. eigenvalues --   -0.88074  -0.87041  -0.86389  -0.84630  -0.80094
 Alpha  occ. eigenvalues --   -0.78183  -0.77612  -0.76877  -0.75827  -0.74951
 Alpha  occ. eigenvalues --   -0.72645  -0.72234  -0.68876  -0.68119  -0.67643
 Alpha  occ. eigenvalues --   -0.67265  -0.66517  -0.66133  -0.65045  -0.64719
 Alpha  occ. eigenvalues --   -0.64397  -0.64212  -0.64143  -0.63802  -0.63147
 Alpha  occ. eigenvalues --   -0.61041  -0.60673  -0.60150  -0.59180  -0.58138
 Alpha  occ. eigenvalues --   -0.57552  -0.56887  -0.55986  -0.55514  -0.54993
 Alpha  occ. eigenvalues --   -0.54648  -0.53668  -0.52953  -0.49808  -0.49009
 Alpha  occ. eigenvalues --   -0.48757  -0.47988  -0.47032  -0.43975  -0.40505
 Alpha  occ. eigenvalues --   -0.39146  -0.36745  -0.34928  -0.32594
 Alpha virt. eigenvalues --    0.01381   0.02285   0.02421   0.03238   0.03705
 Alpha virt. eigenvalues --    0.04221   0.04918   0.04986   0.05102   0.05303
 Alpha virt. eigenvalues --    0.05931   0.06414   0.06744   0.06820   0.07067

 Mulliken charges:
               1
     1  H   -0.253391
     2  C    1.070591
     3  C   -0.912668
     4  C    1.172711
     5  H   -0.232036
     6  N    1.928718
     7  O   -1.996743
     8  C    2.067844
     9  C   -2.199851
    10  C    0.023511
    11  O   -1.936206
    12  C    0.048704
    13  H    0.156616
    14  H    0.168136
    15  H    0.020162
    16  C   -0.057977
    17  S    2.431865
    18  H    0.196402
    19  H    0.116531
    20  C   -2.717736
    21  O   -1.649162
    22  N    1.516860
    23  N    1.973500
    24  C   -2.796086
    25  H    0.004285
    26  C   -1.442586
    27  C    1.111429
    28  C    1.500706
    29  H   -0.323065
    30  C    1.721244
    31  H   -0.329281
    32  C    0.399311
    33  O   -1.828449
    34  H   -0.289692
    35  C    3.094940
    36  F   -0.983365
    37  F   -0.959796
    38  H   -0.247496
    39  H    0.068055
    40  H    0.028305
    41  H    0.335161
 Sum of Mulliken charges =   0.00000

 Dipole moment (field-independent basis, Debye):
    X=              6.5815    Y=              8.2303    Z=             -1.7365  Tot=             10.6804

 Test job not archived.
 1\1\GINC-SE456\SP\RHF\Aug-CC-pVDZ\C16H15F2N3O4S1\OHZDE\08-Apr-2025\0\\
 #t hf aug-cc-pvdz iop(5/13=1,5/36=2,99/5=2) pseudo=read geom=check gue
 ss=(read,tcheck) scf=(maxcycle=1)\\title\\0,1\H,0,7.02521,0.40552,-0.2
 8665\C,0,6.0058,0.0335,-0.39445\C,0,5.73255,-1.21868,-0.93724\C,0,4.93
 904,0.84306,0.004\H,0,6.55034,-1.87264,-1.25195\N,0,4.49413,-1.69162,-
 1.12753\O,0,5.21809,2.07124,0.53948\C,0,3.63586,0.32371,-0.11846\C,0,3
 .46008,-0.93324,-0.72976\C,0,4.5986,3.19669,-0.11177\O,0,2.51897,1.019
 55,0.31585\C,0,2.08956,-1.48456,-0.96021\H,0,4.90044,3.23331,-1.17002\

 Normal termination of Gaussian 16 at Tue Apr  8 18:55:01 2025.
