 Gaussian 16, Revision C.01,

 ----------------------------------------------------------------------
 #t hf aug-cc-pvdz symm=none int=(grid=ultrafine) guess=(read,tcheck) s
 table=(opt,rrhf)
 ----------------------------------------------------------------------
 -----
 title
 -----
 Symbolic Z-matrix:
 Charge =  0 Multiplicity = 1

 SCF Done:  E(RHF) =  -798.290954795     A.U. after    4 cycles

 1\1\GINC-SE212\Stability\RHF\Aug-CC-pVDZ\C9H14O6\OHZDE\08-Apr-2025\0\\
 #t hf aug-cc-pvdz symm=none int=(grid=ultrafine) guess=(read,tcheck) s
 table=(opt,rrhf)\\title\\0,1\H,0,0.80845,2.4183,2.00885\C,0,1.72571,2.
 19518,1.44378\C,0,1.51088,2.36396,-0.04267\H,0,2.03208,1.1688,1.68625\
 H,0,2.50901,2.89623,1.74668\O,0,0.55718,1.58888,-0.66076\O,0,2.11551,3
 .15707,-0.72443\C,0,-0.15076,0.53274,0.01642\C,0,-1.6037,0.66683,-0.42
 527\C,0,0.43521,-0.80731,-0.38322\H,0,-0.09639,0.65224,1.10822\O,0,-2.
 36378,-0.30136,0.3269\H,0,-1.71479,0.48097,-1.50411\H,0,-1.9707,1.6819

 Normal termination of Gaussian 16 at Tue Apr  8 19:57:15 2025.
 Gaussian 16:  ES64L-G16RevC.01  3-Jul-2019

 ----------------------------------------------------------------------
 #t hf aug-cc-pvdz iop(5/13=1,5/36=2,99/5=2) pseudo=read geom=check gue
 ss=(read,tcheck) scf=(maxcycle=1)
 ----------------------------------------------------------------------
 -----
 title
 -----
 Structure from the checkpoint file:  "37Conf8_Triacetin_6_mol1.chk"
 Charge =  0 Multiplicity = 1

                         Standard orientation:
 ---------------------------------------------------------------------
 Center     Atomic      Atomic             Coordinates (Angstroms)
 Number     Number       Type             X           Y           Z
 ---------------------------------------------------------------------
      1          1           0        0.808451    2.418300    2.008851
      2          6           0        1.725711    2.195179    1.443781
      3          6           0        1.510881    2.363959   -0.042669
      4          1           0        2.032080    1.168799    1.686251
      5          1           0        2.509011    2.896229    1.746681
      6          8           0        0.557181    1.588880   -0.660759
      7          8           0        2.115511    3.157069   -0.724429
      8          6           0       -0.150760    0.532740    0.016421
      9          6           0       -1.603700    0.666831   -0.425269
     10          6           0        0.435209   -0.807310   -0.383219
     11          1           0       -0.096390    0.652240    1.108221
     12          8           0       -2.363780   -0.301359    0.326901
     13          1           0       -1.714790    0.480971   -1.504109
     14          1           0       -1.970699    1.681921   -0.218409
     15          8           0        1.753349   -0.899341    0.196941
     16          1           0        0.506969   -0.884780   -1.478359
     17          1           0       -0.194341   -1.629380   -0.013309
     18          6           0       -3.706040   -0.312878    0.057641
     19          6           0        2.454219   -2.025391   -0.136559
     20          6           0       -4.397671   -1.383688    0.857461
     21          8           0       -4.227860    0.441822   -0.733629
     22          6           0        3.833399   -1.987622    0.464901
     23          8           0        1.998898   -2.906691   -0.833049
     24          1           0       -4.131492   -2.370578    0.451081
     25          1           0       -5.480981   -1.246327    0.788381
     26          1           0       -4.072401   -1.361508    1.905571
     27          1           0        4.420569   -1.191122   -0.014849
     28          1           0        4.326688   -2.951072    0.305711
     29          1           0        3.783449   -1.757652    1.537601
 ---------------------------------------------------------------------

 SCF Done:  E(RHF) =  -799.089841057     A.U. after    2 cycles

 The electronic state is 1-A.
 Alpha  occ. eigenvalues --  -20.60845 -20.60636 -20.59598 -20.55071 -20.54954
 Alpha  occ. eigenvalues --  -20.53498 -11.40788 -11.40667 -11.40040 -11.33115
 Alpha  occ. eigenvalues --  -11.32005 -11.31615 -11.26758 -11.26696 -11.26670
 Alpha  occ. eigenvalues --   -1.55577  -1.55164  -1.53714  -1.46310  -1.46140
 Alpha  occ. eigenvalues --   -1.44967  -1.10496  -1.05220  -1.03422  -1.02373
 Alpha  occ. eigenvalues --   -0.95843  -0.87713  -0.81631  -0.80829  -0.78571
 Alpha  occ. eigenvalues --   -0.72499  -0.71795  -0.71660  -0.70260  -0.69345
 Alpha  occ. eigenvalues --   -0.68726  -0.67834  -0.65869  -0.65292  -0.62261
 Alpha  occ. eigenvalues --   -0.61384  -0.60442  -0.59507  -0.58742  -0.58248
 Alpha  occ. eigenvalues --   -0.57819  -0.55829  -0.54643  -0.54168  -0.53804
 Alpha  occ. eigenvalues --   -0.52697  -0.51492  -0.47515  -0.46817  -0.45943
 Alpha  occ. eigenvalues --   -0.45576  -0.45076  -0.44187
 Alpha virt. eigenvalues --    0.02323   0.02964   0.03269   0.04160   0.04638
 Alpha virt. eigenvalues --    0.04896   0.05565   0.05855   0.06719   0.06871
 Alpha virt. eigenvalues --    0.07604   0.08198   0.09019   0.09275   0.09674

 Mulliken charges:
               1
     1  H    0.309294
     2  C   -0.571850
     3  C    1.948701
     4  H    0.333975
     5  H   -0.012958
     6  O   -1.610596
     7  O   -1.322935
     8  C    0.521030
     9  C    0.455769
    10  C    0.473768
    11  H    0.322901
    12  O   -1.217608
    13  H    0.184935
    14  H    0.142507
    15  O   -1.241944
    16  H    0.204354
    17  H    0.171627
    18  C    1.722960
    19  C    1.687927
    20  C   -0.755374
    21  O   -1.194676
    22  C   -0.758800
    23  O   -1.229100
    24  H    0.273881
    25  H    0.189646
    26  H    0.230601
    27  H    0.300344
    28  H    0.179116
    29  H    0.262505
 Sum of Mulliken charges =  -0.00000

 Dipole moment (field-independent basis, Debye):
    X=             -0.1625    Y=             -2.4976    Z=              5.4878  Tot=              6.0316

 Test job not archived.
 1\1\GINC-SE212\SP\RHF\Aug-CC-pVDZ\C9H14O6\OHZDE\08-Apr-2025\0\\#t hf a
 ug-cc-pvdz iop(5/13=1,5/36=2,99/5=2) pseudo=read geom=check guess=(rea
 d,tcheck) scf=(maxcycle=1)\\title\\0,1\H,0,0.80845,2.4183,2.00885\C,0,
 1.72571,2.19518,1.44378\C,0,1.51088,2.36396,-0.04267\H,0,2.03208,1.168
 8,1.68625\H,0,2.50901,2.89623,1.74668\O,0,0.55718,1.58888,-0.66076\O,0
 ,2.11551,3.15707,-0.72443\C,0,-0.15076,0.53274,0.01642\C,0,-1.6037,0.6
 6683,-0.42527\C,0,0.43521,-0.80731,-0.38322\H,0,-0.09639,0.65224,1.108
 22\O,0,-2.36378,-0.30136,0.3269\H,0,-1.71479,0.48097,-1.50411\H,0,-1.9

 Normal termination of Gaussian 16 at Tue Apr  8 19:57:52 2025.
