 Gaussian 16, Revision C.01,

 ----------------------------------------------------------------------
 #t hf aug-cc-pvdz symm=none int=(grid=ultrafine) guess=(read,tcheck) s
 table=(opt,rrhf)
 ----------------------------------------------------------------------
 -----
 title
 -----
 Symbolic Z-matrix:
 Charge =  0 Multiplicity = 1

 SCF Done:  E(RHF) =  -798.279841861     A.U. after   14 cycles

 1\1\GINC-SE335\Stability\RHF\Aug-CC-pVDZ\C9H14O6\OHZDE\08-Apr-2025\0\\
 #t hf aug-cc-pvdz symm=none int=(grid=ultrafine) guess=(read,tcheck) s
 table=(opt,rrhf)\\title\\0,1\H,0,1.45865,-0.52659,1.53204\C,0,1.66486,
 -1.60088,1.47201\C,0,2.06687,-2.01859,0.0779\H,0,0.7654,-2.14572,1.791
 88\H,0,2.48823,-1.86242,2.14389\O,0,1.26153,-1.71742,-0.99982\O,0,3.06
 219,-2.66377,-0.15555\C,0,0.14017,-0.80794,-1.06154\C,0,0.57099,0.6368
 7,-1.24057\C,0,-0.93146,-1.01805,0.00739\H,0,-0.32652,-1.08812,-2.0199
 8\O,0,1.08383,1.16043,0.00318\H,0,1.35067,0.70336,-2.01306\H,0,-0.2895

 Normal termination of Gaussian 16 at Tue Apr  8 18:40:22 2025.
 Gaussian 16:  ES64L-G16RevC.01  3-Jul-2019

 ----------------------------------------------------------------------
 #t hf aug-cc-pvdz iop(5/13=1,5/36=2,99/5=2) pseudo=read geom=check gue
 ss=(read,tcheck) scf=(maxcycle=1)
 ----------------------------------------------------------------------
 -----
 title
 -----
 Structure from the checkpoint file:  "37Conf8_Triacetin_8_mol1.chk"
 Charge =  0 Multiplicity = 1

                         Standard orientation:
 ---------------------------------------------------------------------
 Center     Atomic      Atomic             Coordinates (Angstroms)
 Number     Number       Type             X           Y           Z
 ---------------------------------------------------------------------
      1          1           0        1.458650   -0.526589    1.532039
      2          6           0        1.664860   -1.600879    1.472009
      3          6           0        2.066870   -2.018589    0.077899
      4          1           0        0.765400   -2.145720    1.791879
      5          1           0        2.488230   -1.862419    2.143889
      6          8           0        1.261530   -1.717420   -0.999821
      7          8           0        3.062190   -2.663769   -0.155551
      8          6           0        0.140170   -0.807940   -1.061541
      9          6           0        0.570990    0.636870   -1.240571
     10          6           0       -0.931460   -1.018050    0.007389
     11          1           0       -0.326520   -1.088120   -2.019981
     12          8           0        1.083830    1.160430    0.003179
     13          1           0        1.350670    0.703361   -2.013061
     14          1           0       -0.289530    1.240290   -1.563691
     15          8           0       -2.135860   -0.437150   -0.540071
     16          1           0       -1.089460   -2.092220    0.186079
     17          1           0       -0.703540   -0.530880    0.961409
     18          6           0        1.281000    2.514971    0.029719
     19          6           0       -3.165280   -0.295610    0.350279
     20          6           0        1.833940    2.940201    1.363379
     21          8           0        1.034450    3.239520   -0.909571
     22          6           0       -4.353320    0.344060   -0.315691
     23          8           0       -3.093410   -0.644020    1.509369
     24          1           0        1.950430    4.027791    1.379209
     25          1           0        2.807200    2.459191    1.535699
     26          1           0        1.163080    2.622130    2.173539
     27          1           0       -4.639110   -0.221930   -1.212631
     28          1           0       -4.095000    1.361870   -0.641191
     29          1           0       -5.188960    0.382300    0.389269
 ---------------------------------------------------------------------

 SCF Done:  E(RHF) =  -799.078001887     A.U. after    2 cycles

 The electronic state is 1-A.
 Alpha  occ. eigenvalues --  -20.61139 -20.60899 -20.59218 -20.55438 -20.55334
 Alpha  occ. eigenvalues --  -20.53241 -11.41127 -11.41040 -11.39841 -11.33442
 Alpha  occ. eigenvalues --  -11.32360 -11.31911 -11.26985 -11.26924 -11.26089
 Alpha  occ. eigenvalues --   -1.55823  -1.55417  -1.53221  -1.46620  -1.46477
 Alpha  occ. eigenvalues --   -1.44512  -1.10509  -1.05498  -1.03374  -1.02433
 Alpha  occ. eigenvalues --   -0.96432  -0.88915  -0.82315  -0.80058  -0.77337
 Alpha  occ. eigenvalues --   -0.73027  -0.71994  -0.71090  -0.71007  -0.69644
 Alpha  occ. eigenvalues --   -0.68684  -0.66948  -0.66149  -0.65414  -0.62452
 Alpha  occ. eigenvalues --   -0.61660  -0.60242  -0.59801  -0.59163  -0.58956
 Alpha  occ. eigenvalues --   -0.58502  -0.56055  -0.55436  -0.54386  -0.53611
 Alpha  occ. eigenvalues --   -0.52096  -0.50015  -0.47724  -0.47241  -0.46177
 Alpha  occ. eigenvalues --   -0.45920  -0.45096  -0.43928
 Alpha virt. eigenvalues --    0.02772   0.02877   0.03683   0.03777   0.04851
 Alpha virt. eigenvalues --    0.04950   0.05499   0.05724   0.06712   0.06787
 Alpha virt. eigenvalues --    0.08072   0.08186   0.08774   0.09722   0.10354

 Mulliken charges:
               1
     1  H    0.298004
     2  C   -0.412208
     3  C    1.813239
     4  H    0.326250
     5  H   -0.050990
     6  O   -1.849627
     7  O   -1.294056
     8  C    1.491158
     9  C    0.161413
    10  C    0.328408
    11  H    0.201556
    12  O   -1.192230
    13  H    0.144799
    14  H    0.189738
    15  O   -1.469198
    16  H    0.193064
    17  H    0.187768
    18  C    1.792140
    19  C    1.646537
    20  C   -0.752512
    21  O   -1.256263
    22  C   -0.715834
    23  O   -1.215591
    24  H    0.173205
    25  H    0.268346
    26  H    0.282703
    27  H    0.254026
    28  H    0.261360
    29  H    0.194792
 Sum of Mulliken charges =  -0.00000

 Dipole moment (field-independent basis, Debye):
    X=             -3.1780    Y=              2.1570    Z=              1.1640  Tot=              4.0134

 Test job not archived.
 1\1\GINC-SE335\SP\RHF\Aug-CC-pVDZ\C9H14O6\OHZDE\08-Apr-2025\0\\#t hf a
 ug-cc-pvdz iop(5/13=1,5/36=2,99/5=2) pseudo=read geom=check guess=(rea
 d,tcheck) scf=(maxcycle=1)\\title\\0,1\H,0,1.45865,-0.52659,1.53204\C,
 0,1.66486,-1.60088,1.47201\C,0,2.06687,-2.01859,0.0779\H,0,0.7654,-2.1
 4572,1.79188\H,0,2.48823,-1.86242,2.14389\O,0,1.26153,-1.71742,-0.9998
 2\O,0,3.06219,-2.66377,-0.15555\C,0,0.14017,-0.80794,-1.06154\C,0,0.57
 099,0.63687,-1.24057\C,0,-0.93146,-1.01805,0.00739\H,0,-0.32652,-1.088
 12,-2.01998\O,0,1.08383,1.16043,0.00318\H,0,1.35067,0.70336,-2.01306\H

 Normal termination of Gaussian 16 at Tue Apr  8 18:40:54 2025.
