 Gaussian 16, Revision C.01,

 ----------------------------------------------------------------------
 #t hf aug-cc-pvdz symm=none int=(grid=ultrafine) guess=(read,tcheck) s
 table=(opt,rrhf)
 ----------------------------------------------------------------------
 -----
 title
 -----
 Symbolic Z-matrix:
 Charge =  0 Multiplicity = 1

 SCF Done:  E(RHF) =  -1153.32109199     A.U. after   16 cycles
 Normal termination of Gaussian 16 at Tue Apr  8 18:30:22 2025.
 Gaussian 16:  ES64L-G16RevC.01  3-Jul-2019

 ----------------------------------------------------------------------
 #t hf aug-cc-pvdz iop(5/13=1,5/36=2,99/5=2) pseudo=read geom=check gue
 ss=(read,tcheck) scf=(maxcycle=1)
 ----------------------------------------------------------------------
 -----
 title
 -----
 Structure from the checkpoint file:  "37Conf8_Pyridoxalphosphate_7_mol1.chk"
 Charge =  0 Multiplicity = 1

                         Standard orientation:
 ---------------------------------------------------------------------
 Center     Atomic      Atomic             Coordinates (Angstroms)
 Number     Number       Type             X           Y           Z
 ---------------------------------------------------------------------
      1          1           0        2.810909    2.519151    0.331241
      2          8           0        3.392470    1.737352    0.365501
      3          6           0        2.688290    0.607361    0.092301
      4          6           0        1.315220    0.572641   -0.250139
      5          6           0        3.431851   -0.598148    0.181151
      6          6           0        0.596550    1.833200   -0.432689
      7          6           0        0.723241   -0.705080   -0.463809
      8          7           0        2.853981   -1.775869   -0.041339
      9          6           0        4.886661   -0.561968    0.534901
     10          8           0       -0.601071    1.987550   -0.637399
     11          1           0        1.234879    2.757381   -0.416549
     12          6           0        1.544611   -1.818399   -0.347969
     13          6           0       -0.720029   -0.913250   -0.819639
     14          1           0        5.454820    0.047483   -0.184049
     15          1           0        5.279321   -1.584257    0.540111
     16          1           0        5.041990   -0.103468    1.523351
     17          1           0        1.124012   -2.814599   -0.512679
     18          8           0       -1.532649   -0.672711    0.356631
     19          1           0       -1.039199   -0.255710   -1.640119
     20          1           0       -0.871159   -1.954930   -1.138459
     21         15           0       -3.061260   -0.175941    0.129151
     22          8           0       -3.036280    1.363179    0.593901
     23          8           0       -3.861369   -0.846232    1.342431
     24          8           0       -3.602909   -0.500111   -1.201579
     25          1           0       -2.296420    1.823439    0.136271
     26          1           0       -3.662019   -0.414652    2.192471
 ---------------------------------------------------------------------

 SCF Done:  E(RHF) =  -1154.16853783     A.U. after    2 cycles

 The electronic state is 1-A.
 Alpha  occ. eigenvalues --  -84.45275 -20.63162 -20.59366 -20.58962 -20.58120
 Alpha  occ. eigenvalues --  -20.58090 -20.49681 -15.54346 -11.40301 -11.36549
 Alpha  occ. eigenvalues --  -11.32472 -11.31496 -11.30282 -11.29792 -11.29276
 Alpha  occ. eigenvalues --  -11.25414  -6.89965  -4.44101  -4.43476  -4.43345
 Alpha  occ. eigenvalues --   -1.54668  -1.54565  -1.51856  -1.47093  -1.45984
 Alpha  occ. eigenvalues --   -1.37641  -1.29007  -1.14662  -1.09289  -1.03252
 Alpha  occ. eigenvalues --   -0.96700  -0.94450  -0.88680  -0.84330  -0.82082
 Alpha  occ. eigenvalues --   -0.80382  -0.75478  -0.74185  -0.73435  -0.72126
 Alpha  occ. eigenvalues --   -0.69407  -0.66827  -0.66088  -0.65504  -0.64979
 Alpha  occ. eigenvalues --   -0.62598  -0.61691  -0.59774  -0.58969  -0.58102
 Alpha  occ. eigenvalues --   -0.57469  -0.57038  -0.56005  -0.55483  -0.54783
 Alpha  occ. eigenvalues --   -0.54327  -0.51482  -0.49737  -0.48015  -0.46218
 Alpha  occ. eigenvalues --   -0.45530  -0.44508  -0.42409  -0.35683
 Alpha virt. eigenvalues --   -0.00004   0.01835   0.03069   0.03928   0.04129
 Alpha virt. eigenvalues --    0.04649   0.05068   0.05265   0.06590   0.07307
 Alpha virt. eigenvalues --    0.07372   0.08535   0.08984   0.09593   0.10071

 Mulliken charges:
               1
     1  H    0.409409
     2  O   -1.878711
     3  C    1.594729
     4  C    1.342894
     5  C   -2.076984
     6  C    0.659842
     7  C    1.602739
     8  N    1.493358
     9  C   -0.305602
    10  O   -1.495321
    11  H   -0.075537
    12  C   -1.446468
    13  C    0.076939
    14  H    0.294263
    15  H    0.123982
    16  H    0.303528
    17  H   -0.229988
    18  O   -1.762083
    19  H    0.228602
    20  H   -0.054515
    21  P    4.381577
    22  O   -1.443273
    23  O   -1.268823
    24  O   -1.432306
    25  H    0.604121
    26  H    0.353629
 Sum of Mulliken charges =  -0.00000

 Dipole moment (field-independent basis, Debye):
    X=              6.1663    Y=              3.4333    Z=              2.2072  Tot=              7.3948

 Test job not archived.
 1\1\GINC-SE435\SP\RHF\Aug-CC-pVDZ\C8H10N1O6P1\OHZDE\08-Apr-2025\0\\#t
 hf aug-cc-pvdz iop(5/13=1,5/36=2,99/5=2) pseudo=read geom=check guess=
 (read,tcheck) scf=(maxcycle=1)\\title\\0,1\H,0,2.81091,2.51915,0.33124
 \O,0,3.39247,1.73735,0.3655\C,0,2.68829,0.60736,0.0923\C,0,1.31522,0.5
 7264,-0.25014\C,0,3.43185,-0.59815,0.18115\C,0,0.59655,1.8332,-0.43269
 \C,0,0.72324,-0.70508,-0.46381\N,0,2.85398,-1.77587,-0.04134\C,0,4.886
 66,-0.56197,0.5349\O,0,-0.60107,1.98755,-0.6374\H,0,1.23488,2.75738,-0
 .41655\C,0,1.54461,-1.8184,-0.34797\C,0,-0.72003,-0.91325,-0.81964\H,0

 Normal termination of Gaussian 16 at Tue Apr  8 18:30:51 2025.
