 Gaussian 16, Revision C.01,

 ----------------------------------------------------------------------
 #t hf aug-cc-pvdz symm=none int=(grid=ultrafine) guess=(read,tcheck) s
 table=(opt,rrhf)
 ----------------------------------------------------------------------
 -----
 title
 -----
 Symbolic Z-matrix:
 Charge =  0 Multiplicity = 1

 SCF Done:  E(RHF) =  -983.492311277     A.U. after   14 cycles
 Normal termination of Gaussian 16 at Tue Apr  8 19:02:23 2025.
 Gaussian 16:  ES64L-G16RevC.01  3-Jul-2019

 ----------------------------------------------------------------------
 #t hf aug-cc-pvdz iop(5/13=1,5/36=2,99/5=2) pseudo=read geom=check gue
 ss=(read,tcheck) scf=(maxcycle=1)
 ----------------------------------------------------------------------
 -----
 title
 -----
 Structure from the checkpoint file:  "37Conf8_Tsogoeva_2_mol2.chk"
 Charge =  0 Multiplicity = 1

                         Standard orientation:
 ---------------------------------------------------------------------
 Center     Atomic      Atomic             Coordinates (Angstroms)
 Number     Number       Type             X           Y           Z
 ---------------------------------------------------------------------
      1          1           0        5.258510   -0.746550   -0.973430
      2          8           0        5.889250   -0.066370   -0.575430
      3          6           0        5.044590    0.881230   -0.128130
      4          6           0        3.579290    0.584720   -0.509900
      5          8           0        5.398260    1.868520    0.480310
      6          1           0        3.371350    1.192580   -1.403420
      7          7           0        3.455150   -0.845920   -0.853310
      8          6           0        2.583170    0.891120    0.630190
      9          1           0        2.667930   -0.943000   -1.505080
     10          6           0        3.041540   -1.490190    0.404980
     11          1           0        3.071250    1.481930    1.416170
     12          1           0        1.722870    1.463260    0.262500
     13          6           0        2.110050   -0.497820    1.144630
     14          1           0        3.935060   -1.664350    1.026030
     15          1           0        2.564480   -2.458180    0.210040
     16          1           0        2.259540   -0.581320    2.229240
     17          7           0        0.687400   -0.747920    0.933020
     18          6           0        0.055210   -0.834720   -0.258050
     19          1           0        0.036860   -0.750380    1.725440
     20          6           0       -1.466500   -1.047061   -0.118790
     21          8           0        0.601530   -0.793520   -1.369190
     22          1           0       -1.628130   -2.131731   -0.216050
     23          7           0       -1.950000   -0.596791    1.198060
     24          6           0       -2.258370   -0.267761   -1.192460
     25          1           0       -2.842110   -1.071701    1.372510
     26          6           0       -2.275180    0.821579    0.995160
     27          1           0       -3.090870   -0.874111   -1.568630
     28          1           0       -1.612870   -0.004021   -2.039810
     29          6           0       -2.816650    0.979129   -0.453820
     30          1           0       -2.985130    1.172609    1.753480
     31          1           0       -1.351100    1.415799    1.088440
     32          1           0       -2.421480    1.902269   -0.898380
     33          7           0       -4.273320    1.112189   -0.538160
     34          6           0       -5.168970    0.224889   -0.018920
     35          1           0       -4.638550    1.873119   -1.099150
     36          6           0       -6.627940    0.517679   -0.312810
     37          8           0       -4.831680   -0.758011    0.648500
     38          1           0       -7.037250   -0.309821   -0.908690
     39          1           0       -6.795590    1.460499   -0.850390
     40          1           0       -7.179700    0.540479    0.635970
 ---------------------------------------------------------------------

 SCF Done:  E(RHF) =  -984.491393016     A.U. after    2 cycles

 The electronic state is 1-A.
 Alpha  occ. eigenvalues --  -20.57130 -20.52528 -20.51922 -20.51618 -15.54983
 Alpha  occ. eigenvalues --  -15.53128 -15.50511 -15.50272 -11.38056 -11.37392
 Alpha  occ. eigenvalues --  -11.36430 -11.29864 -11.29210 -11.28534 -11.28357
 Alpha  occ. eigenvalues --  -11.27579 -11.27269 -11.26700 -11.24540 -11.24440
 Alpha  occ. eigenvalues --   -1.51401  -1.46798  -1.45855  -1.42883  -1.27458
 Alpha  occ. eigenvalues --   -1.26158  -1.23703  -1.22136  -1.05941  -1.05093
 Alpha  occ. eigenvalues --   -1.02847  -1.01644  -0.99681  -0.90348  -0.88244
 Alpha  occ. eigenvalues --   -0.87951  -0.84078  -0.80635  -0.79544  -0.78305
 Alpha  occ. eigenvalues --   -0.74581  -0.74331  -0.72493  -0.71117  -0.70950
 Alpha  occ. eigenvalues --   -0.69054  -0.68269  -0.66266  -0.65801  -0.65058
 Alpha  occ. eigenvalues --   -0.63111  -0.62359  -0.61152  -0.60484  -0.59828
 Alpha  occ. eigenvalues --   -0.58999  -0.58622  -0.57657  -0.56150  -0.55635
 Alpha  occ. eigenvalues --   -0.54119  -0.53778  -0.53209  -0.51984  -0.51858
 Alpha  occ. eigenvalues --   -0.51446  -0.50686  -0.50295  -0.46949  -0.46456
 Alpha  occ. eigenvalues --   -0.44640  -0.44128  -0.42940  -0.42137  -0.41495
 Alpha  occ. eigenvalues --   -0.40549
 Alpha virt. eigenvalues --    0.01781   0.02787   0.03151   0.03557   0.03840
 Alpha virt. eigenvalues --    0.04042   0.04251   0.04434   0.05017   0.05519
 Alpha virt. eigenvalues --    0.06269   0.06757   0.07082   0.07742   0.07940

 Mulliken charges:
               1
     1  H    0.596341
     2  O   -1.448284
     3  C    2.597891
     4  C   -0.955319
     5  O   -1.413374
     6  H    0.176107
     7  N    0.650102
     8  C   -0.002395
     9  H    0.431526
    10  C   -0.296234
    11  H    0.095815
    12  H    0.072177
    13  C   -1.831427
    14  H    0.020208
    15  H    0.024168
    16  H   -0.059157
    17  N    1.897869
    18  C    0.742667
    19  H    0.257666
    20  C   -0.677871
    21  O   -1.702282
    22  H    0.067824
    23  N    0.814329
    24  C    0.075011
    25  H    0.433549
    26  C   -0.306172
    27  H    0.091836
    28  H    0.120588
    29  C   -1.858431
    30  H   -0.013999
    31  H    0.078108
    32  H    0.008435
    33  N    1.787119
    34  C    0.778703
    35  H    0.148508
    36  C   -0.573140
    37  O   -1.427563
    38  H    0.250725
    39  H    0.106454
    40  H    0.241922
 Sum of Mulliken charges =  -0.00000

 Dipole moment (field-independent basis, Debye):
    X=             -9.2444    Y=              0.6167    Z=             -0.8272  Tot=              9.3018

 Test job not archived.
 1\1\GINC-SE457\SP\RHF\Aug-CC-pVDZ\C12H20N4O4\OHZDE\08-Apr-2025\0\\#t h
 f aug-cc-pvdz iop(5/13=1,5/36=2,99/5=2) pseudo=read geom=check guess=(
 read,tcheck) scf=(maxcycle=1)\\title\\0,1\H,0,5.25851,-0.74655,-0.9734
 3\O,0,5.88925,-0.06637,-0.57543\C,0,5.04459,0.88123,-0.12813\C,0,3.579
 29,0.58472,-0.5099\O,0,5.39826,1.86852,0.48031\H,0,3.37135,1.19258,-1.
 40342\N,0,3.45515,-0.84592,-0.85331\C,0,2.58317,0.89112,0.63019\H,0,2.
 66793,-0.943,-1.50508\C,0,3.04154,-1.49019,0.40498\H,0,3.07125,1.48193
 ,1.41617\H,0,1.72287,1.46326,0.2625\C,0,2.11005,-0.49782,1.14463\H,0,3

 Normal termination of Gaussian 16 at Tue Apr  8 19:03:42 2025.
