 Gaussian 16, Revision C.01,

 ----------------------------------------------------------------------
 #t hf aug-cc-pvdz symm=none int=(grid=ultrafine) guess=(read,tcheck) s
 table=(opt,rrhf)
 ----------------------------------------------------------------------
 -----
 title
 -----
 Symbolic Z-matrix:
 Charge =  0 Multiplicity = 1

 SCF Done:  E(RHF) =  -1673.88173206     A.U. after   17 cycles
 Normal termination of Gaussian 16 at Tue Apr  8 18:56:17 2025.
 Gaussian 16:  ES64L-G16RevC.01  3-Jul-2019

 ----------------------------------------------------------------------
 #t hf aug-cc-pvdz iop(5/13=1,5/36=2,99/5=2) pseudo=read geom=check gue
 ss=(read,tcheck) scf=(maxcycle=1)
 ----------------------------------------------------------------------
 -----
 title
 -----
 Structure from the checkpoint file:  "37Conf8_Pantoprazole_7_mol1.chk"
 Charge =  0 Multiplicity = 1

                         Standard orientation:
 ---------------------------------------------------------------------
 Center     Atomic      Atomic             Coordinates (Angstroms)
 Number     Number       Type             X           Y           Z
 ---------------------------------------------------------------------
      1          1           0        2.342768    2.853031    2.449440
      2          6           0        2.509598    2.059251    1.720450
      3          6           0        3.158809    0.876211    2.059530
      4          6           0        2.097428    2.251270    0.398610
      5          1           0        3.507889    0.714541    3.083740
      6          7           0        3.412979   -0.107739    1.185990
      7          8           0        1.470478    3.423490    0.087210
      8          6           0        2.307079    1.203831   -0.525880
      9          6           0        2.987109    0.050381   -0.082840
     10          6           0        2.028597    4.182360   -1.004660
     11          8           0        1.935379    1.300490   -1.841840
     12          6           0        3.207310   -1.095979   -1.011620
     13          1           0        2.006488    3.623690   -1.949580
     14          1           0        1.410877    5.083790   -1.080970
     15          1           0        3.066827    4.465011   -0.770850
     16          6           0        0.508799    1.349530   -2.079500
     17         16           0        2.447671   -2.681889   -0.364250
     18          1           0        2.756930   -0.945539   -1.999400
     19          1           0        4.271380   -1.352138   -1.109580
     20          6           0        0.845640   -1.934950    0.072220
     21          8           0        2.258201   -3.567379   -1.546710
     22          7           0       -0.197690   -1.784631   -0.715440
     23          7           0        0.616570   -1.542370    1.371580
     24          6           0       -1.172440   -1.226951    0.100390
     25          1           0        1.329810   -1.487520    2.092850
     26          6           0       -0.673280   -1.047641    1.418290
     27          6           0       -2.485240   -0.849342   -0.221090
     28          6           0       -1.446540   -0.485641    2.436370
     29          1           0       -2.886200   -1.040582   -1.215300
     30          6           0       -3.239371   -0.272932    0.797020
     31          1           0       -1.065121   -0.347761    3.448450
     32          6           0       -2.737131   -0.092862    2.102960
     33          8           0       -4.554641    0.152627    0.623130
     34          1           0       -3.391771    0.363168    2.845260
     35          6           0       -4.941461    0.512347   -0.644460
     36          9           0       -5.338870   -0.586453   -1.371550
     37          9           0       -6.025261    1.315656   -0.513650
     38          1           0       -4.147741    1.030647   -1.209420
     39          1           0        0.391969    1.609030   -3.138020
     40          1           0        0.066409    0.362019   -1.885400
     41          1           0        0.026158    2.112069   -1.450470
 ---------------------------------------------------------------------

 SCF Done:  E(RHF) =  -1675.19070645     A.U. after    2 cycles

 The electronic state is 1-A.
 Alpha  occ. eigenvalues --  -94.09654 -26.49200 -26.48619 -20.60960 -20.59799
 Alpha  occ. eigenvalues --  -20.58843 -20.51183 -15.58240 -15.53167 -15.51857
 Alpha  occ. eigenvalues --  -11.48793 -11.35414 -11.34920 -11.33118 -11.33073
 Alpha  occ. eigenvalues --  -11.31841 -11.31517 -11.30844 -11.30420 -11.29855
 Alpha  occ. eigenvalues --  -11.29371 -11.28828 -11.27670 -11.27177 -11.26566
 Alpha  occ. eigenvalues --  -11.26517  -8.36324  -6.34160  -6.34015  -6.33802
 Alpha  occ. eigenvalues --   -1.66890  -1.58750  -1.52914  -1.52400  -1.50116
 Alpha  occ. eigenvalues --   -1.45026  -1.36462  -1.28536  -1.20752  -1.16453
 Alpha  occ. eigenvalues --   -1.11507  -1.10398  -1.05726  -1.04262  -1.02261
 Alpha  occ. eigenvalues --   -0.97970  -0.97011  -0.95360  -0.93481  -0.88725
 Alpha  occ. eigenvalues --   -0.88190  -0.87323  -0.86653  -0.83932  -0.80416
 Alpha  occ. eigenvalues --   -0.78163  -0.77912  -0.76643  -0.76102  -0.74384
 Alpha  occ. eigenvalues --   -0.72384  -0.71478  -0.68420  -0.67770  -0.67324
 Alpha  occ. eigenvalues --   -0.67107  -0.66036  -0.65917  -0.65392  -0.64596
 Alpha  occ. eigenvalues --   -0.64425  -0.64270  -0.63750  -0.63005  -0.62810
 Alpha  occ. eigenvalues --   -0.61139  -0.61006  -0.59702  -0.59178  -0.58788
 Alpha  occ. eigenvalues --   -0.57269  -0.56992  -0.56019  -0.54513  -0.54320
 Alpha  occ. eigenvalues --   -0.53950  -0.53273  -0.51892  -0.50185  -0.49356
 Alpha  occ. eigenvalues --   -0.48896  -0.48253  -0.45589  -0.43598  -0.40029
 Alpha  occ. eigenvalues --   -0.39366  -0.36078  -0.35266  -0.33001
 Alpha virt. eigenvalues --    0.01906   0.02276   0.02827   0.02990   0.03571
 Alpha virt. eigenvalues --    0.04220   0.04498   0.05085   0.05413   0.06025
 Alpha virt. eigenvalues --    0.06079   0.06370   0.06824   0.07621   0.07657

 Mulliken charges:
               1
     1  H   -0.279796
     2  C    1.120216
     3  C   -0.972477
     4  C    1.130861
     5  H   -0.292722
     6  N    2.045215
     7  O   -1.976096
     8  C    2.538118
     9  C   -1.909574
    10  C    0.043997
    11  O   -2.239931
    12  C   -0.622054
    13  H    0.217390
    14  H    0.021838
    15  H    0.152585
    16  C    0.120985
    17  S    2.360856
    18  H    0.116039
    19  H    0.213850
    20  C   -3.102505
    21  O   -1.609185
    22  N    1.638321
    23  N    1.915670
    24  C   -1.160931
    25  H   -0.031634
    26  C   -1.169997
    27  C    1.067962
    28  C    1.202082
    29  H   -0.343168
    30  C    1.536538
    31  H   -0.349667
    32  C   -0.033201
    33  O   -2.006546
    34  H   -0.295027
    35  C    1.969711
    36  F   -0.722169
    37  F   -0.760608
    38  H    0.075677
    39  H    0.072046
    40  H    0.078105
    41  H    0.239228
 Sum of Mulliken charges =   0.00000

 Dipole moment (field-independent basis, Debye):
    X=              3.2098    Y=              7.2037    Z=              3.3394  Tot=              8.5643

 Test job not archived.
 1\1\GINC-SE460\SP\RHF\Aug-CC-pVDZ\C16H15F2N3O4S1\OHZDE\08-Apr-2025\0\\
 #t hf aug-cc-pvdz iop(5/13=1,5/36=2,99/5=2) pseudo=read geom=check gue
 ss=(read,tcheck) scf=(maxcycle=1)\\title\\0,1\H,0,2.34277,2.85303,2.44
 944\C,0,2.5096,2.05925,1.72045\C,0,3.15881,0.87621,2.05953\C,0,2.09743
 ,2.25127,0.39861\H,0,3.50789,0.71454,3.08374\N,0,3.41298,-0.10774,1.18
 599\O,0,1.47048,3.42349,0.08721\C,0,2.30708,1.20383,-0.52588\C,0,2.987
 11,0.05038,-0.08284\C,0,2.0286,4.18236,-1.00466\O,0,1.93538,1.30049,-1
 .84184\C,0,3.20731,-1.09598,-1.01162\H,0,2.00649,3.62369,-1.94958\H,0,

 Normal termination of Gaussian 16 at Tue Apr  8 18:58:24 2025.
