 Gaussian 16, Revision C.01,

 ----------------------------------------------------------------------
 #t hf aug-cc-pvdz symm=none int=(grid=ultrafine) guess=(read,tcheck) s
 table=(opt,rrhf)
 ----------------------------------------------------------------------
 -----
 title
 -----
 Symbolic Z-matrix:
 Charge =  0 Multiplicity = 1

 SCF Done:  E(RHF) =  -449.701487603     A.U. after   14 cycles
 Normal termination of Gaussian 16 at Tue Apr  8 19:02:50 2025.
 Gaussian 16:  ES64L-G16RevC.01  3-Jul-2019

 ----------------------------------------------------------------------
 #t hf aug-cc-pvdz iop(5/13=1,5/36=2,99/5=2) pseudo=read geom=check gue
 ss=(read,tcheck) scf=(maxcycle=1)
 ----------------------------------------------------------------------
 -----
 title
 -----
 Structure from the checkpoint file:  "3B-69_10c_imidazole_dimerAC_mol1.chk"
 Charge =  0 Multiplicity = 1

                         Standard orientation:
 ---------------------------------------------------------------------
 Center     Atomic      Atomic             Coordinates (Angstroms)
 Number     Number       Type             X           Y           Z
 ---------------------------------------------------------------------
      1          7           0        3.441796   -0.638641   -0.184330
      2          6           0        2.172638   -0.850052   -0.592355
      3          7           0        1.373228    0.139160   -0.223736
      4          6           0        2.176998    1.026545    0.457334
      5          6           0        3.459812    0.555990    0.491011
      6          1           0        4.244278   -1.295655   -0.286085
      7          1           0        1.858152   -1.720032   -1.141877
      8          1           0        1.793012    1.930548    0.891563
      9          1           0        4.347836    0.961930    0.938269
     10          7           0       -1.489341    0.012912   -0.154599
     11          6           0       -2.390180    0.940082   -0.542910
     12          7           0       -3.621123    0.595301   -0.197388
     13          6           0       -3.496092   -0.615497    0.447350
     14          6           0       -2.181076   -0.986508    0.482751
     15          1           0       -0.453126    0.078435   -0.243843
     16          1           0       -2.130129    1.846169   -1.061678
     17          1           0       -4.341068   -1.136555    0.856903
     18          1           0       -1.703479   -1.849319    0.908040
 ---------------------------------------------------------------------

 SCF Done:  E(RHF) =  -450.162004223     A.U. after    2 cycles

 The electronic state is 1-A.
 Alpha  occ. eigenvalues --  -15.59431 -15.51988 -15.51725 -15.45625 -11.33224
 Alpha  occ. eigenvalues --  -11.29065 -11.27562 -11.27014 -11.23719 -11.22233
 Alpha  occ. eigenvalues --   -1.37025  -1.30750  -1.20193  -1.13739  -1.04767
 Alpha  occ. eigenvalues --   -0.99081  -0.88413  -0.86086  -0.82235  -0.80889
 Alpha  occ. eigenvalues --   -0.80040  -0.75634  -0.66781  -0.65890  -0.65208
 Alpha  occ. eigenvalues --   -0.62469  -0.61153  -0.59848  -0.59634  -0.57098
 Alpha  occ. eigenvalues --   -0.51515  -0.47360  -0.45097  -0.40715  -0.36266
 Alpha  occ. eigenvalues --   -0.30953
 Alpha virt. eigenvalues --    0.01409   0.03340   0.03733   0.04759   0.05201
 Alpha virt. eigenvalues --    0.05810   0.06333   0.07678   0.08547   0.09256
 Alpha virt. eigenvalues --    0.10109   0.10774   0.11462   0.12238   0.12489

 Mulliken charges:
               1
     1  N    0.715865
     2  C   -0.685180
     3  N    0.710040
     4  C   -0.231898
     5  C   -0.238643
     6  H    0.038648
     7  H   -0.083211
     8  H   -0.174884
     9  H   -0.163163
    10  N    0.982306
    11  C   -0.919473
    12  N    0.780084
    13  C   -0.538022
    14  C    0.120086
    15  H    0.175948
    16  H   -0.125590
    17  H   -0.125087
    18  H   -0.237828
 Sum of Mulliken charges =  -0.00000

 Dipole moment (field-independent basis, Debye):
    X=              9.5480    Y=             -2.4125    Z=              0.2279  Tot=              9.8507

 Test job not archived.
 1\1\GINC-SE120\SP\RHF\Aug-CC-pVDZ\C6H8N4\OHZDE\08-Apr-2025\0\\#t hf au
 g-cc-pvdz iop(5/13=1,5/36=2,99/5=2) pseudo=read geom=check guess=(read
 ,tcheck) scf=(maxcycle=1)\\title\\0,1\N,0,1.225156,1.790098,0.793667\C
 ,0,0.314568,1.191681,1.590327\N,0,0.098973,1.892803,2.692789\C,0,0.918
 281,2.99557,2.592821\C,0,1.622758,2.943251,1.422717\H,0,1.619151,1.410
 346,-0.093212\H,0,-0.165462,0.258212,1.353791\H,0,0.967252,3.744556,3.
 360834\H,0,2.357781,3.610084,1.012244\N,0,-1.152747,0.892902,5.069428\
 C,0,-2.063336,1.491319,5.866087\N,0,-2.27893,0.790197,6.96855\C,0,-1.4

 Normal termination of Gaussian 16 at Tue Apr  8 19:03:01 2025.
