 Gaussian 16, Revision C.01,

 ----------------------------------------------------------------------
 #t hf aug-cc-pvdz symm=none int=(grid=ultrafine) guess=(read,tcheck) s
 table=(opt,rrhf)
 ----------------------------------------------------------------------
 -----
 title
 -----
 Symbolic Z-matrix:
 Charge =  0 Multiplicity = 1

 SCF Done:  E(RHF) =  -416.016824856     A.U. after   13 cycles
 Normal termination of Gaussian 16 at Tue Apr  8 19:01:37 2025.
 Gaussian 16:  ES64L-G16RevC.01  3-Jul-2019

 ----------------------------------------------------------------------
 #t hf aug-cc-pvdz iop(5/13=1,5/36=2,99/5=2) pseudo=read geom=check gue
 ss=(read,tcheck) scf=(maxcycle=1)
 ----------------------------------------------------------------------
 -----
 title
 -----
 Structure from the checkpoint file:  "3B-69_09c_acetamide_dimerAB_mol1.chk"
 Charge =  0 Multiplicity = 1

                         Standard orientation:
 ---------------------------------------------------------------------
 Center     Atomic      Atomic             Coordinates (Angstroms)
 Number     Number       Type             X           Y           Z
 ---------------------------------------------------------------------
      1          6           0        4.928019   -0.944485    0.179359
      2          6           0        3.802551    0.030658   -0.074023
      3          8           0        2.673228   -0.375773   -0.420183
      4          7           0        4.087023    1.326680    0.047480
      5          1           0        3.431543    2.039065   -0.280185
      6          1           0        5.021577    1.621907    0.338381
      7          1           0        5.478950   -1.069657   -0.754948
      8          1           0        5.625917   -0.590112    0.935074
      9          1           0        4.529341   -1.910428    0.474921
     10          6           0       -2.976090   -1.000010    0.284599
     11          6           0       -4.101557   -0.024866    0.031218
     12          8           0       -5.230881   -0.431298   -0.314943
     13          7           0       -3.817085    1.271156    0.152721
     14          1           0       -4.472566    1.983541   -0.174945
     15          1           0       -2.882532    1.566382    0.443622
     16          1           0       -2.425159   -1.125182   -0.649707
     17          1           0       -2.278191   -0.645636    1.040314
     18          1           0       -3.374768   -1.965953    0.580162
 ---------------------------------------------------------------------

 SCF Done:  E(RHF) =  -416.445541942     A.U. after    2 cycles

 The electronic state is 1-A.
 Alpha  occ. eigenvalues --  -20.50526 -20.49046 -15.54495 -15.53072 -11.36638
 Alpha  occ. eigenvalues --  -11.35141 -11.25464 -11.23848  -1.43767  -1.42291
 Alpha  occ. eigenvalues --   -1.24085  -1.22650  -1.01846  -1.00270  -0.84685
 Alpha  occ. eigenvalues --   -0.83234  -0.76690  -0.75251  -0.68152  -0.66609
 Alpha  occ. eigenvalues --   -0.63480  -0.61947  -0.58854  -0.57788  -0.57335
 Alpha  occ. eigenvalues --   -0.56217  -0.54882  -0.53351  -0.43315  -0.42197
 Alpha  occ. eigenvalues --   -0.41863  -0.40703
 Alpha virt. eigenvalues --    0.01837   0.03218   0.04061   0.04732   0.05053
 Alpha virt. eigenvalues --    0.05312   0.06128   0.06673   0.07322   0.08380
 Alpha virt. eigenvalues --    0.10027   0.10828   0.11942   0.12406   0.13207

 Mulliken charges:
               1
     1  C   -0.345816
     2  C    0.380017
     3  O   -1.325699
     4  N    0.575094
     5  H    0.097635
     6  H    0.075010
     7  H    0.253573
     8  H    0.124134
     9  H    0.166018
    10  C   -0.364209
    11  C    0.384097
    12  O   -1.301103
    13  N    0.552119
    14  H    0.096592
    15  H    0.078798
    16  H    0.261232
    17  H    0.137514
    18  H    0.154994
 Sum of Mulliken charges =  -0.00000

 Dipole moment (field-independent basis, Debye):
    X=              7.7867    Y=              3.9480    Z=              1.7173  Tot=              8.8977

 Test job not archived.
 1\1\GINC-SE115\SP\RHF\Aug-CC-pVDZ\C4H10N2O2\OHZDE\08-Apr-2025\0\\#t hf
  aug-cc-pvdz iop(5/13=1,5/36=2,99/5=2) pseudo=read geom=check guess=(r
 ead,tcheck) scf=(maxcycle=1)\\title\\0,1\C,0,7.996134,3.456191,13.3638
 9\C,0,9.504286,3.375543,13.391436\O,0,10.101066,2.418723,12.854098\N,0
 ,10.149217,4.340524,14.045834\H,0,11.145574,4.254138,14.25636\H,0,9.62
 7308,5.111269,14.468606\H,0,7.618679,2.972605,14.267104\H,0,7.632469,4
 .481583,13.355768\H,0,7.606727,2.923905,12.501115\C,0,13.742134,0.1387
 36,9.066557\C,0,15.250286,0.058089,9.094103\O,0,15.847066,-0.898732,8.

 Normal termination of Gaussian 16 at Tue Apr  8 19:01:44 2025.
