 Gaussian 16, Revision C.01,

 ----------------------------------------------------------------------
 #t hf aug-cc-pvdz symm=none int=(grid=ultrafine) guess=(read,tcheck) s
 table=(opt,rrhf)
 ----------------------------------------------------------------------
 -----
 title
 -----
 Symbolic Z-matrix:
 Charge =  0 Multiplicity = 1

 SCF Done:  E(RHF) =  -455.702709062     A.U. after   13 cycles
 Normal termination of Gaussian 16 at Tue Apr  8 19:01:14 2025.
 Gaussian 16:  ES64L-G16RevC.01  3-Jul-2019

 ----------------------------------------------------------------------
 #t hf aug-cc-pvdz iop(5/13=1,5/36=2,99/5=2) pseudo=read geom=check gue
 ss=(read,tcheck) scf=(maxcycle=1)
 ----------------------------------------------------------------------
 -----
 title
 -----
 Structure from the checkpoint file:  "3B-69_06b_acetic_acid_dimerBC_mol1.chk"
 Charge =  0 Multiplicity = 1

                         Standard orientation:
 ---------------------------------------------------------------------
 Center     Atomic      Atomic             Coordinates (Angstroms)
 Number     Number       Type             X           Y           Z
 ---------------------------------------------------------------------
      1          8           0        3.381492   -0.371156    0.104334
      2          6           0        2.095604   -0.082235    0.001175
      3          8           0        1.262133   -0.937023   -0.282104
      4          6           0        1.787683    1.365584    0.220183
      5          1           0        3.561109   -1.345537   -0.056360
      6          1           0        2.035688    1.906367   -0.695112
      7          1           0        2.407832    1.773748    1.014516
      8          1           0        0.732533    1.505529    0.430147
      9          8           0       -1.341490   -1.019766    0.092100
     10          6           0       -2.078827    0.068794   -0.045736
     11          8           0       -1.594540    1.134940   -0.412318
     12          6           0       -3.530105   -0.150087    0.245549
     13          1           0       -0.375283   -0.847512   -0.118319
     14          1           0       -3.981486   -0.628821   -0.625535
     15          1           0       -3.654564   -0.827360    1.086953
     16          1           0       -4.032726    0.795293    0.420584
 ---------------------------------------------------------------------

 SCF Done:  E(RHF) =  -456.160198192     A.U. after    2 cycles

 The electronic state is 1-A.
 Alpha  occ. eigenvalues --  -20.62720 -20.56223 -20.55769 -20.51015 -11.42149
 Alpha  occ. eigenvalues --  -11.37567 -11.25765 -11.24037  -1.57290  -1.51984
 Alpha  occ. eigenvalues --   -1.46867  -1.41467  -1.04391  -1.01797  -0.85524
 Alpha  occ. eigenvalues --   -0.81349  -0.73677  -0.70397  -0.68007  -0.67037
 Alpha  occ. eigenvalues --   -0.66267  -0.63104  -0.59725  -0.58388  -0.57156
 Alpha  occ. eigenvalues --   -0.56702  -0.54351  -0.53932  -0.49536  -0.46711
 Alpha  occ. eigenvalues --   -0.44187  -0.42230
 Alpha virt. eigenvalues --    0.03007   0.04247   0.04617   0.04997   0.06121
 Alpha virt. eigenvalues --    0.06287   0.07176   0.08911   0.11015   0.11115
 Alpha virt. eigenvalues --    0.11270   0.13581   0.13834   0.14437   0.14550

 Mulliken charges:
               1
     1  O   -1.280585
     2  C    1.915524
     3  O   -1.343971
     4  C   -0.401807
     5  H    0.390270
     6  H    0.267636
     7  H    0.207193
     8  H    0.102021
     9  O   -1.325753
    10  C    1.855897
    11  O   -1.254765
    12  C   -0.541523
    13  H    0.780830
    14  H    0.256435
    15  H    0.187943
    16  H    0.184656
 Sum of Mulliken charges =  -0.00000

 Dipole moment (field-independent basis, Debye):
    X=              2.2286    Y=             -0.5494    Z=              0.9751  Tot=              2.4938

 Test job not archived.
 1\1\GINC-SE092\SP\RHF\Aug-CC-pVDZ\C4H8O4\OHZDE\08-Apr-2025\0\\#t hf au
 g-cc-pvdz iop(5/13=1,5/36=2,99/5=2) pseudo=read geom=check guess=(read
 ,tcheck) scf=(maxcycle=1)\\title\\0,1\O,0,5.327155,17.887053,2.402174\
 C,0,4.525997,17.40189,3.33512\O,0,4.142801,16.236406,3.315351\C,0,4.11
 924,18.413124,4.360262\H,0,5.576489,17.191358,1.722951\H,0,3.329155,19
 .031693,3.930313\H,0,4.950397,19.071689,4.600299\H,0,3.732132,17.92444
 4,5.248152\O,0,3.1985,14.682947,5.218189\C,0,2.397341,15.16811,6.15113
 5\O,0,2.014145,16.333594,6.131367\C,0,1.990584,14.156876,7.176277\H,0,

 Normal termination of Gaussian 16 at Tue Apr  8 19:01:19 2025.
