 Gaussian 16, Revision C.01,

 ----------------------------------------------------------------------
 #t hf aug-cc-pvdz symm=none int=(grid=ultrafine) guess=(read,tcheck) s
 table=(opt,rrhf)
 ----------------------------------------------------------------------
 -----
 title
 -----
 Symbolic Z-matrix:
 Charge =  0 Multiplicity = 1

 SCF Done:  E(RHF) =  -319.497358662     A.U. after   15 cycles
 Normal termination of Gaussian 16 at Tue Apr  8 19:01:44 2025.
 Gaussian 16:  ES64L-G16RevC.01  3-Jul-2019

 ----------------------------------------------------------------------
 #t hf aug-cc-pvdz iop(5/13=1,5/36=2,99/5=2) pseudo=read geom=check gue
 ss=(read,tcheck) scf=(maxcycle=1)
 ----------------------------------------------------------------------
 -----
 title
 -----
 Structure from the checkpoint file:  "3B-69_11a_isoxazole_dimerAB_mol2.chk"
 Charge =  0 Multiplicity = 1

                         Standard orientation:
 ---------------------------------------------------------------------
 Center     Atomic      Atomic             Coordinates (Angstroms)
 Number     Number       Type             X           Y           Z
 ---------------------------------------------------------------------
      1          8           0       -1.317652   -0.785294    0.008999
      2          7           0        0.047024   -1.104179   -0.022249
      3          6           0        0.683464    0.050348   -0.013694
      4          8           0        2.006365    0.141008   -0.005101
      5          6           0       -0.221216    1.148355   -0.006982
      6          6           0       -1.433478    0.554978    0.009593
      7          1           0        2.418690   -0.763688    0.159324
      8          1           0        0.010646    2.197983    0.002264
      9          1           0       -2.440831    0.927158    0.029464
 ---------------------------------------------------------------------

 SCF Done:  E(RHF) =  -319.813228559     A.U. after    2 cycles

 The electronic state is 1-A.
 Alpha  occ. eigenvalues --  -20.63234 -20.61233 -15.55074 -11.35557 -11.33344
 Alpha  occ. eigenvalues --  -11.25376  -1.57056  -1.52601  -1.17499  -1.08756
 Alpha  occ. eigenvalues --   -0.87258  -0.84347  -0.76634  -0.69511  -0.67923
 Alpha  occ. eigenvalues --   -0.64374  -0.60834  -0.59242  -0.56183  -0.52164
 Alpha  occ. eigenvalues --   -0.41225  -0.39686
 Alpha virt. eigenvalues --    0.03267   0.04160   0.04443   0.08983   0.09586
 Alpha virt. eigenvalues --    0.10372   0.11042   0.12011   0.12627   0.13591
 Alpha virt. eigenvalues --    0.14590   0.14806   0.15602   0.15915   0.18731

 Mulliken charges:
               1
     1  O   -1.469853
     2  N    1.229479
     3  C   -0.198060
     4  O   -1.350778
     5  C    0.858468
     6  C    0.697451
     7  H    0.390389
     8  H   -0.113929
     9  H   -0.043166
 Sum of Mulliken charges =  -0.00000

 Dipole moment (field-independent basis, Debye):
    X=             -0.0113    Y=              2.4197    Z=              0.3286  Tot=              2.4420

 Test job not archived.
 1\1\GINC-SE166\SP\RHF\Aug-CC-pVDZ\C3H3N1O2\OHZDE\08-Apr-2025\0\\#t hf
 aug-cc-pvdz iop(5/13=1,5/36=2,99/5=2) pseudo=read geom=check guess=(re
 ad,tcheck) scf=(maxcycle=1)\\title\\0,1\O,0,0.492354,17.073364,2.53743
 8\N,0,1.798473,16.694123,2.876901\C,0,2.4714,17.819028,3.017689\O,0,3.
 748782,17.852113,3.372032\C,0,1.656726,18.954747,2.752056\C,0,0.452423
 ,18.416167,2.466513\H,0,4.054562,16.938298,3.666928\H,0,1.933991,19.99
 2652,2.790034\H,0,-0.503537,18.832499,2.208674\\Version=ES64L-G16RevC.
 01\State=1-A\HF=-319.8132286\RMSD=2.856e-02\Dipole=0.0128667,0.9560136

 Normal termination of Gaussian 16 at Tue Apr  8 19:01:47 2025.
