 Gaussian 16, Revision C.01,

 ----------------------------------------------------------------------
 #t hf aug-cc-pvdz symm=none int=(grid=ultrafine) guess=(read,tcheck) s
 table=(opt,rrhf)
 ----------------------------------------------------------------------
 -----
 title
 -----
 Symbolic Z-matrix:
 Charge =  0 Multiplicity = 1

 SCF Done:  E(RHF) =  -412.441682340     A.U. after   15 cycles
 Normal termination of Gaussian 16 at Tue Apr  8 19:08:07 2025.
 Gaussian 16:  ES64L-G16RevC.01  3-Jul-2019

 ----------------------------------------------------------------------
 #t hf aug-cc-pvdz iop(5/13=1,5/36=2,99/5=2) pseudo=read geom=check gue
 ss=(read,tcheck) scf=(maxcycle=1)
 ----------------------------------------------------------------------
 -----
 title
 -----
 Structure from the checkpoint file:  "3B-69_22a_uracil_dimerAB_mol2.chk"
 Charge =  0 Multiplicity = 1

                         Standard orientation:
 ---------------------------------------------------------------------
 Center     Atomic      Atomic             Coordinates (Angstroms)
 Number     Number       Type             X           Y           Z
 ---------------------------------------------------------------------
      1          6           0        1.201441   -0.390547   -0.000926
      2          6           0       -1.253179   -0.322328   -0.003186
      3          6           0       -1.182967    1.105508   -0.007655
      4          6           0        0.021025    1.693991   -0.005422
      5          1           0        0.140991    2.643624    0.015638
      6          1           0        1.926311    1.348552    0.052937
      7          1           0       -0.089327   -1.847687    0.017959
      8          1           0       -1.981859    1.583582    0.012078
      9          7           0        1.177160    0.980543    0.000295
     10          7           0       -0.046157   -0.972137   -0.007638
     11          8           0        2.224329   -1.047036   -0.000709
     12          8           0       -2.303212   -0.991297    0.007698
 ---------------------------------------------------------------------

 SCF Done:  E(RHF) =  -412.866349582     A.U. after    2 cycles

 The electronic state is 1-A.
 Alpha  occ. eigenvalues --  -20.53890 -20.52482 -15.57432 -15.55910 -11.42732
 Alpha  occ. eigenvalues --  -11.38300 -11.33889 -11.25066  -1.50500  -1.45920
 Alpha  occ. eigenvalues --   -1.36145  -1.29543  -1.12758  -1.00124  -0.96954
 Alpha  occ. eigenvalues --   -0.89854  -0.82342  -0.79629  -0.71867  -0.70729
 Alpha  occ. eigenvalues --   -0.68762  -0.64670  -0.61987  -0.59753  -0.54780
 Alpha  occ. eigenvalues --   -0.48462  -0.45007  -0.44379  -0.38849
 Alpha virt. eigenvalues --    0.01820   0.03894   0.04961   0.05673   0.06097
 Alpha virt. eigenvalues --    0.08523   0.09266   0.09690   0.10651   0.11347
 Alpha virt. eigenvalues --    0.11946   0.12773   0.13594   0.14516   0.14596

 Mulliken charges:
               1
     1  C    0.460607
     2  C    0.426028
     3  C    1.138709
     4  C    0.214068
     5  H   -0.525821
     6  H    0.009050
     7  H    0.085682
     8  H   -0.461898
     9  N    0.596298
    10  N    0.692649
    11  O   -1.232319
    12  O   -1.403052
 Sum of Mulliken charges =  -0.00000

 Dipole moment (field-independent basis, Debye):
    X=              1.3263    Y=              4.8787    Z=              0.1255  Tot=              5.0574

 Test job not archived.
 1\1\GINC-SE335\SP\RHF\Aug-CC-pVDZ\C4H4N2O2\OHZDE\08-Apr-2025\0\\#t hf
 aug-cc-pvdz iop(5/13=1,5/36=2,99/5=2) pseudo=read geom=check guess=(re
 ad,tcheck) scf=(maxcycle=1)\\title\\0,1\C,0,-1.957828,2.590668,6.30143
 3\C,0,-1.67237,0.153091,6.382383\C,0,-0.264624,0.353582,6.529763\C,0,0
 .211588,1.606034,6.552094\H,0,1.143843,1.811846,6.624074\H,0,-0.293856
 ,3.47023,6.403272\H,0,-3.284651,1.172007,6.172433\H,0,0.282003,-0.3985
 07,6.582047\N,0,-0.597309,2.69178,6.440156\N,0,-2.423802,1.29552,6.285
 531\O,0,-2.699031,3.549066,6.204644\O,0,-2.240633,-0.953695,6.334334\\

 Normal termination of Gaussian 16 at Tue Apr  8 19:08:12 2025.
