 Gaussian 16, Revision C.01,

 ----------------------------------------------------------------------
 #t hf aug-cc-pvdz symm=none int=(grid=ultrafine) guess=(read,tcheck) s
 table=(opt,rrhf)
 ----------------------------------------------------------------------
 -----
 title
 -----
 Symbolic Z-matrix:
 Charge =  0 Multiplicity = 1

 SCF Done:  E(RHF) =  -449.649055522     A.U. after   15 cycles
 Normal termination of Gaussian 16 at Tue Apr  8 19:03:08 2025.
 Gaussian 16:  ES64L-G16RevC.01  3-Jul-2019

 ----------------------------------------------------------------------
 #t hf aug-cc-pvdz iop(5/13=1,5/36=2,99/5=2) pseudo=read geom=check gue
 ss=(read,tcheck) scf=(maxcycle=1)
 ----------------------------------------------------------------------
 -----
 title
 -----
 Structure from the checkpoint file:  "3B-69_12a_pyrazole_dimerBC_mol1.chk"
 Charge =  0 Multiplicity = 1

                         Standard orientation:
 ---------------------------------------------------------------------
 Center     Atomic      Atomic             Coordinates (Angstroms)
 Number     Number       Type             X           Y           Z
 ---------------------------------------------------------------------
      1          6           0        1.178820    0.273030   -0.133543
      2          6           0        2.194149    1.241675   -0.127830
      3          6           0        3.364775    0.523034    0.009638
      4          1           0        3.622673   -1.617433    0.094414
      5          1           0        4.393248    0.833634    0.047604
      6          1           0        2.091828    2.307229   -0.214915
      7          1           0        0.117091    0.419287   -0.227211
      8          7           0        3.020558   -0.779721    0.080282
      9          7           0        1.685620   -0.954749   -0.008791
     10          6           0       -2.373985    0.599792    1.000875
     11          6           0       -2.697002    1.029559   -0.295334
     12          6           0       -2.489172   -0.076747   -1.094460
     13          1           0       -1.736612   -2.018040   -0.528484
     14          1           0       -2.589943   -0.220831   -2.155004
     15          1           0       -3.028881    2.002682   -0.605730
     16          1           0       -2.398016    1.163873    1.916664
     17          7           0       -2.074490   -1.073935   -0.285572
     18          7           0       -1.994102   -0.679090    1.002165
 ---------------------------------------------------------------------

 SCF Done:  E(RHF) =  -450.109478713     A.U. after    2 cycles

 The electronic state is 1-A.
 Alpha  occ. eigenvalues --  -15.58055 -15.57710 -15.52278 -15.51773 -11.28243
 Alpha  occ. eigenvalues --  -11.27848 -11.25652 -11.24900 -11.22764 -11.22170
 Alpha  occ. eigenvalues --   -1.36755  -1.36234  -1.10987  -1.10559  -1.06046
 Alpha  occ. eigenvalues --   -1.05557  -0.84661  -0.84257  -0.83243  -0.82778
 Alpha  occ. eigenvalues --   -0.76592  -0.76198  -0.65267  -0.64157  -0.63731
 Alpha  occ. eigenvalues --   -0.62810  -0.61365  -0.60889  -0.57839  -0.57048
 Alpha  occ. eigenvalues --   -0.49730  -0.49380  -0.39779  -0.38741  -0.36678
 Alpha  occ. eigenvalues --   -0.36189
 Alpha virt. eigenvalues --    0.03107   0.03710   0.03851   0.04692   0.04817
 Alpha virt. eigenvalues --    0.05571   0.06183   0.08673   0.10110   0.10198
 Alpha virt. eigenvalues --    0.10598   0.11140   0.11481   0.12387   0.13181

 Mulliken charges:
               1
     1  C   -0.418044
     2  C    0.784066
     3  C   -0.345002
     4  H    0.046074
     5  H   -0.215214
     6  H   -0.187349
     7  H    0.001361
     8  N    0.450452
     9  N   -0.067481
    10  C   -0.470012
    11  C    0.837149
    12  C   -0.526560
    13  H    0.051822
    14  H   -0.292092
    15  H   -0.141101
    16  H   -0.208981
    17  N    0.646544
    18  N    0.054370
 Sum of Mulliken charges =   0.00000

 Dipole moment (field-independent basis, Debye):
    X=              1.5354    Y=              1.8413    Z=             -2.5392  Tot=              3.4922

 Test job not archived.
 1\1\GINC-SE424\SP\RHF\Aug-CC-pVDZ\C6H8N4\OHZDE\08-Apr-2025\0\\#t hf au
 g-cc-pvdz iop(5/13=1,5/36=2,99/5=2) pseudo=read geom=check guess=(read
 ,tcheck) scf=(maxcycle=1)\\title\\0,1\C,0,5.922353,2.348921,6.261977\C
 ,0,5.048807,1.377253,6.773813\C,0,5.801878,0.678241,7.695754\H,0,7.837
 666,1.037377,8.313722\H,0,5.55454,-0.141615,8.345623\H,0,4.020061,1.21
 0588,6.514271\H,0,5.722353,3.102313,5.520469\N,0,7.033572,1.229218,7.6
 96363\N,0,7.127429,2.256777,6.826913\C,0,5.922353,3.945079,2.875477\C,
 0,5.048807,4.916747,3.387313\C,0,5.801878,5.615759,4.309254\H,0,7.8376

 Normal termination of Gaussian 16 at Tue Apr  8 19:03:19 2025.
