 Gaussian 16, Revision C.01,

 ----------------------------------------------------------------------
 #t hf aug-cc-pvdz symm=none int=(grid=ultrafine) guess=(read,tcheck) s
 table=(opt,rrhf)
 ----------------------------------------------------------------------
 -----
 title
 -----
 Symbolic Z-matrix:
 Charge =  0 Multiplicity = 1

 SCF Done:  E(RHF) =  -599.497747939     A.U. after   15 cycles
 Normal termination of Gaussian 16 at Tue Apr  8 19:07:40 2025.
 Gaussian 16:  ES64L-G16RevC.01  3-Jul-2019

 ----------------------------------------------------------------------
 #t hf aug-cc-pvdz iop(5/13=1,5/36=2,99/5=2) pseudo=read geom=check gue
 ss=(read,tcheck) scf=(maxcycle=1)
 ----------------------------------------------------------------------
 -----
 title
 -----
 Structure from the checkpoint file:  "3B-69_14a_cyanoacetamide_dimerBC_mol1.chk"
 Charge =  0 Multiplicity = 1

                         Standard orientation:
 ---------------------------------------------------------------------
 Center     Atomic      Atomic             Coordinates (Angstroms)
 Number     Number       Type             X           Y           Z
 ---------------------------------------------------------------------
      1          6           0       -2.689045   -0.508083    0.000423
      2          6           0       -1.738537    1.777992   -0.026128
      3          6           0       -1.430366    0.363749   -0.109021
      4          1           0       -0.702835    0.122423    0.666565
      5          1           0       -0.929323    0.176200   -1.061512
      6          1           0       -3.261462   -2.454987    0.082627
      7          1           0       -1.517423   -2.193327   -0.009473
      8          7           0       -2.461816   -1.824624   -0.007423
      9          7           0       -1.978984    2.900336    0.038643
     10          8           0       -3.812821   -0.002046    0.052085
     11          6           0        1.603784   -1.715571   -0.002635
     12          6           0        2.876668   -1.036977    0.134773
     13          6           0        2.732925    0.486639    0.031277
     14          1           0        3.569024   -1.433917   -0.606610
     15          1           0        3.288692   -1.279832    1.117749
     16          1           0        3.859562    2.167968   -0.095924
     17          1           0        4.771437    0.660745   -0.124096
     18          7           0        0.593118   -2.253443   -0.105143
     19          7           0        3.881999    1.147194   -0.147747
     20          8           0        1.631512    1.032294    0.124194
 ---------------------------------------------------------------------

 SCF Done:  E(RHF) =  -600.091402409     A.U. after    2 cycles

 The electronic state is 1-A.
 Alpha  occ. eigenvalues --  -20.55623 -20.49735 -15.58275 -15.55505 -15.52034
 Alpha  occ. eigenvalues --  -15.48251 -11.41985 -11.35816 -11.34528 -11.33010
 Alpha  occ. eigenvalues --  -11.27557 -11.25449  -1.49746  -1.43788  -1.28457
 Alpha  occ. eigenvalues --   -1.27920  -1.22356  -1.20530  -1.11504  -1.04616
 Alpha  occ. eigenvalues --   -0.90315  -0.84293  -0.82361  -0.76895  -0.75259
 Alpha  occ. eigenvalues --   -0.73745  -0.70864  -0.69113  -0.66878  -0.65227
 Alpha  occ. eigenvalues --   -0.64969  -0.64401  -0.61765  -0.58804  -0.57263
 Alpha  occ. eigenvalues --   -0.55541  -0.54607  -0.53965  -0.48095  -0.47669
 Alpha  occ. eigenvalues --   -0.46978  -0.46538  -0.42170  -0.41452
 Alpha virt. eigenvalues --    0.00057   0.02572   0.02790   0.04091   0.04683
 Alpha virt. eigenvalues --    0.05992   0.06474   0.07051   0.08012   0.08940
 Alpha virt. eigenvalues --    0.10347   0.10630   0.11015   0.11145   0.11894

 Mulliken charges:
               1
     1  C    0.362018
     2  C   -1.869475
     3  C    0.046405
     4  H    0.408141
     5  H    0.351835
     6  H    0.126238
     7  H   -0.035122
     8  N    0.877397
     9  N    1.004779
    10  O   -1.286577
    11  C   -1.481870
    12  C   -0.309491
    13  C    0.378051
    14  H    0.296140
    15  H    0.354424
    16  H    0.146616
    17  H    0.057219
    18  N    1.076094
    19  N    0.857575
    20  O   -1.360397
 Sum of Mulliken charges =  -0.00000

 Dipole moment (field-independent basis, Debye):
    X=             13.5028    Y=             -5.7169    Z=              0.1320  Tot=             14.6638

 Test job not archived.
 1\1\GINC-SE114\SP\RHF\Aug-CC-pVDZ\C6H8N4O2\OHZDE\08-Apr-2025\0\\#t hf
 aug-cc-pvdz iop(5/13=1,5/36=2,99/5=2) pseudo=read geom=check guess=(re
 ad,tcheck) scf=(maxcycle=1)\\title\\0,1\C,0,2.914349,23.782511,0.68304
 8\C,0,2.787287,26.254583,0.628049\C,0,3.42728,25.112897,1.251656\H,0,3
 .275043,25.177288,2.329501\H,0,4.505214,25.194233,1.093851\H,0,3.10310
 5,21.776494,0.938231\H,0,4.039968,22.763235,2.063953\N,0,3.423129,22.6
 91524,1.262585\N,0,2.282408,27.162428,0.135524\O,0,2.121953,23.756077,
 -0.261952\C,0,5.578016,24.531209,4.180296\C,0,5.959025,25.683875,4.971

 Normal termination of Gaussian 16 at Tue Apr  8 19:07:52 2025.
