 Gaussian 16, Revision C.01,

 ----------------------------------------------------------------------
 #t hf aug-cc-pvdz symm=none int=(grid=ultrafine) guess=(read,tcheck) s
 table=(opt,rrhf)
 ----------------------------------------------------------------------
 -----
 title
 -----
 Symbolic Z-matrix:
 Charge =  0 Multiplicity = 1

 SCF Done:  E(RHF) =  -487.409148255     A.U. after   15 cycles
 Normal termination of Gaussian 16 at Tue Apr  8 19:00:23 2025.
 Gaussian 16:  ES64L-G16RevC.01  3-Jul-2019

 ----------------------------------------------------------------------
 #t hf aug-cc-pvdz iop(5/13=1,5/36=2,99/5=2) pseudo=read geom=check gue
 ss=(read,tcheck) scf=(maxcycle=1)
 ----------------------------------------------------------------------
 -----
 title
 -----
 Structure from the checkpoint file:  "3B-69_05c_nitromethane_dimerAB_mol1.chk"
 Charge =  0 Multiplicity = 1

                         Standard orientation:
 ---------------------------------------------------------------------
 Center     Atomic      Atomic             Coordinates (Angstroms)
 Number     Number       Type             X           Y           Z
 ---------------------------------------------------------------------
      1          6           0       -3.120737   -0.797252   -0.084179
      2          7           0       -1.941589    0.109609    0.023626
      3          8           0       -2.138310    1.300744    0.244979
      4          8           0       -0.830043   -0.384017   -0.086987
      5          1           0       -2.873144   -1.560640   -0.810160
      6          1           0       -3.259372   -1.243331    0.898851
      7          1           0       -3.984393   -0.207439   -0.360547
      8          6           0        1.869803    0.888811   -0.981389
      9          7           0        2.082495   -0.119922    0.096399
     10          8           0        2.169044   -1.302993   -0.218800
     11          8           0        2.188145    0.284614    1.243842
     12          1           0        1.258322    1.678833   -0.565374
     13          1           0        2.853496    1.273038   -1.244583
     14          1           0        1.413675    0.395597   -1.829237
 ---------------------------------------------------------------------

 SCF Done:  E(RHF) =  -487.885157835     A.U. after    2 cycles

 The electronic state is 1-A.
 Alpha  occ. eigenvalues --  -20.60364 -20.60352 -20.57576 -20.57437 -15.80059
 Alpha  occ. eigenvalues --  -15.77265 -11.32979 -11.30328  -1.68214  -1.65290
 Alpha  occ. eigenvalues --   -1.51589  -1.48686  -1.14112  -1.11280  -0.90513
 Alpha  occ. eigenvalues --   -0.87714  -0.78767  -0.77095  -0.76939  -0.75984
 Alpha  occ. eigenvalues --   -0.73878  -0.73674  -0.64379  -0.61977  -0.61705
 Alpha  occ. eigenvalues --   -0.59348  -0.51130  -0.49641  -0.48218  -0.46768
 Alpha  occ. eigenvalues --   -0.46178  -0.43296
 Alpha virt. eigenvalues --    0.02608   0.03846   0.04112   0.04936   0.05664
 Alpha virt. eigenvalues --    0.06263   0.06621   0.08350   0.08653   0.10819
 Alpha virt. eigenvalues --    0.12780   0.13469   0.14179   0.14610   0.14944

 Mulliken charges:
               1
     1  C   -0.225176
     2  N    2.068993
     3  O   -1.256272
     4  O   -1.142966
     5  H    0.152248
     6  H    0.245769
     7  H    0.135616
     8  C   -0.285639
     9  N    2.552280
    10  O   -1.383701
    11  O   -1.399357
    12  H    0.200974
    13  H    0.175338
    14  H    0.161893
 Sum of Mulliken charges =  -0.00000

 Dipole moment (field-independent basis, Debye):
    X=             -4.0874    Y=              0.2016    Z=             -2.9809  Tot=              5.0629

 Test job not archived.
 1\1\GINC-SE188\SP\RHF\Aug-CC-pVDZ\C2H6N2O4\OHZDE\08-Apr-2025\0\\#t hf
 aug-cc-pvdz iop(5/13=1,5/36=2,99/5=2) pseudo=read geom=check guess=(re
 ad,tcheck) scf=(maxcycle=1)\\title\\0,1\C,0,0.691316,6.61465,11.679005
 \N,0,1.868622,5.699059,11.686151\O,0,2.660061,5.771533,12.621496\O,0,1
 .974396,4.898353,10.770117\H,0,0.477227,6.854026,10.645575\H,0,-0.1361
 06,6.058747,12.115925\H,0,0.926871,7.482841,12.279769\C,0,4.493684,3.4
 9615,9.588495\N,0,3.316378,2.580559,9.581349\O,0,2.524939,2.653033,8.6
 46004\O,0,3.210604,1.779853,10.497383\H,0,4.707773,3.735526,10.621925\

 Normal termination of Gaussian 16 at Tue Apr  8 19:00:28 2025.
