 Gaussian 16, Revision C.01,

 ----------------------------------------------------------------------
 #t hf aug-cc-pvdz symm=none int=(grid=ultrafine) guess=(read,tcheck) s
 table=(opt,rrhf)
 ----------------------------------------------------------------------
 -----
 title
 -----
 Symbolic Z-matrix:
 Charge =  0 Multiplicity = 1

 SCF Done:  E(RHF) =  -906.667482517     A.U. after   15 cycles
 Normal termination of Gaussian 16 at Tue Apr  8 19:13:47 2025.
 Gaussian 16:  ES64L-G16RevC.01  3-Jul-2019

 ----------------------------------------------------------------------
 #t hf aug-cc-pvdz iop(5/13=1,5/36=2,99/5=2) pseudo=read geom=check gue
 ss=(read,tcheck) scf=(maxcycle=1)
 ----------------------------------------------------------------------
 -----
 title
 -----
 Structure from the checkpoint file:  "3B-69_20b_maleic_acid_dimerAB_mol1.chk"
 Charge =  0 Multiplicity = 1

                         Standard orientation:
 ---------------------------------------------------------------------
 Center     Atomic      Atomic             Coordinates (Angstroms)
 Number     Number       Type             X           Y           Z
 ---------------------------------------------------------------------
      1          6           0        2.218996    0.481849   -0.006607
      2          6           0        3.387031    1.392493   -0.048795
      3          1           0        3.128333    2.443900   -0.089144
      4          6           0        4.685582    1.073185   -0.065414
      5          1           0        5.385855    1.895812   -0.125132
      6          6           0        5.376499   -0.243546    0.006321
      7          8           0        1.089788    1.131122    0.105594
      8          1           0        0.291157    0.516962    0.094389
      9          8           0        2.280006   -0.747528   -0.093583
     10          8           0        4.715476   -1.376480    0.014885
     11          1           0        3.711711   -1.244721   -0.069171
     12          8           0        6.603847   -0.278533    0.078016
     13          6           0       -5.248958    0.159699   -0.005383
     14          6           0       -4.080924    1.070344   -0.047571
     15          1           0       -4.339622    2.121750   -0.087919
     16          6           0       -2.782372    0.751036   -0.064189
     17          1           0       -2.082100    1.573662   -0.123907
     18          6           0       -2.091456   -0.565695    0.007546
     19          8           0       -6.378166    0.808972    0.106819
     20          1           0       -7.176797    0.194812    0.095613
     21          8           0       -5.187949   -1.069678   -0.092359
     22          8           0       -2.752479   -1.698630    0.016109
     23          1           0       -3.756244   -1.566871   -0.067946
     24          8           0       -0.864108   -0.600683    0.079240
 ---------------------------------------------------------------------

 SCF Done:  E(RHF) =  -907.551737865     A.U. after    2 cycles

 The electronic state is 1-A.
 Alpha  occ. eigenvalues --  -20.67734 -20.60933 -20.60821 -20.59926 -20.57021
 Alpha  occ. eigenvalues --  -20.55157 -20.54953 -20.50517 -11.47781 -11.44095
 Alpha  occ. eigenvalues --  -11.41809 -11.37595 -11.34176 -11.33695 -11.28976
 Alpha  occ. eigenvalues --  -11.28347  -1.62728  -1.57277  -1.56170  -1.52284
 Alpha  occ. eigenvalues --   -1.51255  -1.47509  -1.46021  -1.40650  -1.16265
 Alpha  occ. eigenvalues --   -1.10967  -1.01274  -0.95668  -0.91615  -0.86130
 Alpha  occ. eigenvalues --   -0.84817  -0.82099  -0.79710  -0.78562  -0.76311
 Alpha  occ. eigenvalues --   -0.73602  -0.72379  -0.70863  -0.69419  -0.68524
 Alpha  occ. eigenvalues --   -0.66513  -0.65768  -0.64526  -0.63367  -0.62801
 Alpha  occ. eigenvalues --   -0.61215  -0.60877  -0.59797  -0.56628  -0.55214
 Alpha  occ. eigenvalues --   -0.54925  -0.50750  -0.49985  -0.49152  -0.48546
 Alpha  occ. eigenvalues --   -0.46582  -0.44952  -0.44207  -0.42467  -0.40667
 Alpha virt. eigenvalues --   -0.00835   0.00867   0.01736   0.03486   0.04418
 Alpha virt. eigenvalues --    0.04612   0.05363   0.06339   0.07051   0.07199
 Alpha virt. eigenvalues --    0.08183   0.08922   0.09399   0.10343   0.10597

 Mulliken charges:
               1
     1  C    1.989122
     2  C    0.665775
     3  H   -0.312917
     4  C    0.495275
     5  H   -0.238907
     6  C    1.733650
     7  O   -1.644636
     8  H    0.809679
     9  O   -1.592781
    10  O   -1.368615
    11  H    0.799989
    12  O   -1.283061
    13  C    2.220704
    14  C    0.406546
    15  H   -0.214871
    16  C    0.628312
    17  H   -0.304087
    18  C    1.796523
    19  O   -1.508505
    20  H    0.530716
    21  O   -1.505852
    22  O   -1.484687
    23  H    0.742647
    24  O   -1.360020
 Sum of Mulliken charges =  -0.00000

 Dipole moment (field-independent basis, Debye):
    X=            -14.9333    Y=              6.8515    Z=             -0.4892  Tot=             16.4373

 Test job not archived.
 1\1\GINC-SE195\SP\RHF\Aug-CC-pVDZ\C8H8O8\OHZDE\08-Apr-2025\0\\#t hf au
 g-cc-pvdz iop(5/13=1,5/36=2,99/5=2) pseudo=read geom=check guess=(read
 ,tcheck) scf=(maxcycle=1)\\title\\0,1\C,0,0.320145,1.506583,4.741899\C
 ,0,-0.886058,0.648358,4.679587\H,0,-0.67292,-0.411968,4.6141\C,0,-2.16
 9644,1.023617,4.672055\H,0,-2.904729,0.233566,4.593744\C,0,-2.803159,2
 .366825,4.775701\O,0,1.42034,0.806792,4.837391\H,0,2.244696,1.386069,4
 .839756\O,0,0.312161,2.73916,4.684069\O,0,-2.093922,3.46971,4.81025\H,
 0,-1.096782,3.296855,4.721917\O,0,-4.027847,2.45295,4.849654\C,0,7.795

 Normal termination of Gaussian 16 at Tue Apr  8 19:14:07 2025.
