 Gaussian 16, Revision C.01,

 ----------------------------------------------------------------------
 #t hf aug-cc-pvdz symm=none int=(grid=ultrafine) guess=(read,tcheck) s
 table=(opt,rrhf)
 ----------------------------------------------------------------------
 -----
 title
 -----
 Symbolic Z-matrix:
 Charge =  0 Multiplicity = 1

 SCF Done:  E(RHF) =  -453.326818673     A.U. after   15 cycles
 Normal termination of Gaussian 16 at Tue Apr  8 19:08:04 2025.
 Gaussian 16:  ES64L-G16RevC.01  3-Jul-2019

 ----------------------------------------------------------------------
 #t hf aug-cc-pvdz iop(5/13=1,5/36=2,99/5=2) pseudo=read geom=check gue
 ss=(read,tcheck) scf=(maxcycle=1)
 ----------------------------------------------------------------------
 -----
 title
 -----
 Structure from the checkpoint file:  "3B-69_20a_maleic_acid_dimerAC_mol2.chk"
 Charge =  0 Multiplicity = 1

                         Standard orientation:
 ---------------------------------------------------------------------
 Center     Atomic      Atomic             Coordinates (Angstroms)
 Number     Number       Type             X           Y           Z
 ---------------------------------------------------------------------
      1          6           0        1.547681   -0.052539   -0.004966
      2          6           0        0.632620    1.111986   -0.048616
      3          1           0        1.136331    2.070434   -0.089365
      4          6           0       -0.704600    1.113942   -0.066091
      5          1           0       -1.186726    2.080651   -0.126845
      6          6           0       -1.691629    0.001785    0.005851
      7          8           0        2.799717    0.306559    0.107765
      8          1           0        3.427442   -0.481468    0.097555
      9          8           0        1.193202   -1.231330   -0.091281
     10          8           0       -1.322110   -1.256757    0.015598
     11          1           0       -0.316031   -1.370035   -0.067729
     12          8           0       -2.891490    0.262700    0.076582
 ---------------------------------------------------------------------

 SCF Done:  E(RHF) =  -453.769391112     A.U. after    2 cycles

 The electronic state is 1-A.
 Alpha  occ. eigenvalues --  -20.65844 -20.58684 -20.57296 -20.52515 -11.45560
 Alpha  occ. eigenvalues --  -11.39593 -11.31511 -11.30766  -1.60758  -1.53453
 Alpha  occ. eigenvalues --   -1.49954  -1.42652  -1.13501  -0.98554  -0.88573
 Alpha  occ. eigenvalues --   -0.81857  -0.79585  -0.76240  -0.69522  -0.68619
 Alpha  occ. eigenvalues --   -0.66970  -0.63367  -0.61940  -0.60330  -0.57834
 Alpha  occ. eigenvalues --   -0.52889  -0.48142  -0.46392  -0.44451  -0.42850
 Alpha virt. eigenvalues --    0.01900   0.02051   0.03067   0.05219   0.06426
 Alpha virt. eigenvalues --    0.08510   0.09396   0.11039   0.11663   0.11987
 Alpha virt. eigenvalues --    0.12582   0.13491   0.13705   0.14653   0.15425

 Mulliken charges:
               1
     1  C    2.110046
     2  C    0.408460
     3  H   -0.225756
     4  C    0.548174
     5  H   -0.236333
     6  C    1.676845
     7  O   -1.458796
     8  H    0.510776
     9  O   -1.482776
    10  O   -1.373980
    11  H    0.749016
    12  O   -1.225675
 Sum of Mulliken charges =  -0.00000

 Dipole moment (field-independent basis, Debye):
    X=              6.7904    Y=              2.2231    Z=             -0.2401  Tot=              7.1491

 Test job not archived.
 1\1\GINC-SE163\SP\RHF\Aug-CC-pVDZ\C4H4O4\OHZDE\08-Apr-2025\0\\#t hf au
 g-cc-pvdz iop(5/13=1,5/36=2,99/5=2) pseudo=read geom=check guess=(read
 ,tcheck) scf=(maxcycle=1)\\title\\0,1\C,0,-1.812866,3.535867,7.854403\
 C,0,-3.01907,4.394092,7.79209\H,0,-2.805931,5.454418,7.726603\C,0,-4.3
 02655,4.018833,7.784558\H,0,-5.03774,4.808884,7.706247\C,0,-4.936171,2
 .675625,7.888204\O,0,-0.712671,4.235658,7.949894\H,0,0.111684,3.656381
 ,7.95226\O,0,-1.82085,2.30329,7.796572\O,0,-4.226933,1.57274,7.922753\
 H,0,-3.229793,1.745595,7.83442\O,0,-6.160859,2.5895,7.962157\\Version=

 Normal termination of Gaussian 16 at Tue Apr  8 19:08:09 2025.
