 Gaussian 16, Revision C.01,

 ----------------------------------------------------------------------
 #t hf aug-cc-pvdz symm=none int=(grid=ultrafine) guess=(read,tcheck) s
 table=(opt,rrhf)
 ----------------------------------------------------------------------
 -----
 title
 -----
 Symbolic Z-matrix:
 Charge =  0 Multiplicity = 1

 SCF Done:  E(RHF) =  -752.864563357     A.U. after   13 cycles
 Normal termination of Gaussian 16 at Tue Apr  8 19:01:55 2025.
 Gaussian 16:  ES64L-G16RevC.01  3-Jul-2019

 ----------------------------------------------------------------------
 #t hf aug-cc-pvdz iop(5/13=1,5/36=2,99/5=2) pseudo=read geom=check gue
 ss=(read,tcheck) scf=(maxcycle=1)
 ----------------------------------------------------------------------
 -----
 title
 -----
 Structure from the checkpoint file:  "3B-69_07b_oxalic_acid_dimerBC_mol1.chk"
 Charge =  0 Multiplicity = 1

                         Standard orientation:
 ---------------------------------------------------------------------
 Center     Atomic      Atomic             Coordinates (Angstroms)
 Number     Number       Type             X           Y           Z
 ---------------------------------------------------------------------
      1          8           0       -3.273573   -1.001500   -1.240748
      2          8           0       -4.029601    0.685809    0.045776
      3          6           0       -3.138186   -0.176573   -0.361852
      4          1           0       -4.897313    0.617333   -0.429461
      5          8           0       -1.691056    0.790115    1.324586
      6          8           0       -0.935028   -0.897195    0.038062
      7          6           0       -1.826443   -0.034813    0.445690
      8          1           0       -0.067316   -0.828718    0.513299
      9          8           0        1.648959   -1.211910    0.760102
     10          8           0        3.711781   -1.118813   -0.139804
     11          6           0        2.545809   -0.630495    0.186596
     12          1           0        3.831049   -2.070033    0.114004
     13          8           0        3.315670    1.423295   -0.843940
     14          8           0        1.252848    1.330199    0.055966
     15          6           0        2.418820    0.841881   -0.270434
     16          1           0        1.133580    2.281419   -0.197842
 ---------------------------------------------------------------------

 SCF Done:  E(RHF) =  -753.587784684     A.U. after    2 cycles

 The electronic state is 1-A.
 Alpha  occ. eigenvalues --  -20.65602 -20.64550 -20.62294 -20.59886 -20.59608
 Alpha  occ. eigenvalues --  -20.58268 -20.55597 -20.54776 -11.45984 -11.44601
 Alpha  occ. eigenvalues --  -11.41628 -11.40965  -1.61507  -1.59035  -1.57790
 Alpha  occ. eigenvalues --   -1.55052  -1.51583  -1.49078  -1.47255  -1.45355
 Alpha  occ. eigenvalues --   -1.01430  -0.97658  -0.88904  -0.85454  -0.78503
 Alpha  occ. eigenvalues --   -0.76663  -0.74335  -0.73923  -0.71931  -0.70928
 Alpha  occ. eigenvalues --   -0.69899  -0.67141  -0.66257  -0.65181  -0.62503
 Alpha  occ. eigenvalues --   -0.61607  -0.60729  -0.57521  -0.54261  -0.52694
 Alpha  occ. eigenvalues --   -0.50821  -0.50768  -0.48523  -0.47397  -0.47005
 Alpha  occ. eigenvalues --   -0.43282
 Alpha virt. eigenvalues --    0.02609   0.03399   0.03990   0.05291   0.06591
 Alpha virt. eigenvalues --    0.07940   0.08788   0.09077   0.09866   0.10128
 Alpha virt. eigenvalues --    0.10738   0.11124   0.12005   0.13127   0.13661

 Mulliken charges:
               1
     1  O   -1.207962
     2  O   -1.236382
     3  C    1.973201
     4  H    0.466320
     5  O   -1.192663
     6  O   -1.329687
     7  C    1.864728
     8  H    0.761428
     9  O   -1.235398
    10  O   -1.258732
    11  C    1.893181
    12  H    0.446432
    13  O   -1.181811
    14  O   -1.191528
    15  C    1.951544
    16  H    0.477330
 Sum of Mulliken charges =  -0.00000

 Dipole moment (field-independent basis, Debye):
    X=              1.3387    Y=              0.0250    Z=             -0.0312  Tot=              1.3393

 Test job not archived.
 1\1\GINC-SE143\SP\RHF\Aug-CC-pVDZ\C4H4O8\OHZDE\08-Apr-2025\0\\#t hf au
 g-cc-pvdz iop(5/13=1,5/36=2,99/5=2) pseudo=read geom=check guess=(read
 ,tcheck) scf=(maxcycle=1)\\title\\0,1\O,0,-1.061967,-1.393698,11.71837
 2\O,0,-0.219281,-0.272646,13.481\C,0,-0.39363,-0.508179,12.208754\H,0,
 -0.68854,-0.914709,14.073464\O,0,1.061967,1.393698,11.838828\O,0,0.219
 281,0.272646,10.0762\C,0,0.39363,0.508179,11.348446\H,0,0.68854,0.9147
 09,9.483736\O,0,1.061967,1.653302,7.912628\O,0,0.219281,2.774354,6.15\
 C,0,0.39363,2.538821,7.422246\H,0,0.68854,2.132291,5.557536\O,0,-1.061

 Normal termination of Gaussian 16 at Tue Apr  8 19:02:03 2025.
