 Gaussian 16, Revision C.01,

 ----------------------------------------------------------------------
 #t hf aug-cc-pvdz symm=none int=(grid=ultrafine) guess=(read,tcheck) s
 table=(opt,rrhf)
 ----------------------------------------------------------------------
 -----
 title
 -----
 Symbolic Z-matrix:
 Charge =  0 Multiplicity = 1

 SCF Done:  E(RHF) =  -263.887328184     A.U. after   13 cycles
 Normal termination of Gaussian 16 at Tue Apr  8 18:59:01 2025.
 Gaussian 16:  ES64L-G16RevC.01  3-Jul-2019

 ----------------------------------------------------------------------
 #t hf aug-cc-pvdz iop(5/13=1,5/36=2,99/5=2) pseudo=read geom=check gue
 ss=(read,tcheck) scf=(maxcycle=1)
 ----------------------------------------------------------------------
 -----
 title
 -----
 Structure from the checkpoint file:  "3B-69_04b_acetonitrile_dimerAC_mol1.chk"
 Charge =  0 Multiplicity = 1

                         Standard orientation:
 ---------------------------------------------------------------------
 Center     Atomic      Atomic             Coordinates (Angstroms)
 Number     Number       Type             X           Y           Z
 ---------------------------------------------------------------------
      1          6           0       -1.927071    1.239577    0.043348
      2          6           0       -2.290261   -0.151459   -0.162423
      3          7           0       -2.588688   -1.251645   -0.329384
      4          1           0       -1.124142    1.518184   -0.640564
      5          1           0       -1.598970    1.393420    1.071698
      6          1           0       -2.797223    1.867936   -0.146259
      7          6           0        3.146937    0.114593   -0.565793
      8          6           0        2.009656   -0.168872    0.291800
      9          7           0        1.101173   -0.396191    0.962866
     10          1           0        3.405187    1.172526   -0.501484
     11          1           0        4.003857   -0.488199   -0.263878
     12          1           0        2.888329   -0.132045   -1.595475
 ---------------------------------------------------------------------

 SCF Done:  E(RHF) =  -264.155922612     A.U. after    2 cycles

 The electronic state is 1-A.
 Alpha  occ. eigenvalues --  -15.51915 -15.49638 -11.30151 -11.29214 -11.28057
 Alpha  occ. eigenvalues --  -11.26989  -1.24182  -1.21874  -1.05495  -1.03350
 Alpha  occ. eigenvalues --   -0.71605  -0.69466  -0.64710  -0.64592  -0.62710
 Alpha  occ. eigenvalues --   -0.62511  -0.60628  -0.58574  -0.50288  -0.50233
 Alpha  occ. eigenvalues --   -0.48028  -0.47944
 Alpha virt. eigenvalues --    0.02250   0.03618   0.04304   0.04483   0.06088
 Alpha virt. eigenvalues --    0.06319   0.07853   0.09135   0.12010   0.12419
 Alpha virt. eigenvalues --    0.12899   0.13219   0.13707   0.13969   0.14439

 Mulliken charges:
               1
     1  C   -0.115130
     2  C   -1.363256
     3  N    0.722663
     4  H    0.276508
     5  H    0.299730
     6  H    0.174927
     7  C   -0.047271
     8  C   -1.467893
     9  N    0.818594
    10  H    0.236733
    11  H    0.227888
    12  H    0.236508
 Sum of Mulliken charges =  -0.00000

 Dipole moment (field-independent basis, Debye):
    X=              5.1964    Y=              5.3174    Z=             -1.9839  Tot=              7.6951

 Test job not archived.
 1\1\GINC-SE114\SP\RHF\Aug-CC-pVDZ\C4H6N2\OHZDE\08-Apr-2025\0\\#t hf au
 g-cc-pvdz iop(5/13=1,5/36=2,99/5=2) pseudo=read geom=check guess=(read
 ,tcheck) scf=(maxcycle=1)\\title\\0,1\C,0,6.774062,3.760286,9.793622\C
 ,0,7.504477,2.900537,10.708255\N,0,8.078059,2.222976,11.442598\H,0,6.1
 48058,3.155336,9.136198\H,0,7.470162,4.347622,9.194202\H,0,6.144004,4.
 439501,10.367769\C,0,7.494334,0.374714,5.869172\C,0,8.224749,1.234463,
 6.783805\N,0,8.79833,1.912024,7.518148\H,0,6.86833,0.979664,5.211748\H
 ,0,8.190434,-0.212622,5.269752\H,0,6.864275,-0.304501,6.443319\\Versio

 Normal termination of Gaussian 16 at Tue Apr  8 18:59:04 2025.
