 Gaussian 16, Revision C.01,

 ----------------------------------------------------------------------
 #t hf aug-cc-pvdz symm=none int=(grid=ultrafine) guess=(read,tcheck) s
 table=(opt,rrhf)
 ----------------------------------------------------------------------
 -----
 title
 -----
 Symbolic Z-matrix:
 Charge =  0 Multiplicity = 1

 SCF Done:  E(RHF) =  -449.647011705     A.U. after   15 cycles
 Normal termination of Gaussian 16 at Tue Apr  8 19:03:12 2025.
 Gaussian 16:  ES64L-G16RevC.01  3-Jul-2019

 ----------------------------------------------------------------------
 #t hf aug-cc-pvdz iop(5/13=1,5/36=2,99/5=2) pseudo=read geom=check gue
 ss=(read,tcheck) scf=(maxcycle=1)
 ----------------------------------------------------------------------
 -----
 title
 -----
 Structure from the checkpoint file:  "3B-69_12b_pyrazole_dimerAC_mol1.chk"
 Charge =  0 Multiplicity = 1

                         Standard orientation:
 ---------------------------------------------------------------------
 Center     Atomic      Atomic             Coordinates (Angstroms)
 Number     Number       Type             X           Y           Z
 ---------------------------------------------------------------------
      1          6           0        1.882527   -0.189176    0.955265
      2          6           0        1.647131    0.941052    0.156471
      3          6           0        2.595762    0.867166   -0.845155
      4          1           0        4.087056   -0.652044   -1.186601
      5          1           0        2.789299    1.515001   -1.680309
      6          1           0        0.895593    1.696691    0.291068
      7          1           0        1.364962   -0.517406    1.840271
      8          7           0        3.327893   -0.241919   -0.615869
      9          7           0        2.902418   -0.906783    0.479923
     10          6           0       -2.684671   -0.971797   -0.752262
     11          6           0       -1.697038   -0.968318    0.244617
     12          6           0       -1.843240    0.248486    0.880009
     13          1           0       -3.204840    1.853886    0.406689
     14          1           0       -1.301783    0.700077    1.691525
     15          1           0       -0.979906   -1.736115    0.467477
     16          1           0       -2.902590   -1.739770   -1.473485
     17          7           0       -2.862245    0.890145    0.271283
     18          7           0       -3.389583    0.160728   -0.733952
 ---------------------------------------------------------------------

 SCF Done:  E(RHF) =  -450.106497989     A.U. after    2 cycles

 The electronic state is 1-A.
 Alpha  occ. eigenvalues --  -15.58550 -15.58221 -15.52766 -15.52327 -11.28568
 Alpha  occ. eigenvalues --  -11.28223 -11.26189 -11.25680 -11.23054 -11.22559
 Alpha  occ. eigenvalues --   -1.37048  -1.36771  -1.11488  -1.11100  -1.06348
 Alpha  occ. eigenvalues --   -1.06004  -0.85094  -0.84737  -0.83785  -0.83319
 Alpha  occ. eigenvalues --   -0.76991  -0.76704  -0.64897  -0.64652  -0.64365
 Alpha  occ. eigenvalues --   -0.63844  -0.61829  -0.61204  -0.58278  -0.57855
 Alpha  occ. eigenvalues --   -0.50260  -0.49870  -0.40053  -0.39515  -0.37301
 Alpha  occ. eigenvalues --   -0.36102
 Alpha virt. eigenvalues --    0.02891   0.03107   0.04010   0.04478   0.05408
 Alpha virt. eigenvalues --    0.05827   0.06053   0.07454   0.09184   0.09972
 Alpha virt. eigenvalues --    0.10613   0.11115   0.11436   0.12450   0.12682

 Mulliken charges:
               1
     1  C   -0.281848
     2  C    0.797602
     3  C   -0.384956
     4  H    0.050992
     5  H   -0.211634
     6  H   -0.164924
     7  H   -0.211720
     8  N    0.458042
     9  N   -0.057919
    10  C   -0.323244
    11  C    0.765456
    12  C   -0.302791
    13  H    0.032991
    14  H   -0.276238
    15  H   -0.157600
    16  H   -0.153554
    17  N    0.443606
    18  N   -0.022260
 Sum of Mulliken charges =  -0.00000

 Dipole moment (field-independent basis, Debye):
    X=              1.7105    Y=              2.2667    Z=             -0.1200  Tot=              2.8422

 Test job not archived.
 1\1\GINC-SE344\SP\RHF\Aug-CC-pVDZ\C6H8N4\OHZDE\08-Apr-2025\0\\#t hf au
 g-cc-pvdz iop(5/13=1,5/36=2,99/5=2) pseudo=read geom=check guess=(read
 ,tcheck) scf=(maxcycle=1)\\title\\0,1\C,0,2.437016,5.579002,5.969045\C
 ,0,3.286074,4.843862,6.811403\C,0,2.498278,3.817185,7.295063\H,0,0.439
 312,3.364017,6.843575\H,0,2.727516,3.011175,7.967689\H,0,4.320061,5.03
 4319,7.031661\H,0,2.650612,6.458651,5.386431\N,0,1.271334,3.972773,6.7
 57422\N,0,1.214905,5.04376,5.93667\C,0,5.922353,3.945079,2.875477\C,0,
 5.048807,4.916747,3.387313\C,0,5.801878,5.615759,4.309254\H,0,7.837666

 Normal termination of Gaussian 16 at Tue Apr  8 19:03:25 2025.
