 Gaussian 16, Revision C.01,

 ----------------------------------------------------------------------
 #t hf aug-cc-pvdz symm=none int=(grid=ultrafine) guess=(read,tcheck) s
 table=(opt,rrhf)
 ----------------------------------------------------------------------
 -----
 title
 -----
 Symbolic Z-matrix:
 Charge =  0 Multiplicity = 1

 SCF Done:  E(RHF) =  -962.271554087     A.U. after   13 cycles
 Normal termination of Gaussian 16 at Tue Apr  8 19:27:04 2025.
 Gaussian 16:  ES64L-G16RevC.01  3-Jul-2019

 ----------------------------------------------------------------------
 #t hf aug-cc-pvdz iop(5/13=1,5/36=2,99/5=2) pseudo=read geom=check gue
 ss=(read,tcheck) scf=(maxcycle=1)
 ----------------------------------------------------------------------
 -----
 title
 -----
 Structure from the checkpoint file:  "3B-69_17b_oxazolidinone_trimer_mol1.chk"
 Charge =  0 Multiplicity = 1

                         Standard orientation:
 ---------------------------------------------------------------------
 Center     Atomic      Atomic             Coordinates (Angstroms)
 Number     Number       Type             X           Y           Z
 ---------------------------------------------------------------------
      1          7           0        2.607809   -0.633273   -0.289060
      2          8           0        4.535914    0.259140    0.332464
      3          8           0        3.090070   -0.321551    1.954650
      4          6           0        3.219206   -0.281751   -1.564276
      5          6           0        4.644856    0.071547   -1.107235
      6          6           0        3.354057   -0.256302    0.759597
      7          1           0        1.651245   -0.976611   -0.173500
      8          1           0        2.703102    0.554864   -2.032736
      9          1           0        3.212921   -1.124297   -2.253498
     10          1           0        5.353554   -0.737208   -1.278773
     11          1           0        5.024371    0.991724   -1.536132
     12          7           0       -1.697722   -1.232941   -1.044824
     13          8           0       -2.094361   -2.212943    0.900055
     14          8           0        0.036669   -1.671441    0.426090
     15          6           0       -3.120183   -1.538075   -1.128774
     16          6           0       -3.406473   -1.956537    0.323504
     17          6           0       -1.141597   -1.684399    0.089013
     18          1           0       -1.131173   -0.867297   -1.813964
     19          1           0       -3.311928   -2.334205   -1.846516
     20          1           0       -3.697961   -0.662124   -1.418314
     21          1           0       -3.869865   -1.161811    0.906121
     22          1           0       -3.991602   -2.864954    0.407836
     23          7           0       -1.878722    1.429088    1.098577
     24          8           0       -1.482083    2.409090   -0.846303
     25          8           0       -3.613114    1.867588   -0.372337
     26          6           0       -0.456262    1.734222    1.182527
     27          6           0       -0.169971    2.152684   -0.269751
     28          6           0       -2.434847    1.880546   -0.035260
     29          1           0       -2.445272    1.063443    1.867717
     30          1           0       -0.264516    2.530351    1.900268
     31          1           0        0.121516    0.858272    1.472067
     32          1           0        0.293421    1.357959   -0.852368
     33          1           0        0.415158    3.061101   -0.354084
 ---------------------------------------------------------------------

 SCF Done:  E(RHF) =  -963.234884500     A.U. after    2 cycles

 The electronic state is 1-A.
 Alpha  occ. eigenvalues --  -20.60652 -20.59721 -20.58031 -20.53313 -20.51458
 Alpha  occ. eigenvalues --  -20.49056 -15.56145 -15.54750 -15.51920 -11.43070
 Alpha  occ. eigenvalues --  -11.41385 -11.39119 -11.32894 -11.32347 -11.31467
 Alpha  occ. eigenvalues --  -11.30793 -11.29712 -11.29583  -1.55997  -1.54887
 Alpha  occ. eigenvalues --   -1.53082  -1.45920  -1.43924  -1.41549  -1.27821
 Alpha  occ. eigenvalues --   -1.26493  -1.24481  -1.05713  -1.04714  -1.03852
 Alpha  occ. eigenvalues --   -0.91675  -0.90647  -0.89641  -0.88411  -0.87107
 Alpha  occ. eigenvalues --   -0.85258  -0.75897  -0.74446  -0.74081  -0.73187
 Alpha  occ. eigenvalues --   -0.72594  -0.72102  -0.69602  -0.68363  -0.67311
 Alpha  occ. eigenvalues --   -0.65092  -0.62976  -0.62219  -0.62042  -0.61767
 Alpha  occ. eigenvalues --   -0.61024  -0.60723  -0.60401  -0.60283  -0.60069
 Alpha  occ. eigenvalues --   -0.58956  -0.58783  -0.54856  -0.53940  -0.53048
 Alpha  occ. eigenvalues --   -0.47215  -0.46843  -0.46119  -0.45423  -0.44880
 Alpha  occ. eigenvalues --   -0.44531  -0.43310  -0.42473  -0.41259
 Alpha virt. eigenvalues --    0.02108   0.02880   0.03180   0.03702   0.03823
 Alpha virt. eigenvalues --    0.04165   0.05162   0.05559   0.06062   0.06578
 Alpha virt. eigenvalues --    0.06903   0.07697   0.07832   0.08697   0.09728

 Mulliken charges:
               1
     1  N    1.056310
     2  O   -1.360541
     3  O   -1.256187
     4  C   -0.411059
     5  C    0.564414
     6  C    1.416586
     7  H   -0.029314
     8  H   -0.047620
     9  H    0.034763
    10  H    0.089730
    11  H    0.078871
    12  N    1.119530
    13  O   -1.463857
    14  O   -1.489820
    15  C   -0.301560
    16  C    0.562072
    17  C    1.311559
    18  H   -0.018469
    19  H   -0.019049
    20  H    0.055421
    21  H    0.075487
    22  H    0.052032
    23  N    1.030239
    24  O   -1.530658
    25  O   -1.349036
    26  C   -0.372222
    27  C    0.867339
    28  C    1.281276
    29  H    0.001132
    30  H   -0.014064
    31  H    0.027675
    32  H   -0.022342
    33  H    0.061361
 Sum of Mulliken charges =  -0.00000

 Dipole moment (field-independent basis, Debye):
    X=             -1.5688    Y=             -0.8916    Z=             -5.5370  Tot=              5.8236

 Test job not archived.
 1\1\GINC-SE125\SP\RHF\Aug-CC-pVDZ\C9H15N3O6\OHZDE\08-Apr-2025\0\\#t hf
  aug-cc-pvdz iop(5/13=1,5/36=2,99/5=2) pseudo=read geom=check guess=(r
 ead,tcheck) scf=(maxcycle=1)\\title\\0,1\N,0,7.885048,10.511445,5.3704
 38\O,0,6.875708,12.006394,4.087222\O,0,7.551157,12.675241,6.125743\C,0
 ,7.491717,9.719721,4.211985\C,0,7.051351,10.831913,3.244881\C,0,7.4655
 55,11.782764,5.290126\H,0,8.287993,10.13073,6.230055\H,0,6.687519,9.02
 875,4.460112\H,0,8.33072,9.149585,3.817056\H,0,7.813568,11.07137,2.504
 984\H,0,6.107802,10.631202,2.750776\N,0,8.750652,7.674945,8.637451\O,0

 Normal termination of Gaussian 16 at Tue Apr  8 19:27:54 2025.
