 Gaussian 16, Revision C.01,

 ----------------------------------------------------------------------
 #t hf aug-cc-pvdz symm=none int=(grid=ultrafine) guess=(read,tcheck) s
 table=(opt,rrhf)
 ----------------------------------------------------------------------
 -----
 title
 -----
 Symbolic Z-matrix:
 Charge =  0 Multiplicity = 1

 SCF Done:  E(RHF) =  -781.262211965     A.U. after   13 cycles
 Normal termination of Gaussian 16 at Tue Apr  8 19:09:21 2025.
 Gaussian 16:  ES64L-G16RevC.01  3-Jul-2019

 ----------------------------------------------------------------------
 #t hf aug-cc-pvdz iop(5/13=1,5/36=2,99/5=2) pseudo=read geom=check gue
 ss=(read,tcheck) scf=(maxcycle=1)
 ----------------------------------------------------------------------
 -----
 title
 -----
 Structure from the checkpoint file:  "3B-69_16b_triazolidinedione_dimerBC_mol1.chk"
 Charge =  0 Multiplicity = 1

                         Standard orientation:
 ---------------------------------------------------------------------
 Center     Atomic      Atomic             Coordinates (Angstroms)
 Number     Number       Type             X           Y           Z
 ---------------------------------------------------------------------
      1          7           0       -2.233563   -0.935528   -0.406323
      2          7           0       -2.050773    0.399733   -0.808107
      3          6           0       -3.004824    1.160913   -0.191717
      4          7           0       -3.867066    0.268206    0.409222
      5          6           0       -3.404617   -1.023871    0.274589
      6          8           0       -3.110375    2.383688   -0.182060
      7          8           0       -3.950208   -2.046615    0.693859
      8          1           0       -1.965945   -1.684030   -1.057757
      9          1           0       -1.091316    0.738473   -0.877525
     10          1           0       -4.685831    0.540990    0.974763
     11          7           0        2.367888    1.042504    0.393164
     12          7           0        3.749173    0.952871    0.641727
     13          6           0        4.206547   -0.203862    0.073993
     14          7           0        3.083128   -0.892533   -0.332425
     15          6           0        1.947416   -0.136643   -0.131837
     16          8           0        5.367329   -0.586251   -0.039039
     17          8           0        0.788256   -0.471562   -0.384106
     18          1           0        1.778255    1.534554    1.076143
     19          1           0        4.293540    1.811776    0.563827
     20          1           0        3.102644   -1.801839   -0.819669
 ---------------------------------------------------------------------

 SCF Done:  E(RHF) =  -782.033060484     A.U. after    2 cycles

 The electronic state is 1-A.
 Alpha  occ. eigenvalues --  -20.55975 -20.55013 -20.52420 -20.51969 -15.62036
 Alpha  occ. eigenvalues --  -15.61438 -15.59991 -15.58238 -15.57722 -15.56868
 Alpha  occ. eigenvalues --  -11.44664 -11.43884 -11.41002 -11.40743  -1.52094
 Alpha  occ. eigenvalues --   -1.49470  -1.48673  -1.46150  -1.42452  -1.38901
 Alpha  occ. eigenvalues --   -1.28753  -1.25454  -1.19423  -1.15781  -0.97284
 Alpha  occ. eigenvalues --   -0.94282  -0.93653  -0.90803  -0.84459  -0.80856
 Alpha  occ. eigenvalues --   -0.80387  -0.77102  -0.76871  -0.73909  -0.73799
 Alpha  occ. eigenvalues --   -0.70341  -0.68922  -0.66661  -0.65364  -0.63426
 Alpha  occ. eigenvalues --   -0.61281  -0.60429  -0.57916  -0.56942  -0.50971
 Alpha  occ. eigenvalues --   -0.48116  -0.47759  -0.47447  -0.45068  -0.44886
 Alpha  occ. eigenvalues --   -0.44452  -0.41444
 Alpha virt. eigenvalues --    0.01348   0.03447   0.03999   0.04503   0.05492
 Alpha virt. eigenvalues --    0.05601   0.07771   0.08296   0.08558   0.09447
 Alpha virt. eigenvalues --    0.09831   0.10070   0.10318   0.11372   0.11769

 Mulliken charges:
               1
     1  N    0.278713
     2  N    0.165211
     3  C    0.469368
     4  N    0.436073
     5  C    0.466132
     6  O   -1.157306
     7  O   -1.174299
     8  H    0.204998
     9  H    0.199708
    10  H    0.159307
    11  N    0.239175
    12  N    0.166845
    13  C    0.651811
    14  N    0.583669
    15  C    0.230599
    16  O   -1.165092
    17  O   -1.305125
    18  H    0.196494
    19  H    0.201742
    20  H    0.151978
 Sum of Mulliken charges =  -0.00000

 Dipole moment (field-independent basis, Debye):
    X=              3.3949    Y=              1.6564    Z=             -0.1798  Tot=              3.7817

 Test job not archived.
 1\1\GINC-SE452\SP\RHF\Aug-CC-pVDZ\C4H6N6O4\OHZDE\08-Apr-2025\0\\#t hf
 aug-cc-pvdz iop(5/13=1,5/36=2,99/5=2) pseudo=read geom=check guess=(re
 ad,tcheck) scf=(maxcycle=1)\\title\\0,1\N,0,1.196054,2.12235,8.781654\
 N,0,0.737684,3.125021,9.654759\C,0,1.151603,2.80662,10.918419\N,0,1.67
 4861,1.533686,10.832663\C,0,1.697988,1.102081,9.523224\O,0,1.063373,3.
 48309,11.938721\O,0,2.098252,0.009228,9.117118\H,0,0.643759,1.915918,7
 .939872\H,0,0.790422,4.089068,9.326195\H,0,2.091636,1.021316,11.62538\
 N,0,2.542325,6.87885,7.646573\N,0,3.000696,7.881521,6.773467\C,0,2.586

 Normal termination of Gaussian 16 at Tue Apr  8 19:09:33 2025.
