 Gaussian 16, Revision C.01,

 ----------------------------------------------------------------------
 #t hf aug-cc-pvdz symm=none int=(grid=ultrafine) guess=(read,tcheck) s
 table=(opt,rrhf)
 ----------------------------------------------------------------------
 -----
 title
 -----
 Symbolic Z-matrix:
 Charge =  0 Multiplicity = 1

 SCF Done:  E(RHF) =  -678.773949728     A.U. after   14 cycles
 Normal termination of Gaussian 16 at Tue Apr  8 19:01:57 2025.
 Gaussian 16:  ES64L-G16RevC.01  3-Jul-2019

 ----------------------------------------------------------------------
 #t hf aug-cc-pvdz iop(5/13=1,5/36=2,99/5=2) pseudo=read geom=check gue
 ss=(read,tcheck) scf=(maxcycle=1)
 ----------------------------------------------------------------------
 -----
 title
 -----
 Structure from the checkpoint file:  "3B-69_08a_vinylene_carbonate_dimerAB_mol1.chk"
 Charge =  0 Multiplicity = 1

                         Standard orientation:
 ---------------------------------------------------------------------
 Center     Atomic      Atomic             Coordinates (Angstroms)
 Number     Number       Type             X           Y           Z
 ---------------------------------------------------------------------
      1          6           0        4.169557    0.422391   -0.291456
      2          6           0        3.274517    1.363131   -0.039649
      3          6           0        2.256208   -0.595047    0.167347
      4          1           0        5.211809    0.428384   -0.545913
      5          1           0        3.294693    2.434702   -0.023820
      6          8           0        3.550898   -0.821200   -0.157167
      7          8           0        2.062969    0.742163    0.269468
      8          8           0        1.414072   -1.432392    0.328312
      9          6           0       -1.359037    0.452470    0.012553
     10          6           0       -1.597401   -0.841077   -0.126780
     11          6           0       -3.557910    0.189852   -0.038172
     12          1           0       -0.468829    1.048015    0.075241
     13          1           0       -0.981178   -1.714549   -0.205762
     14          8           0       -2.581982    1.122805    0.061016
     15          8           0       -2.979984   -1.027612   -0.178467
     16          8           0       -4.737487    0.397876    0.001489
 ---------------------------------------------------------------------

 SCF Done:  E(RHF) =  -679.430674416     A.U. after    2 cycles

 The electronic state is 1-A.
 Alpha  occ. eigenvalues --  -20.66662 -20.66426 -20.62664 -20.62507 -20.57164
 Alpha  occ. eigenvalues --  -20.53213 -11.48600 -11.44558 -11.36224 -11.36093
 Alpha  occ. eigenvalues --  -11.32051 -11.31924  -1.66692  -1.62735  -1.54273
 Alpha  occ. eigenvalues --   -1.51196  -1.50332  -1.47130  -1.10290  -1.06205
 Alpha  occ. eigenvalues --   -0.92691  -0.91100  -0.88691  -0.87126  -0.79294
 Alpha  occ. eigenvalues --   -0.75466  -0.74943  -0.71863  -0.71294  -0.68929
 Alpha  occ. eigenvalues --   -0.67454  -0.65313  -0.64284  -0.61827  -0.61123
 Alpha  occ. eigenvalues --   -0.60239  -0.57816  -0.56362  -0.55369  -0.51375
 Alpha  occ. eigenvalues --   -0.50624  -0.46567  -0.40407  -0.36361
 Alpha virt. eigenvalues --    0.01557   0.02695   0.04689   0.05558   0.06842
 Alpha virt. eigenvalues --    0.07469   0.07793   0.09362   0.09743   0.10125
 Alpha virt. eigenvalues --    0.10765   0.10974   0.11864   0.12055   0.12834

 Mulliken charges:
               1
     1  C    0.849908
     2  C    0.882644
     3  C    2.109953
     4  H   -0.083127
     5  H   -0.101426
     6  O   -1.295122
     7  O   -1.215087
     8  O   -1.147111
     9  C    0.832606
    10  C    0.921410
    11  C    2.263431
    12  H   -0.121652
    13  H   -0.067150
    14  O   -1.293198
    15  O   -1.293854
    16  O   -1.242224
 Sum of Mulliken charges =  -0.00000

 Dipole moment (field-independent basis, Debye):
    X=              9.6495    Y=              2.5397    Z=             -0.8064  Tot=             10.0106

 Test job not archived.
 1\1\GINC-SE048\SP\RHF\Aug-CC-pVDZ\C6H4O6\OHZDE\08-Apr-2025\0\\#t hf au
 g-cc-pvdz iop(5/13=1,5/36=2,99/5=2) pseudo=read geom=check guess=(read
 ,tcheck) scf=(maxcycle=1)\\title\\0,1\C,0,0.845927,15.309211,1.553806\
 C,0,1.46459,14.71303,2.55945\C,0,0.932131,13.146144,1.084452\H,0,0.584
 258,16.325703,1.331665\H,0,1.890128,15.047782,3.484534\O,0,0.509604,14
 .34051,0.607341\O,0,1.545281,13.348493,2.275671\O,0,0.782676,12.082704
 ,0.552468\C,0,1.292572,10.034211,3.17663\C,0,0.673909,9.43803,2.170986
 \C,0,1.206368,7.871144,3.645984\H,0,1.554241,11.050703,3.398771\H,0,0.

 Normal termination of Gaussian 16 at Tue Apr  8 19:02:05 2025.
