 Gaussian 16, Revision C.01,

 ----------------------------------------------------------------------
 #t hf aug-cc-pvdz symm=none int=(grid=ultrafine) guess=(read,tcheck) s
 table=(opt,rrhf)
 ----------------------------------------------------------------------
 -----
 title
 -----
 Symbolic Z-matrix:
 Charge =  0 Multiplicity = 1

 SCF Done:  E(RHF) =  -916.483616847     A.U. after   15 cycles
 Normal termination of Gaussian 16 at Tue Apr  8 19:48:36 2025.
 Gaussian 16:  ES64L-G16RevC.01  3-Jul-2019

 ----------------------------------------------------------------------
 #t hf aug-cc-pvdz iop(5/13=1,5/36=2,99/5=2) pseudo=read geom=check gue
 ss=(read,tcheck) scf=(maxcycle=1)
 ----------------------------------------------------------------------
 -----
 title
 -----
 Structure from the checkpoint file:  "3B-69_23a_cyclobutylfuran_trimer_mol1.chk"
 Charge =  0 Multiplicity = 1

                         Standard orientation:
 ---------------------------------------------------------------------
 Center     Atomic      Atomic             Coordinates (Angstroms)
 Number     Number       Type             X           Y           Z
 ---------------------------------------------------------------------
      1          8           0       -3.386266   -1.636641   -1.288022
      2          6           0       -3.868858   -0.883052   -0.229646
      3          1           0       -4.798568   -0.376519   -0.411628
      4          6           0       -2.991768   -0.997611    0.790443
      5          6           0       -2.367443   -0.779537    2.164717
      6          1           0       -2.043939    0.240387    2.367910
      7          1           0       -2.953846   -1.134460    3.011084
      8          6           0       -1.203320   -1.748657    1.691197
      9          1           0       -0.215660   -1.294643    1.645319
     10          1           0       -1.136170   -2.685676    2.240353
     11          6           0       -1.937484   -1.847062    0.365405
     12          6           0       -2.190209   -2.223325   -0.904141
     13          1           0       -1.722239   -2.847822   -1.642543
     14          8           0        1.867630   -1.337189   -1.989726
     15          6           0        1.385038   -0.583599   -0.931351
     16          1           0        0.455327   -0.077066   -1.113332
     17          6           0        2.262127   -0.698159    0.088739
     18          6           0        2.886452   -0.480085    1.463013
     19          1           0        3.209957    0.539839    1.666206
     20          1           0        2.300050   -0.835008    2.309379
     21          6           0        4.050576   -1.449204    0.989493
     22          1           0        5.038236   -0.995190    0.943615
     23          1           0        4.117725   -2.386223    1.538649
     24          6           0        3.316412   -1.547610   -0.336299
     25          6           0        3.063686   -1.923872   -1.605845
     26          1           0        3.531657   -2.548369   -2.344247
     27          8           0       -1.010439    2.534974   -1.802759
     28          6           0       -1.401059    1.815562   -0.684361
     29          1           0       -2.259735    1.184423   -0.819984
     30          6           0       -0.550159    2.120452    0.318636
     31          6           0        0.089452    2.093701    1.702887
     32          1           0        0.536081    1.141697    1.986432
     33          1           0       -0.540763    2.440471    2.520660
     34          6           0        1.126593    3.158297    1.146496
     35          1           0        2.163210    2.828239    1.132567
     36          1           0        1.074078    4.137802    1.617557
     37          6           0        0.392610    3.056992   -0.179178
     38          6           0        0.101542    3.294817   -1.473747
     39          1           0        0.492066    3.910681   -2.262691
 ---------------------------------------------------------------------

 SCF Done:  E(RHF) =  -917.416829025     A.U. after    2 cycles

 The electronic state is 1-A.
 Alpha  occ. eigenvalues --  -20.59710 -20.59505 -20.59284 -11.29260 -11.29123
 Alpha  occ. eigenvalues --  -11.29004 -11.28843 -11.28777 -11.28654 -11.26111
 Alpha  occ. eigenvalues --  -11.26095 -11.25912 -11.25851 -11.25833 -11.25595
 Alpha  occ. eigenvalues --  -11.22890 -11.22629 -11.22574 -11.22544 -11.22480
 Alpha  occ. eigenvalues --  -11.22293  -1.51685  -1.51445  -1.51200  -1.16403
 Alpha  occ. eigenvalues --   -1.16158  -1.16037  -0.99824  -0.99672  -0.99425
 Alpha  occ. eigenvalues --   -0.99326  -0.99228  -0.99062  -0.88222  -0.88088
 Alpha  occ. eigenvalues --   -0.87893  -0.79472  -0.79109  -0.78911  -0.74715
 Alpha  occ. eigenvalues --   -0.74583  -0.74410  -0.72111  -0.71823  -0.71627
 Alpha  occ. eigenvalues --   -0.65714  -0.65639  -0.65132  -0.60984  -0.60747
 Alpha  occ. eigenvalues --   -0.60644  -0.60002  -0.59866  -0.59648  -0.57720
 Alpha  occ. eigenvalues --   -0.57543  -0.57425  -0.54327  -0.53486  -0.53345
 Alpha  occ. eigenvalues --   -0.52747  -0.52672  -0.52638  -0.50692  -0.50653
 Alpha  occ. eigenvalues --   -0.50570  -0.46408  -0.46249  -0.46106  -0.38399
 Alpha  occ. eigenvalues --   -0.38136  -0.37868  -0.32607  -0.31970  -0.31649
 Alpha virt. eigenvalues --    0.02370   0.02741   0.02868   0.03703   0.04133
 Alpha virt. eigenvalues --    0.04333   0.04624   0.04921   0.05331   0.06113
 Alpha virt. eigenvalues --    0.06762   0.07239   0.07594   0.08331   0.08421

 Mulliken charges:
               1
     1  O   -1.611022
     2  C    1.358552
     3  H   -0.276019
     4  C   -0.276512
     5  C   -0.316362
     6  H    0.143628
     7  H    0.072043
     8  C   -0.191168
     9  H    0.047948
    10  H    0.080474
    11  C   -0.063587
    12  C    1.333532
    13  H   -0.253958
    14  O   -1.586500
    15  C    1.465952
    16  H   -0.264347
    17  C   -0.115465
    18  C   -0.496373
    19  H    0.098053
    20  H    0.055824
    21  C   -0.427790
    22  H    0.140840
    23  H    0.145510
    24  C   -0.198985
    25  C    1.361146
    26  H   -0.250890
    27  O   -1.697891
    28  C    1.868622
    29  H   -0.207378
    30  C   -0.343361
    31  C   -0.270569
    32  H    0.056122
    33  H    0.057298
    34  C   -0.463342
    35  H    0.122590
    36  H    0.128341
    37  C   -0.209437
    38  C    1.224441
    39  H   -0.239956
 Sum of Mulliken charges =  -0.00000

 Dipole moment (field-independent basis, Debye):
    X=              1.8450    Y=              0.2796    Z=              3.6395  Tot=              4.0900

 Test job not archived.
 1\1\GINC-SE097\SP\RHF\Aug-CC-pVDZ\C18H18O3\OHZDE\08-Apr-2025\0\\#t hf
 aug-cc-pvdz iop(5/13=1,5/36=2,99/5=2) pseudo=read geom=check guess=(re
 ad,tcheck) scf=(maxcycle=1)\\title\\0,1\O,0,-0.126301,16.441388,12.924
 526\C,0,-0.701266,17.4636,12.185981\H,0,-1.568703,17.187494,11.615566\
 C,0,0.02543,18.581936,12.396288\C,0,0.473934,20.034432,12.273536\H,0,0
 .824753,20.32698,11.284835\H,0,-0.238268,20.779526,12.625356\C,0,1.633
 898,19.669284,13.293216\H,0,2.642979,19.773757,12.900092\H,0,1.574915,
 20.176469,14.254138\C,0,1.077037,18.256376,13.291762\C,0,0.973511,16.9

 Normal termination of Gaussian 16 at Tue Apr  8 19:50:09 2025.
