 Gaussian 16, Revision C.01,

 ----------------------------------------------------------------------
 #t hf aug-cc-pvdz symm=none int=(grid=ultrafine) guess=(read,tcheck) s
 table=(opt,rrhf)
 ----------------------------------------------------------------------
 -----
 title
 -----
 Symbolic Z-matrix:
 Charge =  0 Multiplicity = 1

 SCF Done:  E(RHF) =  -376.426729411     A.U. after   13 cycles
 Normal termination of Gaussian 16 at Tue Apr  8 19:00:42 2025.
 Gaussian 16:  ES64L-G16RevC.01  3-Jul-2019

 ----------------------------------------------------------------------
 #t hf aug-cc-pvdz iop(5/13=1,5/36=2,99/5=2) pseudo=read geom=check gue
 ss=(read,tcheck) scf=(maxcycle=1)
 ----------------------------------------------------------------------
 -----
 title
 -----
 Structure from the checkpoint file:  "3B-69_07a_oxalic_acid_dimerAC_mol2.chk"
 Charge =  0 Multiplicity = 1

                         Standard orientation:
 ---------------------------------------------------------------------
 Center     Atomic      Atomic             Coordinates (Angstroms)
 Number     Number       Type             X           Y           Z
 ---------------------------------------------------------------------
      1          6           0        0.754696   -0.146745    0.004825
      2          1           0        2.445421    0.701399    0.009054
      3          8           0        1.179563   -1.287574   -0.001592
      4          8           0        1.474059    0.941234   -0.002456
      5          6           0       -0.754696    0.146745   -0.004825
      6          8           0       -1.179563    1.287574    0.001592
      7          8           0       -1.474059   -0.941233    0.002456
      8          1           0       -2.445421   -0.701399   -0.009053
 ---------------------------------------------------------------------

 SCF Done:  E(RHF) =  -376.788726380     A.U. after    2 cycles

 The electronic state is 1-A.
 Alpha  occ. eigenvalues --  -20.63650 -20.63645 -20.56879 -20.56875 -11.43094
 Alpha  occ. eigenvalues --  -11.43072  -1.59610  -1.57577  -1.48554  -1.47083
 Alpha  occ. eigenvalues --   -0.99344  -0.86281  -0.76261  -0.73616  -0.72191
 Alpha  occ. eigenvalues --   -0.68912  -0.64874  -0.63534  -0.59302  -0.52320
 Alpha  occ. eigenvalues --   -0.49564  -0.49503  -0.45124
 Alpha virt. eigenvalues --    0.03242   0.03528   0.07106   0.08825   0.09518
 Alpha virt. eigenvalues --    0.10688   0.11162   0.11920   0.13480   0.13495
 Alpha virt. eigenvalues --    0.18205   0.19014   0.19666   0.20801   0.24031

 Mulliken charges:
               1
     1  C    1.886473
     2  H    0.440740
     3  O   -1.135115
     4  O   -1.192099
     5  C    1.886474
     6  O   -1.135115
     7  O   -1.192099
     8  H    0.440740
 Sum of Mulliken charges =  -0.00000

 Dipole moment (field-independent basis, Debye):
    X=             -0.0000    Y=             -0.0000    Z=              0.0000  Tot=              0.0000

 Test job not archived.
 1\1\GINC-SE184\SP\RHF\Aug-CC-pVDZ\C2H2O4\OHZDE\08-Apr-2025\0\\#t hf au
 g-cc-pvdz iop(5/13=1,5/36=2,99/5=2) pseudo=read geom=check guess=(read
 ,tcheck) scf=(maxcycle=1)\\title\\0,1\C,0,-1.599714,6.025105,4.897591\
 H,0,-0.099127,5.378673,5.850628\O,0,-0.967931,6.64465,4.061493\O,0,-1.
 098297,5.340779,5.888304\C,0,-3.137243,6.004895,4.888196\O,0,-3.769026
 ,5.38535,5.724294\O,0,-3.63866,6.689221,3.897483\H,0,-4.63783,6.651327
 ,3.935158\\Version=ES64L-G16RevC.01\State=1-A\HF=-376.7887264\RMSD=1.4
 46e-02\Dipole=-0.0000001,0.,-0.0000006\Quadrupole=5.4069748,-1.9503098

 Normal termination of Gaussian 16 at Tue Apr  8 19:00:44 2025.
