 Gaussian 16, Revision C.01,

 ----------------------------------------------------------------------
 #t hf aug-cc-pvdz symm=none int=(grid=ultrafine) guess=(read,tcheck) s
 table=(opt,rrhf)
 ----------------------------------------------------------------------
 -----
 title
 -----
 Symbolic Z-matrix:
 Charge =  0 Multiplicity = 1

 SCF Done:  E(RHF) =  -674.549592043     A.U. after   14 cycles

 1\1\GINC-SE059\Stability\RHF\Aug-CC-pVDZ\C9H12N6\OHZDE\08-Apr-2025\0\\
 #t hf aug-cc-pvdz symm=none int=(grid=ultrafine) guess=(read,tcheck) s
 table=(opt,rrhf)\\title\\0,1\N,0,1.225156,1.790098,0.793667\C,0,0.3145
 68,1.191681,1.590327\N,0,0.098973,1.892803,2.692789\C,0,0.918281,2.995
 57,2.592821\C,0,1.622758,2.943251,1.422717\H,0,1.619151,1.410346,-0.09
 3212\H,0,-0.165462,0.258212,1.353791\H,0,0.967252,3.744556,3.360834\H,
 0,2.357781,3.610084,1.012244\N,0,1.588037,3.575902,7.757855\C,0,2.4986
 25,4.174319,6.961195\N,0,2.71422,3.473197,5.858733\C,0,1.894912,2.3704

 Normal termination of Gaussian 16 at Tue Apr  8 19:10:04 2025.
 Gaussian 16:  ES64L-G16RevC.01  3-Jul-2019

 ----------------------------------------------------------------------
 #t hf aug-cc-pvdz iop(5/13=1,5/36=2,99/5=2) pseudo=read geom=check gue
 ss=(read,tcheck) scf=(maxcycle=1)
 ----------------------------------------------------------------------
 -----
 title
 -----
 Structure from the checkpoint file:  "3B-69_10a_imidazole_trimer_mol1.chk"
 Charge =  0 Multiplicity = 1

                         Standard orientation:
 ---------------------------------------------------------------------
 Center     Atomic      Atomic             Coordinates (Angstroms)
 Number     Number       Type             X           Y           Z
 ---------------------------------------------------------------------
      1          7           0       -4.130794   -0.274913   -0.310035
      2          6           0       -3.140647   -1.189700   -0.241379
      3          7           0       -2.059767   -0.692223    0.339732
      4          6           0       -2.379053    0.609900    0.655779
      5          6           0       -3.657746    0.881958    0.256910
      6          1           0       -5.053383   -0.392661   -0.780102
      7          1           0       -3.226042   -2.193056   -0.620492
      8          1           0       -1.679448    1.272574    1.129740
      9          1           0       -4.239776    1.782194    0.321943
     10          7           0        2.518431    2.427922    0.240585
     11          6           0        1.528283    3.342709    0.171929
     12          7           0        0.447403    2.845232   -0.409183
     13          6           0        0.766688    1.543109   -0.725229
     14          6           0        2.045382    1.271051   -0.326360
     15          1           0        3.441018    2.545669    0.710652
     16          1           0        1.613677    4.346065    0.551042
     17          1           0        0.067084    0.880435   -1.199190
     18          1           0        2.627412    0.370815   -0.391393
     19          7           0        0.567009   -1.829760    0.194554
     20          6           0        1.487882   -1.968428    1.171644
     21          7           0        2.649926   -2.380274    0.688409
     22          6           0        2.458297   -2.508390   -0.669610
     23          6           0        1.173548   -2.168477   -0.989057
     24          1           0       -0.399541   -1.454987    0.300973
     25          1           0        1.294428   -1.761117    2.209593
     26          1           0        3.244604   -2.817118   -1.332656
     27          1           0        0.668711   -2.133093   -1.936316
 ---------------------------------------------------------------------

 SCF Done:  E(RHF) =  -675.237414977     A.U. after    2 cycles

 The electronic state is 1-A.
 Alpha  occ. eigenvalues --  -15.58638 -15.55747 -15.52377 -15.50991 -15.47678
 Alpha  occ. eigenvalues --  -15.46268 -11.32469 -11.29151 -11.27984 -11.27535
 Alpha  occ. eigenvalues --  -11.26377 -11.25095 -11.24294 -11.23514 -11.22826
 Alpha  occ. eigenvalues --   -1.36202  -1.33128  -1.31315  -1.19400  -1.16037
 Alpha  occ. eigenvalues --   -1.14283  -1.03807  -1.00885  -0.99620  -0.87625
 Alpha  occ. eigenvalues --   -0.85193  -0.84304  -0.82509  -0.82008  -0.80559
 Alpha  occ. eigenvalues --   -0.80134  -0.77283  -0.76120  -0.65963  -0.65109
 Alpha  occ. eigenvalues --   -0.64245  -0.62866  -0.62163  -0.61841  -0.61596
 Alpha  occ. eigenvalues --   -0.61037  -0.60325  -0.59692  -0.58545  -0.57646
 Alpha  occ. eigenvalues --   -0.50915  -0.47062  -0.46581  -0.45708  -0.43140
 Alpha  occ. eigenvalues --   -0.41344  -0.35253  -0.32787  -0.31278
 Alpha virt. eigenvalues --    0.01859   0.03397   0.03724   0.04360   0.05004
 Alpha virt. eigenvalues --    0.05061   0.05193   0.05710   0.06679   0.07121
 Alpha virt. eigenvalues --    0.08056   0.08383   0.09574   0.10420   0.10569

 Mulliken charges:
               1
     1  N    0.888214
     2  C   -0.736841
     3  N    0.805638
     4  C   -0.055863
     5  C   -0.537266
     6  H    0.018923
     7  H   -0.125562
     8  H   -0.152473
     9  H   -0.189774
    10  N    0.858537
    11  C   -0.659574
    12  N    0.748635
    13  C   -0.426537
    14  C   -0.199171
    15  H    0.001824
    16  H   -0.102509
    17  H   -0.149532
    18  H   -0.140714
    19  N    1.693581
    20  C   -1.100782
    21  N    0.820498
    22  C   -0.530831
    23  C    0.134839
    24  H   -0.061745
    25  H   -0.266880
    26  H   -0.190706
    27  H   -0.343929
 Sum of Mulliken charges =  -0.00000

 Dipole moment (field-independent basis, Debye):
    X=             -5.3436    Y=              1.6701    Z=             -0.6462  Tot=              5.6357

 Test job not archived.
 1\1\GINC-SE059\SP\RHF\Aug-CC-pVDZ\C9H12N6\OHZDE\08-Apr-2025\0\\#t hf a
 ug-cc-pvdz iop(5/13=1,5/36=2,99/5=2) pseudo=read geom=check guess=(rea
 d,tcheck) scf=(maxcycle=1)\\title\\0,1\N,0,1.225156,1.790098,0.793667\
 C,0,0.314568,1.191681,1.590327\N,0,0.098973,1.892803,2.692789\C,0,0.91
 8281,2.99557,2.592821\C,0,1.622758,2.943251,1.422717\H,0,1.619151,1.41
 0346,-0.093212\H,0,-0.165462,0.258212,1.353791\H,0,0.967252,3.744556,3
 .360834\H,0,2.357781,3.610084,1.012244\N,0,1.588037,3.575902,7.757855\
 C,0,2.498625,4.174319,6.961195\N,0,2.71422,3.473197,5.858733\C,0,1.894

 Normal termination of Gaussian 16 at Tue Apr  8 19:10:32 2025.
