 Gaussian 16, Revision C.01,

 ----------------------------------------------------------------------
 #t hf aug-cc-pvdz symm=none int=(grid=ultrafine) guess=(read,tcheck) s
 table=(opt,rrhf)
 ----------------------------------------------------------------------
 -----
 title
 -----
 Symbolic Z-matrix:
 Charge =  0 Multiplicity = 1

 SCF Done:  E(RHF) =  -591.816820969     A.U. after   15 cycles
 Normal termination of Gaussian 16 at Tue Apr  8 19:08:46 2025.
 Gaussian 16:  ES64L-G16RevC.01  3-Jul-2019

 ----------------------------------------------------------------------
 #t hf aug-cc-pvdz iop(5/13=1,5/36=2,99/5=2) pseudo=read geom=check gue
 ss=(read,tcheck) scf=(maxcycle=1)
 ----------------------------------------------------------------------
 -----
 title
 -----
 Structure from the checkpoint file:  "3B-69_15b_cyanoguanidine_dimerAC_mol1.chk"
 Charge =  0 Multiplicity = 1

                         Standard orientation:
 ---------------------------------------------------------------------
 Center     Atomic      Atomic             Coordinates (Angstroms)
 Number     Number       Type             X           Y           Z
 ---------------------------------------------------------------------
      1          7           0        0.038685   -1.877647    0.571007
      2          6           0       -0.925814   -1.430759    0.084748
      3          7           0       -1.976930   -0.999299   -0.533699
      4          6           0       -2.792105   -0.101351    0.043104
      5          7           0       -2.570772    0.435813    1.248029
      6          7           0       -3.863559    0.286334   -0.646936
      7          1           0       -3.286181    1.020979    1.663136
      8          1           0       -1.781403    0.168974    1.823901
      9          1           0       -4.492752    0.965267   -0.232872
     10          1           0       -4.063562   -0.150950   -1.546265
     11          7           0       -0.038684    1.877647   -0.571007
     12          6           0        0.925814    1.430758   -0.084748
     13          7           0        1.976930    0.999299    0.533699
     14          6           0        2.792104    0.101351   -0.043104
     15          7           0        2.570772   -0.435813   -1.248029
     16          7           0        3.863558   -0.286334    0.646936
     17          1           0        3.286181   -1.020978   -1.663136
     18          1           0        1.781403   -0.168974   -1.823901
     19          1           0        4.492752   -0.965267    0.232872
     20          1           0        4.063562    0.150950    1.546265
 ---------------------------------------------------------------------

 SCF Done:  E(RHF) =  -592.407911849     A.U. after    2 cycles

 The electronic state is 1-A.
 Alpha  occ. eigenvalues --  -15.55141 -15.55138 -15.54727 -15.54724 -15.47753
 Alpha  occ. eigenvalues --  -15.47732 -15.45050 -15.45047 -11.39742 -11.39741
 Alpha  occ. eigenvalues --  -11.26739 -11.26739  -1.33848  -1.33607  -1.22060
 Alpha  occ. eigenvalues --   -1.21944  -1.20790  -1.20767  -1.15344  -1.15191
 Alpha  occ. eigenvalues --   -0.92212  -0.92133  -0.84571  -0.84511  -0.79968
 Alpha  occ. eigenvalues --   -0.79952  -0.72503  -0.72495  -0.71757  -0.71716
 Alpha  occ. eigenvalues --   -0.64857  -0.64782  -0.56906  -0.56746  -0.54809
 Alpha  occ. eigenvalues --   -0.54750  -0.53449  -0.52191  -0.48991  -0.48857
 Alpha  occ. eigenvalues --   -0.41775  -0.41633  -0.38495  -0.37816
 Alpha virt. eigenvalues --    0.01852   0.02893   0.03605   0.04797   0.04949
 Alpha virt. eigenvalues --    0.06100   0.07865   0.08291   0.09062   0.09792
 Alpha virt. eigenvalues --    0.10846   0.10899   0.11848   0.12070   0.12669

 Mulliken charges:
               1
     1  N    1.169940
     2  C   -2.009428
     3  N    0.849354
     4  C   -1.883554
     5  N    0.698831
     6  N    0.622487
     7  H    0.053092
     8  H    0.186031
     9  H    0.158353
    10  H    0.154894
    11  N    1.169942
    12  C   -2.009430
    13  N    0.849355
    14  C   -1.883555
    15  N    0.698832
    16  N    0.622486
    17  H    0.053092
    18  H    0.186031
    19  H    0.158352
    20  H    0.154895
 Sum of Mulliken charges =  -0.00000

 Dipole moment (field-independent basis, Debye):
    X=             -0.0000    Y=              0.0000    Z=             -0.0000  Tot=              0.0000

 Test job not archived.
 1\1\GINC-SE023\SP\RHF\Aug-CC-pVDZ\C4H8N8\OHZDE\08-Apr-2025\0\\#t hf au
 g-cc-pvdz iop(5/13=1,5/36=2,99/5=2) pseudo=read geom=check guess=(read
 ,tcheck) scf=(maxcycle=1)\\title\\0,1\N,0,-2.474236,4.376465,10.304662
 \C,0,-3.287263,4.877151,10.978989\N,0,-4.214783,5.48737,11.64293\C,0,-
 4.4763,5.156956,12.918061\N,0,-3.794771,4.229109,13.599232\N,0,-5.4551
 91,5.817607,13.534325\H,0,-4.12134,3.95731,14.519026\H,0,-3.050768,3.6
 85335,13.17887\H,0,-5.669621,5.587082,14.498255\H,0,-6.008679,6.49436,
 13.009285\N,0,-1.410087,6.683035,13.297945\C,0,-0.597061,6.182349,12.6

 Normal termination of Gaussian 16 at Tue Apr  8 19:08:58 2025.
