 Gaussian 16, Revision C.01,

 ----------------------------------------------------------------------
 #t hf aug-cc-pvdz symm=none int=(grid=ultrafine) guess=(read,tcheck) s
 table=(opt,rrhf)
 ----------------------------------------------------------------------
 -----
 title
 -----
 Symbolic Z-matrix:
 Charge =  0 Multiplicity = 1

 SCF Done:  E(RHF) =  -76.0380099697     A.U. after   10 cycles
 Normal termination of Gaussian 16 at Tue Apr  8 18:52:31 2025.
 Gaussian 16:  ES64L-G16RevC.01  3-Jul-2019

 ----------------------------------------------------------------------
 #t hf aug-cc-pvdz iop(5/13=1,5/36=2,99/5=2) pseudo=read geom=check gue
 ss=(read,tcheck) scf=(maxcycle=1)
 ----------------------------------------------------------------------
 -----
 title
 -----
 Structure from the checkpoint file:  "3B-69_01a_water_dimerBC_mol3.chk"
 Charge =  0 Multiplicity = 1

                         Standard orientation:
 ---------------------------------------------------------------------
 Center     Atomic      Atomic             Coordinates (Angstroms)
 Number     Number       Type             X           Y           Z
 ---------------------------------------------------------------------
      1          8           0        0.000000    0.116861   -0.000000
      2          1           0        0.794549   -0.467224    0.000000
      3          1           0       -0.794549   -0.467662    0.000000
 ---------------------------------------------------------------------

 SCF Done:  E(RHF) =  -76.1162166110     A.U. after    2 cycles

 The electronic state is 1-A'.
 Alpha  occ. eigenvalues --  -20.56263  -1.42517  -0.70271  -0.56866  -0.49657
 Alpha virt. eigenvalues --    0.03643   0.05644   0.17443   0.19735   0.22384
 Alpha virt. eigenvalues --    0.22994   0.28486   0.32297   0.38109   0.40446
 Alpha virt. eigenvalues --    0.43236   0.53080   0.63732   0.65392   0.81236

 Mulliken charges:
               1
     1  O   -0.776932
     2  H    0.388387
     3  H    0.388545
 Sum of Mulliken charges =  -0.00000

 Dipole moment (field-independent basis, Debye):
    X=              0.0001    Y=             -1.9332    Z=              0.0000  Tot=              1.9332

 Test job not archived.
 1\1\GINC-SE340\SP\RHF\Aug-CC-pVDZ\H2O1\OHZDE\08-Apr-2025\0\\#t hf aug-
 cc-pvdz iop(5/13=1,5/36=2,99/5=2) pseudo=read geom=check guess=(read,t
 check) scf=(maxcycle=1)\\title\\0,1\O,0,2.201771,1.306708,0.969979\H,0
 ,2.989729,0.844404,0.598684\H,0,2.274831,1.268852,1.952936\\Version=ES
 64L-G16RevC.01\State=1-A'\HF=-76.1162166\RMSD=7.801e-03\Dipole=0.56042
 03,-0.3255449,0.3980664\Quadrupole=-0.1452879,-0.8505667,0.9958545,-0.
 6324831,-0.6497153,0.3906083\PG=CS [SG(H2O1)]\\@

 Normal termination of Gaussian 16 at Tue Apr  8 18:52:32 2025.
