 Gaussian 16, Revision C.01,

 ----------------------------------------------------------------------
 #t hf aug-cc-pvdz symm=none int=(grid=ultrafine) guess=(read,tcheck) s
 table=(opt,rrhf)
 ----------------------------------------------------------------------
 -----
 title
 -----
 Symbolic Z-matrix:
 Charge =  0 Multiplicity = 1

 SCF Done:  E(RHF) =  -278.732061561     A.U. after   11 cycles
 Normal termination of Gaussian 16 at Tue Apr  8 19:03:02 2025.
 Gaussian 16:  ES64L-G16RevC.01  3-Jul-2019

 ----------------------------------------------------------------------
 #t hf aug-cc-pvdz iop(5/13=1,5/36=2,99/5=2) pseudo=read geom=check gue
 ss=(read,tcheck) scf=(maxcycle=1)
 ----------------------------------------------------------------------
 -----
 title
 -----
 Structure from the checkpoint file:  "3B-69_13a_triazine_dimerAB_mol2.chk"
 Charge =  0 Multiplicity = 1

                         Standard orientation:
 ---------------------------------------------------------------------
 Center     Atomic      Atomic             Coordinates (Angstroms)
 Number     Number       Type             X           Y           Z
 ---------------------------------------------------------------------
      1          6           0       -0.650015    1.125859   -0.000000
      2          7           0       -1.367752   -0.000000   -0.000000
      3          1           0       -1.191067    2.062989   -0.000000
      4          6           0        1.300030    0.000000    0.000000
      5          7           0        0.683876    1.184508   -0.000000
      6          1           0        2.382134   -0.000000    0.000000
      7          6           0       -0.650015   -1.125859    0.000000
      8          7           0        0.683876   -1.184508    0.000000
      9          1           0       -1.191067   -2.062988    0.000000
 ---------------------------------------------------------------------

 SCF Done:  E(RHF) =  -279.009646926     A.U. after    2 cycles

 The electronic state is 1-A'.
 Alpha  occ. eigenvalues --  -15.52724 -15.52682 -15.52682 -11.34818 -11.34818
 Alpha  occ. eigenvalues --  -11.34815  -1.36011  -1.22110  -1.22110  -0.96282
 Alpha  occ. eigenvalues --   -0.96282  -0.80003  -0.78540  -0.64573  -0.64573
 Alpha  occ. eigenvalues --   -0.64217  -0.61613  -0.48612  -0.48612  -0.47680
 Alpha  occ. eigenvalues --   -0.47680
 Alpha virt. eigenvalues --    0.03290   0.04958   0.04958   0.05621   0.05621
 Alpha virt. eigenvalues --    0.08966   0.08966   0.09237   0.09322   0.12426
 Alpha virt. eigenvalues --    0.12426   0.12651   0.14737   0.16351   0.16351

 Mulliken charges:
               1
     1  C   -0.748250
     2  N    0.741215
     3  H    0.007035
     4  C   -0.748248
     5  N    0.741215
     6  H    0.007034
     7  C   -0.748248
     8  N    0.741214
     9  H    0.007034
 Sum of Mulliken charges =  -0.00000

 Dipole moment (field-independent basis, Debye):
    X=             -0.0000    Y=              0.0000    Z=             -0.0000  Tot=              0.0000

 Test job not archived.
 1\1\GINC-SE009\SP\RHF\Aug-CC-pVDZ\C3H3N3\OHZDE\08-Apr-2025\0\\#t hf au
 g-cc-pvdz iop(5/13=1,5/36=2,99/5=2) pseudo=read geom=check guess=(read
 ,tcheck) scf=(maxcycle=1)\\title\\0,1\C,0,-3.52347,8.354547,9.10125\N,
 0,-4.139624,7.170039,9.10125\H,0,-2.441366,8.354547,9.10125\C,0,-5.473
 515,9.480406,9.10125\N,0,-4.139624,9.539055,9.10125\H,0,-6.014567,10.4
 17535,9.10125\C,0,-5.473515,7.228688,9.10125\N,0,-6.191252,8.354547,9.
 10125\H,0,-6.014567,6.291559,9.10125\\Version=ES64L-G16RevC.01\State=1
 -A'\HF=-279.0096469\RMSD=2.914e-02\Dipole=0.0000003,0.,0.\Quadrupole=0

 Normal termination of Gaussian 16 at Tue Apr  8 19:03:08 2025.
