 Gaussian 16, Revision C.01,

 ----------------------------------------------------------------------
 #t hf aug-cc-pvdz symm=none int=(grid=ultrafine) guess=(read,tcheck) s
 table=(opt,rrhf)
 ----------------------------------------------------------------------
 -----
 title
 -----
 Symbolic Z-matrix:
 Charge =  0 Multiplicity = 1

 SCF Done:  E(RHF) =  -906.647118800     A.U. after   15 cycles
 Normal termination of Gaussian 16 at Tue Apr  8 19:14:48 2025.
 Gaussian 16:  ES64L-G16RevC.01  3-Jul-2019

 ----------------------------------------------------------------------
 #t hf aug-cc-pvdz iop(5/13=1,5/36=2,99/5=2) pseudo=read geom=check gue
 ss=(read,tcheck) scf=(maxcycle=1)
 ----------------------------------------------------------------------
 -----
 title
 -----
 Structure from the checkpoint file:  "3B-69_20c_maleic_acid_dimerAB_mol1.chk"
 Charge =  0 Multiplicity = 1

                         Standard orientation:
 ---------------------------------------------------------------------
 Center     Atomic      Atomic             Coordinates (Angstroms)
 Number     Number       Type             X           Y           Z
 ---------------------------------------------------------------------
      1          6           0       -2.673080   -0.186078   -0.187101
      2          8           0       -2.912126    0.584323    0.849075
      3          1           0       -2.254573    1.356771    0.914476
      4          8           0       -3.424321   -1.131922   -0.406228
      5          6           0       -1.517712    0.058329   -1.098398
      6          1           0       -1.446284   -0.704058   -1.862986
      7          6           0       -0.592736    1.025202   -1.128011
      8          1           0        0.157415    0.972632   -1.907302
      9          6           0       -0.458186    2.192619   -0.223075
     10          8           0        0.564208    2.948974   -0.528848
     11          1           0        0.607493    3.763177    0.063160
     12          8           0       -1.220731    2.445685    0.712620
     13          6           0        0.337920   -2.276259    0.266206
     14          8           0        0.098874   -1.505858    1.302382
     15          1           0        0.756427   -0.733410    1.367783
     16          8           0       -0.413321   -3.222103    0.047079
     17          6           0        1.493288   -2.031852   -0.645091
     18          1           0        1.564716   -2.794239   -1.409679
     19          6           0        2.418263   -1.064979   -0.674704
     20          1           0        3.168415   -1.117549   -1.453995
     21          6           0        2.552814    0.102438    0.230232
     22          8           0        3.575208    0.858793   -0.075541
     23          1           0        3.618493    1.672996    0.516467
     24          8           0        1.790269    0.355504    1.165927
 ---------------------------------------------------------------------

 SCF Done:  E(RHF) =  -907.527527048     A.U. after    2 cycles

 The electronic state is 1-A.
 Alpha  occ. eigenvalues --  -20.66991 -20.66033 -20.59878 -20.58322 -20.57989
 Alpha  occ. eigenvalues --  -20.56126 -20.53277 -20.51375 -11.46710 -11.45295
 Alpha  occ. eigenvalues --  -11.40193 -11.38448 -11.32538 -11.31692 -11.31142
 Alpha  occ. eigenvalues --  -11.30274  -1.61947  -1.60837  -1.54211  -1.52339
 Alpha  occ. eigenvalues --   -1.51136  -1.49574  -1.43421  -1.41528  -1.14424
 Alpha  occ. eigenvalues --   -1.13041  -0.99413  -0.98098  -0.89398  -0.87991
 Alpha  occ. eigenvalues --   -0.82648  -0.81023  -0.80542  -0.79203  -0.77293
 Alpha  occ. eigenvalues --   -0.75811  -0.70518  -0.70119  -0.68820  -0.68344
 Alpha  occ. eigenvalues --   -0.68041  -0.66935  -0.64128  -0.63096  -0.62469
 Alpha  occ. eigenvalues --   -0.61309  -0.60443  -0.59923  -0.58687  -0.57035
 Alpha  occ. eigenvalues --   -0.54198  -0.52778  -0.49137  -0.47562  -0.47300
 Alpha  occ. eigenvalues --   -0.45606  -0.45035  -0.43843  -0.43213  -0.41794
 Alpha virt. eigenvalues --    0.00561   0.00880   0.01932   0.02696   0.02810
 Alpha virt. eigenvalues --    0.04042   0.04784   0.05941   0.06712   0.07590
 Alpha virt. eigenvalues --    0.08319   0.08847   0.10355   0.10735   0.10842

 Mulliken charges:
               1
     1  C    1.775919
     2  O   -1.457844
     3  H    0.782292
     4  O   -1.287199
     5  C    0.539950
     6  H   -0.325884
     7  C    0.556834
     8  H   -0.342884
     9  C    2.423768
    10  O   -1.621246
    11  H    0.533357
    12  O   -1.634105
    13  C    1.896484
    14  O   -1.480349
    15  H    0.879506
    16  O   -1.328688
    17  C    0.409618
    18  H   -0.267038
    19  C    0.447418
    20  H   -0.245106
    21  C    2.350217
    22  O   -1.601137
    23  H    0.516732
    24  O   -1.520616
 Sum of Mulliken charges =  -0.00000

 Dipole moment (field-independent basis, Debye):
    X=             10.7736    Y=              7.0239    Z=             -3.4151  Tot=             13.3067

 Test job not archived.
 1\1\GINC-SE224\SP\RHF\Aug-CC-pVDZ\C8H8O8\OHZDE\08-Apr-2025\0\\#t hf au
 g-cc-pvdz iop(5/13=1,5/36=2,99/5=2) pseudo=read geom=check guess=(read
 ,tcheck) scf=(maxcycle=1)\\title\\0,1\C,0,-1.647553,10.845738,6.203201
 \O,0,-2.15126,10.135432,5.220314\H,0,-2.044314,9.136168,5.373168\O,0,-
 1.751616,12.068249,6.16272\C,0,-0.955798,10.207203,7.360275\H,0,-0.559
 945,10.946547,8.044089\C,0,-0.752528,8.923996,7.681774\H,0,-0.206856,8
 .720057,8.594701\C,0,-1.192451,7.714058,6.945301\O,0,-0.824514,6.60627
 6,7.53547\H,0,-1.177353,5.797481,7.049024\O,0,-1.842498,7.729101,5.897

 Normal termination of Gaussian 16 at Tue Apr  8 19:15:14 2025.
