 Gaussian 16, Revision C.01,

 ----------------------------------------------------------------------
 #t hf aug-cc-pvdz symm=none int=(grid=ultrafine) guess=(read,tcheck) s
 table=(opt,rrhf)
 ----------------------------------------------------------------------
 -----
 title
 -----
 Symbolic Z-matrix:
 Charge =  0 Multiplicity = 1

 SCF Done:  E(RHF) =  -599.495322896     A.U. after   14 cycles
 Normal termination of Gaussian 16 at Tue Apr  8 19:07:17 2025.
 Gaussian 16:  ES64L-G16RevC.01  3-Jul-2019

 ----------------------------------------------------------------------
 #t hf aug-cc-pvdz iop(5/13=1,5/36=2,99/5=2) pseudo=read geom=check gue
 ss=(read,tcheck) scf=(maxcycle=1)
 ----------------------------------------------------------------------
 -----
 title
 -----
 Structure from the checkpoint file:  "3B-69_14b_cyanoacetamide_dimerAC_mol1.chk"
 Charge =  0 Multiplicity = 1

                         Standard orientation:
 ---------------------------------------------------------------------
 Center     Atomic      Atomic             Coordinates (Angstroms)
 Number     Number       Type             X           Y           Z
 ---------------------------------------------------------------------
      1          6           0       -3.142395   -0.008847    0.018117
      2          6           0       -1.068365    1.327899   -0.186376
      3          6           0       -2.090101    0.855083    0.727091
      4          1           0       -1.603933    0.314273    1.539642
      5          1           0       -2.569043    1.722899    1.186405
      6          1           0       -4.793530   -1.125775    0.406801
      7          1           0       -4.029870   -0.404070    1.826162
      8          7           0       -4.077305   -0.525293    0.820738
      9          7           0       -0.256611    1.705222   -0.907729
     10          8           0       -3.120785   -0.164231   -1.205403
     11          6           0        3.769423    0.384640    0.051911
     12          6           0        2.728054   -0.189199   -0.776258
     13          6           0        1.664622   -0.917527    0.055265
     14          1           0        3.187317   -0.843201   -1.516477
     15          1           0        2.242579    0.621939   -1.325217
     16          1           0        0.046901   -2.120303   -0.165335
     17          1           0        0.898726   -1.742007   -1.660433
     18          7           0        4.592017    0.845392    0.709411
     19          7           0        0.850283   -1.711905   -0.647991
     20          8           0        1.582627   -0.752016    1.274021
 ---------------------------------------------------------------------

 SCF Done:  E(RHF) =  -600.088746476     A.U. after    2 cycles

 The electronic state is 1-A.
 Alpha  occ. eigenvalues --  -20.54258 -20.52503 -15.57153 -15.55298 -15.52580
 Alpha  occ. eigenvalues --  -15.50369 -11.40452 -11.38619 -11.32327 -11.30080
 Alpha  occ. eigenvalues --  -11.29874 -11.27424  -1.48244  -1.46574  -1.27164
 Alpha  occ. eigenvalues --   -1.25316  -1.24894  -1.22597  -1.09245  -1.07113
 Alpha  occ. eigenvalues --   -0.88973  -0.86966  -0.81109  -0.79176  -0.73385
 Alpha  occ. eigenvalues --   -0.71502  -0.71293  -0.69808  -0.69188  -0.66819
 Alpha  occ. eigenvalues --   -0.63484  -0.61770  -0.61598  -0.60224  -0.59292
 Alpha  occ. eigenvalues --   -0.58258  -0.51527  -0.51036  -0.49280  -0.48657
 Alpha  occ. eigenvalues --   -0.46776  -0.45967  -0.45105  -0.44176
 Alpha virt. eigenvalues --    0.00951   0.02881   0.03479   0.04346   0.04814
 Alpha virt. eigenvalues --    0.05972   0.06338   0.06650   0.08482   0.09256
 Alpha virt. eigenvalues --    0.09339   0.10261   0.10484   0.11399   0.12300

 Mulliken charges:
               1
     1  C    0.285152
     2  C   -1.680681
     3  C   -0.177521
     4  H    0.298782
     5  H    0.322461
     6  H    0.107005
     7  H    0.054372
     8  N    0.806608
     9  N    1.201152
    10  O   -1.227391
    11  C   -1.508153
    12  C    0.075804
    13  C   -0.098017
    14  H    0.259645
    15  H    0.423252
    16  H    0.093864
    17  H    0.023557
    18  N    0.926906
    19  N    1.075075
    20  O   -1.261872
 Sum of Mulliken charges =  -0.00000

 Dipole moment (field-independent basis, Debye):
    X=             -8.3326    Y=             -3.9924    Z=              0.3085  Tot=              9.2448

 Test job not archived.
 1\1\GINC-SE284\SP\RHF\Aug-CC-pVDZ\C6H8N4O2\OHZDE\08-Apr-2025\0\\#t hf
 aug-cc-pvdz iop(5/13=1,5/36=2,99/5=2) pseudo=read geom=check guess=(re
 ad,tcheck) scf=(maxcycle=1)\\title\\0,1\C,0,2.712508,16.885489,6.36813
 8\C,0,2.839569,14.413417,6.423138\C,0,2.199576,15.555103,5.799531\H,0,
 2.351814,15.490712,4.721686\H,0,1.121642,15.473767,5.957336\H,0,2.5237
 51,18.891506,6.112956\H,0,1.586888,17.904765,4.987234\N,0,2.203727,17.
 976476,5.788601\N,0,3.344448,13.505572,6.915663\O,0,3.504903,16.911923
 ,7.313138\C,0,5.578016,10.975209,4.180296\C,0,5.959025,12.127875,4.971

 Normal termination of Gaussian 16 at Tue Apr  8 19:07:29 2025.
