 Gaussian 16, Revision C.01,

 ----------------------------------------------------------------------
 #t hf aug-cc-pvdz symm=none int=(grid=ultrafine) guess=(read,tcheck) s
 table=(opt,rrhf)
 ----------------------------------------------------------------------
 -----
 title
 -----
 Symbolic Z-matrix:
 Charge =  0 Multiplicity = 1

 SCF Done:  E(RHF) =  -557.464105830     A.U. after   12 cycles
 Normal termination of Gaussian 16 at Tue Apr  8 19:04:20 2025.
 Gaussian 16:  ES64L-G16RevC.01  3-Jul-2019

 ----------------------------------------------------------------------
 #t hf aug-cc-pvdz iop(5/13=1,5/36=2,99/5=2) pseudo=read geom=check gue
 ss=(read,tcheck) scf=(maxcycle=1)
 ----------------------------------------------------------------------
 -----
 title
 -----
 Structure from the checkpoint file:  "3B-69_13a_triazine_dimerBC_mol1.chk"
 Charge =  0 Multiplicity = 1

                         Standard orientation:
 ---------------------------------------------------------------------
 Center     Atomic      Atomic             Coordinates (Angstroms)
 Number     Number       Type             X           Y           Z
 ---------------------------------------------------------------------
      1          6           0        0.650015    1.125859    3.640500
      2          7           0        1.367752    0.000000    3.640500
      3          1           0        1.191067    2.062988    3.640500
      4          6           0       -1.300030   -0.000000    3.640500
      5          7           0       -0.683876    1.184508    3.640500
      6          1           0       -2.382134   -0.000000    3.640500
      7          6           0        0.650015   -1.125859    3.640500
      8          7           0       -0.683876   -1.184508    3.640500
      9          1           0        1.191067   -2.062988    3.640500
     10          6           0        0.650015    1.125859   -3.640500
     11          7           0        1.367752    0.000000   -3.640500
     12          1           0        1.191067    2.062988   -3.640500
     13          6           0       -1.300030   -0.000000   -3.640500
     14          7           0       -0.683876    1.184508   -3.640500
     15          1           0       -2.382134   -0.000000   -3.640500
     16          6           0        0.650015   -1.125859   -3.640500
     17          7           0       -0.683876   -1.184508   -3.640500
     18          1           0        1.191067   -2.062988   -3.640500
 ---------------------------------------------------------------------

 SCF Done:  E(RHF) =  -558.018856961     A.U. after    2 cycles

 The electronic state is 1-A'.
 Alpha  occ. eigenvalues --  -15.52761 -15.52734 -15.52694 -15.52694 -15.52690
 Alpha  occ. eigenvalues --  -15.52690 -11.34826 -11.34826 -11.34825 -11.34825
 Alpha  occ. eigenvalues --  -11.34823 -11.34822  -1.36024  -1.36018  -1.22116
 Alpha  occ. eigenvalues --   -1.22116  -1.22114  -1.22114  -0.96288  -0.96288
 Alpha  occ. eigenvalues --   -0.96288  -0.96288  -0.80010  -0.80010  -0.78553
 Alpha  occ. eigenvalues --   -0.78552  -0.64578  -0.64578  -0.64578  -0.64578
 Alpha  occ. eigenvalues --   -0.64227  -0.64224  -0.61623  -0.61620  -0.48618
 Alpha  occ. eigenvalues --   -0.48618  -0.48618  -0.48618  -0.47686  -0.47686
 Alpha  occ. eigenvalues --   -0.47682  -0.47682
 Alpha virt. eigenvalues --    0.02883   0.03845   0.04400   0.04400   0.05310
 Alpha virt. eigenvalues --    0.05310   0.05486   0.05486   0.06003   0.06003
 Alpha virt. eigenvalues --    0.07595   0.08263   0.08263   0.09252   0.09408

 Mulliken charges:
               1
     1  C   -0.803412
     2  N    0.818031
     3  H   -0.014619
     4  C   -0.803413
     5  N    0.818031
     6  H   -0.014618
     7  C   -0.803412
     8  N    0.818031
     9  H   -0.014619
    10  C   -0.803412
    11  N    0.818031
    12  H   -0.014619
    13  C   -0.803413
    14  N    0.818031
    15  H   -0.014618
    16  C   -0.803412
    17  N    0.818031
    18  H   -0.014619
 Sum of Mulliken charges =  -0.00000

 Dipole moment (field-independent basis, Debye):
    X=              0.0000    Y=              0.0000    Z=             -0.0000  Tot=              0.0000

 Test job not archived.
 1\1\GINC-SE098\SP\RHF\Aug-CC-pVDZ\C6H6N6\OHZDE\08-Apr-2025\0\\#t hf au
 g-cc-pvdz iop(5/13=1,5/36=2,99/5=2) pseudo=read geom=check guess=(read
 ,tcheck) scf=(maxcycle=1)\\title\\0,1\C,0,-4.173485,7.228688,5.46075\N
 ,0,-3.455748,8.354547,5.46075\H,0,-3.632433,6.291559,5.46075\C,0,-6.12
 353,8.354547,5.46075\N,0,-5.507376,7.170039,5.46075\H,0,-7.205634,8.35
 4547,5.46075\C,0,-4.173485,9.480406,5.46075\N,0,-5.507376,9.539055,5.4
 6075\H,0,-3.632433,10.417535,5.46075\C,0,-4.173485,7.228688,12.74175\N
 ,0,-3.455748,8.354547,12.74175\H,0,-3.632433,6.291559,12.74175\C,0,-6.

 Normal termination of Gaussian 16 at Tue Apr  8 19:04:30 2025.
