 Gaussian 16, Revision C.01,

 ----------------------------------------------------------------------
 #t hf aug-cc-pvdz symm=none int=(grid=ultrafine) guess=(read,tcheck) s
 table=(opt,rrhf)
 ----------------------------------------------------------------------
 -----
 title
 -----
 Symbolic Z-matrix:
 Charge =  0 Multiplicity = 1

 SCF Done:  E(RHF) =  -224.824644740     A.U. after   15 cycles
 Normal termination of Gaussian 16 at Tue Apr  8 19:01:42 2025.
 Gaussian 16:  ES64L-G16RevC.01  3-Jul-2019

 ----------------------------------------------------------------------
 #t hf aug-cc-pvdz iop(5/13=1,5/36=2,99/5=2) pseudo=read geom=check gue
 ss=(read,tcheck) scf=(maxcycle=1)
 ----------------------------------------------------------------------
 -----
 title
 -----
 Structure from the checkpoint file:  "3B-69_12a_pyrazole_dimerAB_mol3.chk"
 Charge =  0 Multiplicity = 1

                         Standard orientation:
 ---------------------------------------------------------------------
 Center     Atomic      Atomic             Coordinates (Angstroms)
 Number     Number       Type             X           Y           Z
 ---------------------------------------------------------------------
      1          6           0        1.079445   -0.445211    0.002329
      2          6           0        0.761797    0.921646    0.001896
      3          6           0       -0.618076    0.961834   -0.004692
      4          1           0       -2.008443   -0.686203    0.073721
      5          1           0       -1.308681    1.785587    0.008208
      6          1           0        1.436519    1.757201    0.009348
      7          1           0        2.052251   -0.904553    0.011640
      8          7           0       -1.048785   -0.316876   -0.010864
      9          7           0       -0.024165   -1.194787   -0.003438
 ---------------------------------------------------------------------

 SCF Done:  E(RHF) =  -225.055340567     A.U. after    2 cycles

 The electronic state is 1-A.
 Alpha  occ. eigenvalues --  -15.58321 -15.52498 -11.28429 -11.25889 -11.22868
 Alpha  occ. eigenvalues --   -1.36922  -1.11261  -1.06228  -0.84935  -0.83507
 Alpha  occ. eigenvalues --   -0.76809  -0.64821  -0.64008  -0.61539  -0.58046
 Alpha  occ. eigenvalues --   -0.50053  -0.39699  -0.36808
 Alpha virt. eigenvalues --    0.03079   0.04316   0.04559   0.05817   0.09780
 Alpha virt. eigenvalues --    0.09979   0.11545   0.11595   0.12496   0.13622
 Alpha virt. eigenvalues --    0.14277   0.15308   0.15558   0.16272   0.17233

 Mulliken charges:
               1
     1  C   -0.270095
     2  C    0.625981
     3  C   -0.284692
     4  H    0.075538
     5  H   -0.193919
     6  H   -0.114329
     7  H   -0.133808
     8  N    0.322053
     9  N   -0.026731
 Sum of Mulliken charges =  -0.00000

 Dipole moment (field-independent basis, Debye):
    X=             -0.9762    Y=              2.4416    Z=              0.1651  Tot=              2.6347

 Test job not archived.
 1\1\GINC-SE284\SP\RHF\Aug-CC-pVDZ\C3H4N2\OHZDE\08-Apr-2025\0\\#t hf au
 g-cc-pvdz iop(5/13=1,5/36=2,99/5=2) pseudo=read geom=check guess=(read
 ,tcheck) scf=(maxcycle=1)\\title\\0,1\C,0,5.922353,2.348921,6.261977\C
 ,0,5.048807,1.377253,6.773813\C,0,5.801878,0.678241,7.695754\H,0,7.837
 666,1.037377,8.313722\H,0,5.55454,-0.141615,8.345623\H,0,4.020061,1.21
 0588,6.514271\H,0,5.722353,3.102313,5.520469\N,0,7.033572,1.229218,7.6
 96363\N,0,7.127429,2.256777,6.826913\\Version=ES64L-G16RevC.01\State=1
 -A\HF=-225.0553406\RMSD=3.393e-02\Dipole=-0.5417097,-0.7194319,0.51325

 Normal termination of Gaussian 16 at Tue Apr  8 19:01:45 2025.
