 Gaussian 16, Revision C.01,

 ----------------------------------------------------------------------
 #t hf aug-cc-pvdz symm=none int=(grid=ultrafine) guess=(read,tcheck) s
 table=(opt,rrhf)
 ----------------------------------------------------------------------
 -----
 title
 -----
 Symbolic Z-matrix:
 Charge =  0 Multiplicity = 1

 SCF Done:  E(RHF) =  -227.845090243     A.U. after   13 cycles
 Normal termination of Gaussian 16 at Tue Apr  8 19:00:40 2025.
 Gaussian 16:  ES64L-G16RevC.01  3-Jul-2019

 ----------------------------------------------------------------------
 #t hf aug-cc-pvdz iop(5/13=1,5/36=2,99/5=2) pseudo=read geom=check gue
 ss=(read,tcheck) scf=(maxcycle=1)
 ----------------------------------------------------------------------
 -----
 title
 -----
 Structure from the checkpoint file:  "3B-69_06a_acetic_acid_dimerAC_mol3.chk"
 Charge =  0 Multiplicity = 1

                         Standard orientation:
 ---------------------------------------------------------------------
 Center     Atomic      Atomic             Coordinates (Angstroms)
 Number     Number       Type             X           Y           Z
 ---------------------------------------------------------------------
      1          8           0        0.800954   -1.009420    0.005321
      2          1           0        1.785555   -0.815196   -0.033941
      3          8           0        0.613481    1.210533    0.001419
      4          6           0        0.085460    0.102439   -0.001309
      5          6           0       -1.391998   -0.132348   -0.003079
      6          1           0       -1.918826    0.813699   -0.070103
      7          1           0       -1.678484   -0.650175    0.912438
      8          1           0       -1.664501   -0.777774   -0.835986
 ---------------------------------------------------------------------

 SCF Done:  E(RHF) =  -228.073992639     A.U. after    2 cycles

 The electronic state is 1-A.
 Alpha  occ. eigenvalues --  -20.60899 -20.53109 -11.39758 -11.25719  -1.55201
 Alpha  occ. eigenvalues --   -1.43772  -1.03636  -0.83712  -0.70478  -0.68746
 Alpha  occ. eigenvalues --   -0.65579  -0.58431  -0.57045  -0.56541  -0.46655
 Alpha  occ. eigenvalues --   -0.44260
 Alpha virt. eigenvalues --    0.03356   0.04442   0.05278   0.06066   0.09890
 Alpha virt. eigenvalues --    0.11703   0.11754   0.14033   0.15315   0.15385
 Alpha virt. eigenvalues --    0.16322   0.16678   0.19616   0.20804   0.23229

 Mulliken charges:
               1
     1  O   -1.189720
     2  H    0.391295
     3  O   -1.172515
     4  C    1.823175
     5  C   -0.475218
     6  H    0.179978
     7  H    0.228587
     8  H    0.214419
 Sum of Mulliken charges =  -0.00000

 Dipole moment (field-independent basis, Debye):
    X=             -0.7506    Y=             -2.0711    Z=             -0.0661  Tot=              2.2039

 Test job not archived.
 1\1\GINC-SE083\SP\RHF\Aug-CC-pVDZ\C2H4O2\OHZDE\08-Apr-2025\0\\#t hf au
 g-cc-pvdz iop(5/13=1,5/36=2,99/5=2) pseudo=read geom=check guess=(read
 ,tcheck) scf=(maxcycle=1)\\title\\0,1\O,0,1.655579,1.539503,2.911827\H
 ,0,2.346664,1.769234,2.220214\O,0,3.330622,0.41321,3.85472\C,0,2.16439
 2,0.79531,3.879036\C,0,1.189508,0.473153,4.967074\H,0,1.683196,-0.0852
 47,5.755431\H,0,0.368623,-0.11514,4.556647\H,0,0.759865,1.390782,5.364
 48\\Version=ES64L-G16RevC.01\State=1-A\HF=-228.0739926\RMSD=1.032e-02\
 Dipole=-0.8013442,0.3282532,-0.04393\Quadrupole=-3.1337174,0.1717705,2

 Normal termination of Gaussian 16 at Tue Apr  8 19:00:42 2025.
