 Gaussian 16, Revision C.01,

 ----------------------------------------------------------------------
 #t hf aug-cc-pvdz symm=none int=(grid=ultrafine) guess=(read,tcheck) s
 table=(opt,rrhf)
 ----------------------------------------------------------------------
 -----
 title
 -----
 Symbolic Z-matrix:
 Charge =  0 Multiplicity = 1

 SCF Done:  E(RHF) =  -76.0402986023     A.U. after   10 cycles
 Normal termination of Gaussian 16 at Tue Apr  8 18:53:33 2025.
 Gaussian 16:  ES64L-G16RevC.01  3-Jul-2019

 ----------------------------------------------------------------------
 #t hf aug-cc-pvdz iop(5/13=1,5/36=2,99/5=2) pseudo=read geom=check gue
 ss=(read,tcheck) scf=(maxcycle=1)
 ----------------------------------------------------------------------
 -----
 title
 -----
 Structure from the checkpoint file:  "3B-69_01c_water_dimerBC_mol3.chk"
 Charge =  0 Multiplicity = 1

                         Standard orientation:
 ---------------------------------------------------------------------
 Center     Atomic      Atomic             Coordinates (Angstroms)
 Number     Number       Type             X           Y           Z
 ---------------------------------------------------------------------
      1          8           0       -0.000000    0.116288    0.000000
      2          1           0        0.775930   -0.453041   -0.000000
      3          1           0       -0.775930   -0.477263   -0.000000
 ---------------------------------------------------------------------

 SCF Done:  E(RHF) =  -76.1188082508     A.U. after    2 cycles

 The electronic state is 1-A'.
 Alpha  occ. eigenvalues --  -20.56046  -1.43408  -0.70967  -0.57393  -0.49835
 Alpha virt. eigenvalues --    0.03666   0.05663   0.17385   0.19666   0.22572
 Alpha virt. eigenvalues --    0.22983   0.28891   0.32656   0.38298   0.40487
 Alpha virt. eigenvalues --    0.43328   0.53439   0.64124   0.65535   0.81697

 Mulliken charges:
               1
     1  O   -0.747936
     2  H    0.369436
     3  H    0.378500
 Sum of Mulliken charges =  -0.00000

 Dipole moment (field-independent basis, Debye):
    X=              0.0066    Y=             -1.9403    Z=             -0.0000  Tot=              1.9403

 Test job not archived.
 1\1\GINC-SE048\SP\RHF\Aug-CC-pVDZ\H2O1\OHZDE\08-Apr-2025\0\\#t hf aug-
 cc-pvdz iop(5/13=1,5/36=2,99/5=2) pseudo=read geom=check guess=(read,t
 check) scf=(maxcycle=1)\\title\\0,1\O,0,1.602083,0.679871,0.031168\H,0
 ,2.064562,1.065746,-0.719443\H,0,0.719298,1.097655,0.05393\\Version=ES
 64L-G16RevC.01\State=1-A'\HF=-76.1188083\RMSD=7.892e-03\Dipole=-0.2736
 756,0.5275306,-0.4791074\Quadrupole=0.8762408,-0.7194364,-0.1568044,-0
 .2865966,-0.8979626,-0.4023634\PG=CS [SG(H2O1)]\\@

 Normal termination of Gaussian 16 at Tue Apr  8 18:53:34 2025.
