 Gaussian 16, Revision C.01,

 ----------------------------------------------------------------------
 #t hf aug-cc-pvdz symm=none int=(grid=ultrafine) guess=(read,tcheck) s
 table=(opt,rrhf)
 ----------------------------------------------------------------------
 -----
 title
 -----
 Symbolic Z-matrix:
 Charge =  0 Multiplicity = 1

 SCF Done:  E(RHF) =  -731.115515815     A.U. after   15 cycles
 Normal termination of Gaussian 16 at Tue Apr  8 19:03:39 2025.
 Gaussian 16:  ES64L-G16RevC.01  3-Jul-2019

 ----------------------------------------------------------------------
 #t hf aug-cc-pvdz iop(5/13=1,5/36=2,99/5=2) pseudo=read geom=check gue
 ss=(read,tcheck) scf=(maxcycle=1)
 ----------------------------------------------------------------------
 -----
 title
 -----
 Structure from the checkpoint file:  "3B-69_05a_nitromethane_trimer_mol1.chk"
 Charge =  0 Multiplicity = 1

                         Standard orientation:
 ---------------------------------------------------------------------
 Center     Atomic      Atomic             Coordinates (Angstroms)
 Number     Number       Type             X           Y           Z
 ---------------------------------------------------------------------
      1          6           0       -2.101345   -1.221284    1.354025
      2          7           0       -2.345154   -1.408190   -0.105438
      3          8           0       -3.374065   -0.946821   -0.590184
      4          8           0       -1.491787   -1.990626   -0.756568
      5          1           0       -1.572794   -2.097606    1.705886
      6          1           0       -1.473233   -0.337924    1.452542
      7          1           0       -3.053051   -1.069209    1.845236
      8          6           0        0.674315    2.890482    0.014250
      9          7           0       -0.603213    2.123488   -0.049378
     10          8           0       -0.597014    1.020862   -0.588524
     11          8           0       -1.593263    2.620221    0.464911
     12          1           0        0.422414    3.940268   -0.060642
     13          1           0        1.115414    2.677533    0.986175
     14          1           0        1.321632    2.547551   -0.781701
     15          6           0        1.629464   -1.492197   -0.065347
     16          7           0        2.914271   -0.737494   -0.001290
     17          8           0        3.860781   -1.243808    0.593910
     18          8           0        2.971281    0.341493   -0.570476
     19          1           0        0.828750   -0.764322   -0.052387
     20          1           0        1.633397   -2.030818   -1.011088
     21          1           0        1.594064   -2.182673    0.766608
 ---------------------------------------------------------------------

 SCF Done:  E(RHF) =  -731.827727519     A.U. after    2 cycles

 The electronic state is 1-A.
 Alpha  occ. eigenvalues --  -20.61188 -20.60788 -20.59597 -20.59586 -20.59206
 Alpha  occ. eigenvalues --  -20.59155 -15.80621 -15.79176 -15.78956 -11.32736
 Alpha  occ. eigenvalues --  -11.32183 -11.31260  -1.68875  -1.67407  -1.66951
 Alpha  occ. eigenvalues --   -1.52269  -1.50815  -1.50361  -1.14317  -1.13094
 Alpha  occ. eigenvalues --   -1.12892  -0.90929  -0.89650  -0.89178  -0.79203
 Alpha  occ. eigenvalues --   -0.78120  -0.77898  -0.77424  -0.77282  -0.76024
 Alpha  occ. eigenvalues --   -0.75900  -0.75562  -0.75362  -0.64325  -0.63712
 Alpha  occ. eigenvalues --   -0.62795  -0.62095  -0.61019  -0.60474  -0.51654
 Alpha  occ. eigenvalues --   -0.50483  -0.50060  -0.49810  -0.48867  -0.48414
 Alpha  occ. eigenvalues --   -0.46967  -0.45544  -0.44899
 Alpha virt. eigenvalues --    0.02405   0.03373   0.03498   0.04452   0.04636
 Alpha virt. eigenvalues --    0.05049   0.06063   0.06301   0.06745   0.07119
 Alpha virt. eigenvalues --    0.07474   0.09075   0.09993   0.11350   0.12271

 Mulliken charges:
               1
     1  C   -0.267224
     2  N    2.597871
     3  O   -1.375204
     4  O   -1.398782
     5  H    0.146454
     6  H    0.258655
     7  H    0.089121
     8  C   -0.211503
     9  N    2.181024
    10  O   -1.210802
    11  O   -1.321352
    12  H    0.123907
    13  H    0.225856
    14  H    0.175664
    15  C   -0.221952
    16  N    2.370996
    17  O   -1.313491
    18  O   -1.292128
    19  H    0.042157
    20  H    0.220890
    21  H    0.179842
 Sum of Mulliken charges =  -0.00000

 Dipole moment (field-independent basis, Debye):
    X=              0.2152    Y=              1.0109    Z=              3.4716  Tot=              3.6222

 Test job not archived.
 1\1\GINC-SE114\SP\RHF\Aug-CC-pVDZ\C3H9N3O6\OHZDE\08-Apr-2025\0\\#t hf
 aug-cc-pvdz iop(5/13=1,5/36=2,99/5=2) pseudo=read geom=check guess=(re
 ad,tcheck) scf=(maxcycle=1)\\title\\0,1\C,0,5.876316,12.85165,11.67900
 5\N,0,7.053622,11.936059,11.686151\O,0,7.845061,12.008533,12.621496\O,
 0,7.159396,11.135353,10.770117\H,0,5.662227,13.091026,10.645575\H,0,5.
 048894,12.295747,12.115925\H,0,6.111871,13.719841,12.279769\C,0,3.2838
 16,8.97785,13.841995\N,0,4.461122,9.893441,13.834849\O,0,5.252561,9.82
 0967,12.899504\O,0,4.566896,10.694147,14.750883\H,0,3.069727,8.738474,

 Normal termination of Gaussian 16 at Tue Apr  8 19:03:53 2025.
