 Gaussian 16, Revision C.01,

 ----------------------------------------------------------------------
 #t hf aug-cc-pvdz symm=none int=(grid=ultrafine) guess=(read,tcheck) s
 table=(opt,rrhf)
 ----------------------------------------------------------------------
 -----
 title
 -----
 Symbolic Z-matrix:
 Charge =  0 Multiplicity = 1

 SCF Done:  E(RHF) =  -224.845449854     A.U. after   14 cycles
 Normal termination of Gaussian 16 at Tue Apr  8 19:01:42 2025.
 Gaussian 16:  ES64L-G16RevC.01  3-Jul-2019

 ----------------------------------------------------------------------
 #t hf aug-cc-pvdz iop(5/13=1,5/36=2,99/5=2) pseudo=read geom=check gue
 ss=(read,tcheck) scf=(maxcycle=1)
 ----------------------------------------------------------------------
 -----
 title
 -----
 Structure from the checkpoint file:  "3B-69_10a_imidazole_dimerAB_mol2.chk"
 Charge =  0 Multiplicity = 1

                         Standard orientation:
 ---------------------------------------------------------------------
 Center     Atomic      Atomic             Coordinates (Angstroms)
 Number     Number       Type             X           Y           Z
 ---------------------------------------------------------------------
      1          7           0        0.830379    0.723395   -0.008851
      2          6           0        0.936625   -0.622193   -0.002253
      3          7           0       -0.253411   -1.202944    0.002009
      4          6           0       -1.165715   -0.170930    0.000175
      5          6           0       -0.507989    1.027212   -0.004278
      6          1           0        1.613082    1.408335    0.056207
      7          1           0        1.875367   -1.147974    0.005568
      8          1           0       -2.225575   -0.343001    0.017771
      9          1           0       -0.879176    2.034941    0.006484
 ---------------------------------------------------------------------

 SCF Done:  E(RHF) =  -225.075530223     A.U. after    2 cycles

 The electronic state is 1-A.
 Alpha  occ. eigenvalues --  -15.56753 -15.48408 -11.30097 -11.26552 -11.24874
 Alpha  occ. eigenvalues --   -1.34120  -1.16977  -1.02031  -0.85328  -0.83144
 Alpha  occ. eigenvalues --   -0.78400  -0.63871  -0.63080  -0.62639  -0.59648
 Alpha  occ. eigenvalues --   -0.47809  -0.43957  -0.33656
 Alpha virt. eigenvalues --    0.02585   0.04380   0.04678   0.05595   0.09380
 Alpha virt. eigenvalues --    0.09501   0.11088   0.11798   0.12691   0.13164
 Alpha virt. eigenvalues --    0.13439   0.15397   0.16063   0.16220   0.17233

 Mulliken charges:
               1
     1  N    0.577403
     2  C   -0.531419
     3  N    0.539583
     4  C   -0.267565
     5  C   -0.075825
     6  H    0.045843
     7  H   -0.027510
     8  H   -0.095969
     9  H   -0.164541
 Sum of Mulliken charges =  -0.00000

 Dipole moment (field-independent basis, Debye):
    X=              2.1046    Y=              3.4244    Z=              0.1316  Tot=              4.0216

 Test job not archived.
 1\1\GINC-SE009\SP\RHF\Aug-CC-pVDZ\C3H4N2\OHZDE\08-Apr-2025\0\\#t hf au
 g-cc-pvdz iop(5/13=1,5/36=2,99/5=2) pseudo=read geom=check guess=(read
 ,tcheck) scf=(maxcycle=1)\\title\\0,1\N,0,1.225156,1.790098,0.793667\C
 ,0,0.314568,1.191681,1.590327\N,0,0.098973,1.892803,2.692789\C,0,0.918
 281,2.99557,2.592821\C,0,1.622758,2.943251,1.422717\H,0,1.619151,1.410
 346,-0.093212\H,0,-0.165462,0.258212,1.353791\H,0,0.967252,3.744556,3.
 360834\H,0,2.357781,3.610084,1.012244\\Version=ES64L-G16RevC.01\State=
 1-A\HF=-225.0755302\RMSD=3.476e-02\Dipole=0.820936,-0.1560027,-1.34355

 Normal termination of Gaussian 16 at Tue Apr  8 19:01:44 2025.
