 Gaussian 16, Revision C.01,

 ----------------------------------------------------------------------
 #t hf aug-cc-pvdz symm=none int=(grid=ultrafine) guess=(read,tcheck) s
 table=(opt,rrhf)
 ----------------------------------------------------------------------
 -----
 title
 -----
 Symbolic Z-matrix:
 Charge =  0 Multiplicity = 1

 SCF Done:  E(RHF) =  -591.800114347     A.U. after   15 cycles
 Normal termination of Gaussian 16 at Tue Apr  8 19:08:11 2025.
 Gaussian 16:  ES64L-G16RevC.01  3-Jul-2019

 ----------------------------------------------------------------------
 #t hf aug-cc-pvdz iop(5/13=1,5/36=2,99/5=2) pseudo=read geom=check gue
 ss=(read,tcheck) scf=(maxcycle=1)
 ----------------------------------------------------------------------
 -----
 title
 -----
 Structure from the checkpoint file:  "3B-69_15b_cyanoguanidine_dimerBC_mol1.chk"
 Charge =  0 Multiplicity = 1

                         Standard orientation:
 ---------------------------------------------------------------------
 Center     Atomic      Atomic             Coordinates (Angstroms)
 Number     Number       Type             X           Y           Z
 ---------------------------------------------------------------------
      1          7           0        1.217971    2.734355    0.282908
      2          6           0        1.874783    1.805433    0.014364
      3          7           0        2.654341    0.838570   -0.347498
      4          6           0        2.463485   -0.407041    0.116775
      5          7           0        1.509129   -0.733697    0.995339
      6          7           0        3.295999   -1.355048   -0.310627
      7          1           0        1.356915   -1.711372    1.213343
      8          1           0        0.839021   -0.058839    1.343845
      9          1           0        3.172984   -2.303018    0.027757
     10          1           0        3.997434   -1.123846   -1.013867
     11          7           0       -3.151940    2.116967   -0.021581
     12          6           0       -2.495128    1.188045   -0.290126
     13          7           0       -1.715570    0.221182   -0.651988
     14          6           0       -1.906427   -1.024430   -0.187715
     15          7           0       -2.860782   -1.351085    0.690850
     16          7           0       -1.073912   -1.972436   -0.615116
     17          1           0       -3.012996   -2.328760    0.908853
     18          1           0       -3.530890   -0.676227    1.039355
     19          1           0       -1.196927   -2.920406   -0.276732
     20          1           0       -0.372477   -1.741234   -1.318356
 ---------------------------------------------------------------------

 SCF Done:  E(RHF) =  -592.391768855     A.U. after    2 cycles

 The electronic state is 1-A.
 Alpha  occ. eigenvalues --  -15.58004 -15.57689 -15.57322 -15.56946 -15.49869
 Alpha  occ. eigenvalues --  -15.49286 -15.46072 -15.45484 -11.42131 -11.41520
 Alpha  occ. eigenvalues --  -11.27279 -11.26685  -1.36513  -1.35832  -1.24360
 Alpha  occ. eigenvalues --   -1.23648  -1.23146  -1.22551  -1.16259  -1.15689
 Alpha  occ. eigenvalues --   -0.94689  -0.94029  -0.87186  -0.86530  -0.82807
 Alpha  occ. eigenvalues --   -0.82142  -0.75219  -0.74544  -0.74504  -0.73864
 Alpha  occ. eigenvalues --   -0.67790  -0.66889  -0.57908  -0.57388  -0.55664
 Alpha  occ. eigenvalues --   -0.55060  -0.54379  -0.53569  -0.52474  -0.50968
 Alpha  occ. eigenvalues --   -0.42622  -0.42114  -0.39384  -0.38787
 Alpha virt. eigenvalues --   -0.00796   0.00910   0.02300   0.02653   0.03881
 Alpha virt. eigenvalues --    0.05152   0.06789   0.07117   0.08342   0.09233
 Alpha virt. eigenvalues --    0.09393   0.10576   0.10840   0.11656   0.11941

 Mulliken charges:
               1
     1  N    0.946388
     2  C   -1.538251
     3  N    0.740566
     4  C   -1.983703
     5  N    0.565108
     6  N    0.668260
     7  H    0.050776
     8  H    0.261547
     9  H    0.151803
    10  H    0.161473
    11  N    1.024051
    12  C   -1.703430
    13  N    0.833589
    14  C   -1.974626
    15  N    0.522421
    16  N    0.670960
    17  H    0.057210
    18  H    0.220184
    19  H    0.133306
    20  H    0.192370
 Sum of Mulliken charges =   0.00000

 Dipole moment (field-independent basis, Debye):
    X=              2.6461    Y=            -17.9841    Z=              1.5747  Tot=             18.2459

 Test job not archived.
 1\1\GINC-SE049\SP\RHF\Aug-CC-pVDZ\C4H8N8\OHZDE\08-Apr-2025\0\\#t hf au
 g-cc-pvdz iop(5/13=1,5/36=2,99/5=2) pseudo=read geom=check guess=(read
 ,tcheck) scf=(maxcycle=1)\\title\\0,1\N,0,-1.410087,2.259235,13.297945
 \C,0,-0.597061,1.758549,12.623618\N,0,0.330459,1.14833,11.959677\C,0,0
 .591976,1.478744,10.684546\N,0,-0.089552,2.406591,10.003375\N,0,1.5708
 67,0.818093,10.068282\H,0,0.237017,2.67839,9.083581\H,0,-0.833555,2.95
 0365,10.423737\H,0,1.785298,1.048618,9.104352\H,0,2.124356,0.14134,10.
 593322\N,0,-1.410087,6.683035,13.297945\C,0,-0.597061,6.182349,12.6236

 Normal termination of Gaussian 16 at Tue Apr  8 19:08:24 2025.
