 Gaussian 16, Revision C.01,

 ----------------------------------------------------------------------
 #t hf aug-cc-pvdz symm=none int=(grid=ultrafine) guess=(read,tcheck) s
 table=(opt,rrhf)
 ----------------------------------------------------------------------
 -----
 title
 -----
 Symbolic Z-matrix:
 Charge =  0 Multiplicity = 1

 SCF Done:  E(RHF) =  -692.182972364     A.U. after   14 cycles
 Normal termination of Gaussian 16 at Tue Apr  8 19:30:51 2025.
 Gaussian 16:  ES64L-G16RevC.01  3-Jul-2019

 ----------------------------------------------------------------------
 #t hf aug-cc-pvdz iop(5/13=1,5/36=2,99/5=2) pseudo=read geom=check gue
 ss=(read,tcheck) scf=(maxcycle=1)
 ----------------------------------------------------------------------
 -----
 title
 -----
 Structure from the checkpoint file:  "3B-69_19a_benzene_trimer_mol1.chk"
 Charge =  0 Multiplicity = 1

                         Standard orientation:
 ---------------------------------------------------------------------
 Center     Atomic      Atomic             Coordinates (Angstroms)
 Number     Number       Type             X           Y           Z
 ---------------------------------------------------------------------
      1          6           0        2.949186    1.902263    0.853920
      2          6           0        2.184125    1.006363    0.112056
      3          6           0        2.771496    3.273500    0.690783
      4          1           0        3.675878    1.529379    1.563743
      5          1           0        2.311117   -0.061221    0.234070
      6          1           0        3.354642    3.962769    1.283823
      7          6           0        1.064884    2.858457   -0.957418
      8          6           0        1.829945    3.754357   -0.215554
      9          6           0        1.242573    1.487221   -0.794281
     10          1           0        0.338192    3.231342   -1.667241
     11          1           0        1.702952    4.821942   -0.337568
     12          1           0        0.659427    0.797951   -1.387321
     13          6           0       -4.868519   -0.092662   -0.153927
     14          6           0       -4.446556    0.144653    1.151426
     15          6           0       -3.953252   -0.048103   -1.202153
     16          1           0       -5.908098   -0.320370   -0.349879
     17          1           0       -5.148646    0.108328    1.973923
     18          1           0       -4.283824   -0.252553   -2.210007
     19          6           0       -2.191468    0.472842    0.355438
     20          6           0       -2.613430    0.235527   -0.949915
     21          6           0       -3.106735    0.428283    1.403664
     22          1           0       -1.151889    0.700550    0.551391
     23          1           0       -1.911341    0.271853   -1.772412
     24          1           0       -2.776162    0.632733    2.411518
     25          6           0        0.570446   -2.064316   -0.928216
     26          6           0        1.814343   -2.464057   -1.409093
     27          6           0        0.280357   -2.169831    0.429426
     28          1           0       -0.166614   -1.663380   -1.611566
     29          1           0        2.051730   -2.382415   -2.461576
     30          1           0       -0.679589   -1.839552    0.798571
     31          6           0        2.475472   -3.076585    0.830202
     32          6           0        1.231574   -2.676844    1.311080
     33          6           0        2.765561   -2.971070   -0.527440
     34          1           0        3.212531   -3.477521    1.513552
     35          1           0        0.994185   -2.758479    2.363569
     36          1           0        3.725507   -3.301349   -0.896584
 ---------------------------------------------------------------------

 SCF Done:  E(RHF) =  -692.904392886     A.U. after    2 cycles

 The electronic state is 1-A.
 Alpha  occ. eigenvalues --  -11.24487 -11.24458 -11.24363 -11.24356 -11.24345
 Alpha  occ. eigenvalues --  -11.24333 -11.24291 -11.24275 -11.24219 -11.24137
 Alpha  occ. eigenvalues --  -11.24084 -11.24005 -11.23827 -11.23780 -11.23708
 Alpha  occ. eigenvalues --  -11.23628 -11.23570 -11.23368  -1.15680  -1.15411
 Alpha  occ. eigenvalues --   -1.14826  -1.02003  -1.01829  -1.01698  -1.01550
 Alpha  occ. eigenvalues --   -1.01131  -1.01087  -0.83474  -0.83436  -0.83232
 Alpha  occ. eigenvalues --   -0.83170  -0.82705  -0.82664  -0.72738  -0.72260
 Alpha  occ. eigenvalues --   -0.71798  -0.65348  -0.64924  -0.64514  -0.63870
 Alpha  occ. eigenvalues --   -0.63741  -0.63192  -0.60655  -0.60277  -0.60031
 Alpha  occ. eigenvalues --   -0.59775  -0.59576  -0.59403  -0.51617  -0.51319
 Alpha  occ. eigenvalues --   -0.51014  -0.50831  -0.50618  -0.50517  -0.50162
 Alpha  occ. eigenvalues --   -0.49998  -0.49592  -0.35078  -0.34913  -0.34698
 Alpha  occ. eigenvalues --   -0.34556  -0.34066  -0.33728
 Alpha virt. eigenvalues --    0.02628   0.03104   0.03215   0.03497   0.04168
 Alpha virt. eigenvalues --    0.04246   0.04636   0.05227   0.05629   0.05956
 Alpha virt. eigenvalues --    0.06676   0.06934   0.07480   0.07968   0.08752

 Mulliken charges:
               1
     1  C   -0.089953
     2  C    0.364524
     3  C    0.438253
     4  H   -0.252856
     5  H   -0.200715
     6  H   -0.238195
     7  C    0.194562
     8  C    0.180873
     9  C    0.562918
    10  H   -0.303142
    11  H   -0.240481
    12  H   -0.266243
    13  C    0.363959
    14  C    0.299004
    15  C    0.134554
    16  H   -0.228882
    17  H   -0.234302
    18  H   -0.281170
    19  C    0.743313
    20  C    0.338659
    21  C   -0.122785
    22  H   -0.380787
    23  H   -0.345752
    24  H   -0.287863
    25  C    0.389004
    26  C    0.290169
    27  C    0.128071
    28  H   -0.264638
    29  H   -0.314679
    30  H   -0.294724
    31  C    0.324658
    32  C    0.118967
    33  C    0.248924
    34  H   -0.230571
    35  H   -0.286185
    36  H   -0.256489
 Sum of Mulliken charges =  -0.00000

 Dipole moment (field-independent basis, Debye):
    X=             -0.0721    Y=             -0.2553    Z=              0.1841  Tot=              0.3229

 Test job not archived.
 1\1\GINC-SE086\SP\RHF\Aug-CC-pVDZ\C18H18\OHZDE\08-Apr-2025\0\\#t hf au
 g-cc-pvdz iop(5/13=1,5/36=2,99/5=2) pseudo=read geom=check guess=(read
 ,tcheck) scf=(maxcycle=1)\\title\\0,1\C,0,14.171733,20.025411,6.67944\
 C,0,13.70564,19.092508,7.60181\C,0,15.173718,19.675303,5.77837\H,0,13.
 746682,21.020351,6.65947\H,0,12.924382,19.352746,8.30371\H,0,15.516834
 ,20.39801,5.05255\C,0,15.248667,17.459389,6.71936\C,0,15.71476,18.3922
 92,5.79699\C,0,14.246682,17.809497,7.62043\H,0,15.673718,16.464449,6.7
 3933\H,0,16.496018,18.132054,5.09509\H,0,13.903566,17.08679,8.34625\C,

 Normal termination of Gaussian 16 at Tue Apr  8 19:31:52 2025.
