 Gaussian 16, Revision C.01,

 ----------------------------------------------------------------------
 #t hf aug-cc-pvdz symm=none int=(grid=ultrafine) guess=(read,tcheck) s
 table=(opt,rrhf)
 ----------------------------------------------------------------------
 -----
 title
 -----
 Symbolic Z-matrix:
 Charge =  0 Multiplicity = 1

 SCF Done:  E(RHF) =  -449.691868094     A.U. after   13 cycles
 Normal termination of Gaussian 16 at Tue Apr  8 19:02:30 2025.
 Gaussian 16:  ES64L-G16RevC.01  3-Jul-2019

 ----------------------------------------------------------------------
 #t hf aug-cc-pvdz iop(5/13=1,5/36=2,99/5=2) pseudo=read geom=check gue
 ss=(read,tcheck) scf=(maxcycle=1)
 ----------------------------------------------------------------------
 -----
 title
 -----
 Structure from the checkpoint file:  "3B-69_10c_imidazole_dimerAB_mol1.chk"
 Charge =  0 Multiplicity = 1

                         Standard orientation:
 ---------------------------------------------------------------------
 Center     Atomic      Atomic             Coordinates (Angstroms)
 Number     Number       Type             X           Y           Z
 ---------------------------------------------------------------------
      1          7           0        5.919562   -0.390777    0.033725
      2          6           0        4.781322   -1.114426   -0.018064
      3          7           0        3.712245   -0.334567   -0.066742
      4          6           0        4.196684    0.954651   -0.042448
      5          6           0        5.561821    0.934151    0.021972
      6          1           0        6.886681   -0.761996    0.147197
      7          1           0        4.755726   -2.190094   -0.012926
      8          1           0        3.548476    1.810720   -0.056433
      9          1           0        6.277149    1.733790    0.069895
     10          7           0       -3.865418   -0.399737    0.051204
     11          6           0       -5.003658   -1.123386   -0.000585
     12          7           0       -6.072735   -0.343526   -0.049263
     13          6           0       -5.588297    0.945692   -0.024968
     14          6           0       -4.223159    0.925192    0.039451
     15          1           0       -2.898300   -0.770955    0.164676
     16          1           0       -5.029255   -2.199053    0.004553
     17          1           0       -6.236503    1.801761   -0.038954
     18          1           0       -3.507831    1.724831    0.087374
 ---------------------------------------------------------------------

 SCF Done:  E(RHF) =  -450.151986974     A.U. after    2 cycles

 The electronic state is 1-A.
 Alpha  occ. eigenvalues --  -15.57217 -15.56220 -15.48939 -15.47946 -11.30595
 Alpha  occ. eigenvalues --  -11.29617 -11.27023 -11.26068 -11.25359 -11.24403
 Alpha  occ. eigenvalues --   -1.34600  -1.33618  -1.17474  -1.16483  -1.02509
 Alpha  occ. eigenvalues --   -1.01545  -0.85807  -0.84809  -0.83628  -0.82654
 Alpha  occ. eigenvalues --   -0.78876  -0.77913  -0.64358  -0.63555  -0.63377
 Alpha  occ. eigenvalues --   -0.63100  -0.62575  -0.62140  -0.60150  -0.59193
 Alpha  occ. eigenvalues --   -0.48355  -0.47355  -0.44469  -0.43475  -0.34130
 Alpha  occ. eigenvalues --   -0.33179
 Alpha virt. eigenvalues --    0.02176   0.03264   0.04000   0.04188   0.04410
 Alpha virt. eigenvalues --    0.05236   0.05789   0.06933   0.09095   0.09378
 Alpha virt. eigenvalues --    0.09717   0.09927   0.10672   0.11263   0.11398

 Mulliken charges:
               1
     1  N    0.577859
     2  C   -0.549236
     3  N    0.568270
     4  C   -0.264660
     5  C   -0.068150
     6  H    0.044576
     7  H   -0.033301
     8  H   -0.110823
     9  H   -0.164822
    10  N    0.602612
    11  C   -0.543247
    12  N    0.537113
    13  C   -0.271653
    14  C   -0.074008
    15  H    0.056834
    16  H   -0.032604
    17  H   -0.102082
    18  H   -0.172679
 Sum of Mulliken charges =  -0.00000

 Dipole moment (field-independent basis, Debye):
    X=              8.1390    Y=             -0.5141    Z=              0.6644  Tot=              8.1822

 Test job not archived.
 1\1\GINC-SE098\SP\RHF\Aug-CC-pVDZ\C6H8N4\OHZDE\08-Apr-2025\0\\#t hf au
 g-cc-pvdz iop(5/13=1,5/36=2,99/5=2) pseudo=read geom=check guess=(read
 ,tcheck) scf=(maxcycle=1)\\title\\0,1\N,0,1.225156,1.790098,0.793667\C
 ,0,0.314568,1.191681,1.590327\N,0,0.098973,1.892803,2.692789\C,0,0.918
 281,2.99557,2.592821\C,0,1.622758,2.943251,1.422717\H,0,1.619151,1.410
 346,-0.093212\H,0,-0.165462,0.258212,1.353791\H,0,0.967252,3.744556,3.
 360834\H,0,2.357781,3.610084,1.012244\N,0,-3.530651,1.790098,9.345189\
 C,0,-4.441239,1.191681,10.141848\N,0,-4.656834,1.892803,11.244311\C,0,

 Normal termination of Gaussian 16 at Tue Apr  8 19:02:36 2025.
