 Gaussian 16, Revision C.01,

 ----------------------------------------------------------------------
 #t hf aug-cc-pvdz symm=none int=(grid=ultrafine) guess=(read,tcheck) s
 table=(opt,rrhf)
 ----------------------------------------------------------------------
 -----
 title
 -----
 Symbolic Z-matrix:
 Charge =  0 Multiplicity = 1

 SCF Done:  E(RHF) =  -899.233419917     A.U. after   15 cycles
 Normal termination of Gaussian 16 at Tue Apr  8 19:31:48 2025.
 Gaussian 16:  ES64L-G16RevC.01  3-Jul-2019

 ----------------------------------------------------------------------
 #t hf aug-cc-pvdz iop(5/13=1,5/36=2,99/5=2) pseudo=read geom=check gue
 ss=(read,tcheck) scf=(maxcycle=1)
 ----------------------------------------------------------------------
 -----
 title
 -----
 Structure from the checkpoint file:  "3B-69_14a_cyanoacetamide_trimer_mol1.chk"
 Charge =  0 Multiplicity = 1

                         Standard orientation:
 ---------------------------------------------------------------------
 Center     Atomic      Atomic             Coordinates (Angstroms)
 Number     Number       Type             X           Y           Z
 ---------------------------------------------------------------------
      1          6           0        1.529493   -1.110799   -1.281176
      2          6           0        3.504647   -1.909264   -0.019618
      3          6           0        2.119907   -2.180818   -0.352300
      4          1           0        2.059017   -3.176534   -0.792655
      5          1           0        1.545657   -2.225855    0.575961
      6          1           0       -0.166095   -0.670330   -2.308707
      7          1           0       -0.205385   -2.198273   -1.424137
      8          7           0        0.272875   -1.339684   -1.672963
      9          7           0        4.602638   -1.697036    0.246921
     10          8           0        2.177998   -0.108956   -1.593211
     11          6           0        1.262039    1.983278    0.878751
     12          6           0       -0.535230    2.921650   -0.542373
     13          6           0       -0.177738    1.847967    0.363898
     14          1           0       -0.336891    0.897490   -0.146334
     15          1           0       -0.876109    1.860074    1.203893
     16          1           0        2.627666    1.014353    2.028140
     17          1           0        1.082593    0.179677    1.841903
     18          7           0        1.670285    0.987884    1.670899
     19          7           0       -0.822626    3.771715   -1.261024
     20          8           0        1.950883    2.966549    0.595402
     21          6           0       -1.617708   -1.386485    1.366779
     22          6           0       -2.882479   -1.769942    0.772709
     23          6           0       -3.495289   -0.638101   -0.061663
     24          1           0       -3.554138   -2.106646    1.561424
     25          1           0       -2.705965   -2.626744    0.117180
     26          1           0       -5.201290   -0.155651   -1.046123
     27          1           0       -5.261160   -1.678151   -0.161566
     28          7           0       -0.611248   -1.084432    1.832677
     29          7           0       -4.780613   -0.814076   -0.386823
     30          8           0       -2.825498    0.338792   -0.403046
 ---------------------------------------------------------------------

 SCF Done:  E(RHF) =  -900.121023463     A.U. after    2 cycles

 The electronic state is 1-A.
 Alpha  occ. eigenvalues --  -20.57060 -20.53181 -20.49005 -15.59616 -15.57256
 Alpha  occ. eigenvalues --  -15.56667 -15.51570 -15.51498 -15.48182 -11.43453
 Alpha  occ. eigenvalues --  -11.39467 -11.36293 -11.35232 -11.34762 -11.31669
 Alpha  occ. eigenvalues --  -11.28464 -11.27423 -11.25388  -1.51192  -1.47103
 Alpha  occ. eigenvalues --   -1.42978  -1.30043  -1.29521  -1.26635  -1.23655
 Alpha  occ. eigenvalues --   -1.21916  -1.20446  -1.13239  -1.08486  -1.04433
 Alpha  occ. eigenvalues --   -0.91741  -0.88372  -0.84031  -0.83620  -0.80615
 Alpha  occ. eigenvalues --   -0.77144  -0.76629  -0.75156  -0.72575  -0.72536
 Alpha  occ. eigenvalues --   -0.70663  -0.69106  -0.68690  -0.66870  -0.66310
 Alpha  occ. eigenvalues --   -0.66131  -0.64469  -0.63274  -0.62334  -0.60245
 Alpha  occ. eigenvalues --   -0.59460  -0.58272  -0.57230  -0.56216  -0.55827
 Alpha  occ. eigenvalues --   -0.55106  -0.50224  -0.49794  -0.49453  -0.48948
 Alpha  occ. eigenvalues --   -0.46982  -0.46525  -0.45712  -0.44802  -0.41462
 Alpha  occ. eigenvalues --   -0.40744
 Alpha virt. eigenvalues --   -0.01276   0.00447   0.01545   0.02977   0.03544
 Alpha virt. eigenvalues --    0.03772   0.04953   0.05393   0.06321   0.06610
 Alpha virt. eigenvalues --    0.06821   0.07982   0.08535   0.08769   0.09000

 Mulliken charges:
               1
     1  C    0.069770
     2  C   -1.815213
     3  C    0.174897
     4  H    0.216663
     5  H    0.337900
     6  H    0.074350
     7  H    0.058909
     8  N    1.313060
     9  N    1.061760
    10  O   -1.360978
    11  C    0.510105
    12  C   -1.911729
    13  C   -0.099865
    14  H    0.307385
    15  H    0.353711
    16  H    0.142564
    17  H   -0.115949
    18  N    1.023104
    19  N    1.069604
    20  O   -1.386945
    21  C   -1.764894
    22  C   -0.428951
    23  C    0.414585
    24  H    0.277474
    25  H    0.326583
    26  H    0.156471
    27  H    0.062946
    28  N    1.420672
    29  N    0.874840
    30  O   -1.362831
 Sum of Mulliken charges =  -0.00000

 Dipole moment (field-independent basis, Debye):
    X=            -14.8739    Y=            -14.9441    Z=              1.8266  Tot=             21.1635

 Test job not archived.
 1\1\GINC-SE159\SP\RHF\Aug-CC-pVDZ\C9H12N6O3\OHZDE\08-Apr-2025\0\\#t hf
  aug-cc-pvdz iop(5/13=1,5/36=2,99/5=2) pseudo=read geom=check guess=(r
 ead,tcheck) scf=(maxcycle=1)\\title\\0,1\C,0,1.548277,23.663489,4.2086
 42\C,0,1.421215,21.191417,4.153643\C,0,2.061208,22.333103,4.77725\H,0,
 1.908971,22.268712,5.855094\H,0,3.139142,22.251767,4.619444\H,0,1.7370
 34,25.669506,4.463824\H,0,2.673896,24.682765,5.589546\N,0,2.057057,24.
 754476,4.788179\N,0,0.916336,20.283572,3.661117\O,0,0.755881,23.689923
 ,3.263642\C,0,2.914349,23.782511,0.683048\C,0,2.787287,26.254583,0.628

 Normal termination of Gaussian 16 at Tue Apr  8 19:32:40 2025.
