 Gaussian 16, Revision C.01,

 ----------------------------------------------------------------------
 #t hf aug-cc-pvdz symm=none int=(grid=ultrafine) guess=(read,tcheck) s
 table=(opt,rrhf)
 ----------------------------------------------------------------------
 -----
 title
 -----
 Symbolic Z-matrix:
 Charge =  0 Multiplicity = 1

 SCF Done:  E(RHF) =  -76.0377272418     A.U. after   10 cycles
 Normal termination of Gaussian 16 at Tue Apr  8 18:52:31 2025.
 Gaussian 16:  ES64L-G16RevC.01  3-Jul-2019

 ----------------------------------------------------------------------
 #t hf aug-cc-pvdz iop(5/13=1,5/36=2,99/5=2) pseudo=read geom=check gue
 ss=(read,tcheck) scf=(maxcycle=1)
 ----------------------------------------------------------------------
 -----
 title
 -----
 Structure from the checkpoint file:  "3B-69_01a_water_dimerAC_mol2.chk"
 Charge =  0 Multiplicity = 1

                         Standard orientation:
 ---------------------------------------------------------------------
 Center     Atomic      Atomic             Coordinates (Angstroms)
 Number     Number       Type             X           Y           Z
 ---------------------------------------------------------------------
      1          8           0        0.000000    0.115338    0.000000
      2          1           0        0.800724   -0.461248   -0.000000
      3          1           0       -0.800724   -0.461457    0.000000
 ---------------------------------------------------------------------

 SCF Done:  E(RHF) =  -76.1159479640     A.U. after    2 cycles

 The electronic state is 1-A'.
 Alpha  occ. eigenvalues --  -20.56214  -1.42423  -0.70446  -0.56630  -0.49617
 Alpha virt. eigenvalues --    0.03652   0.05633   0.17461   0.19727   0.22344
 Alpha virt. eigenvalues --    0.22955   0.28550   0.32131   0.38040   0.40663
 Alpha virt. eigenvalues --    0.43402   0.52952   0.63741   0.65359   0.81519

 Mulliken charges:
               1
     1  O   -0.780976
     2  H    0.390450
     3  H    0.390526
 Sum of Mulliken charges =   0.00000

 Dipole moment (field-independent basis, Debye):
    X=              0.0001    Y=             -1.9147    Z=              0.0000  Tot=              1.9147

 Test job not archived.
 1\1\GINC-SE041\SP\RHF\Aug-CC-pVDZ\H2O1\OHZDE\08-Apr-2025\0\\#t hf aug-
 cc-pvdz iop(5/13=1,5/36=2,99/5=2) pseudo=read geom=check guess=(read,t
 check) scf=(maxcycle=1)\\title\\0,1\O,0,-0.084889,0.056804,0.055205\H,
 0,0.710375,0.517729,0.413971\H,0,-0.890958,0.498588,0.414274\\Version=
 ES64L-G16RevC.01\State=1-A'\HF=-76.115948\RMSD=7.800e-03\Dipole=-0.007
 0365,0.5895767,0.4688317\Quadrupole=1.497589,-0.6406745,-0.8569145,0.0
 256108,-0.006058,0.466854\PG=CS [SG(H2O1)]\\@

 Normal termination of Gaussian 16 at Tue Apr  8 18:52:32 2025.
