 Gaussian 16, Revision C.01,

 ----------------------------------------------------------------------
 #t hf aug-cc-pvdz symm=none int=(grid=ultrafine) guess=(read,tcheck) s
 table=(opt,rrhf)
 ----------------------------------------------------------------------
 -----
 title
 -----
 Symbolic Z-matrix:
 Charge =  0 Multiplicity = 1

 SCF Done:  E(RHF) =  -1137.85486370     A.U. after   16 cycles
 Normal termination of Gaussian 16 at Tue Apr  8 19:53:05 2025.
 Gaussian 16:  ES64L-G16RevC.01  3-Jul-2019

 ----------------------------------------------------------------------
 #t hf aug-cc-pvdz iop(5/13=1,5/36=2,99/5=2) pseudo=read geom=check gue
 ss=(read,tcheck) scf=(maxcycle=1)
 ----------------------------------------------------------------------
 -----
 title
 -----
 Structure from the checkpoint file:  "3B-69_21a_p-benzoquinone_trimer_mol1.chk"
 Charge =  0 Multiplicity = 1

                         Standard orientation:
 ---------------------------------------------------------------------
 Center     Atomic      Atomic             Coordinates (Angstroms)
 Number     Number       Type             X           Y           Z
 ---------------------------------------------------------------------
      1          8           0       -2.143774    1.062257    1.928017
      2          6           0       -1.174454    1.575626    1.380828
      3          6           0        0.204126    1.281144    1.834711
      4          1           0        0.311504    0.593575    2.664421
      5          6           0       -1.350036    2.500935    0.236134
      6          1           0       -2.371976    2.699569   -0.066109
      7          8           0        2.053329    3.274006   -0.462844
      8          6           0        1.084009    2.760636    0.084345
      9          6           0        1.259591    1.835327    1.229040
     10          1           0        2.281531    1.636693    1.531284
     11          6           0       -0.294571    3.055118   -0.369538
     12          1           0       -0.401949    3.742687   -1.199248
     13          8           0        5.615588   -1.970960    0.655853
     14          6           0        4.595004   -1.514244    0.153495
     15          6           0        3.257223   -1.886061    0.668575
     16          1           0        3.226564   -2.577560    1.501395
     17          6           0        4.665995   -0.581915   -0.996755
     18          1           0        5.660349   -0.325877   -1.344424
     19          8           0        1.196176   -0.004526   -1.540885
     20          6           0        2.216761   -0.461243   -1.038527
     21          6           0        2.145769   -1.393571    0.111723
     22          1           0        1.151416   -1.649609    0.459392
     23          6           0        3.554541   -0.089424   -1.553607
     24          1           0        3.585201    0.602074   -2.386427
     25          8           0       -1.150954   -2.163605    0.808298
     26          6           0       -2.171538   -1.706889    0.305940
     27          6           0       -3.509319   -2.078706    0.821020
     28          1           0       -3.539978   -2.770205    1.653840
     29          6           0       -2.100547   -0.774560   -0.844310
     30          1           0       -1.106193   -0.518522   -1.191979
     31          8           0       -5.570366   -0.197171   -1.388440
     32          6           0       -4.549781   -0.653888   -0.886082
     33          6           0       -4.620773   -1.586216    0.264167
     34          1           0       -5.615126   -1.842254    0.611837
     35          6           0       -3.212001   -0.282069   -1.401162
     36          1           0       -3.181341    0.409429   -2.233982
 ---------------------------------------------------------------------

 SCF Done:  E(RHF) =  -1138.96637484     A.U. after    2 cycles

 The electronic state is 1-A.
 Alpha  occ. eigenvalues --  -20.57432 -20.57087 -20.57032 -20.56989 -20.56753
 Alpha  occ. eigenvalues --  -20.56427 -11.37729 -11.37406 -11.37235 -11.37114
 Alpha  occ. eigenvalues --  -11.37068 -11.36584 -11.29388 -11.29385 -11.29300
 Alpha  occ. eigenvalues --  -11.29239 -11.29192 -11.29166 -11.29084 -11.28728
 Alpha  occ. eigenvalues --  -11.28722 -11.28591 -11.28544 -11.28246  -1.49970
 Alpha  occ. eigenvalues --   -1.49480  -1.49243  -1.49143  -1.49067  -1.48584
 Alpha  occ. eigenvalues --   -1.17151  -1.17104  -1.16441  -1.08366  -1.08135
 Alpha  occ. eigenvalues --   -1.07616  -0.97821  -0.97756  -0.97169  -0.88618
 Alpha  occ. eigenvalues --   -0.88570  -0.87970  -0.84774  -0.84741  -0.84107
 Alpha  occ. eigenvalues --   -0.73460  -0.73381  -0.73124  -0.72807  -0.72790
 Alpha  occ. eigenvalues --   -0.72159  -0.69986  -0.69723  -0.68970  -0.65945
 Alpha  occ. eigenvalues --   -0.65673  -0.65232  -0.64081  -0.63863  -0.63138
 Alpha  occ. eigenvalues --   -0.61745  -0.61377  -0.61038  -0.60560  -0.60262
 Alpha  occ. eigenvalues --   -0.59196  -0.59160  -0.59073  -0.58296  -0.56320
 Alpha  occ. eigenvalues --   -0.55437  -0.54729  -0.46476  -0.46180  -0.45857
 Alpha  occ. eigenvalues --   -0.44760  -0.44585  -0.43734  -0.42951  -0.42486
 Alpha  occ. eigenvalues --   -0.42084  -0.41693  -0.41543  -0.41185
 Alpha virt. eigenvalues --   -0.00782  -0.00390   0.00188   0.02705   0.03071
 Alpha virt. eigenvalues --    0.03191   0.03512   0.04006   0.04780   0.04856
 Alpha virt. eigenvalues --    0.05331   0.05731   0.05801   0.07001   0.07830

 Mulliken charges:
               1
     1  O   -1.677357
     2  C    0.968793
     3  C    0.459844
     4  H   -0.371597
     5  C    0.810136
     6  H   -0.288165
     7  O   -1.519444
     8  C    0.714507
     9  C    0.917644
    10  H   -0.300634
    11  C    0.479905
    12  H   -0.247455
    13  O   -1.412418
    14  C    0.654651
    15  C    0.446313
    16  H   -0.271072
    17  C    0.700433
    18  H   -0.229077
    19  O   -1.744356
    20  C    0.563441
    21  C    1.265057
    22  H   -0.302746
    23  C    0.680377
    24  H   -0.307936
    25  O   -1.756276
    26  C    0.360338
    27  C    0.800985
    28  H   -0.277286
    29  C    1.395266
    30  H   -0.296125
    31  O   -1.415131
    32  C    0.515186
    33  C    0.793272
    34  H   -0.229045
    35  C    0.451191
    36  H   -0.331219
 Sum of Mulliken charges =  -0.00000

 Dipole moment (field-independent basis, Debye):
    X=              0.1353    Y=              0.0121    Z=             -0.0079  Tot=              0.1360

 Test job not archived.
 1\1\GINC-SE398\SP\RHF\Aug-CC-pVDZ\C18H12O6\OHZDE\08-Apr-2025\0\\#t hf
 aug-cc-pvdz iop(5/13=1,5/36=2,99/5=2) pseudo=read geom=check guess=(re
 ad,tcheck) scf=(maxcycle=1)\\title\\0,1\O,0,0.080654,12.312048,7.62370
 3\C,0,-0.510475,11.31644,7.221364\C,0,0.018253,9.957365,7.479383\H,0,0
 .942935,9.888301,8.038752\C,0,-1.783484,11.439808,6.471979\H,0,-2.1386
 94,12.448619,6.295076\O,0,-2.49858,8.000952,5.895778\C,0,-1.907451,8.9
 9656,6.298118\C,0,-0.634441,8.873192,7.047503\H,0,-0.279231,7.864381,7
 .224406\C,0,-2.436179,10.355635,6.040099\H,0,-3.360861,10.424699,5.480

 Normal termination of Gaussian 16 at Tue Apr  8 19:54:28 2025.
