 Gaussian 16, Revision C.01,

 ----------------------------------------------------------------------
 #t hf aug-cc-pvdz symm=none int=(grid=ultrafine) guess=(read,tcheck) s
 table=(opt,rrhf)
 ----------------------------------------------------------------------
 -----
 title
 -----
 Symbolic Z-matrix:
 Charge =  0 Multiplicity = 1

 SCF Done:  E(RHF) =  -1137.85957397     A.U. after   16 cycles
 Normal termination of Gaussian 16 at Tue Apr  8 19:42:58 2025.
 Gaussian 16:  ES64L-G16RevC.01  3-Jul-2019

 ----------------------------------------------------------------------
 #t hf aug-cc-pvdz iop(5/13=1,5/36=2,99/5=2) pseudo=read geom=check gue
 ss=(read,tcheck) scf=(maxcycle=1)
 ----------------------------------------------------------------------
 -----
 title
 -----
 Structure from the checkpoint file:  "3B-69_21b_p-benzoquinone_trimer_mol1.chk"
 Charge =  0 Multiplicity = 1

                         Standard orientation:
 ---------------------------------------------------------------------
 Center     Atomic      Atomic             Coordinates (Angstroms)
 Number     Number       Type             X           Y           Z
 ---------------------------------------------------------------------
      1          8           0       -1.102408   -0.738524    0.013025
      2          6           0       -2.252877   -1.161377    0.000351
      3          6           0       -2.532426   -2.613998   -0.070048
      4          1           0       -1.677241   -3.277359   -0.106267
      5          6           0       -3.404964   -0.231035    0.067507
      6          1           0       -3.165031    0.825208    0.111667
      7          8           0       -6.091188   -2.564655   -0.019229
      8          6           0       -4.940718   -2.141803   -0.006554
      9          6           0       -3.788630   -3.072145   -0.073711
     10          1           0       -4.028563   -4.128388   -0.117870
     11          6           0       -4.661169   -0.689182    0.063845
     12          1           0       -5.516354   -0.025821    0.100064
     13          8           0        2.697468    4.865694    0.002229
     14          6           0        1.546998    4.442842   -0.010446
     15          6           0        1.267450    2.990221   -0.080844
     16          1           0        2.122635    2.326860   -0.117063
     17          6           0        0.394911    5.373184    0.056711
     18          1           0        0.634845    6.429427    0.100871
     19          8           0       -2.291312    3.039564   -0.030026
     20          6           0       -1.140842    3.462416   -0.017350
     21          6           0        0.011246    2.532074   -0.084507
     22          1           0       -0.228687    1.475830   -0.128667
     23          6           0       -0.861293    4.915037    0.053049
     24          1           0       -1.716478    5.578398    0.089267
     25          8           0        3.468728   -4.956181    0.040001
     26          6           0        3.435726   -3.730943    0.024151
     27          6           0        4.681599   -2.933807   -0.050582
     28          1           0        5.614301   -3.482842   -0.087021
     29          6           0        2.145170   -3.004820    0.091701
     30          1           0        1.252817   -3.618521    0.139079
     31          8           0        3.318710    0.354102   -0.006002
     32          6           0        3.351713   -0.871135    0.009849
     33          6           0        4.642268   -1.597258   -0.057701
     34          1           0        5.534621   -0.983557   -0.105079
     35          6           0        2.105839   -1.668271    0.084581
     36          1           0        1.173137   -1.119236    0.121021
 ---------------------------------------------------------------------

 SCF Done:  E(RHF) =  -1138.97522810     A.U. after    2 cycles

 The electronic state is 1-A.
 Alpha  occ. eigenvalues --  -20.57907 -20.57357 -20.57186 -20.56947 -20.56414
 Alpha  occ. eigenvalues --  -20.56036 -11.38251 -11.37405 -11.37387 -11.37111
 Alpha  occ. eigenvalues --  -11.36690 -11.36019 -11.30048 -11.29821 -11.29347
 Alpha  occ. eigenvalues --  -11.29216 -11.29209 -11.29047 -11.28782 -11.28686
 Alpha  occ. eigenvalues --  -11.28649 -11.28501 -11.27419 -11.27297  -1.50483
 Alpha  occ. eigenvalues --   -1.49525  -1.49434  -1.49097  -1.48875  -1.48116
 Alpha  occ. eigenvalues --   -1.17450  -1.16992  -1.16013  -1.08548  -1.08163
 Alpha  occ. eigenvalues --   -1.07110  -0.98229  -0.97707  -0.96757  -0.88948
 Alpha  occ. eigenvalues --   -0.88480  -0.87476  -0.85166  -0.84628  -0.83635
 Alpha  occ. eigenvalues --   -0.73866  -0.73637  -0.73327  -0.72884  -0.72387
 Alpha  occ. eigenvalues --   -0.71731  -0.70384  -0.69645  -0.68552  -0.66036
 Alpha  occ. eigenvalues --   -0.65757  -0.64806  -0.64531  -0.63489  -0.62806
 Alpha  occ. eigenvalues --   -0.61776  -0.61101  -0.60784  -0.60215  -0.60067
 Alpha  occ. eigenvalues --   -0.59514  -0.59365  -0.58843  -0.57703  -0.56258
 Alpha  occ. eigenvalues --   -0.55661  -0.54850  -0.46931  -0.46200  -0.45575
 Alpha  occ. eigenvalues --   -0.44890  -0.44438  -0.43356  -0.42875  -0.42278
 Alpha  occ. eigenvalues --   -0.42195  -0.41899  -0.41551  -0.40692
 Alpha virt. eigenvalues --   -0.00974  -0.00399   0.00459   0.02612   0.03032
 Alpha virt. eigenvalues --    0.03193   0.03873   0.04491   0.04678   0.05351
 Alpha virt. eigenvalues --    0.05741   0.06324   0.06783   0.07252   0.08533

 Mulliken charges:
               1
     1  O   -1.860965
     2  C    0.274426
     3  C    0.769964
     4  H   -0.267202
     5  C    0.981817
     6  H   -0.262014
     7  O   -1.419395
     8  C    0.726543
     9  C    0.678327
    10  H   -0.237905
    11  C    0.754194
    12  H   -0.239121
    13  O   -1.506460
    14  C    0.702823
    15  C    0.568003
    16  H   -0.156505
    17  C    0.823235
    18  H   -0.223071
    19  O   -1.654835
    20  C    0.196478
    21  C    1.025426
    22  H   -0.310210
    23  C    0.883337
    24  H   -0.255653
    25  O   -1.454475
    26  C    0.804323
    27  C    0.749087
    28  H   -0.217232
    29  C    0.512961
    30  H   -0.258452
    31  O   -1.754541
    32  C    0.331861
    33  C    0.776733
    34  H   -0.269168
    35  C    1.011257
    36  H   -0.223591
 Sum of Mulliken charges =  -0.00000

 Dipole moment (field-independent basis, Debye):
    X=             -0.1137    Y=             -0.1827    Z=             -0.0000  Tot=              0.2152

 Test job not archived.
 1\1\GINC-SE143\SP\RHF\Aug-CC-pVDZ\C18H12O6\OHZDE\08-Apr-2025\0\\#t hf
 aug-cc-pvdz iop(5/13=1,5/36=2,99/5=2) pseudo=read geom=check guess=(re
 ad,tcheck) scf=(maxcycle=1)\\title\\0,1\O,0,5.823654,5.541048,7.623703
 \C,0,5.232525,4.54544,7.221364\C,0,5.761253,3.186365,7.479383\H,0,6.68
 5935,3.117301,8.038752\C,0,3.959516,4.668808,6.471979\H,0,3.604306,5.6
 77619,6.295076\O,0,3.24442,1.229952,5.895778\C,0,3.835549,2.22556,6.29
 8118\C,0,5.108559,2.102192,7.047503\H,0,5.463769,1.093381,7.224406\C,0
 ,3.306821,3.584635,6.040099\H,0,2.382139,3.653699,5.48073\O,0,5.823654

 Normal termination of Gaussian 16 at Tue Apr  8 19:44:08 2025.
