 Gaussian 16, Revision C.01,

 ----------------------------------------------------------------------
 #t hf aug-cc-pvdz symm=none int=(grid=ultrafine) guess=(read,tcheck) s
 table=(opt,rrhf)
 ----------------------------------------------------------------------
 -----
 title
 -----
 Symbolic Z-matrix:
 Charge =  0 Multiplicity = 1

 SCF Done:  E(RHF) =  -152.077500724     A.U. after   11 cycles
 Normal termination of Gaussian 16 at Tue Apr  8 18:51:31 2025.
 Gaussian 16:  ES64L-G16RevC.01  3-Jul-2019

 ----------------------------------------------------------------------
 #t hf aug-cc-pvdz iop(5/13=1,5/36=2,99/5=2) pseudo=read geom=check gue
 ss=(read,tcheck) scf=(maxcycle=1)
 ----------------------------------------------------------------------
 -----
 title
 -----
 Structure from the checkpoint file:  "3B-69_01a_water_dimerAB_mol1.chk"
 Charge =  0 Multiplicity = 1

                         Standard orientation:
 ---------------------------------------------------------------------
 Center     Atomic      Atomic             Coordinates (Angstroms)
 Number     Number       Type             X           Y           Z
 ---------------------------------------------------------------------
      1          8           0        2.253394    0.039669    0.107892
      2          1           0        1.503868   -0.172685   -0.497687
      3          1           0        3.099611   -0.142204   -0.366123
      4          8           0       -2.249627   -0.031105   -0.113715
      5          1           0       -2.314408   -0.637295    0.660785
      6          1           0       -2.319211    0.883665    0.249610
 ---------------------------------------------------------------------

 SCF Done:  E(RHF) =  -152.233887861     A.U. after    2 cycles

 The electronic state is 1-A.
 Alpha  occ. eigenvalues --  -20.56553 -20.55762  -1.42837  -1.41985  -0.70262
 Alpha  occ. eigenvalues --   -0.69985  -0.57399  -0.56222  -0.49956  -0.49191
 Alpha virt. eigenvalues --    0.03477   0.04627   0.05787   0.07720   0.16890
 Alpha virt. eigenvalues --    0.18334   0.20328   0.21699   0.22247   0.22755
 Alpha virt. eigenvalues --    0.23303   0.25902   0.28323   0.29387   0.32896

 Mulliken charges:
               1
     1  O   -0.809779
     2  H    0.399079
     3  H    0.410178
     4  O   -0.800476
     5  H    0.399884
     6  H    0.401114
 Sum of Mulliken charges =  -0.00000

 Dipole moment (field-independent basis, Debye):
    X=             -0.1162    Y=             -0.1427    Z=              0.0877  Tot=              0.2039

 Test job not archived.
 1\1\GINC-SE340\SP\RHF\Aug-CC-pVDZ\H4O2\OHZDE\08-Apr-2025\0\\#t hf aug-
 cc-pvdz iop(5/13=1,5/36=2,99/5=2) pseudo=read geom=check guess=(read,t
 check) scf=(maxcycle=1)\\title\\0,1\O,0,-0.084889,0.056804,0.055205\H,
 0,0.710375,0.517729,0.413971\H,0,-0.890958,0.498588,0.414274\O,0,4.422
 945,-0.026001,-0.007196\H,0,4.446575,-0.955128,0.320949\H,0,4.445532,-
 0.08411,-0.991962\\Version=ES64L-G16RevC.01\State=1-A\HF=-152.2338879\
 RMSD=5.698e-03\Dipole=0.0444216,-0.0532108,0.0403537\Quadrupole=0.1190
 127,-0.1196005,0.0005878,-5.3312551,-3.8982968,0.1862268\PG=C01 [X(H4O

 Normal termination of Gaussian 16 at Tue Apr  8 18:51:32 2025.
