 Gaussian 16, Revision C.01,

 ----------------------------------------------------------------------
 #t hf aug-cc-pvdz symm=none int=(grid=ultrafine) guess=(read,tcheck) s
 table=(opt,rrhf)
 ----------------------------------------------------------------------
 -----
 title
 -----
 Symbolic Z-matrix:
 Charge =  0 Multiplicity = 1

 SCF Done:  E(RHF) =  -836.196533539     A.U. after   12 cycles
 Normal termination of Gaussian 16 at Tue Apr  8 19:12:43 2025.
 Gaussian 16:  ES64L-G16RevC.01  3-Jul-2019

 ----------------------------------------------------------------------
 #t hf aug-cc-pvdz iop(5/13=1,5/36=2,99/5=2) pseudo=read geom=check gue
 ss=(read,tcheck) scf=(maxcycle=1)
 ----------------------------------------------------------------------
 -----
 title
 -----
 Structure from the checkpoint file:  "3B-69_13a_triazine_trimer_mol1.chk"
 Charge =  0 Multiplicity = 1

                         Standard orientation:
 ---------------------------------------------------------------------
 Center     Atomic      Atomic             Coordinates (Angstroms)
 Number     Number       Type             X           Y           Z
 ---------------------------------------------------------------------
      1          6           0       -0.000000   -1.300030    0.000000
      2          7           0        0.000000   -0.683876    1.184508
      3          1           0       -0.000000   -2.382134    0.000000
      4          6           0        0.000000    0.650015   -1.125859
      5          7           0        0.000000   -0.683876   -1.184508
      6          1           0        0.000000    1.191067   -2.062988
      7          6           0        0.000000    0.650015    1.125859
      8          7           0        0.000000    1.367752   -0.000000
      9          1           0        0.000000    1.191067    2.062988
     10          6           0       -3.640500   -0.650015    1.125859
     11          7           0       -3.640500   -1.367752    0.000000
     12          1           0       -3.640500   -1.191067    2.062988
     13          6           0       -3.640500    1.300030   -0.000000
     14          7           0       -3.640500    0.683876    1.184508
     15          1           0       -3.640500    2.382134   -0.000000
     16          6           0       -3.640500   -0.650015   -1.125859
     17          7           0       -3.640500    0.683876   -1.184508
     18          1           0       -3.640500   -1.191067   -2.062988
     19          6           0        3.640500   -0.650015    1.125859
     20          7           0        3.640500   -1.367752    0.000000
     21          1           0        3.640500   -1.191067    2.062988
     22          6           0        3.640500    1.300030   -0.000000
     23          7           0        3.640500    0.683876    1.184508
     24          1           0        3.640500    2.382134   -0.000000
     25          6           0        3.640500   -0.650015   -1.125859
     26          7           0        3.640500    0.683876   -1.184508
     27          1           0        3.640500   -1.191067   -2.062988
 ---------------------------------------------------------------------

 SCF Done:  E(RHF) =  -837.026813919     A.U. after    2 cycles

 The electronic state is 1-A.
 Alpha  occ. eigenvalues --  -15.52756 -15.52691 -15.52689 -15.52645 -15.52645
 Alpha  occ. eigenvalues --  -15.52635 -15.52635 -15.52590 -15.52590 -11.34829
 Alpha  occ. eigenvalues --  -11.34829 -11.34828 -11.34822 -11.34821 -11.34821
 Alpha  occ. eigenvalues --  -11.34821 -11.34821 -11.34816  -1.36555  -1.36179
 Alpha  occ. eigenvalues --   -1.35628  -1.22221  -1.22221  -1.22121  -1.22121
 Alpha  occ. eigenvalues --   -1.21893  -1.21893  -0.96253  -0.96253  -0.96209
 Alpha  occ. eigenvalues --   -0.96209  -0.96187  -0.96187  -0.79990  -0.79974
 Alpha  occ. eigenvalues --   -0.79924  -0.78606  -0.78451  -0.78434  -0.65482
 Alpha  occ. eigenvalues --   -0.64799  -0.64686  -0.64686  -0.64578  -0.64578
 Alpha  occ. eigenvalues --   -0.64318  -0.64318  -0.62664  -0.61727  -0.61500
 Alpha  occ. eigenvalues --   -0.61489  -0.49341  -0.49341  -0.48670  -0.48670
 Alpha  occ. eigenvalues --   -0.48561  -0.48561  -0.48474  -0.48474  -0.47702
 Alpha  occ. eigenvalues --   -0.47702  -0.46334  -0.46334
 Alpha virt. eigenvalues --    0.03400   0.03947   0.03947   0.04375   0.04539
 Alpha virt. eigenvalues --    0.04539   0.04902   0.04902   0.04934   0.04934
 Alpha virt. eigenvalues --    0.05753   0.05753   0.06273   0.07439   0.07439

 Mulliken charges:
               1
     1  C   -1.186587
     2  N    1.485269
     3  H   -0.248991
     4  C   -1.186585
     5  N    1.485269
     6  H   -0.248993
     7  C   -1.186585
     8  N    1.485269
     9  H   -0.248993
    10  C   -1.178292
    11  N    1.256859
    12  H   -0.103412
    13  C   -1.178294
    14  N    1.256860
    15  H   -0.103411
    16  C   -1.178292
    17  N    1.256860
    18  H   -0.103412
    19  C   -1.178292
    20  N    1.256859
    21  H   -0.103412
    22  C   -1.178294
    23  N    1.256860
    24  H   -0.103411
    25  C   -1.178292
    26  N    1.256860
    27  H   -0.103412
 Sum of Mulliken charges =  -0.00000

 Dipole moment (field-independent basis, Debye):
    X=             -0.0000    Y=             -0.0000    Z=              0.0000  Tot=              0.0000

 Test job not archived.
 1\1\GINC-SE222\SP\RHF\Aug-CC-pVDZ\C9H9N9\OHZDE\08-Apr-2025\0\\#t hf au
 g-cc-pvdz iop(5/13=1,5/36=2,99/5=2) pseudo=read geom=check guess=(read
 ,tcheck) scf=(maxcycle=1)\\title\\0,1\C,0,-3.52347,8.354547,9.10125\N,
 0,-4.139624,7.170039,9.10125\H,0,-2.441366,8.354547,9.10125\C,0,-5.473
 515,9.480406,9.10125\N,0,-4.139624,9.539055,9.10125\H,0,-6.014567,10.4
 17535,9.10125\C,0,-5.473515,7.228688,9.10125\N,0,-6.191252,8.354547,9.
 10125\H,0,-6.014567,6.291559,9.10125\C,0,-4.173485,7.228688,5.46075\N,
 0,-3.455748,8.354547,5.46075\H,0,-3.632433,6.291559,5.46075\C,0,-6.123

 Normal termination of Gaussian 16 at Tue Apr  8 19:13:19 2025.
