 Gaussian 16, Revision C.01,

 ----------------------------------------------------------------------
 #t hf aug-cc-pvdz symm=none int=(grid=ultrafine) guess=(read,tcheck) s
 table=(opt,rrhf)
 ----------------------------------------------------------------------
 -----
 title
 -----
 Symbolic Z-matrix:
 Charge =  0 Multiplicity = 1

 SCF Done:  E(RHF) =  -641.513118683     A.U. after   13 cycles
 Normal termination of Gaussian 16 at Tue Apr  8 19:11:02 2025.
 Gaussian 16:  ES64L-G16RevC.01  3-Jul-2019

 ----------------------------------------------------------------------
 #t hf aug-cc-pvdz iop(5/13=1,5/36=2,99/5=2) pseudo=read geom=check gue
 ss=(read,tcheck) scf=(maxcycle=1)
 ----------------------------------------------------------------------
 -----
 title
 -----
 Structure from the checkpoint file:  "3B-69_17c_oxazolidinone_dimerAC_mol1.chk"
 Charge =  0 Multiplicity = 1

                         Standard orientation:
 ---------------------------------------------------------------------
 Center     Atomic      Atomic             Coordinates (Angstroms)
 Number     Number       Type             X           Y           Z
 ---------------------------------------------------------------------
      1          7           0        1.306452   -0.052687    1.103965
      2          8           0        2.305474   -0.429070   -0.835255
      3          8           0        1.347557   -2.183168    0.196584
      4          6           0        1.899274    1.242646    0.797006
      5          6           0        2.336673    1.015984   -0.660215
      6          6           0        1.609687   -0.985946    0.189771
      7          1           0        0.848570   -0.292397    1.986650
      8          1           0        2.732903    1.463314    1.461920
      9          1           0        1.167209    2.044066    0.879201
     10          1           0        1.642006    1.447405   -1.379295
     11          1           0        3.343991    1.356189   -0.870643
     12          7           0       -1.306452    0.052687   -1.103965
     13          8           0       -2.305473    0.429070    0.835255
     14          8           0       -1.347558    2.183169   -0.196584
     15          6           0       -1.899275   -1.242645   -0.797006
     16          6           0       -2.336673   -1.015984    0.660215
     17          6           0       -1.609686    0.985946   -0.189770
     18          1           0       -0.848569    0.292397   -1.986651
     19          1           0       -2.732902   -1.463315   -1.461920
     20          1           0       -1.167208   -2.044066   -0.879201
     21          1           0       -1.642005   -1.447406    1.379295
     22          1           0       -3.343991   -1.356189    0.870643
 ---------------------------------------------------------------------

 SCF Done:  E(RHF) =  -642.155533798     A.U. after    2 cycles

 The electronic state is 1-A.
 Alpha  occ. eigenvalues --  -20.59317 -20.59317 -20.51108 -20.51106 -15.54549
 Alpha  occ. eigenvalues --  -15.54523 -11.41067 -11.41067 -11.31916 -11.31916
 Alpha  occ. eigenvalues --  -11.29702 -11.29701  -1.54500  -1.54498  -1.43569
 Alpha  occ. eigenvalues --   -1.43544  -1.26365  -1.26218  -1.04541  -1.04447
 Alpha  occ. eigenvalues --   -0.90534  -0.90318  -0.86912  -0.86823  -0.74034
 Alpha  occ. eigenvalues --   -0.73949  -0.73285  -0.72584  -0.68351  -0.68111
 Alpha  occ. eigenvalues --   -0.62706  -0.62637  -0.61293  -0.60741  -0.60390
 Alpha  occ. eigenvalues --   -0.60373  -0.60133  -0.59720  -0.53773  -0.53690
 Alpha  occ. eigenvalues --   -0.45786  -0.45638  -0.44595  -0.44533  -0.43749
 Alpha  occ. eigenvalues --   -0.42708
 Alpha virt. eigenvalues --    0.03142   0.03438   0.04003   0.04078   0.04470
 Alpha virt. eigenvalues --    0.05868   0.06142   0.06933   0.07698   0.08177
 Alpha virt. eigenvalues --    0.09078   0.10606   0.11434   0.11898   0.12255

 Mulliken charges:
               1
     1  N    0.971877
     2  O   -1.437071
     3  O   -1.339248
     4  C   -0.315086
     5  C    0.587190
     6  C    1.345148
     7  H    0.001578
     8  H   -0.008258
     9  H    0.047668
    10  H    0.079501
    11  H    0.066701
    12  N    0.971877
    13  O   -1.437071
    14  O   -1.339248
    15  C   -0.315086
    16  C    0.587188
    17  C    1.345147
    18  H    0.001581
    19  H   -0.008260
    20  H    0.047670
    21  H    0.079503
    22  H    0.066701
 Sum of Mulliken charges =  -0.00000

 Dipole moment (field-independent basis, Debye):
    X=              0.0000    Y=             -0.0000    Z=             -0.0000  Tot=              0.0000

 Test job not archived.
 1\1\GINC-SE104\SP\RHF\Aug-CC-pVDZ\C6H10N2O4\OHZDE\08-Apr-2025\0\\#t hf
  aug-cc-pvdz iop(5/13=1,5/36=2,99/5=2) pseudo=read geom=check guess=(r
 ead,tcheck) scf=(maxcycle=1)\\title\\0,1\N,0,7.885048,4.838445,5.37043
 8\O,0,6.875708,6.333394,4.087222\O,0,7.551157,7.002241,6.125743\C,0,7.
 491717,4.046721,4.211985\C,0,7.051351,5.158913,3.244881\C,0,7.465555,6
 .109764,5.290126\H,0,8.287993,4.45773,6.230055\H,0,6.687519,3.35575,4.
 460112\H,0,8.33072,3.476585,3.817056\H,0,7.813568,5.39837,2.504984\H,0
 ,6.107802,4.958202,2.750776\N,0,10.523419,6.507555,3.968155\O,0,11.532

 Normal termination of Gaussian 16 at Tue Apr  8 19:11:19 2025.
