 Gaussian 16, Revision C.01,

 ----------------------------------------------------------------------
 #t hf aug-cc-pvdz symm=none int=(grid=ultrafine) guess=(read,tcheck) s
 table=(opt,rrhf)
 ----------------------------------------------------------------------
 -----
 title
 -----
 Symbolic Z-matrix:
 Charge =  0 Multiplicity = 1

 SCF Done:  E(RHF) =  -781.246605677     A.U. after   14 cycles
 Normal termination of Gaussian 16 at Tue Apr  8 19:10:17 2025.
 Gaussian 16:  ES64L-G16RevC.01  3-Jul-2019

 ----------------------------------------------------------------------
 #t hf aug-cc-pvdz iop(5/13=1,5/36=2,99/5=2) pseudo=read geom=check gue
 ss=(read,tcheck) scf=(maxcycle=1)
 ----------------------------------------------------------------------
 -----
 title
 -----
 Structure from the checkpoint file:  "3B-69_16a_triazolidinedione_dimerBC_mol1.chk"
 Charge =  0 Multiplicity = 1

                         Standard orientation:
 ---------------------------------------------------------------------
 Center     Atomic      Atomic             Coordinates (Angstroms)
 Number     Number       Type             X           Y           Z
 ---------------------------------------------------------------------
      1          7           0        1.621392   -0.381788    1.175747
      2          7           0        0.787507    0.750604    1.185037
      3          6           0        1.111459    1.522871    0.104203
      4          7           0        1.984563    0.766964   -0.649327
      5          6           0        2.296675   -0.409650   -0.001549
      6          8           0        0.703956    2.646450   -0.174948
      7          8           0        3.041983   -1.300217   -0.414909
      8          1           0        1.263147   -1.257158    1.577781
      9          1           0        0.602562    1.185932    2.088591
     10          1           0        2.426703    1.088559   -1.524377
     11          7           0       -1.665645   -1.397826    0.790391
     12          7           0       -2.499530   -0.265433    0.799681
     13          6           0       -2.175578    0.506833   -0.281153
     14          7           0       -1.302474   -0.249074   -1.034683
     15          6           0       -0.990362   -1.425687   -0.386906
     16          8           0       -2.583081    1.630412   -0.560305
     17          8           0       -0.245053   -2.316255   -0.800265
     18          1           0       -2.023890   -2.273195    1.192425
     19          1           0       -2.684475    0.169894    1.703235
     20          1           0       -0.860334    0.072522   -1.909734
 ---------------------------------------------------------------------

 SCF Done:  E(RHF) =  -782.014907013     A.U. after    2 cycles

 The electronic state is 1-A.
 Alpha  occ. eigenvalues --  -20.54278 -20.53865 -20.53676 -20.52827 -15.61092
 Alpha  occ. eigenvalues --  -15.60502 -15.60443 -15.59669 -15.58613 -15.58279
 Alpha  occ. eigenvalues --  -11.43003 -11.42571 -11.42556 -11.41875  -1.50571
 Alpha  occ. eigenvalues --   -1.50038  -1.47914  -1.47118  -1.41226  -1.40571
 Alpha  occ. eigenvalues --   -1.27573  -1.27091  -1.18348  -1.17716  -0.96185
 Alpha  occ. eigenvalues --   -0.95675  -0.92796  -0.92297  -0.83350  -0.82693
 Alpha  occ. eigenvalues --   -0.79652  -0.78564  -0.75968  -0.75528  -0.73189
 Alpha  occ. eigenvalues --   -0.71593  -0.66976  -0.66443  -0.65011  -0.64311
 Alpha  occ. eigenvalues --   -0.60909  -0.59569  -0.58820  -0.58305  -0.49163
 Alpha  occ. eigenvalues --   -0.48586  -0.46768  -0.46110  -0.45518  -0.45409
 Alpha  occ. eigenvalues --   -0.43906  -0.43179
 Alpha virt. eigenvalues --    0.01109   0.02873   0.03719   0.04391   0.05276
 Alpha virt. eigenvalues --    0.05589   0.07611   0.08505   0.08909   0.08985
 Alpha virt. eigenvalues --    0.09885   0.11092   0.11450   0.11716   0.12244

 Mulliken charges:
               1
     1  N    0.450064
     2  N    0.227416
     3  C    0.430854
     4  N    0.529218
     5  C    0.343746
     6  O   -1.242116
     7  O   -1.214186
     8  H    0.152322
     9  H    0.209586
    10  H    0.129676
    11  N    0.064441
    12  N    0.540889
    13  C    0.296901
    14  N    0.990381
    15  C    0.019340
    16  O   -1.176870
    17  O   -1.246999
    18  H    0.226322
    19  H    0.150702
    20  H    0.118313
 Sum of Mulliken charges =  -0.00000

 Dipole moment (field-independent basis, Debye):
    X=             -1.9746    Y=             -1.2529    Z=              4.4044  Tot=              4.9867

 Test job not archived.
 1\1\GINC-SE364\SP\RHF\Aug-CC-pVDZ\C4H6N6O4\OHZDE\08-Apr-2025\0\\#t hf
 aug-cc-pvdz iop(5/13=1,5/36=2,99/5=2) pseudo=read geom=check guess=(re
 ad,tcheck) scf=(maxcycle=1)\\title\\0,1\N,0,4.758199,16.90365,2.170497
 \N,0,5.216569,15.90098,1.297392\C,0,4.80265,16.21938,0.033733\N,0,4.27
 9392,17.492314,0.119488\C,0,4.256265,17.923919,1.428927\O,0,4.89088,15
 .54291,-0.98657\O,0,3.856001,19.016772,1.835033\H,0,5.310494,17.110082
 ,3.01228\H,0,5.163831,14.936932,1.625956\H,0,3.862617,18.004684,-0.673
 229\N,0,8.220199,16.90365,2.170497\N,0,8.678569,15.90098,1.297392\C,0,

 Normal termination of Gaussian 16 at Tue Apr  8 19:10:33 2025.
