 Gaussian 16, Revision C.01,

 ----------------------------------------------------------------------
 #t hf aug-cc-pvdz symm=none int=(grid=ultrafine) guess=(read,tcheck) s
 table=(opt,rrhf)
 ----------------------------------------------------------------------
 -----
 title
 -----
 Symbolic Z-matrix:
 Charge =  0 Multiplicity = 1

 SCF Done:  E(RHF) =  -641.508301789     A.U. after   13 cycles
 Normal termination of Gaussian 16 at Tue Apr  8 19:09:08 2025.
 Gaussian 16:  ES64L-G16RevC.01  3-Jul-2019

 ----------------------------------------------------------------------
 #t hf aug-cc-pvdz iop(5/13=1,5/36=2,99/5=2) pseudo=read geom=check gue
 ss=(read,tcheck) scf=(maxcycle=1)
 ----------------------------------------------------------------------
 -----
 title
 -----
 Structure from the checkpoint file:  "3B-69_17b_oxazolidinone_dimerAB_mol1.chk"
 Charge =  0 Multiplicity = 1

                         Standard orientation:
 ---------------------------------------------------------------------
 Center     Atomic      Atomic             Coordinates (Angstroms)
 Number     Number       Type             X           Y           Z
 ---------------------------------------------------------------------
      1          7           0       -1.822875   -0.200577   -0.172460
      2          8           0       -3.917419    0.355932    0.278612
      3          8           0       -2.381190    1.998794    0.291260
      4          6           0       -2.495850   -1.492940   -0.151180
      5          6           0       -3.967128   -1.045728   -0.112122
      6          6           0       -2.646187    0.812385    0.135342
      7          1           0       -0.811293   -0.068615   -0.246875
      8          1           0       -2.205070   -2.075630    0.721553
      9          1           0       -2.272994   -2.071651   -1.045819
     10          1           0       -4.447591   -1.096159   -1.088018
     11          1           0       -4.564251   -1.575755    0.620835
     12          7           0        2.498824   -0.990019    0.237511
     13          8           0        3.118862    1.050622   -0.355463
     14          8           0        0.922933    0.569737   -0.431600
     15          6           0        3.952696   -1.073105    0.291384
     16          6           0        4.326991    0.411876    0.146754
     17          6           0        2.068202    0.205660   -0.190965
     18          1           0        1.862751   -1.783391    0.348065
     19          1           0        4.343438   -1.690828   -0.515760
     20          1           0        4.292180   -1.484882    1.240142
     21          1           0        4.571272    0.878312    1.099921
     22          1           0        5.122081    0.593210   -0.567151
 ---------------------------------------------------------------------

 SCF Done:  E(RHF) =  -642.153275262     A.U. after    2 cycles

 The electronic state is 1-A.
 Alpha  occ. eigenvalues --  -20.60562 -20.56659 -20.52650 -20.47372 -15.56266
 Alpha  occ. eigenvalues --  -15.50363 -11.42724 -11.37538 -11.33430 -11.31970
 Alpha  occ. eigenvalues --  -11.30310 -11.28466  -1.55783  -1.51655  -1.45283
 Alpha  occ. eigenvalues --   -1.39904  -1.28005  -1.22950  -1.06302  -1.02564
 Alpha  occ. eigenvalues --   -0.92113  -0.88591  -0.88294  -0.83801  -0.75868
 Alpha  occ. eigenvalues --   -0.74511  -0.71391  -0.70776  -0.69986  -0.65966
 Alpha  occ. eigenvalues --   -0.64676  -0.62518  -0.62141  -0.61701  -0.59113
 Alpha  occ. eigenvalues --   -0.58869  -0.57551  -0.57385  -0.55275  -0.51773
 Alpha  occ. eigenvalues --   -0.47112  -0.46315  -0.45038  -0.43170  -0.40824
 Alpha  occ. eigenvalues --   -0.39624
 Alpha virt. eigenvalues --    0.01549   0.02826   0.03243   0.03566   0.04236
 Alpha virt. eigenvalues --    0.04444   0.05674   0.05947   0.07111   0.07218
 Alpha virt. eigenvalues --    0.08569   0.09827   0.11078   0.11573   0.11931

 Mulliken charges:
               1
     1  N    0.804825
     2  O   -1.291028
     3  O   -1.193804
     4  C   -0.357358
     5  C    0.548819
     6  C    1.334687
     7  H    0.030022
     8  H   -0.005647
     9  H    0.050802
    10  H    0.092621
    11  H    0.068603
    12  N    0.626512
    13  O   -1.305603
    14  O   -1.284800
    15  C   -0.432561
    16  C    0.566049
    17  C    1.380345
    18  H    0.104027
    19  H    0.028909
    20  H    0.076303
    21  H    0.091438
    22  H    0.066838
 Sum of Mulliken charges =  -0.00000

 Dipole moment (field-independent basis, Debye):
    X=              6.8497    Y=             -9.0634    Z=              0.4560  Tot=             11.3698

 Test job not archived.
 1\1\GINC-SE096\SP\RHF\Aug-CC-pVDZ\C6H10N2O4\OHZDE\08-Apr-2025\0\\#t hf
  aug-cc-pvdz iop(5/13=1,5/36=2,99/5=2) pseudo=read geom=check guess=(r
 ead,tcheck) scf=(maxcycle=1)\\title\\0,1\N,0,7.885048,10.511445,5.3704
 38\O,0,6.875708,12.006394,4.087222\O,0,7.551157,12.675241,6.125743\C,0
 ,7.491717,9.719721,4.211985\C,0,7.051351,10.831913,3.244881\C,0,7.4655
 55,11.782764,5.290126\H,0,8.287993,10.13073,6.230055\H,0,6.687519,9.02
 875,4.460112\H,0,8.33072,9.149585,3.817056\H,0,7.813568,11.07137,2.504
 984\H,0,6.107802,10.631202,2.750776\N,0,8.750652,7.674945,8.637451\O,0

 Normal termination of Gaussian 16 at Tue Apr  8 19:09:21 2025.
