 Gaussian 16, Revision C.01,

 ----------------------------------------------------------------------
 #t hf aug-cc-pvdz symm=none int=(grid=ultrafine) guess=(read,tcheck) s
 table=(opt,rrhf)
 ----------------------------------------------------------------------
 -----
 title
 -----
 Symbolic Z-matrix:
 Charge =  0 Multiplicity = 1

 SCF Done:  E(RHF) =  -678.769192438     A.U. after   14 cycles
 Normal termination of Gaussian 16 at Tue Apr  8 19:01:57 2025.
 Gaussian 16:  ES64L-G16RevC.01  3-Jul-2019

 ----------------------------------------------------------------------
 #t hf aug-cc-pvdz iop(5/13=1,5/36=2,99/5=2) pseudo=read geom=check gue
 ss=(read,tcheck) scf=(maxcycle=1)
 ----------------------------------------------------------------------
 -----
 title
 -----
 Structure from the checkpoint file:  "3B-69_08b_vinylene_carbonate_dimerBC_mol1.chk"
 Charge =  0 Multiplicity = 1

                         Standard orientation:
 ---------------------------------------------------------------------
 Center     Atomic      Atomic             Coordinates (Angstroms)
 Number     Number       Type             X           Y           Z
 ---------------------------------------------------------------------
      1          6           0       -1.550749    0.461105    0.916747
      2          6           0       -2.015298    1.439930    0.158069
      3          6           0       -3.398675   -0.279155   -0.054730
      4          1           0       -0.705893    0.355282    1.569506
      5          1           0       -1.691263    2.437284   -0.063754
      6          8           0       -2.413497   -0.629974    0.804935
      7          8           0       -3.191643    0.999779   -0.451425
      8          8           0       -4.300100   -0.980966   -0.416868
      9          6           0        1.550749   -0.461104   -0.916747
     10          6           0        2.015298   -1.439929   -0.158069
     11          6           0        3.398675    0.279154    0.054730
     12          1           0        0.705893   -0.355282   -1.569506
     13          1           0        1.691263   -2.437284    0.063753
     14          8           0        2.413498    0.629974   -0.804935
     15          8           0        3.191643   -0.999779    0.451425
     16          8           0        4.300100    0.980965    0.416868
 ---------------------------------------------------------------------

 SCF Done:  E(RHF) =  -679.426110228     A.U. after    2 cycles

 The electronic state is 1-A.
 Alpha  occ. eigenvalues --  -20.65388 -20.65387 -20.65205 -20.65204 -20.55574
 Alpha  occ. eigenvalues --  -20.55574 -11.47033 -11.47033 -11.35321 -11.35318
 Alpha  occ. eigenvalues --  -11.35187 -11.35184  -1.65438  -1.65416  -1.53034
 Alpha  occ. eigenvalues --   -1.53028  -1.49467  -1.49458  -1.09373  -1.09249
 Alpha  occ. eigenvalues --   -0.91565  -0.91520  -0.89885  -0.89863  -0.78167
 Alpha  occ. eigenvalues --   -0.78006  -0.74015  -0.73936  -0.70863  -0.70792
 Alpha  occ. eigenvalues --   -0.66849  -0.66841  -0.64159  -0.64126  -0.60478
 Alpha  occ. eigenvalues --   -0.60467  -0.59100  -0.59078  -0.53995  -0.53715
 Alpha  occ. eigenvalues --   -0.48918  -0.48916  -0.39800  -0.38877
 Alpha virt. eigenvalues --    0.02410   0.02819   0.03250   0.04535   0.06329
 Alpha virt. eigenvalues --    0.07834   0.08045   0.08651   0.08839   0.09800
 Alpha virt. eigenvalues --    0.10532   0.10756   0.11279   0.11294   0.12186

 Mulliken charges:
               1
     1  C    1.034135
     2  C    0.764001
     3  C    2.165063
     4  H   -0.109384
     5  H   -0.089895
     6  O   -1.304754
     7  O   -1.281347
     8  O   -1.177820
     9  C    1.034133
    10  C    0.764001
    11  C    2.165063
    12  H   -0.109381
    13  H   -0.089894
    14  O   -1.304754
    15  O   -1.281346
    16  O   -1.177820
 Sum of Mulliken charges =  -0.00000

 Dipole moment (field-independent basis, Debye):
    X=             -0.0000    Y=             -0.0000    Z=             -0.0000  Tot=              0.0000

 Test job not archived.
 1\1\GINC-SE335\SP\RHF\Aug-CC-pVDZ\C6H4O6\OHZDE\08-Apr-2025\0\\#t hf au
 g-cc-pvdz iop(5/13=1,5/36=2,99/5=2) pseudo=read geom=check guess=(read
 ,tcheck) scf=(maxcycle=1)\\title\\0,1\C,0,7.061072,10.034211,7.907066\
 C,0,6.442408,9.43803,6.901422\C,0,6.974868,7.871144,8.37642\H,0,7.3227
 4,11.050703,8.129207\H,0,6.016871,9.772782,5.976338\O,0,7.397394,9.065
 51,8.853531\O,0,6.361718,8.073493,7.185201\O,0,7.124323,6.807704,8.908
 405\C,0,10.244426,11.06579,6.284242\C,0,10.863089,11.66197,7.289886\C,
 0,10.33063,13.228856,5.814889\H,0,9.982757,10.049297,6.062101\H,0,11.2

 Normal termination of Gaussian 16 at Tue Apr  8 19:02:05 2025.
