 Gaussian 16, Revision C.01,

 ----------------------------------------------------------------------
 #t hf aug-cc-pvdz symm=none int=(grid=ultrafine) guess=(read,tcheck) s
 table=(opt,rrhf)
 ----------------------------------------------------------------------
 -----
 title
 -----
 Symbolic Z-matrix:
 Charge =  0 Multiplicity = 1

 SCF Done:  E(RHF) =  -610.990991138     A.U. after   14 cycles
 Normal termination of Gaussian 16 at Tue Apr  8 19:15:40 2025.
 Gaussian 16:  ES64L-G16RevC.01  3-Jul-2019

 ----------------------------------------------------------------------
 #t hf aug-cc-pvdz iop(5/13=1,5/36=2,99/5=2) pseudo=read geom=check gue
 ss=(read,tcheck) scf=(maxcycle=1)
 ----------------------------------------------------------------------
 -----
 title
 -----
 Structure from the checkpoint file:  "3B-69_23a_cyclobutylfuran_dimerAB_mol1.chk"
 Charge =  0 Multiplicity = 1

                         Standard orientation:
 ---------------------------------------------------------------------
 Center     Atomic      Atomic             Coordinates (Angstroms)
 Number     Number       Type             X           Y           Z
 ---------------------------------------------------------------------
      1          8           0       -3.396978   -1.548031    0.004068
      2          6           0       -3.922958   -0.391526   -0.549820
      3          1           0       -4.834348   -0.519893   -1.103846
      4          6           0       -3.102049    0.630135   -0.225307
      5          6           0       -2.547105    2.049518   -0.167369
      6          1           0       -2.219647    2.456237   -1.123162
      7          1           0       -3.182018    2.784651    0.325215
      8          6           0       -1.374274    1.459262    0.724069
      9          1           0       -0.378984    1.547464    0.293577
     10          1           0       -1.349670    1.825099    1.748591
     11          6           0       -2.039661    0.104609    0.555009
     12          6           0       -2.231344   -1.223762    0.681017
     13          1           0       -1.734750   -2.042822    1.167602
     14          8           0        1.890206   -1.925468   -0.293777
     15          6           0        1.364226   -0.768963   -0.847665
     16          1           0        0.452835   -0.897330   -1.401691
     17          6           0        2.185134    0.252699   -0.523152
     18          6           0        2.740078    1.672082   -0.465213
     19          1           0        3.067537    2.078800   -1.421006
     20          1           0        2.105166    2.407215    0.027371
     21          6           0        3.912910    1.081826    0.426224
     22          1           0        4.908200    1.170027   -0.004268
     23          1           0        3.937514    1.447662    1.450746
     24          6           0        3.247523   -0.272827    0.257165
     25          6           0        3.055839   -1.601198    0.383173
     26          1           0        3.552433   -2.420259    0.869757
 ---------------------------------------------------------------------

 SCF Done:  E(RHF) =  -611.616806426     A.U. after    2 cycles

 The electronic state is 1-A.
 Alpha  occ. eigenvalues --  -20.59633 -20.59384 -11.29209 -11.29108 -11.29015
 Alpha  occ. eigenvalues --  -11.28835 -11.26078 -11.25882 -11.25702 -11.25414
 Alpha  occ. eigenvalues --  -11.22731 -11.22669 -11.22551 -11.22345  -1.51592
 Alpha  occ. eigenvalues --   -1.51358  -1.16268  -1.15952  -0.99790  -0.99482
 Alpha  occ. eigenvalues --   -0.99356  -0.99052  -0.88151  -0.87756  -0.79295
 Alpha  occ. eigenvalues --   -0.78956  -0.74717  -0.74439  -0.72001  -0.71715
 Alpha  occ. eigenvalues --   -0.65594  -0.65073  -0.60648  -0.60473  -0.60281
 Alpha  occ. eigenvalues --   -0.60066  -0.57744  -0.57427  -0.53907  -0.53198
 Alpha  occ. eigenvalues --   -0.52788  -0.52426  -0.50760  -0.50437  -0.46381
 Alpha  occ. eigenvalues --   -0.46054  -0.38231  -0.37958  -0.32418  -0.31798
 Alpha virt. eigenvalues --    0.02834   0.03153   0.03573   0.03823   0.04322
 Alpha virt. eigenvalues --    0.04811   0.05354   0.05860   0.06267   0.06955
 Alpha virt. eigenvalues --    0.07305   0.09432   0.09657   0.10233   0.10444

 Mulliken charges:
               1
     1  O   -1.569274
     2  C    1.354860
     3  H   -0.206388
     4  C   -0.342927
     5  C   -0.414487
     6  H    0.138745
     7  H    0.113445
     8  C   -0.162407
     9  H    0.034584
    10  H    0.096439
    11  C   -0.099902
    12  C    1.287330
    13  H   -0.228517
    14  O   -1.531520
    15  C    1.277454
    16  H   -0.238760
    17  C   -0.162273
    18  C   -0.272433
    19  H    0.145970
    20  H    0.083609
    21  C   -0.370693
    22  H    0.119570
    23  H    0.141991
    24  C   -0.286550
    25  C    1.304522
    26  H   -0.212390
 Sum of Mulliken charges =  -0.00000

 Dipole moment (field-independent basis, Debye):
    X=              1.3032    Y=              2.6862    Z=              0.2766  Tot=              2.9984

 Test job not archived.
 1\1\GINC-SE114\SP\RHF\Aug-CC-pVDZ\C12H12O2\OHZDE\08-Apr-2025\0\\#t hf
 aug-cc-pvdz iop(5/13=1,5/36=2,99/5=2) pseudo=read geom=check guess=(re
 ad,tcheck) scf=(maxcycle=1)\\title\\0,1\O,0,-0.126301,16.441388,12.924
 526\C,0,-0.701266,17.4636,12.185981\H,0,-1.568703,17.187494,11.615566\
 C,0,0.02543,18.581936,12.396288\C,0,0.473934,20.034432,12.273536\H,0,0
 .824753,20.32698,11.284835\H,0,-0.238268,20.779526,12.625356\C,0,1.633
 898,19.669284,13.293216\H,0,2.642979,19.773757,12.900092\H,0,1.574915,
 20.176469,14.254138\C,0,1.077037,18.256376,13.291762\C,0,0.973511,16.9

 Normal termination of Gaussian 16 at Tue Apr  8 19:16:04 2025.
