 Gaussian 16, Revision C.01,

 ----------------------------------------------------------------------
 #t hf aug-cc-pvdz symm=none int=(grid=ultrafine) guess=(read,tcheck) s
 table=(opt,rrhf)
 ----------------------------------------------------------------------
 -----
 title
 -----
 Symbolic Z-matrix:
 Charge =  0 Multiplicity = 1

 SCF Done:  E(RHF) =  -208.007811184     A.U. after   13 cycles
 Normal termination of Gaussian 16 at Tue Apr  8 19:00:40 2025.
 Gaussian 16:  ES64L-G16RevC.01  3-Jul-2019

 ----------------------------------------------------------------------
 #t hf aug-cc-pvdz iop(5/13=1,5/36=2,99/5=2) pseudo=read geom=check gue
 ss=(read,tcheck) scf=(maxcycle=1)
 ----------------------------------------------------------------------
 -----
 title
 -----
 Structure from the checkpoint file:  "3B-69_09a_acetamide_dimerAC_mol2.chk"
 Charge =  0 Multiplicity = 1

                         Standard orientation:
 ---------------------------------------------------------------------
 Center     Atomic      Atomic             Coordinates (Angstroms)
 Number     Number       Type             X           Y           Z
 ---------------------------------------------------------------------
      1          6           0        1.362276   -0.309459    0.005165
      2          6           0       -0.084671    0.123591   -0.019339
      3          8           0       -0.387412    1.335382   -0.002264
      4          7           0       -1.004199   -0.840681   -0.016305
      5          1           0       -1.989322   -0.623565    0.147716
      6          1           0       -0.718706   -1.822146   -0.036101
      7          1           0        1.649762   -0.456892    1.048112
      8          1           0        1.527317   -1.245912   -0.523573
      9          1           0        1.994005    0.465431   -0.418874
 ---------------------------------------------------------------------

 SCF Done:  E(RHF) =  -208.222248590     A.U. after    2 cycles

 The electronic state is 1-A.
 Alpha  occ. eigenvalues --  -20.49842 -15.53853 -11.35983 -11.24945  -1.43076
 Alpha  occ. eigenvalues --   -1.23445  -1.01294  -0.84062  -0.76060  -0.67527
 Alpha  occ. eigenvalues --   -0.62898  -0.58239  -0.57217  -0.54300  -0.42621
 Alpha  occ. eigenvalues --   -0.41516
 Alpha virt. eigenvalues --    0.02451   0.04441   0.05083   0.05564   0.07159
 Alpha virt. eigenvalues --    0.09933   0.12152   0.12552   0.13850   0.14974
 Alpha virt. eigenvalues --    0.16199   0.16291   0.17082   0.18008   0.19757

 Mulliken charges:
               1
     1  C   -0.349140
     2  C    0.383891
     3  O   -1.294259
     4  N    0.547564
     5  H    0.099244
     6  H    0.074971
     7  H    0.251164
     8  H    0.126816
     9  H    0.159751
 Sum of Mulliken charges =  -0.00000

 Dipole moment (field-independent basis, Debye):
    X=              0.4543    Y=             -4.3427    Z=              0.2492  Tot=              4.3735

 Test job not archived.
 1\1\GINC-SE343\SP\RHF\Aug-CC-pVDZ\C2H5N1O1\OHZDE\08-Apr-2025\0\\#t hf
 aug-cc-pvdz iop(5/13=1,5/36=2,99/5=2) pseudo=read geom=check guess=(re
 ad,tcheck) scf=(maxcycle=1)\\title\\0,1\C,0,-1.004918,11.251778,13.363
 89\C,0,-1.828837,9.986003,13.391436\O,0,-2.955857,9.947587,12.854098\N
 ,0,-1.315604,8.944986,14.045834\H,0,-1.888595,8.125309,14.25636\H,0,-0
 .387165,9.0116,14.468606\H,0,-1.234988,11.820456,14.267104\H,0,0.06493
 ,11.054024,13.355768\H,0,-1.271188,11.855156,12.501115\\Version=ES64L-
 G16RevC.01\State=1-A\HF=-208.2222486\RMSD=1.525e-02\Dipole=1.456138,-0

 Normal termination of Gaussian 16 at Tue Apr  8 19:00:42 2025.
