 Gaussian 16, Revision C.01,

 ----------------------------------------------------------------------
 #t hf aug-cc-pvdz symm=none int=(grid=ultrafine) guess=(read,tcheck) s
 table=(opt,rrhf)
 ----------------------------------------------------------------------
 -----
 title
 -----
 Symbolic Z-matrix:
 Charge =  0 Multiplicity = 1

 SCF Done:  E(RHF) =  -339.384555971     A.U. after   13 cycles
 Normal termination of Gaussian 16 at Tue Apr  8 19:00:43 2025.
 Gaussian 16:  ES64L-G16RevC.01  3-Jul-2019

 ----------------------------------------------------------------------
 #t hf aug-cc-pvdz iop(5/13=1,5/36=2,99/5=2) pseudo=read geom=check gue
 ss=(read,tcheck) scf=(maxcycle=1)
 ----------------------------------------------------------------------
 -----
 title
 -----
 Structure from the checkpoint file:  "3B-69_08a_vinylene_carbonate_dimerAB_mol2.chk"
 Charge =  0 Multiplicity = 1

                         Standard orientation:
 ---------------------------------------------------------------------
 Center     Atomic      Atomic             Coordinates (Angstroms)
 Number     Number       Type             X           Y           Z
 ---------------------------------------------------------------------
      1          6           0       -1.338334   -0.659551    0.008366
      2          6           0       -1.337111    0.663132    0.010433
      3          6           0        0.777173   -0.003044   -0.006154
      4          1           0       -2.106735   -1.408288    0.003289
      5          1           0       -2.100623    1.415317    0.024180
      6          8           0       -0.014708   -1.101028   -0.011694
      7          8           0       -0.011087    1.098976   -0.016061
      8          8           0        1.975419    0.000770    0.014838
 ---------------------------------------------------------------------

 SCF Done:  E(RHF) =  -339.713738753     A.U. after    2 cycles

 The electronic state is 1-A.
 Alpha  occ. eigenvalues --  -20.64401 -20.64311 -20.54661 -11.46127 -11.34453
 Alpha  occ. eigenvalues --  -11.34324  -1.64478  -1.52093  -1.48556  -1.08407
 Alpha  occ. eigenvalues --   -0.90641  -0.88951  -0.77208  -0.73008  -0.69980
 Alpha  occ. eigenvalues --   -0.65966  -0.63248  -0.59544  -0.58124  -0.52929
 Alpha  occ. eigenvalues --   -0.48021  -0.38401
 Alpha virt. eigenvalues --    0.02431   0.03560   0.07484   0.08520   0.09145
 Alpha virt. eigenvalues --    0.10004   0.10786   0.12157   0.12658   0.13661
 Alpha virt. eigenvalues --    0.14120   0.14567   0.16771   0.19266   0.19557

 Mulliken charges:
               1
     1  C    0.818693
     2  C    0.819991
     3  C    2.145458
     4  H   -0.078041
     5  H   -0.081110
     6  O   -1.238727
     7  O   -1.239350
     8  O   -1.146914
 Sum of Mulliken charges =  -0.00000

 Dipole moment (field-independent basis, Debye):
    X=             -5.2248    Y=             -0.0049    Z=             -0.0101  Tot=              5.2249

 Test job not archived.
 1\1\GINC-SE249\SP\RHF\Aug-CC-pVDZ\C3H2O3\OHZDE\08-Apr-2025\0\\#t hf au
 g-cc-pvdz iop(5/13=1,5/36=2,99/5=2) pseudo=read geom=check guess=(read
 ,tcheck) scf=(maxcycle=1)\\title\\0,1\C,0,0.845927,15.309211,1.553806\
 C,0,1.46459,14.71303,2.55945\C,0,0.932131,13.146144,1.084452\H,0,0.584
 258,16.325703,1.331665\H,0,1.890128,15.047782,3.484534\O,0,0.509604,14
 .34051,0.607341\O,0,1.545281,13.348493,2.275671\O,0,0.782676,12.082704
 ,0.552468\\Version=ES64L-G16RevC.01\State=1-A\HF=-339.7137388\RMSD=1.9
 85e-02\Dipole=0.2304687,1.8181401,0.9310222\Quadrupole=0.0028458,-0.34

 Normal termination of Gaussian 16 at Tue Apr  8 19:00:46 2025.
