 Gaussian 16, Revision C.01,

 ----------------------------------------------------------------------
 #t hf aug-cc-pvdz symm=none int=(grid=ultrafine) guess=(read,tcheck) s
 table=(opt,rrhf)
 ----------------------------------------------------------------------
 -----
 title
 -----
 Symbolic Z-matrix:
 Charge =  0 Multiplicity = 1

 SCF Done:  E(RHF) =  -641.505142984     A.U. after   13 cycles
 Normal termination of Gaussian 16 at Tue Apr  8 19:09:25 2025.
 Gaussian 16:  ES64L-G16RevC.01  3-Jul-2019

 ----------------------------------------------------------------------
 #t hf aug-cc-pvdz iop(5/13=1,5/36=2,99/5=2) pseudo=read geom=check gue
 ss=(read,tcheck) scf=(maxcycle=1)
 ----------------------------------------------------------------------
 -----
 title
 -----
 Structure from the checkpoint file:  "3B-69_17c_oxazolidinone_dimerBC_mol1.chk"
 Charge =  0 Multiplicity = 1

                         Standard orientation:
 ---------------------------------------------------------------------
 Center     Atomic      Atomic             Coordinates (Angstroms)
 Number     Number       Type             X           Y           Z
 ---------------------------------------------------------------------
      1          7           0       -4.980029   -0.239623   -0.136263
      2          8           0       -2.905702    0.380027    0.325776
      3          8           0       -4.340908    1.976652   -0.345138
      4          6           0       -4.323972   -1.511400    0.138912
      5          6           0       -2.984831   -1.020658    0.715157
      6          6           0       -4.132338    0.798180   -0.080941
      7          1           0       -5.933039   -0.137923   -0.493588
      8          1           0       -4.205952   -2.099952   -0.769614
      9          1           0       -4.884693   -2.099025    0.863647
     10          1           0       -2.956099   -1.059618    1.803007
     11          1           0       -2.120964   -1.530646    0.304847
     12          7           0        3.467558    0.977009   -0.033579
     13          8           0        4.336070   -1.042646   -0.292351
     14          8           0        2.361376   -0.626857   -1.285760
     15          6           0        4.762214    1.103006    0.623336
     16          6           0        5.204269   -0.369805    0.663322
     17          6           0        3.289811   -0.229678   -0.591241
     18          1           0        2.821630    1.750855   -0.207337
     19          1           0        5.437566    1.734351    0.047973
     20          1           0        4.661361    1.521947    1.622971
     21          1           0        5.039856   -0.831523    1.635715
     22          1           0        6.230028   -0.525443    0.349789
 ---------------------------------------------------------------------

 SCF Done:  E(RHF) =  -642.149960590     A.U. after    2 cycles

 The electronic state is 1-A.
 Alpha  occ. eigenvalues --  -20.59054 -20.58392 -20.50250 -20.49756 -15.54329
 Alpha  occ. eigenvalues --  -15.53894 -11.40477 -11.39957 -11.32272 -11.31510
 Alpha  occ. eigenvalues --  -11.30600 -11.30038  -1.54126  -1.53490  -1.42705
 Alpha  occ. eigenvalues --   -1.42186  -1.26168  -1.25695  -1.04850  -1.04225
 Alpha  occ. eigenvalues --   -0.90658  -0.90031  -0.86707  -0.86226  -0.73883
 Alpha  occ. eigenvalues --   -0.73317  -0.73089  -0.72459  -0.68405  -0.67823
 Alpha  occ. eigenvalues --   -0.62285  -0.61737  -0.61171  -0.60546  -0.60160
 Alpha  occ. eigenvalues --   -0.59930  -0.59588  -0.59296  -0.53947  -0.53289
 Alpha  occ. eigenvalues --   -0.45630  -0.44998  -0.43696  -0.43203  -0.42658
 Alpha  occ. eigenvalues --   -0.42181
 Alpha virt. eigenvalues --    0.02648   0.03011   0.03783   0.03953   0.04385
 Alpha virt. eigenvalues --    0.04946   0.05040   0.05689   0.06142   0.07425
 Alpha virt. eigenvalues --    0.08719   0.09516   0.09817   0.10649   0.11545

 Mulliken charges:
               1
     1  N    0.568322
     2  O   -1.249212
     3  O   -1.174864
     4  C   -0.427297
     5  C    0.621695
     6  C    1.282969
     7  H    0.088366
     8  H    0.030341
     9  H    0.082224
    10  H    0.094194
    11  H    0.082810
    12  N    0.588203
    13  O   -1.247855
    14  O   -1.178335
    15  C   -0.442330
    16  C    0.616931
    17  C    1.281000
    18  H    0.093103
    19  H    0.028996
    20  H    0.080947
    21  H    0.098207
    22  H    0.081586
 Sum of Mulliken charges =  -0.00000

 Dipole moment (field-independent basis, Debye):
    X=              2.8409    Y=             -2.3816    Z=              4.0906  Tot=              5.5205

 Test job not archived.
 1\1\GINC-SE128\SP\RHF\Aug-CC-pVDZ\C6H10N2O4\OHZDE\08-Apr-2025\0\\#t hf
  aug-cc-pvdz iop(5/13=1,5/36=2,99/5=2) pseudo=read geom=check guess=(r
 ead,tcheck) scf=(maxcycle=1)\\title\\0,1\N,0,4.978186,2.001945,-0.7011
 42\O,0,5.987525,3.496894,0.582074\O,0,5.312076,4.165741,-1.456447\C,0,
 5.371517,1.210221,0.457311\C,0,5.811882,2.322413,1.424416\C,0,5.397678
 ,3.273264,-0.62083\H,0,4.57524,1.62123,-1.560759\H,0,6.175714,0.51925,
 0.209184\H,0,4.532513,0.640085,0.85224\H,0,5.049665,2.56187,2.164312\H
 ,0,6.755431,2.121702,1.91852\N,0,10.523419,6.507555,3.968155\O,0,11.53

 Normal termination of Gaussian 16 at Tue Apr  8 19:09:35 2025.
