 Gaussian 16, Revision C.01,

 ----------------------------------------------------------------------
 #t hf aug-cc-pvdz symm=none int=(grid=ultrafine) guess=(read,tcheck) s
 table=(opt,rrhf)
 ----------------------------------------------------------------------
 -----
 title
 -----
 Symbolic Z-matrix:
 Charge =  0 Multiplicity = 1

 SCF Done:  E(RHF) =  -756.941987956     A.U. after   13 cycles
 Normal termination of Gaussian 16 at Tue Apr  8 19:09:52 2025.
 Gaussian 16:  ES64L-G16RevC.01  3-Jul-2019

 ----------------------------------------------------------------------
 #t hf aug-cc-pvdz iop(5/13=1,5/36=2,99/5=2) pseudo=read geom=check gue
 ss=(read,tcheck) scf=(maxcycle=1)
 ----------------------------------------------------------------------
 -----
 title
 -----
 Structure from the checkpoint file:  "3B-69_18b_succinic_anhydride_dimerBC_mol1.chk"
 Charge =  0 Multiplicity = 1

                         Standard orientation:
 ---------------------------------------------------------------------
 Center     Atomic      Atomic             Coordinates (Angstroms)
 Number     Number       Type             X           Y           Z
 ---------------------------------------------------------------------
      1          8           0       -5.808521   -0.968157    0.182015
      2          8           0       -3.794092   -0.501400    1.050102
      3          8           0       -7.881782   -0.894054   -0.658912
      4          6           0       -4.810601   -0.086036    0.577284
      5          6           0       -5.250294    1.328500    0.312960
      6          6           0       -6.651179    1.198337   -0.281174
      7          6           0       -6.914187   -0.284186   -0.306016
      8          1           0       -5.236504    1.883036    1.249881
      9          1           0       -4.526297    1.802881   -0.345604
     10          1           0       -6.734102    1.584081   -1.296311
     11          1           0       -7.420226    1.683719    0.317953
     12          8           0        5.943397   -1.006023   -0.061442
     13          8           0        7.957825   -0.539266    0.806645
     14          8           0        3.870136   -0.931920   -0.902369
     15          6           0        6.941316   -0.123902    0.333827
     16          6           0        6.501624    1.290634    0.069503
     17          6           0        5.100738    1.160471   -0.524631
     18          6           0        4.837731   -0.322052   -0.549473
     19          1           0        6.515413    1.845170    1.006424
     20          1           0        7.225621    1.765015   -0.589061
     21          1           0        5.017815    1.546215   -1.539768
     22          1           0        4.331692    1.645854    0.074496
 ---------------------------------------------------------------------

 SCF Done:  E(RHF) =  -757.686898320     A.U. after    2 cycles

 The electronic state is 1-A.
 Alpha  occ. eigenvalues --  -20.63321 -20.63269 -20.56535 -20.56521 -20.56511
 Alpha  occ. eigenvalues --  -20.56434 -11.42291 -11.42237 -11.42218 -11.42161
 Alpha  occ. eigenvalues --  -11.29750 -11.29694 -11.29682 -11.29626  -1.59395
 Alpha  occ. eigenvalues --   -1.59342  -1.51519  -1.51464  -1.47293  -1.47237
 Alpha  occ. eigenvalues --   -1.13868  -1.13813  -0.99102  -0.99046  -0.88383
 Alpha  occ. eigenvalues --   -0.88329  -0.81649  -0.81595  -0.72853  -0.72798
 Alpha  occ. eigenvalues --   -0.71850  -0.71795  -0.69173  -0.69118  -0.63508
 Alpha  occ. eigenvalues --   -0.63454  -0.63418  -0.63366  -0.62965  -0.62906
 Alpha  occ. eigenvalues --   -0.61431  -0.61375  -0.58305  -0.58252  -0.52458
 Alpha  occ. eigenvalues --   -0.52402  -0.48578  -0.48524  -0.48113  -0.48058
 Alpha  occ. eigenvalues --   -0.45247  -0.45191
 Alpha virt. eigenvalues --    0.02086   0.02337   0.03232   0.03400   0.03675
 Alpha virt. eigenvalues --    0.04515   0.06165   0.06455   0.06796   0.07087
 Alpha virt. eigenvalues --    0.09081   0.09661   0.09736   0.09960   0.10220

 Mulliken charges:
               1
     1  O   -1.258767
     2  O   -1.318701
     3  O   -1.321134
     4  C    1.890631
     5  C   -0.395936
     6  C   -0.410647
     7  C    1.892367
     8  H    0.232962
     9  H    0.223162
    10  H    0.234660
    11  H    0.231403
    12  O   -1.258914
    13  O   -1.319594
    14  O   -1.319487
    15  C    1.886664
    16  C   -0.394650
    17  C   -0.411838
    18  C    1.895690
    19  H    0.233521
    20  H    0.223437
    21  H    0.234265
    22  H    0.230906
 Sum of Mulliken charges =  -0.00000

 Dipole moment (field-independent basis, Debye):
    X=             -0.5690    Y=             10.1009    Z=             -0.9153  Tot=             10.1582

 Test job not archived.
 1\1\GINC-SE403\SP\RHF\Aug-CC-pVDZ\C8H8O6\OHZDE\08-Apr-2025\0\\#t hf au
 g-cc-pvdz iop(5/13=1,5/36=2,99/5=2) pseudo=read geom=check guess=(read
 ,tcheck) scf=(maxcycle=1)\\title\\0,1\O,0,8.046799,11.79151,7.411095\O
 ,0,8.910411,12.344224,9.405598\O,0,7.664829,10.991787,5.355468\C,0,9.0
 21567,11.710744,8.397767\C,0,10.110376,10.76938,7.959089\C,0,9.683116,
 10.296378,6.571236\C,0,8.382065,11.009501,6.313577\H,0,11.058144,11.30
 5293,7.951684\H,0,10.20297,9.973944,8.695039\H,0,9.510611,9.222863,6.5
 08114\H,0,10.392349,10.561172,5.788386\O,0,8.046799,11.79151,19.165595

 Normal termination of Gaussian 16 at Tue Apr  8 19:10:02 2025.
