 Gaussian 16, Revision C.01,

 ----------------------------------------------------------------------
 #t hf aug-cc-pvdz symm=none int=(grid=ultrafine) guess=(read,tcheck) s
 table=(opt,rrhf)
 ----------------------------------------------------------------------
 -----
 title
 -----
 Symbolic Z-matrix:
 Charge =  0 Multiplicity = 1

 SCF Done:  E(RHF) =  -557.464225147     A.U. after   12 cycles
 Normal termination of Gaussian 16 at Tue Apr  8 19:03:32 2025.
 Gaussian 16:  ES64L-G16RevC.01  3-Jul-2019

 ----------------------------------------------------------------------
 #t hf aug-cc-pvdz iop(5/13=1,5/36=2,99/5=2) pseudo=read geom=check gue
 ss=(read,tcheck) scf=(maxcycle=1)
 ----------------------------------------------------------------------
 -----
 title
 -----
 Structure from the checkpoint file:  "3B-69_13a_triazine_dimerAB_mol1.chk"
 Charge =  0 Multiplicity = 1

                         Standard orientation:
 ---------------------------------------------------------------------
 Center     Atomic      Atomic             Coordinates (Angstroms)
 Number     Number       Type             X           Y           Z
 ---------------------------------------------------------------------
      1          6           0        1.300030    0.000000    1.820250
      2          7           0        0.683876   -1.184508    1.820250
      3          1           0        2.382134    0.000000    1.820250
      4          6           0       -0.650015    1.125859    1.820250
      5          7           0        0.683876    1.184508    1.820250
      6          1           0       -1.191067    2.062988    1.820250
      7          6           0       -0.650015   -1.125859    1.820250
      8          7           0       -1.367752    0.000000    1.820250
      9          1           0       -1.191067   -2.062988    1.820250
     10          6           0        0.650015   -1.125859   -1.820250
     11          7           0        1.367752    0.000000   -1.820250
     12          1           0        1.191067   -2.062988   -1.820250
     13          6           0       -1.300030    0.000000   -1.820250
     14          7           0       -0.683876   -1.184508   -1.820250
     15          1           0       -2.382134    0.000000   -1.820250
     16          6           0        0.650015    1.125859   -1.820250
     17          7           0       -0.683876    1.184508   -1.820250
     18          1           0        1.191067    2.062988   -1.820250
 ---------------------------------------------------------------------

 SCF Done:  E(RHF) =  -558.018456763     A.U. after    2 cycles

 The electronic state is 1-AG.
 Alpha  occ. eigenvalues --  -15.52729 -15.52684 -15.52650 -15.52650 -15.52624
 Alpha  occ. eigenvalues --  -15.52624 -11.34823 -11.34823 -11.34822 -11.34822
 Alpha  occ. eigenvalues --  -11.34822 -11.34820  -1.36112  -1.36069  -1.22204
 Alpha  occ. eigenvalues --   -1.22204  -1.21973  -1.21973  -0.96241  -0.96241
 Alpha  occ. eigenvalues --   -0.96226  -0.96226  -0.79995  -0.79951  -0.78547
 Alpha  occ. eigenvalues --   -0.78466  -0.65258  -0.64672  -0.64672  -0.64411
 Alpha  occ. eigenvalues --   -0.64411  -0.63327  -0.61657  -0.61508  -0.48913
 Alpha  occ. eigenvalues --   -0.48913  -0.48655  -0.48655  -0.48410  -0.48410
 Alpha  occ. eigenvalues --   -0.46717  -0.46717
 Alpha virt. eigenvalues --    0.03460   0.04292   0.04292   0.04895   0.04895
 Alpha virt. eigenvalues --    0.05154   0.05160   0.05160   0.06859   0.06859
 Alpha virt. eigenvalues --    0.08483   0.08483   0.08529   0.09888   0.11194

 Mulliken charges:
               1
     1  C   -1.145508
     2  N    1.242171
     3  H   -0.096664
     4  C   -1.145506
     5  N    1.242171
     6  H   -0.096665
     7  C   -1.145506
     8  N    1.242171
     9  H   -0.096665
    10  C   -1.145506
    11  N    1.242171
    12  H   -0.096665
    13  C   -1.145508
    14  N    1.242171
    15  H   -0.096664
    16  C   -1.145506
    17  N    1.242171
    18  H   -0.096665
 Sum of Mulliken charges =  -0.00000

 Dipole moment (field-independent basis, Debye):
    X=             -0.0000    Y=             -0.0000    Z=             -0.0000  Tot=              0.0000

 Test job not archived.
 1\1\GINC-SE117\SP\RHF\Aug-CC-pVDZ\C6H6N6\OHZDE\08-Apr-2025\0\\#t hf au
 g-cc-pvdz iop(5/13=1,5/36=2,99/5=2) pseudo=read geom=check guess=(read
 ,tcheck) scf=(maxcycle=1)\\title\\0,1\C,0,-3.52347,8.354547,9.10125\N,
 0,-4.139624,7.170039,9.10125\H,0,-2.441366,8.354547,9.10125\C,0,-5.473
 515,9.480406,9.10125\N,0,-4.139624,9.539055,9.10125\H,0,-6.014567,10.4
 17535,9.10125\C,0,-5.473515,7.228688,9.10125\N,0,-6.191252,8.354547,9.
 10125\H,0,-6.014567,6.291559,9.10125\C,0,-4.173485,7.228688,5.46075\N,
 0,-3.455748,8.354547,5.46075\H,0,-3.632433,6.291559,5.46075\C,0,-6.123

 Normal termination of Gaussian 16 at Tue Apr  8 19:03:42 2025.
