 Gaussian 16, Revision C.01,

 ----------------------------------------------------------------------
 #t hf aug-cc-pvdz symm=none int=(grid=ultrafine) guess=(read,tcheck) s
 table=(opt,rrhf)
 ----------------------------------------------------------------------
 -----
 title
 -----
 Symbolic Z-matrix:
 Charge =  0 Multiplicity = 1

 SCF Done:  E(RHF) =  -752.855107236     A.U. after   14 cycles
 Normal termination of Gaussian 16 at Tue Apr  8 19:02:11 2025.
 Gaussian 16:  ES64L-G16RevC.01  3-Jul-2019

 ----------------------------------------------------------------------
 #t hf aug-cc-pvdz iop(5/13=1,5/36=2,99/5=2) pseudo=read geom=check gue
 ss=(read,tcheck) scf=(maxcycle=1)
 ----------------------------------------------------------------------
 -----
 title
 -----
 Structure from the checkpoint file:  "3B-69_07a_oxalic_acid_dimerAB_mol1.chk"
 Charge =  0 Multiplicity = 1

                         Standard orientation:
 ---------------------------------------------------------------------
 Center     Atomic      Atomic             Coordinates (Angstroms)
 Number     Number       Type             X           Y           Z
 ---------------------------------------------------------------------
      1          6           0       -1.743220   -0.873457    0.170322
      2          1           0       -1.307127   -2.451442   -0.777149
      3          8           0       -1.438614   -1.292724    1.271901
      4          8           0       -1.674608   -1.537049   -0.950468
      5          6           0       -2.294757    0.548999   -0.021821
      6          8           0       -2.599363    0.968266   -1.123399
      7          8           0       -2.363368    1.212591    1.098970
      8          1           0       -2.730849    2.126984    0.925651
      9          6           0        1.728991    0.869516   -0.156521
     10          1           0        2.203108    2.699533   -0.091940
     11          8           0        0.552034    1.047236   -0.411931
     12          8           0        2.623947    1.799913    0.029624
     13          6           0        2.308986   -0.545059    0.008019
     14          8           0        3.485942   -0.722778    0.263429
     15          8           0        1.414030   -1.475456   -0.178125
     16          1           0        1.834868   -2.375075   -0.056562
 ---------------------------------------------------------------------

 SCF Done:  E(RHF) =  -753.576252589     A.U. after    2 cycles

 The electronic state is 1-A.
 Alpha  occ. eigenvalues --  -20.64310 -20.64262 -20.62234 -20.62192 -20.57686
 Alpha  occ. eigenvalues --  -20.57404 -20.55284 -20.55039 -11.43950 -11.43664
 Alpha  occ. eigenvalues --  -11.41634 -11.41449  -1.60288  -1.58246  -1.58091
 Alpha  occ. eigenvalues --   -1.56071  -1.49311  -1.47783  -1.46948  -1.45481
 Alpha  occ. eigenvalues --   -1.00023  -0.97747  -0.86969  -0.84840  -0.77077
 Alpha  occ. eigenvalues --   -0.74854  -0.74494  -0.73038  -0.72099  -0.70678
 Alpha  occ. eigenvalues --   -0.69562  -0.67340  -0.65284  -0.64176  -0.63385
 Alpha  occ. eigenvalues --   -0.62160  -0.59886  -0.57815  -0.53052  -0.50785
 Alpha  occ. eigenvalues --   -0.50460  -0.50085  -0.48062  -0.47873  -0.45872
 Alpha  occ. eigenvalues --   -0.43519
 Alpha virt. eigenvalues --    0.02597   0.02831   0.04302   0.05249   0.06427
 Alpha virt. eigenvalues --    0.08263   0.08809   0.09020   0.09717   0.10590
 Alpha virt. eigenvalues --    0.11033   0.11674   0.12008   0.13152   0.13250

 Mulliken charges:
               1
     1  C    2.159298
     2  H    0.453045
     3  O   -1.262065
     4  O   -1.326483
     5  C    2.140458
     6  O   -1.249910
     7  O   -1.327614
     8  H    0.450212
     9  C    1.854583
    10  H    0.428247
    11  O   -1.049066
    12  O   -1.277843
    13  C    2.002643
    14  O   -1.207914
    15  O   -1.278742
    16  H    0.491151
 Sum of Mulliken charges =  -0.00000

 Dipole moment (field-independent basis, Debye):
    X=              0.5371    Y=              0.2109    Z=             -0.0801  Tot=              0.5825

 Test job not archived.
 1\1\GINC-SE163\SP\RHF\Aug-CC-pVDZ\C4H4O8\OHZDE\08-Apr-2025\0\\#t hf au
 g-cc-pvdz iop(5/13=1,5/36=2,99/5=2) pseudo=read geom=check guess=(read
 ,tcheck) scf=(maxcycle=1)\\title\\0,1\C,0,-1.599714,6.025105,4.897591\
 H,0,-0.099127,5.378673,5.850628\O,0,-0.967931,6.64465,4.061493\O,0,-1.
 098297,5.340779,5.888304\C,0,-3.137243,6.004895,4.888196\O,0,-3.769026
 ,5.38535,5.724294\O,0,-3.63866,6.689221,3.897483\H,0,-4.63783,6.651327
 ,3.935158\C,0,-1.953003,3.017605,2.44175\H,0,-3.453591,2.371173,1.4887
 12\O,0,-2.584787,3.63715,3.277847\O,0,-2.45442,2.333279,1.451036\C,0,-

 Normal termination of Gaussian 16 at Tue Apr  8 19:02:20 2025.
