 Gaussian 16, Revision C.01,

 ----------------------------------------------------------------------
 #t hf aug-cc-pvdz symm=none int=(grid=ultrafine) guess=(read,tcheck) s
 table=(opt,rrhf)
 ----------------------------------------------------------------------
 -----
 title
 -----
 Symbolic Z-matrix:
 Charge =  0 Multiplicity = 1

 SCF Done:  E(RHF) =  -683.548704355     A.U. after   13 cycles

 1\1\GINC-SE125\Stability\RHF\Aug-CC-pVDZ\C6H12O6\OHZDE\08-Apr-2025\0\\
 #t hf aug-cc-pvdz symm=none int=(grid=ultrafine) guess=(read,tcheck) s
 table=(opt,rrhf)\\title\\0,1\O,0,5.327155,17.887053,2.402174\C,0,4.525
 997,17.40189,3.33512\O,0,4.142801,16.236406,3.315351\C,0,4.11924,18.41
 3124,4.360262\H,0,5.576489,17.191358,1.722951\H,0,3.329155,19.031693,3
 .930313\H,0,4.950397,19.071689,4.600299\H,0,3.732132,17.924444,5.24815
 2\O,0,3.1985,14.682947,5.218189\C,0,2.397341,15.16811,6.151135\O,0,2.0
 14145,16.333594,6.131367\C,0,1.990584,14.156876,7.176277\H,0,3.447834,

 Normal termination of Gaussian 16 at Tue Apr  8 19:05:08 2025.
 Gaussian 16:  ES64L-G16RevC.01  3-Jul-2019

 ----------------------------------------------------------------------
 #t hf aug-cc-pvdz iop(5/13=1,5/36=2,99/5=2) pseudo=read geom=check gue
 ss=(read,tcheck) scf=(maxcycle=1)
 ----------------------------------------------------------------------
 -----
 title
 -----
 Structure from the checkpoint file:  "3B-69_06c_acetic_acid_trimer_mol1.chk"
 Charge =  0 Multiplicity = 1

                         Standard orientation:
 ---------------------------------------------------------------------
 Center     Atomic      Atomic             Coordinates (Angstroms)
 Number     Number       Type             X           Y           Z
 ---------------------------------------------------------------------
      1          8           0       -3.563483   -0.250707   -0.361049
      2          6           0       -2.334156   -0.698397   -0.171433
      3          8           0       -1.501974   -0.702771   -1.073118
      4          6           0       -2.093516   -1.220899    1.209888
      5          1           0       -3.700419    0.084473   -1.297215
      6          1           0       -2.523388   -2.222411    1.272353
      7          1           0       -2.602199   -0.604588    1.947146
      8          1           0       -1.030201   -1.286903    1.414865
      9          8           0        1.127370   -0.796223   -1.013526
     10          6           0        1.756906   -1.541986   -0.121816
     11          8           0        1.148239   -2.262407    0.663106
     12          6           0        3.247701   -1.443210   -0.203883
     13          1           0        0.130369   -0.888462   -0.942931
     14          1           0        3.582545   -2.064687   -1.036568
     15          1           0        3.553179   -0.422291   -0.419654
     16          1           0        3.706876   -1.809448    0.708278
     17          8           0       -0.168414    2.900753   -0.550954
     18          6           0        0.461122    2.154989    0.340757
     19          8           0       -0.147544    1.434569    1.125678
     20          6           0        1.951917    2.253766    0.258690
     21          1           0       -1.165415    2.808514   -0.480358
     22          1           0        2.286761    1.632289   -0.573995
     23          1           0        2.257396    3.274685    0.042919
     24          1           0        2.411093    1.887528    1.170851
 ---------------------------------------------------------------------

 SCF Done:  E(RHF) =  -684.232053172     A.U. after    2 cycles

 The electronic state is 1-A.
 Alpha  occ. eigenvalues --  -20.62188 -20.60908 -20.56113 -20.54919 -20.53029
 Alpha  occ. eigenvalues --  -20.50730 -11.41283 -11.39810 -11.37382 -11.25306
 Alpha  occ. eigenvalues --  -11.24232 -11.24231  -1.56662  -1.55197  -1.51840
 Alpha  occ. eigenvalues --   -1.46124  -1.43851  -1.41202  -1.03428  -1.03028
 Alpha  occ. eigenvalues --   -1.01912  -0.84760  -0.83707  -0.81212  -0.73077
 Alpha  occ. eigenvalues --   -0.70667  -0.69409  -0.68632  -0.67750  -0.66402
 Alpha  occ. eigenvalues --   -0.66146  -0.65337  -0.62953  -0.58918  -0.58300
 Alpha  occ. eigenvalues --   -0.57449  -0.57029  -0.56743  -0.55993  -0.55772
 Alpha  occ. eigenvalues --   -0.54338  -0.53723  -0.48961  -0.46660  -0.45941
 Alpha  occ. eigenvalues --   -0.44289  -0.43879  -0.41955
 Alpha virt. eigenvalues --    0.02627   0.03670   0.04358   0.04787   0.05287
 Alpha virt. eigenvalues --    0.05492   0.06337   0.07067   0.07475   0.07936
 Alpha virt. eigenvalues --    0.09289   0.10169   0.10472   0.11531   0.12003

 Mulliken charges:
               1
     1  O   -1.314569
     2  C    2.011481
     3  O   -1.403890
     4  C   -0.432098
     5  H    0.378341
     6  H    0.237803
     7  H    0.229572
     8  H    0.127767
     9  O   -1.404010
    10  C    2.029327
    11  O   -1.335314
    12  C   -0.574654
    13  H    0.874454
    14  H    0.256555
    15  H    0.104675
    16  H    0.210171
    17  O   -1.318535
    18  C    2.194423
    19  O   -1.296871
    20  C   -0.639329
    21  H    0.414432
    22  H    0.309836
    23  H    0.155709
    24  H    0.184724
 Sum of Mulliken charges =  -0.00000

 Dipole moment (field-independent basis, Debye):
    X=             -0.9736    Y=              2.7615    Z=             -1.3642  Tot=              3.2303

 Test job not archived.
 1\1\GINC-SE125\SP\RHF\Aug-CC-pVDZ\C6H12O6\OHZDE\08-Apr-2025\0\\#t hf a
 ug-cc-pvdz iop(5/13=1,5/36=2,99/5=2) pseudo=read geom=check guess=(rea
 d,tcheck) scf=(maxcycle=1)\\title\\0,1\O,0,5.327155,17.887053,2.402174
 \C,0,4.525997,17.40189,3.33512\O,0,4.142801,16.236406,3.315351\C,0,4.1
 1924,18.413124,4.360262\H,0,5.576489,17.191358,1.722951\H,0,3.329155,1
 9.031693,3.930313\H,0,4.950397,19.071689,4.600299\H,0,3.732132,17.9244
 44,5.248152\O,0,3.1985,14.682947,5.218189\C,0,2.397341,15.16811,6.1511
 35\O,0,2.014145,16.333594,6.131367\C,0,1.990584,14.156876,7.176277\H,0

 Normal termination of Gaussian 16 at Tue Apr  8 19:05:29 2025.
