 Gaussian 16, Revision C.01,

 ----------------------------------------------------------------------
 #t hf aug-cc-pvdz symm=none int=(grid=ultrafine) guess=(read,tcheck) s
 table=(opt,rrhf)
 ----------------------------------------------------------------------
 -----
 title
 -----
 Symbolic Z-matrix:
 Charge =  0 Multiplicity = 1

 SCF Done:  E(RHF) =  -610.989652003     A.U. after   15 cycles
 Normal termination of Gaussian 16 at Tue Apr  8 19:15:06 2025.
 Gaussian 16:  ES64L-G16RevC.01  3-Jul-2019

 ----------------------------------------------------------------------
 #t hf aug-cc-pvdz iop(5/13=1,5/36=2,99/5=2) pseudo=read geom=check gue
 ss=(read,tcheck) scf=(maxcycle=1)
 ----------------------------------------------------------------------
 -----
 title
 -----
 Structure from the checkpoint file:  "3B-69_23a_cyclobutylfuran_dimerAC_mol1.chk"
 Charge =  0 Multiplicity = 1

                         Standard orientation:
 ---------------------------------------------------------------------
 Center     Atomic      Atomic             Coordinates (Angstroms)
 Number     Number       Type             X           Y           Z
 ---------------------------------------------------------------------
      1          8           0       -2.890980   -1.645141    0.073967
      2          6           0       -2.566808   -0.926479   -1.065940
      3          1           0       -2.637683   -1.471301   -1.989087
      4          6           0       -2.232447    0.324170   -0.682442
      5          6           0       -1.771565    1.773744   -0.793315
      6          1           0       -0.749256    1.907263   -1.144377
      7          1           0       -2.424567    2.434308   -1.362012
      8          6           0       -1.932937    1.852322    0.783512
      9          1           0       -1.014540    2.052420    1.331428
     10          1           0       -2.707060    2.533605    1.130894
     11          6           0       -2.355072    0.394482    0.729564
     12          6           0       -2.751884   -0.814327    1.175109
     13          1           0       -2.989747   -1.258567    2.123952
     14          8           0        1.920290   -2.023033   -0.070119
     15          6           0        1.055558   -0.988900   -0.392236
     16          1           0        0.066435   -1.290068   -0.683763
     17          6           0        1.728470    0.171916   -0.241610
     18          6           0        1.991746    1.673924   -0.216560
     19          1           0        1.422453    2.229769    0.527166
     20          1           0        1.905101    2.184208   -1.174828
     21          6           0        3.471846    1.316943    0.231175
     22          1           0        3.757396    1.684965    1.214397
     23          1           0        4.244607    1.587766   -0.485472
     24          6           0        3.047371   -0.140275    0.178837
     25          6           0        3.146207   -1.480603    0.283449
     26          1           0        3.909476   -2.190491    0.543660
 ---------------------------------------------------------------------

 SCF Done:  E(RHF) =  -611.614410220     A.U. after    2 cycles

 The electronic state is 1-A.
 Alpha  occ. eigenvalues --  -20.59860 -20.59162 -11.29425 -11.29339 -11.28712
 Alpha  occ. eigenvalues --  -11.28590 -11.26048 -11.25893 -11.25887 -11.25655
 Alpha  occ. eigenvalues --  -11.23014 -11.22780 -11.22340 -11.22234  -1.51824
 Alpha  occ. eigenvalues --   -1.51112  -1.16418  -1.15929  -0.99982  -0.99512
 Alpha  occ. eigenvalues --   -0.99308  -0.98985  -0.88197  -0.87884  -0.79493
 Alpha  occ. eigenvalues --   -0.78863  -0.74889  -0.74303  -0.72201  -0.71592
 Alpha  occ. eigenvalues --   -0.65710  -0.65147  -0.60979  -0.60845  -0.59886
 Alpha  occ. eigenvalues --   -0.59752  -0.57876  -0.57302  -0.53969  -0.53342
 Alpha  occ. eigenvalues --   -0.52840  -0.52508  -0.50864  -0.50423  -0.46507
 Alpha  occ. eigenvalues --   -0.46026  -0.38447  -0.37786  -0.32556  -0.31658
 Alpha virt. eigenvalues --    0.02944   0.03090   0.03491   0.03929   0.04539
 Alpha virt. eigenvalues --    0.04741   0.05383   0.05711   0.07180   0.07790
 Alpha virt. eigenvalues --    0.07835   0.08884   0.09843   0.10448   0.11222

 Mulliken charges:
               1
     1  O   -1.565448
     2  C    1.302780
     3  H   -0.275260
     4  C   -0.317868
     5  C   -0.133013
     6  H    0.142497
     7  H    0.095444
     8  C   -0.358823
     9  H    0.128017
    10  H    0.124699
    11  C   -0.056972
    12  C    1.170419
    13  H   -0.221360
    14  O   -1.581216
    15  C    1.660888
    16  H   -0.135978
    17  C   -0.333672
    18  C   -0.422151
    19  H    0.100246
    20  H    0.095129
    21  C   -0.446347
    22  H    0.143103
    23  H    0.148415
    24  C   -0.242099
    25  C    1.189311
    26  H   -0.210741
 Sum of Mulliken charges =  -0.00000

 Dipole moment (field-independent basis, Debye):
    X=              0.5363    Y=              2.8551    Z=              0.1068  Tot=              2.9070

 Test job not archived.
 1\1\GINC-SE022\SP\RHF\Aug-CC-pVDZ\C12H12O2\OHZDE\08-Apr-2025\0\\#t hf
 aug-cc-pvdz iop(5/13=1,5/36=2,99/5=2) pseudo=read geom=check guess=(re
 ad,tcheck) scf=(maxcycle=1)\\title\\0,1\O,0,-0.126301,16.441388,12.924
 526\C,0,-0.701266,17.4636,12.185981\H,0,-1.568703,17.187494,11.615566\
 C,0,0.02543,18.581936,12.396288\C,0,0.473934,20.034432,12.273536\H,0,0
 .824753,20.32698,11.284835\H,0,-0.238268,20.779526,12.625356\C,0,1.633
 898,19.669284,13.293216\H,0,2.642979,19.773757,12.900092\H,0,1.574915,
 20.176469,14.254138\C,0,1.077037,18.256376,13.291762\C,0,0.973511,16.9

 Normal termination of Gaussian 16 at Tue Apr  8 19:15:27 2025.
