 Gaussian 16, Revision C.01,

 ----------------------------------------------------------------------
 #t hf aug-cc-pvdz symm=none int=(grid=ultrafine) guess=(read,tcheck) s
 table=(opt,rrhf)
 ----------------------------------------------------------------------
 -----
 title
 -----
 Symbolic Z-matrix:
 Charge =  0 Multiplicity = 1

 SCF Done:  E(RHF) =  -781.253760092     A.U. after   13 cycles
 Normal termination of Gaussian 16 at Tue Apr  8 19:08:48 2025.
 Gaussian 16:  ES64L-G16RevC.01  3-Jul-2019

 ----------------------------------------------------------------------
 #t hf aug-cc-pvdz iop(5/13=1,5/36=2,99/5=2) pseudo=read geom=check gue
 ss=(read,tcheck) scf=(maxcycle=1)
 ----------------------------------------------------------------------
 -----
 title
 -----
 Structure from the checkpoint file:  "3B-69_16a_triazolidinedione_dimerAC_mol1.chk"
 Charge =  0 Multiplicity = 1

                         Standard orientation:
 ---------------------------------------------------------------------
 Center     Atomic      Atomic             Coordinates (Angstroms)
 Number     Number       Type             X           Y           Z
 ---------------------------------------------------------------------
      1          7           0        3.294806   -0.679029    1.109653
      2          7           0        2.781014    0.630017    1.123013
      3          6           0        3.196522    1.258761   -0.017853
      4          7           0        3.779789    0.280191   -0.794844
      5          6           0        3.836486   -0.916577   -0.112217
      6          8           0        3.066251    2.440309   -0.323449
      7          8           0        4.291714   -1.981695   -0.533824
      8          1           0        2.761414   -1.419388    1.582521
      9          1           0        2.791796    1.125960    2.014106
     10          1           0        4.212051    0.449592   -1.716297
     11          7           0       -3.621205   -0.967354    0.944019
     12          7           0       -4.134997    0.341692    0.957379
     13          6           0       -3.719489    0.970437   -0.183487
     14          7           0       -3.136223   -0.008133   -0.960477
     15          6           0       -3.079525   -1.204902   -0.277851
     16          8           0       -3.849761    2.151984   -0.489083
     17          8           0       -2.624297   -2.270019   -0.699458
     18          1           0       -4.154597   -1.707712    1.416887
     19          1           0       -4.124215    0.837636    1.848473
     20          1           0       -2.703960    0.161268   -1.881931
 ---------------------------------------------------------------------

 SCF Done:  E(RHF) =  -782.024892911     A.U. after    2 cycles

 The electronic state is 1-A.
 Alpha  occ. eigenvalues --  -20.53836 -20.53694 -20.53663 -20.53273 -15.60569
 Alpha  occ. eigenvalues --  -15.60259 -15.60103 -15.59771 -15.58414 -15.58142
 Alpha  occ. eigenvalues --  -11.42646 -11.42562 -11.42441 -11.42176  -1.50306
 Alpha  occ. eigenvalues --   -1.50025  -1.47682  -1.47371  -1.40902  -1.40587
 Alpha  occ. eigenvalues --   -1.27257  -1.26972  -1.17981  -1.17664  -0.95872
 Alpha  occ. eigenvalues --   -0.95577  -0.92555  -0.92264  -0.82994  -0.82681
 Alpha  occ. eigenvalues --   -0.78955  -0.78642  -0.75674  -0.75396  -0.72355
 Alpha  occ. eigenvalues --   -0.72046  -0.66853  -0.66580  -0.64927  -0.64615
 Alpha  occ. eigenvalues --   -0.59641  -0.59341  -0.59001  -0.58697  -0.48969
 Alpha  occ. eigenvalues --   -0.48685  -0.46241  -0.45988  -0.45963  -0.45682
 Alpha  occ. eigenvalues --   -0.43572  -0.43249
 Alpha virt. eigenvalues --    0.01438   0.02454   0.04017   0.04379   0.04925
 Alpha virt. eigenvalues --    0.05308   0.07710   0.08410   0.08863   0.09274
 Alpha virt. eigenvalues --    0.09427   0.09766   0.09857   0.10319   0.10801

 Mulliken charges:
               1
     1  N    0.187531
     2  N    0.133525
     3  C    0.432992
     4  N    0.493747
     5  C    0.461651
     6  O   -1.126103
     7  O   -1.132278
     8  H    0.195037
     9  H    0.200280
    10  H    0.154274
    11  N    0.160038
    12  N    0.269838
    13  C    0.465958
    14  N    0.501659
    15  C    0.307088
    16  O   -1.114552
    17  O   -1.121112
    18  H    0.194080
    19  H    0.175811
    20  H    0.160537
 Sum of Mulliken charges =  -0.00000

 Dipole moment (field-independent basis, Debye):
    X=             -1.8585    Y=             -0.6281    Z=              4.8436  Tot=              5.2258

 Test job not archived.
 1\1\GINC-SE046\SP\RHF\Aug-CC-pVDZ\C4H6N6O4\OHZDE\08-Apr-2025\0\\#t hf
 aug-cc-pvdz iop(5/13=1,5/36=2,99/5=2) pseudo=read geom=check guess=(re
 ad,tcheck) scf=(maxcycle=1)\\title\\0,1\N,0,1.296199,16.90365,2.170497
 \N,0,1.754569,15.90098,1.297392\C,0,1.34065,16.21938,0.033733\N,0,0.81
 7392,17.492314,0.119488\C,0,0.794265,17.923919,1.428927\O,0,1.42888,15
 .54291,-0.98657\O,0,0.394001,19.016772,1.835033\H,0,1.848494,17.110082
 ,3.01228\H,0,1.701831,14.936932,1.625956\H,0,0.400617,18.004684,-0.673
 229\N,0,8.220199,16.90365,2.170497\N,0,8.678569,15.90098,1.297392\C,0,

 Normal termination of Gaussian 16 at Tue Apr  8 19:08:59 2025.
