 Gaussian 16, Revision C.01,

 ----------------------------------------------------------------------
 #t hf aug-cc-pvdz symm=none int=(grid=ultrafine) guess=(read,tcheck) s
 table=(opt,rrhf)
 ----------------------------------------------------------------------
 -----
 title
 -----
 Symbolic Z-matrix:
 Charge =  0 Multiplicity = 1

 SCF Done:  E(RHF) =  -227.768350392     A.U. after   14 cycles
 Normal termination of Gaussian 16 at Tue Apr  8 18:55:38 2025.
 Gaussian 16:  ES64L-G16RevC.01  3-Jul-2019

 ----------------------------------------------------------------------
 #t hf aug-cc-pvdz iop(5/13=1,5/36=2,99/5=2) pseudo=read geom=check gue
 ss=(read,tcheck) scf=(maxcycle=1)
 ----------------------------------------------------------------------
 -----
 title
 -----
 Structure from the checkpoint file:  "3B-69_02b_formaldehyde_dimerAC_mol1.chk"
 Charge =  0 Multiplicity = 1

                         Standard orientation:
 ---------------------------------------------------------------------
 Center     Atomic      Atomic             Coordinates (Angstroms)
 Number     Number       Type             X           Y           Z
 ---------------------------------------------------------------------
      1          8           0       -1.243954   -0.565405   -0.026527
      2          6           0       -2.172530    0.212653   -0.007834
      3          1           0       -2.357692    0.902486   -0.844190
      4          1           0       -2.866365    0.271450    0.840772
      5          8           0        2.139617   -0.430967   -0.044486
      6          6           0        1.467423    0.571059    0.065400
      7          1           0        1.155284    1.149968   -0.816121
      8          1           0        1.134107    0.944796    1.042241
 ---------------------------------------------------------------------

 SCF Done:  E(RHF) =  -227.993432028     A.U. after    2 cycles

 The electronic state is 1-A.
 Alpha  occ. eigenvalues --  -20.57823 -20.54841 -11.36602 -11.33996  -1.49741
 Alpha  occ. eigenvalues --   -1.46719  -0.89240  -0.86580  -0.71183  -0.68409
 Alpha  occ. eigenvalues --   -0.66533  -0.63652  -0.54855  -0.51301  -0.44860
 Alpha  occ. eigenvalues --   -0.42032
 Alpha virt. eigenvalues --    0.02562   0.03924   0.04281   0.06381   0.06709
 Alpha virt. eigenvalues --    0.09373   0.10815   0.11335   0.14522   0.15011
 Alpha virt. eigenvalues --    0.15214   0.16824   0.17367   0.18961   0.21708

 Mulliken charges:
               1
     1  O   -0.797304
     2  C    0.617847
     3  H    0.100839
     4  H    0.097043
     5  O   -0.829722
     6  C    0.620830
     7  H    0.092048
     8  H    0.098419
 Sum of Mulliken charges =  -0.00000

 Dipole moment (field-independent basis, Debye):
    X=             -3.8537    Y=              3.8029    Z=              0.2772  Tot=              5.4212

 Test job not archived.
 1\1\GINC-SE232\SP\RHF\Aug-CC-pVDZ\C2H4O2\OHZDE\08-Apr-2025\0\\#t hf au
 g-cc-pvdz iop(5/13=1,5/36=2,99/5=2) pseudo=read geom=check guess=(read
 ,tcheck) scf=(maxcycle=1)\\title\\0,1\O,0,9.239955,15.408112,2.838485\
 C,0,8.89538,15.312746,1.680837\H,0,8.218033,14.511974,1.349761\H,0,9.2
 44063,16.01186,0.909698\O,0,11.037562,13.610505,5.075485\C,0,10.942196
 ,13.26593,3.917837\H,0,10.141424,12.588583,3.586761\H,0,11.64131,13.61
 4613,3.146698\\Version=ES64L-G16RevC.01\State=1-A\HF=-227.993432\RMSD=
 6.409e-03\Dipole=-0.459267,-0.2840129,-2.0633953\Quadrupole=0.4758996,

 Normal termination of Gaussian 16 at Tue Apr  8 18:55:40 2025.
