 Gaussian 16, Revision C.01,

 ----------------------------------------------------------------------
 #t hf aug-cc-pvdz symm=none int=(grid=ultrafine) guess=(read,tcheck) s
 table=(opt,rrhf)
 ----------------------------------------------------------------------
 -----
 title
 -----
 Symbolic Z-matrix:
 Charge =  0 Multiplicity = 1

 SCF Done:  E(RHF) =  -416.023575074     A.U. after   14 cycles
 Normal termination of Gaussian 16 at Tue Apr  8 19:01:40 2025.
 Gaussian 16:  ES64L-G16RevC.01  3-Jul-2019

 ----------------------------------------------------------------------
 #t hf aug-cc-pvdz iop(5/13=1,5/36=2,99/5=2) pseudo=read geom=check gue
 ss=(read,tcheck) scf=(maxcycle=1)
 ----------------------------------------------------------------------
 -----
 title
 -----
 Structure from the checkpoint file:  "3B-69_09a_acetamide_dimerAC_mol1.chk"
 Charge =  0 Multiplicity = 1

                         Standard orientation:
 ---------------------------------------------------------------------
 Center     Atomic      Atomic             Coordinates (Angstroms)
 Number     Number       Type             X           Y           Z
 ---------------------------------------------------------------------
      1          6           0       -1.568528    1.215529   -0.519852
      2          6           0       -2.324032   -0.017239   -0.082493
      3          8           0       -3.572596   -0.019141   -0.044178
      4          7           0       -1.597982   -1.068852    0.294763
      5          1           0       -2.034099   -1.863210    0.767317
      6          1           0       -0.577524   -1.032597    0.244513
      7          1           0       -1.343523    1.803967    0.371908
      8          1           0       -0.627089    0.976769   -1.010193
      9          1           0       -2.182876    1.817753   -1.182610
     10          6           0        3.381650   -0.089859   -0.632567
     11          6           0        2.051687   -0.112203    0.083314
     12          8           0        1.248294   -1.052113   -0.094210
     13          7           0        1.805383    0.885000    0.932008
     14          1           0        1.013822    0.839584    1.576896
     15          1           0        2.484532    1.640414    1.047237
     16          1           0        4.116711   -0.576145    0.011896
     17          1           0        3.730202    0.920634   -0.835451
     18          1           0        3.317784   -0.647540   -1.562223
 ---------------------------------------------------------------------

 SCF Done:  E(RHF) =  -416.452157622     A.U. after    2 cycles

 The electronic state is 1-A.
 Alpha  occ. eigenvalues --  -20.53101 -20.47502 -15.56445 -15.49876 -11.39076
 Alpha  occ. eigenvalues --  -11.33563 -11.27007 -11.23353  -1.46817  -1.40819
 Alpha  occ. eigenvalues --   -1.26146  -1.20162  -1.03603  -0.99464  -0.86675
 Alpha  occ. eigenvalues --   -0.81129  -0.78627  -0.74047  -0.69577  -0.65821
 Alpha  occ. eigenvalues --   -0.65105  -0.61193  -0.60897  -0.59514  -0.56948
 Alpha  occ. eigenvalues --   -0.56120  -0.55053  -0.51939  -0.46052  -0.45064
 Alpha  occ. eigenvalues --   -0.39903  -0.39302
 Alpha virt. eigenvalues --    0.01477   0.03374   0.03861   0.04479   0.05486
 Alpha virt. eigenvalues --    0.05703   0.05986   0.06853   0.08342   0.09388
 Alpha virt. eigenvalues --    0.10214   0.11600   0.12159   0.13045   0.13686

 Mulliken charges:
               1
     1  C   -0.302981
     2  C    0.263832
     3  O   -1.309025
     4  N    0.843137
     5  H    0.139759
     6  H   -0.100630
     7  H    0.250753
     8  H    0.148192
     9  H    0.123994
    10  C   -0.311049
    11  C    0.205982
    12  O   -1.439737
    13  N    0.770124
    14  H    0.098481
    15  H    0.066999
    16  H    0.265549
    17  H    0.118545
    18  H    0.168077
 Sum of Mulliken charges =  -0.00000

 Dipole moment (field-independent basis, Debye):
    X=              8.1434    Y=              2.7546    Z=              1.5157  Tot=              8.7293

 Test job not archived.
 1\1\GINC-SE423\SP\RHF\Aug-CC-pVDZ\C4H10N2O2\OHZDE\08-Apr-2025\0\\#t hf
  aug-cc-pvdz iop(5/13=1,5/36=2,99/5=2) pseudo=read geom=check guess=(r
 ead,tcheck) scf=(maxcycle=1)\\title\\0,1\C,0,-1.004918,11.251778,13.36
 389\C,0,-1.828837,9.986003,13.391436\O,0,-2.955857,9.947587,12.854098\
 N,0,-1.315604,8.944986,14.045834\H,0,-1.888595,8.125309,14.25636\H,0,-
 0.387165,9.0116,14.468606\H,0,-1.234988,11.820456,14.267104\H,0,0.0649
 3,11.054024,13.355768\H,0,-1.271188,11.855156,12.501115\C,0,3.495866,1
 0.0911,15.512557\C,0,1.987714,10.010453,15.540103\O,0,1.390934,9.05363

 Normal termination of Gaussian 16 at Tue Apr  8 19:01:47 2025.
