 Gaussian 16, Revision C.01,

 ----------------------------------------------------------------------
 #t hf aug-cc-pvdz symm=none int=(grid=ultrafine) guess=(read,tcheck) s
 table=(opt,rrhf)
 ----------------------------------------------------------------------
 -----
 title
 -----
 Symbolic Z-matrix:
 Charge =  0 Multiplicity = 1

 SCF Done:  E(RHF) =  -152.079570858     A.U. after   11 cycles
 Normal termination of Gaussian 16 at Tue Apr  8 18:52:48 2025.
 Gaussian 16:  ES64L-G16RevC.01  3-Jul-2019

 ----------------------------------------------------------------------
 #t hf aug-cc-pvdz iop(5/13=1,5/36=2,99/5=2) pseudo=read geom=check gue
 ss=(read,tcheck) scf=(maxcycle=1)
 ----------------------------------------------------------------------
 -----
 title
 -----
 Structure from the checkpoint file:  "3B-69_01b_water_dimerAB_mol1.chk"
 Charge =  0 Multiplicity = 1

                         Standard orientation:
 ---------------------------------------------------------------------
 Center     Atomic      Atomic             Coordinates (Angstroms)
 Number     Number       Type             X           Y           Z
 ---------------------------------------------------------------------
      1          8           0       -1.321829   -0.035474   -0.086412
      2          1           0       -1.626564    0.892730    0.052094
      3          1           0       -1.650936   -0.587702    0.662310
      4          8           0        1.458520   -0.042666   -0.086711
      5          1           0        0.473517   -0.046101   -0.104409
      6          1           0        1.710451    0.366197    0.774995
 ---------------------------------------------------------------------

 SCF Done:  E(RHF) =  -152.236577542     A.U. after    2 cycles

 The electronic state is 1-A.
 Alpha  occ. eigenvalues --  -20.59354 -20.52470  -1.46127  -1.39295  -0.73661
 Alpha  occ. eigenvalues --   -0.68234  -0.59776  -0.55729  -0.50883  -0.46344
 Alpha virt. eigenvalues --    0.02435   0.05022   0.05580   0.08559   0.15853
 Alpha virt. eigenvalues --    0.20078   0.20594   0.21395   0.22391   0.23985
 Alpha virt. eigenvalues --    0.25936   0.28035   0.28371   0.32821   0.34540

 Mulliken charges:
               1
     1  O   -0.912869
     2  H    0.423842
     3  H    0.425721
     4  O   -0.906587
     5  H    0.617765
     6  H    0.352128
 Sum of Mulliken charges =  -0.00000

 Dipole moment (field-independent basis, Debye):
    X=             -3.0060    Y=              1.2566    Z=              2.7930  Tot=              4.2914

 Test job not archived.
 1\1\GINC-SE340\SP\RHF\Aug-CC-pVDZ\H4O2\OHZDE\08-Apr-2025\0\\#t hf aug-
 cc-pvdz iop(5/13=1,5/36=2,99/5=2) pseudo=read geom=check guess=(read,t
 check) scf=(maxcycle=1)\\title\\0,1\O,0,-0.084889,0.056804,0.055205\H,
 0,0.710375,0.517729,0.413971\H,0,-0.890958,0.498588,0.414274\O,0,-0.01
 7366,-2.585019,0.919269\H,0,-0.039968,-1.654902,0.595342\H,0,0.035574,
 -2.525985,1.902574\\Version=ES64L-G16RevC.01\State=1-A\HF=-152.2365775
 \RMSD=6.731e-03\Dipole=0.0025284,1.4998046,0.7753396\Quadrupole=0.5127
 718,-0.5848637,0.0720918,-0.0789435,0.1251672,0.0231774\PG=C01 [X(H4O2

 Normal termination of Gaussian 16 at Tue Apr  8 18:52:49 2025.
