 Gaussian 16, Revision C.01,

 ----------------------------------------------------------------------
 #t hf aug-cc-pvdz symm=none int=(grid=ultrafine) guess=(read,tcheck) s
 table=(opt,rrhf)
 ----------------------------------------------------------------------
 -----
 title
 -----
 Symbolic Z-matrix:
 Charge =  0 Multiplicity = 1

 SCF Done:  E(RHF) =  -378.471232544     A.U. after   13 cycles
 Normal termination of Gaussian 16 at Tue Apr  8 19:06:54 2025.
 Gaussian 16:  ES64L-G16RevC.01  3-Jul-2019

 ----------------------------------------------------------------------
 #t hf aug-cc-pvdz iop(5/13=1,5/36=2,99/5=2) pseudo=read geom=check gue
 ss=(read,tcheck) scf=(maxcycle=1)
 ----------------------------------------------------------------------
 -----
 title
 -----
 Structure from the checkpoint file:  "3B-69_18a_succinic_anhydride_dimerBC_mol3.chk"
 Charge =  0 Multiplicity = 1

                         Standard orientation:
 ---------------------------------------------------------------------
 Center     Atomic      Atomic             Coordinates (Angstroms)
 Number     Number       Type             X           Y           Z
 ---------------------------------------------------------------------
      1          8           0       -0.001720   -0.990953   -0.023203
      2          8           0        2.224252   -0.720638    0.013409
      3          8           0       -2.223681   -0.721965    0.016766
      4          6           0        1.144903   -0.206704   -0.002537
      5          6           0        0.763701    1.248900    0.001025
      6          6           0       -0.763504    1.253525   -0.005349
      7          6           0       -1.145193   -0.203176   -0.004110
      8          1           0        1.185844    1.721876    0.886243
      9          1           0        1.217106    1.731640   -0.861703
     10          1           0       -1.196507    1.726531   -0.885663
     11          1           0       -1.196697    1.733130    0.871180
 ---------------------------------------------------------------------

 SCF Done:  E(RHF) =  -378.843837265     A.U. after    2 cycles

 The electronic state is 1-A.
 Alpha  occ. eigenvalues --  -20.63382 -20.56602 -20.56568 -11.42343 -11.42273
 Alpha  occ. eigenvalues --  -11.29766 -11.29692  -1.59457  -1.51580  -1.47353
 Alpha  occ. eigenvalues --   -1.13890  -0.99133  -0.88434  -0.81682  -0.72886
 Alpha  occ. eigenvalues --   -0.71907  -0.69224  -0.63548  -0.63459  -0.63004
 Alpha  occ. eigenvalues --   -0.61463  -0.58344  -0.52496  -0.48632  -0.48179
 Alpha  occ. eigenvalues --   -0.45302
 Alpha virt. eigenvalues --    0.02289   0.03417   0.04042   0.06274   0.06860
 Alpha virt. eigenvalues --    0.09505   0.09639   0.10159   0.10831   0.13149
 Alpha virt. eigenvalues --    0.13615   0.13980   0.14001   0.14754   0.14982

 Mulliken charges:
               1
     1  O   -1.257304
     2  O   -1.318680
     3  O   -1.320048
     4  C    1.886289
     5  C   -0.394725
     6  C   -0.410501
     7  C    1.891091
     8  H    0.233718
     9  H    0.223644
    10  H    0.235021
    11  H    0.231493
 Sum of Mulliken charges =  -0.00000

 Dipole moment (field-independent basis, Debye):
    X=              0.0126    Y=              5.1065    Z=             -0.0441  Tot=              5.1067

 Test job not archived.
 1\1\GINC-SE398\SP\RHF\Aug-CC-pVDZ\C4H4O3\OHZDE\08-Apr-2025\0\\#t hf au
 g-cc-pvdz iop(5/13=1,5/36=2,99/5=2) pseudo=read geom=check guess=(read
 ,tcheck) scf=(maxcycle=1)\\title\\0,1\O,0,8.046799,4.76221,7.411095\O,
 0,8.910411,5.314924,9.405598\O,0,7.664829,3.962487,5.355468\C,0,9.0215
 67,4.681444,8.397767\C,0,10.110376,3.74008,7.959089\C,0,9.683116,3.267
 078,6.571236\C,0,8.382065,3.980201,6.313577\H,0,11.058144,4.275993,7.9
 51684\H,0,10.20297,2.944644,8.695039\H,0,9.510611,2.193563,6.508114\H,
 0,10.392349,3.531872,5.788386\\Version=ES64L-G16RevC.01\State=1-A\HF=-

 Normal termination of Gaussian 16 at Tue Apr  8 19:06:58 2025.
