 Gaussian 16, Revision C.01,

 ----------------------------------------------------------------------
 #t hf aug-cc-pvdz symm=none int=(grid=ultrafine) guess=(read,tcheck) s
 table=(opt,rrhf)
 ----------------------------------------------------------------------
 -----
 title
 -----
 Symbolic Z-matrix:
 Charge =  0 Multiplicity = 1

 SCF Done:  E(RHF) =  -624.041932553     A.U. after   13 cycles
 Normal termination of Gaussian 16 at Tue Apr  8 19:06:46 2025.
 Gaussian 16:  ES64L-G16RevC.01  3-Jul-2019

 ----------------------------------------------------------------------
 #t hf aug-cc-pvdz iop(5/13=1,5/36=2,99/5=2) pseudo=read geom=check gue
 ss=(read,tcheck) scf=(maxcycle=1)
 ----------------------------------------------------------------------
 -----
 title
 -----
 Structure from the checkpoint file:  "3B-69_09c_acetamide_trimer_mol1.chk"
 Charge =  0 Multiplicity = 1

                         Standard orientation:
 ---------------------------------------------------------------------
 Center     Atomic      Atomic             Coordinates (Angstroms)
 Number     Number       Type             X           Y           Z
 ---------------------------------------------------------------------
      1          6           0        4.932764   -1.380337    0.473244
      2          6           0        3.801533   -0.618548   -0.176202
      3          8           0        2.672066   -1.137640   -0.299615
      4          7           0        4.080926    0.598631   -0.640720
      5          1           0        3.420415    1.092525   -1.244297
      6          1           0        5.015808    0.993260   -0.516477
      7          1           0        5.478885   -1.903917   -0.313991
      8          1           0        5.633396   -0.727980    0.990246
      9          1           0        4.540089   -2.117505    1.167317
     10          6           0       -2.970287   -1.395362    0.648336
     11          6           0       -4.101517   -0.633572   -0.001110
     12          8           0       -5.230985   -1.152664   -0.124523
     13          7           0       -3.822125    0.583607   -0.465629
     14          1           0       -4.482636    1.077500   -1.069206
     15          1           0       -2.887244    0.978236   -0.341384
     16          1           0       -2.424166   -1.918941   -0.138899
     17          1           0       -2.269655   -0.743004    1.165338
     18          1           0       -3.362963   -2.132530    1.342409
     19          6           0        0.983105    1.847544    0.922654
     20          6           0       -0.148910    1.249348    0.121101
     21          8           0       -1.277769    1.784166    0.115563
     22          7           0        0.129154    0.164552   -0.600884
     23          1           0       -0.531841   -0.183037   -1.298577
     24          1           0        1.063570   -0.248839   -0.567013
     25          1           0        1.529922    2.531486    0.270476
     26          1           0        1.682927    1.096288    1.282668
     27          1           0        0.591181    2.413603    1.762488
 ---------------------------------------------------------------------

 SCF Done:  E(RHF) =  -624.684531765     A.U. after    2 cycles

 The electronic state is 1-A.
 Alpha  occ. eigenvalues --  -20.54177 -20.50806 -20.46432 -15.57446 -15.52493
 Alpha  occ. eigenvalues --  -15.48720 -11.40082 -11.36650 -11.32436 -11.27784
 Alpha  occ. eigenvalues --  -11.25403 -11.22011  -1.47903  -1.44599  -1.39764
 Alpha  occ. eigenvalues --   -1.27150  -1.22876  -1.19003  -1.04444  -1.01751
 Alpha  occ. eigenvalues --   -0.98172  -0.87653  -0.83749  -0.79944  -0.79594
 Alpha  occ. eigenvalues --   -0.76278  -0.72654  -0.70904  -0.67820  -0.66284
 Alpha  occ. eigenvalues --   -0.64400  -0.63281  -0.62216  -0.60328  -0.59661
 Alpha  occ. eigenvalues --   -0.58961  -0.58218  -0.57022  -0.55022  -0.54886
 Alpha  occ. eigenvalues --   -0.53525  -0.50719  -0.47149  -0.46187  -0.43317
 Alpha  occ. eigenvalues --   -0.42891  -0.38834  -0.38218
 Alpha virt. eigenvalues --    0.00780   0.02776   0.03277   0.03670   0.04553
 Alpha virt. eigenvalues --    0.04833   0.05004   0.05585   0.06216   0.06667
 Alpha virt. eigenvalues --    0.07592   0.08402   0.09042   0.09382   0.10260

 Mulliken charges:
               1
     1  C   -0.260253
     2  C    0.184962
     3  O   -1.469746
     4  N    0.784590
     5  H    0.103433
     6  H    0.064770
     7  H    0.268861
     8  H    0.113978
     9  H    0.177246
    10  C   -0.304881
    11  C    0.266548
    12  O   -1.316114
    13  N    0.848661
    14  H    0.136044
    15  H   -0.110484
    16  H    0.256234
    17  H    0.160641
    18  H    0.118299
    19  C   -0.273869
    20  C    0.161131
    21  O   -1.482906
    22  N    1.058764
    23  H    0.207492
    24  H   -0.245103
    25  H    0.269505
    26  H    0.145742
    27  H    0.136457
 Sum of Mulliken charges =  -0.00000

 Dipole moment (field-independent basis, Debye):
    X=             13.8737    Y=              2.2177    Z=             -0.6938  Tot=             14.0670

 Test job not archived.
 1\1\GINC-SE179\SP\RHF\Aug-CC-pVDZ\C6H15N3O3\OHZDE\08-Apr-2025\0\\#t hf
  aug-cc-pvdz iop(5/13=1,5/36=2,99/5=2) pseudo=read geom=check guess=(r
 ead,tcheck) scf=(maxcycle=1)\\title\\0,1\C,0,7.996134,3.456191,13.3638
 9\C,0,9.504286,3.375543,13.391436\O,0,10.101066,2.418723,12.854098\N,0
 ,10.149217,4.340524,14.045834\H,0,11.145574,4.254138,14.25636\H,0,9.62
 7308,5.111269,14.468606\H,0,7.618679,2.972605,14.267104\H,0,7.632469,4
 .481583,13.355768\H,0,7.606727,2.923905,12.501115\C,0,13.742134,0.1387
 36,9.066557\C,0,15.250286,0.058089,9.094103\O,0,15.847066,-0.898732,8.

 Normal termination of Gaussian 16 at Tue Apr  8 19:07:05 2025.
