 Gaussian 16, Revision C.01,

 ----------------------------------------------------------------------
 #t hf aug-cc-pvdz symm=none int=(grid=ultrafine) guess=(read,tcheck) s
 table=(opt,rrhf)
 ----------------------------------------------------------------------
 -----
 title
 -----
 Symbolic Z-matrix:
 Charge =  0 Multiplicity = 1

 SCF Done:  E(RHF) =  -781.258266901     A.U. after   13 cycles
 Normal termination of Gaussian 16 at Tue Apr  8 19:09:26 2025.
 Gaussian 16:  ES64L-G16RevC.01  3-Jul-2019

 ----------------------------------------------------------------------
 #t hf aug-cc-pvdz iop(5/13=1,5/36=2,99/5=2) pseudo=read geom=check gue
 ss=(read,tcheck) scf=(maxcycle=1)
 ----------------------------------------------------------------------
 -----
 title
 -----
 Structure from the checkpoint file:  "3B-69_16b_triazolidinedione_dimerAB_mol1.chk"
 Charge =  0 Multiplicity = 1

                         Standard orientation:
 ---------------------------------------------------------------------
 Center     Atomic      Atomic             Coordinates (Angstroms)
 Number     Number       Type             X           Y           Z
 ---------------------------------------------------------------------
      1          7           0       -4.127250    0.258922   -0.024057
      2          7           0       -3.237689    1.139769   -0.664805
      3          6           0       -1.968449    0.664809   -0.483186
      4          7           0       -2.112293   -0.584207    0.083190
      5          6           0       -3.437535   -0.845134    0.360862
      6          8           0       -0.906677    1.205161   -0.778267
      7          8           0       -3.894167   -1.875281    0.860607
      8          1           0       -5.076639    0.158850   -0.404699
      9          1           0       -3.428033    2.138100   -0.579784
     10          1           0       -1.325522   -1.191461    0.360419
     11          7           0        1.505692    0.074111    0.170843
     12          7           0        2.145805   -1.033977   -0.412389
     13          6           0        3.494259   -0.877346   -0.249035
     14          7           0        3.667098    0.398678    0.244324
     15          6           0        2.449233    0.993898    0.497239
     16          8           0        4.387736   -1.678864   -0.505313
     17          8           0        2.264482    2.131576    0.934296
     18          1           0        0.607660    0.383525   -0.221640
     19          1           0        1.715624   -1.947967   -0.272069
     20          1           0        4.581339    0.807780    0.492163
 ---------------------------------------------------------------------

 SCF Done:  E(RHF) =  -782.028601873     A.U. after    2 cycles

 The electronic state is 1-A.
 Alpha  occ. eigenvalues --  -20.57005 -20.55179 -20.52551 -20.51741 -15.62447
 Alpha  occ. eigenvalues --  -15.61807 -15.60725 -15.58806 -15.57217 -15.56877
 Alpha  occ. eigenvalues --  -11.45486 -11.44193 -11.41249 -11.40562  -1.53137
 Alpha  occ. eigenvalues --   -1.49884  -1.48679  -1.46020  -1.42913  -1.39049
 Alpha  occ. eigenvalues --   -1.29406  -1.25590  -1.19827  -1.15970  -0.97925
 Alpha  occ. eigenvalues --   -0.94761  -0.94124  -0.90938  -0.85001  -0.81225
 Alpha  occ. eigenvalues --   -0.80720  -0.77791  -0.77335  -0.74518  -0.74063
 Alpha  occ. eigenvalues --   -0.70842  -0.69315  -0.66894  -0.65279  -0.63302
 Alpha  occ. eigenvalues --   -0.61922  -0.60849  -0.57891  -0.57235  -0.51931
 Alpha  occ. eigenvalues --   -0.48855  -0.48141  -0.47431  -0.45364  -0.44781
 Alpha  occ. eigenvalues --   -0.44282  -0.41555
 Alpha virt. eigenvalues --    0.01110   0.03039   0.03811   0.05058   0.05855
 Alpha virt. eigenvalues --    0.06441   0.07697   0.08608   0.08781   0.09190
 Alpha virt. eigenvalues --    0.09487   0.10123   0.10839   0.11082   0.12001

 Mulliken charges:
               1
     1  N    0.325715
     2  N    0.248272
     3  C    0.192254
     4  N    0.547909
     5  C    0.438436
     6  O   -1.284029
     7  O   -1.144130
     8  H    0.196763
     9  H    0.220013
    10  H    0.162426
    11  N    0.296825
    12  N    0.286250
    13  C    0.334656
    14  N    0.552074
    15  C    0.397396
    16  O   -1.163198
    17  O   -1.165696
    18  H    0.221284
    19  H    0.191147
    20  H    0.145631
 Sum of Mulliken charges =  -0.00000

 Dipole moment (field-independent basis, Debye):
    X=             -5.6811    Y=              0.9355    Z=             -1.1040  Tot=              5.8625

 Test job not archived.
 1\1\GINC-SE343\SP\RHF\Aug-CC-pVDZ\C4H6N6O4\OHZDE\08-Apr-2025\0\\#t hf
 aug-cc-pvdz iop(5/13=1,5/36=2,99/5=2) pseudo=read geom=check guess=(re
 ad,tcheck) scf=(maxcycle=1)\\title\\0,1\N,0,-0.050072,2.63415,3.305578
 \N,0,-0.508443,1.631479,4.178684\C,0,-0.094523,1.94988,5.442343\N,0,0.
 428735,3.222814,5.356588\C,0,0.451861,3.654419,4.047148\O,0,-0.182753,
 1.27341,6.462645\O,0,0.852126,4.747272,3.641043\H,0,-0.602367,2.840582
 ,2.463796\H,0,-0.455705,0.667432,3.850119\H,0,0.845509,3.735184,6.1493
 04\N,0,1.196054,2.12235,8.781654\N,0,0.737684,3.125021,9.654759\C,0,1.

 Normal termination of Gaussian 16 at Tue Apr  8 19:09:39 2025.
