 Gaussian 16, Revision C.01,

 ----------------------------------------------------------------------
 #t hf aug-cc-pvdz symm=none int=(grid=ultrafine) guess=(read,tcheck) s
 table=(opt,rrhf)
 ----------------------------------------------------------------------
 -----
 title
 -----
 Symbolic Z-matrix:
 Charge =  0 Multiplicity = 1

 SCF Done:  E(RHF) =  -455.691802801     A.U. after   13 cycles
 Normal termination of Gaussian 16 at Tue Apr  8 19:01:18 2025.
 Gaussian 16:  ES64L-G16RevC.01  3-Jul-2019

 ----------------------------------------------------------------------
 #t hf aug-cc-pvdz iop(5/13=1,5/36=2,99/5=2) pseudo=read geom=check gue
 ss=(read,tcheck) scf=(maxcycle=1)
 ----------------------------------------------------------------------
 -----
 title
 -----
 Structure from the checkpoint file:  "3B-69_06c_acetic_acid_dimerAC_mol1.chk"
 Charge =  0 Multiplicity = 1

                         Standard orientation:
 ---------------------------------------------------------------------
 Center     Atomic      Atomic             Coordinates (Angstroms)
 Number     Number       Type             X           Y           Z
 ---------------------------------------------------------------------
      1          8           0       -2.664331   -0.921687   -0.462706
      2          6           0       -2.017341   -0.023455    0.259933
      3          8           0       -1.424585   -0.328421    1.290088
      4          6           0       -2.122058    1.367985   -0.280337
      5          1           0       -2.585885   -1.843514   -0.073366
      6          1           0       -3.097863    1.767859    0.001841
      7          1           0       -2.077374    1.362037   -1.366668
      8          1           0       -1.351558    2.002945    0.144120
      9          8           0        1.953832   -1.311224   -0.339887
     10          6           0        1.979349    0.006207   -0.233345
     11          8           0        1.079169    0.708260   -0.683213
     12          6           0        3.169979    0.523905    0.510529
     13          1           0        1.141122   -1.631946   -0.833995
     14          1           0        2.986536    0.389313    1.578214
     15          1           0        4.058258   -0.051067    0.260494
     16          1           0        3.314502    1.581101    0.314422
 ---------------------------------------------------------------------

 SCF Done:  E(RHF) =  -456.148048303     A.U. after    2 cycles

 The electronic state is 1-A.
 Alpha  occ. eigenvalues --  -20.60569 -20.60332 -20.52783 -20.52090 -11.39559
 Alpha  occ. eigenvalues --  -11.38833 -11.25361 -11.24105  -1.54876  -1.54545
 Alpha  occ. eigenvalues --   -1.43564  -1.42917  -1.03300  -1.02193  -0.83452
 Alpha  occ. eigenvalues --   -0.82906  -0.70410  -0.69675  -0.68399  -0.67614
 Alpha  occ. eigenvalues --   -0.65253  -0.64356  -0.58221  -0.57048  -0.56668
 Alpha  occ. eigenvalues --   -0.56121  -0.56073  -0.55214  -0.46655  -0.45649
 Alpha  occ. eigenvalues --   -0.44005  -0.43274
 Alpha virt. eigenvalues --    0.03140   0.04052   0.04500   0.05378   0.05714
 Alpha virt. eigenvalues --    0.06320   0.06780   0.08300   0.09779   0.11859
 Alpha virt. eigenvalues --    0.11907   0.13054   0.13473   0.14385   0.14955

 Mulliken charges:
               1
     1  O   -1.234040
     2  C    1.955861
     3  O   -1.253629
     4  C   -0.520162
     5  H    0.390311
     6  H    0.233740
     7  H    0.216421
     8  H    0.199473
     9  O   -1.250963
    10  C    1.997936
    11  O   -1.214104
    12  C   -0.571021
    13  H    0.418388
    14  H    0.253131
    15  H    0.192385
    16  H    0.186273
 Sum of Mulliken charges =  -0.00000

 Dipole moment (field-independent basis, Debye):
    X=              0.5554    Y=             -0.9775    Z=             -1.0281  Tot=              1.5235

 Test job not archived.
 1\1\GINC-SE108\SP\RHF\Aug-CC-pVDZ\C4H8O4\OHZDE\08-Apr-2025\0\\#t hf au
 g-cc-pvdz iop(5/13=1,5/36=2,99/5=2) pseudo=read geom=check guess=(read
 ,tcheck) scf=(maxcycle=1)\\title\\0,1\O,0,5.327155,17.887053,2.402174\
 C,0,4.525997,17.40189,3.33512\O,0,4.142801,16.236406,3.315351\C,0,4.11
 924,18.413124,4.360262\H,0,5.576489,17.191358,1.722951\H,0,3.329155,19
 .031693,3.930313\H,0,4.950397,19.071689,4.600299\H,0,3.732132,17.92444
 4,5.248152\O,0,7.1432,14.682947,5.218189\C,0,6.342041,15.16811,6.15113
 5\O,0,5.958845,16.333594,6.131367\C,0,5.935284,14.156876,7.176277\H,0,

 Normal termination of Gaussian 16 at Tue Apr  8 19:01:23 2025.
