 Gaussian 16, Revision C.01,

 ----------------------------------------------------------------------
 #t hf aug-cc-pvdz symm=none int=(grid=ultrafine) guess=(read,tcheck) s
 table=(opt,rrhf)
 ----------------------------------------------------------------------
 -----
 title
 -----
 Symbolic Z-matrix:
 Charge =  0 Multiplicity = 1

 SCF Done:  E(RHF) =  -461.456973698     A.U. after   13 cycles
 Normal termination of Gaussian 16 at Tue Apr  8 19:11:34 2025.
 Gaussian 16:  ES64L-G16RevC.01  3-Jul-2019

 ----------------------------------------------------------------------
 #t hf aug-cc-pvdz iop(5/13=1,5/36=2,99/5=2) pseudo=read geom=check gue
 ss=(read,tcheck) scf=(maxcycle=1)
 ----------------------------------------------------------------------
 -----
 title
 -----
 Structure from the checkpoint file:  "3B-69_19c_benzene_dimerAB_mol1.chk"
 Charge =  0 Multiplicity = 1

                         Standard orientation:
 ---------------------------------------------------------------------
 Center     Atomic      Atomic             Coordinates (Angstroms)
 Number     Number       Type             X           Y           Z
 ---------------------------------------------------------------------
      1          6           0       -0.538467    1.283011   -3.369664
      2          6           0       -1.004560    0.350108   -2.447291
      3          6           0        0.463518    0.932903   -4.270734
      4          1           0       -0.963518    2.277951   -3.389628
      5          1           0       -1.785818    0.610346   -1.745395
      6          1           0        0.806634    1.655610   -4.996547
      7          6           0        0.538467   -1.283011   -3.329736
      8          6           0        1.004560   -0.350108   -4.252109
      9          6           0       -0.463518   -0.932903   -2.428666
     10          1           0        0.963518   -2.277951   -3.309772
     11          1           0        1.785818   -0.610346   -4.954005
     12          1           0       -0.806634   -1.655610   -1.702853
     13          6           0       -0.538467    1.283011    3.329736
     14          6           0       -1.004560    0.350108    4.252109
     15          6           0        0.463518    0.932903    2.428666
     16          1           0       -0.963518    2.277951    3.309772
     17          1           0       -1.785818    0.610346    4.954005
     18          1           0        0.806634    1.655610    1.702853
     19          6           0        0.538467   -1.283011    3.369664
     20          6           0        1.004560   -0.350108    2.447291
     21          6           0       -0.463518   -0.932903    4.270734
     22          1           0        0.963518   -2.277951    3.389628
     23          1           0        1.785818   -0.610346    1.745395
     24          1           0       -0.806634   -1.655610    4.996547
 ---------------------------------------------------------------------

 SCF Done:  E(RHF) =  -461.940743868     A.U. after    2 cycles

 The electronic state is 1-AG.
 Alpha  occ. eigenvalues --  -11.24204 -11.24204 -11.24175 -11.24173 -11.24145
 Alpha  occ. eigenvalues --  -11.24145 -11.24084 -11.24083 -11.24066 -11.24065
 Alpha  occ. eigenvalues --  -11.24021 -11.24021  -1.15266  -1.15256  -1.01610
 Alpha  occ. eigenvalues --   -1.01594  -1.01562  -1.01561  -0.83171  -0.83170
 Alpha  occ. eigenvalues --   -0.83123  -0.83122  -0.72250  -0.72245  -0.64941
 Alpha  occ. eigenvalues --   -0.64932  -0.63645  -0.63643  -0.60025  -0.60006
 Alpha  occ. eigenvalues --   -0.59926  -0.59917  -0.51062  -0.50996  -0.50559
 Alpha  occ. eigenvalues --   -0.50549  -0.50453  -0.50451  -0.34583  -0.34523
 Alpha  occ. eigenvalues --   -0.34480  -0.34380
 Alpha virt. eigenvalues --    0.03154   0.03463   0.03465   0.04169   0.04363
 Alpha virt. eigenvalues --    0.04528   0.05640   0.05729   0.05760   0.06107
 Alpha virt. eigenvalues --    0.08064   0.08429   0.10225   0.10453   0.10574

 Mulliken charges:
               1
     1  C    0.206028
     2  C    0.235271
     3  C    0.267027
     4  H   -0.223921
     5  H   -0.267120
     6  H   -0.226025
     7  C    0.207041
     8  C    0.246467
     9  C    0.272852
    10  H   -0.225087
    11  H   -0.219912
    12  H   -0.272619
    13  C    0.207041
    14  C    0.246467
    15  C    0.272852
    16  H   -0.225087
    17  H   -0.219912
    18  H   -0.272619
    19  C    0.206028
    20  C    0.235271
    21  C    0.267027
    22  H   -0.223921
    23  H   -0.267120
    24  H   -0.226025
 Sum of Mulliken charges =  -0.00000

 Dipole moment (field-independent basis, Debye):
    X=              0.0000    Y=             -0.0000    Z=              0.0000  Tot=              0.0000

 Test job not archived.
 1\1\GINC-SE103\SP\RHF\Aug-CC-pVDZ\C12H12\OHZDE\08-Apr-2025\0\\#t hf au
 g-cc-pvdz iop(5/13=1,5/36=2,99/5=2) pseudo=read geom=check guess=(read
 ,tcheck) scf=(maxcycle=1)\\title\\0,1\C,0,-0.538467,20.025411,6.679436
 \C,0,-1.00456,19.092508,7.601809\C,0,0.463518,19.675303,5.778366\H,0,-
 0.963518,21.020351,6.659472\H,0,-1.785818,19.352746,8.303705\H,0,0.806
 634,20.39801,5.052553\C,0,0.538467,17.459389,6.719364\C,0,1.00456,18.3
 92292,5.796991\C,0,-0.463518,17.809497,7.620434\H,0,0.963518,16.464449
 ,6.739328\H,0,1.785818,18.132054,5.095095\H,0,-0.806634,17.08679,8.346

 Normal termination of Gaussian 16 at Tue Apr  8 19:11:43 2025.
