 Gaussian 16, Revision C.01,

 ----------------------------------------------------------------------
 #t hf aug-cc-pvdz symm=none int=(grid=ultrafine) guess=(read,tcheck) s
 table=(opt,rrhf)
 ----------------------------------------------------------------------
 -----
 title
 -----
 Symbolic Z-matrix:
 Charge =  0 Multiplicity = 1

 SCF Done:  E(RHF) =  -345.187877346     A.U. after   12 cycles

 1\1\GINC-SE114\Stability\RHF\Aug-CC-pVDZ\C3H12O3\OHZDE\08-Apr-2025\0\\
 #t hf aug-cc-pvdz symm=none int=(grid=ultrafine) guess=(read,tcheck) s
 table=(opt,rrhf)\\title\\0,1\O,0,3.211523,12.095308,13.092198\H,0,4.06
 5726,12.592587,13.07324\C,0,3.425896,10.840226,13.751501\H,0,4.053811,
 10.192498,13.135247\H,0,2.456381,10.363499,13.883414\H,0,3.894402,10.9
 68294,14.729265\O,0,0.929023,13.503692,13.237802\H,0,1.783226,13.00641
 3,13.25676\C,0,1.143396,14.758774,12.578499\H,0,1.771311,15.406502,13.
 194753\H,0,0.173881,15.235501,12.446586\H,0,1.611902,14.630706,11.6007

 Normal termination of Gaussian 16 at Tue Apr  8 18:58:06 2025.
 Gaussian 16:  ES64L-G16RevC.01  3-Jul-2019

 ----------------------------------------------------------------------
 #t hf aug-cc-pvdz iop(5/13=1,5/36=2,99/5=2) pseudo=read geom=check gue
 ss=(read,tcheck) scf=(maxcycle=1)
 ----------------------------------------------------------------------
 -----
 title
 -----
 Structure from the checkpoint file:  "3B-69_03a_methanol_ethyne_trimer_mol1.chk"
 Charge =  0 Multiplicity = 1

                         Standard orientation:
 ---------------------------------------------------------------------
 Center     Atomic      Atomic             Coordinates (Angstroms)
 Number     Number       Type             X           Y           Z
 ---------------------------------------------------------------------
      1          8           0       -0.168403    1.120818    0.285425
      2          1           0        0.688695    0.641635    0.171083
      3          6           0        0.036813    2.506891   -0.018803
      4          1           0        0.662807    2.972568    0.745968
      5          1           0       -0.935809    2.995394   -0.018677
      6          1           0        0.503167    2.644888   -0.996244
      7          8           0       -2.443191   -0.213332   -0.224412
      8          1           0       -1.591919    0.276648   -0.112324
      9          6           0       -2.219670   -1.596696    0.079250
     10          1           0       -1.589860   -2.054436   -0.687178
     11          1           0       -3.186037   -2.097453    0.081682
     12          1           0       -1.749032   -1.728771    1.055456
     13          8           0        2.121714   -0.184482   -0.230434
     14          1           0        2.972986    0.305499   -0.118345
     15          6           0        2.345235   -1.567845    0.073228
     16          1           0        2.975045   -2.025585   -0.693199
     17          1           0        1.378867   -2.068602    0.075661
     18          1           0        2.815873   -1.699920    1.049434
 ---------------------------------------------------------------------

 SCF Done:  E(RHF) =  -345.553714996     A.U. after    2 cycles

 The electronic state is 1-A.
 Alpha  occ. eigenvalues --  -20.59040 -20.53422 -20.49345 -11.30946 -11.27853
 Alpha  occ. eigenvalues --  -11.25386  -1.47986  -1.43095  -1.38382  -0.95824
 Alpha  occ. eigenvalues --   -0.92529  -0.89688  -0.72921  -0.69448  -0.65533
 Alpha  occ. eigenvalues --   -0.64896  -0.62177  -0.61466  -0.58834  -0.58445
 Alpha  occ. eigenvalues --   -0.55453  -0.54350  -0.50276  -0.47949  -0.45687
 Alpha  occ. eigenvalues --   -0.43292  -0.39945
 Alpha virt. eigenvalues --    0.02189   0.03507   0.03898   0.04868   0.05767
 Alpha virt. eigenvalues --    0.06486   0.06806   0.07521   0.08153   0.08921
 Alpha virt. eigenvalues --    0.10767   0.11700   0.13415   0.13988   0.14654

 Mulliken charges:
               1
     1  O   -1.304101
     2  H    0.710157
     3  C    0.426602
     4  H    0.083238
     5  H   -0.004538
     6  H    0.097092
     7  O   -1.146192
     8  H    0.659854
     9  C    0.425563
    10  H    0.096073
    11  H   -0.027336
    12  H    0.077639
    13  O   -1.187518
    14  H    0.385412
    15  C    0.491074
    16  H    0.067366
    17  H    0.055971
    18  H    0.093643
 Sum of Mulliken charges =  -0.00000

 Dipole moment (field-independent basis, Debye):
    X=              6.1181    Y=             -0.6203    Z=              0.4891  Tot=              6.1688

 Test job not archived.
 1\1\GINC-SE114\SP\RHF\Aug-CC-pVDZ\C3H12O3\OHZDE\08-Apr-2025\0\\#t hf a
 ug-cc-pvdz iop(5/13=1,5/36=2,99/5=2) pseudo=read geom=check guess=(rea
 d,tcheck) scf=(maxcycle=1)\\title\\0,1\O,0,3.211523,12.095308,13.09219
 8\H,0,4.065726,12.592587,13.07324\C,0,3.425896,10.840226,13.751501\H,0
 ,4.053811,10.192498,13.135247\H,0,2.456381,10.363499,13.883414\H,0,3.8
 94402,10.968294,14.729265\O,0,0.929023,13.503692,13.237802\H,0,1.78322
 6,13.006413,13.25676\C,0,1.143396,14.758774,12.578499\H,0,1.771311,15.
 406502,13.194753\H,0,0.173881,15.235501,12.446586\H,0,1.611902,14.6307

 Normal termination of Gaussian 16 at Tue Apr  8 18:58:11 2025.
