 Gaussian 16, Revision C.01,

 ----------------------------------------------------------------------
 #t hf aug-cc-pvdz symm=none int=(grid=ultrafine) guess=(read,tcheck) s
 table=(opt,rrhf)
 ----------------------------------------------------------------------
 -----
 title
 -----
 Symbolic Z-matrix:
 Charge =  0 Multiplicity = 1

 SCF Done:  E(RHF) =  -641.509334388     A.U. after   13 cycles
 Normal termination of Gaussian 16 at Tue Apr  8 19:10:07 2025.
 Gaussian 16:  ES64L-G16RevC.01  3-Jul-2019

 ----------------------------------------------------------------------
 #t hf aug-cc-pvdz iop(5/13=1,5/36=2,99/5=2) pseudo=read geom=check gue
 ss=(read,tcheck) scf=(maxcycle=1)
 ----------------------------------------------------------------------
 -----
 title
 -----
 Structure from the checkpoint file:  "3B-69_17a_oxazolidinone_dimerBC_mol1.chk"
 Charge =  0 Multiplicity = 1

                         Standard orientation:
 ---------------------------------------------------------------------
 Center     Atomic      Atomic             Coordinates (Angstroms)
 Number     Number       Type             X           Y           Z
 ---------------------------------------------------------------------
      1          7           0        3.481538   -0.975728    0.212379
      2          8           0        2.052928    0.606771   -0.383482
      3          8           0        1.275452   -1.500163   -0.258929
      4          6           0        4.334229    0.202585    0.122684
      5          6           0        3.274866    1.308990   -0.018039
      6          6           0        2.213141   -0.719924   -0.140336
      7          1           0        3.816403   -1.930417    0.362995
      8          1           0        5.002795    0.142285   -0.734710
      9          1           0        4.933332    0.328843    1.022732
     10          1           0        3.084619    1.830088    0.918992
     11          1           0        3.494889    2.025798   -0.800653
     12          7           0       -2.182082   -0.678740    0.347049
     13          8           0       -3.610692    0.903759   -0.248811
     14          8           0       -4.388168   -1.203175   -0.124259
     15          6           0       -1.329391    0.499574    0.257355
     16          6           0       -2.388753    1.605978    0.116632
     17          6           0       -3.450479   -0.422936   -0.005665
     18          1           0       -1.847217   -1.633428    0.497666
     19          1           0       -0.660825    0.439273   -0.600039
     20          1           0       -0.730288    0.625831    1.157403
     21          1           0       -2.579001    2.127076    1.053663
     22          1           0       -2.168731    2.322787   -0.665982
 ---------------------------------------------------------------------

 SCF Done:  E(RHF) =  -642.152658811     A.U. after    2 cycles

 The electronic state is 1-A.
 Alpha  occ. eigenvalues --  -20.61127 -20.57037 -20.52476 -20.48241 -15.56243
 Alpha  occ. eigenvalues --  -15.51829 -11.42644 -11.38355 -11.34002 -11.32218
 Alpha  occ. eigenvalues --  -11.30176 -11.27679  -1.56279  -1.52094  -1.44986
 Alpha  occ. eigenvalues --   -1.40732  -1.28066  -1.23649  -1.06611  -1.02469
 Alpha  occ. eigenvalues --   -0.92485  -0.88664  -0.88249  -0.84231  -0.75834
 Alpha  occ. eigenvalues --   -0.74904  -0.71638  -0.70745  -0.70287  -0.66059
 Alpha  occ. eigenvalues --   -0.64351  -0.62941  -0.62199  -0.61920  -0.60090
 Alpha  occ. eigenvalues --   -0.58632  -0.58063  -0.57824  -0.55854  -0.51680
 Alpha  occ. eigenvalues --   -0.47572  -0.46006  -0.44798  -0.43400  -0.41702
 Alpha  occ. eigenvalues --   -0.40431
 Alpha virt. eigenvalues --    0.01512   0.02472   0.02818   0.03578   0.04369
 Alpha virt. eigenvalues --    0.05032   0.06009   0.06326   0.07174   0.07548
 Alpha virt. eigenvalues --    0.08792   0.09827   0.10620   0.11996   0.12204

 Mulliken charges:
               1
     1  N    0.813569
     2  O   -1.279314
     3  O   -1.228706
     4  C   -0.219659
     5  C    0.579438
     6  C    1.033317
     7  H    0.076990
     8  H    0.030547
     9  H    0.080361
    10  H    0.088002
    11  H    0.077146
    12  N    0.691642
    13  O   -1.280824
    14  O   -1.248164
    15  C   -0.647596
    16  C    0.679422
    17  C    1.402763
    18  H    0.085081
    19  H   -0.002560
    20  H    0.070330
    21  H    0.100782
    22  H    0.097433
 Sum of Mulliken charges =   0.00000

 Dipole moment (field-independent basis, Debye):
    X=             12.1708    Y=              4.2052    Z=              1.8785  Tot=             13.0131

 Test job not archived.
 1\1\GINC-SE044\SP\RHF\Aug-CC-pVDZ\C6H10N2O4\OHZDE\08-Apr-2025\0\\#t hf
  aug-cc-pvdz iop(5/13=1,5/36=2,99/5=2) pseudo=read geom=check guess=(r
 ead,tcheck) scf=(maxcycle=1)\\title\\0,1\N,0,1.432652,2.001945,8.63745
 1\O,0,2.441991,3.496894,9.920667\O,0,1.766543,4.165741,7.882146\C,0,1.
 825983,1.210221,9.795904\C,0,2.266349,2.322413,10.763008\C,0,1.852144,
 3.273264,8.717763\H,0,1.029707,1.62123,7.777834\H,0,2.63018,0.51925,9.
 547777\H,0,0.986979,0.640085,10.190833\H,0,1.504131,2.56187,11.502905\
 H,0,3.209898,2.121702,11.257113\N,0,1.432652,7.674945,8.637451\O,0,2.4

 Normal termination of Gaussian 16 at Tue Apr  8 19:10:20 2025.
