 Gaussian 16, Revision C.01,

 ----------------------------------------------------------------------
 #t hf aug-cc-pvdz symm=none int=(grid=ultrafine) guess=(read,tcheck) s
 table=(opt,rrhf)
 ----------------------------------------------------------------------
 -----
 title
 -----
 Symbolic Z-matrix:
 Charge =  0 Multiplicity = 1

 SCF Done:  E(RHF) =  -115.059316510     A.U. after   11 cycles
 Normal termination of Gaussian 16 at Tue Apr  8 18:56:49 2025.
 Gaussian 16:  ES64L-G16RevC.01  3-Jul-2019

 ----------------------------------------------------------------------
 #t hf aug-cc-pvdz iop(5/13=1,5/36=2,99/5=2) pseudo=read geom=check gue
 ss=(read,tcheck) scf=(maxcycle=1)
 ----------------------------------------------------------------------
 -----
 title
 -----
 Structure from the checkpoint file:  "3B-69_03a_methanol_ethyne_dimerAC_mol2.chk"
 Charge =  0 Multiplicity = 1

                         Standard orientation:
 ---------------------------------------------------------------------
 Center     Atomic      Atomic             Coordinates (Angstroms)
 Number     Number       Type             X           Y           Z
 ---------------------------------------------------------------------
      1          8           0       -0.752173    0.128444   -0.001817
      2          1           0       -1.164199   -0.770170    0.004242
      3          6           0        0.673874   -0.020736   -0.000750
      4          1           0        1.010917   -0.420247    0.958620
      5          1           0        1.111981    0.965635   -0.141332
      6          1           0        1.015444   -0.678351   -0.802495
 ---------------------------------------------------------------------

 SCF Done:  E(RHF) =  -115.181492154     A.U. after    2 cycles

 The electronic state is 1-A.
 Alpha  occ. eigenvalues --  -20.55000 -11.28338  -1.43297  -0.92822  -0.68237
 Alpha  occ. eigenvalues --   -0.62142  -0.59289  -0.50255  -0.44418
 Alpha virt. eigenvalues --    0.03567   0.04884   0.05556   0.06362   0.11558
 Alpha virt. eigenvalues --    0.14124   0.15364   0.16904   0.20778   0.22144
 Alpha virt. eigenvalues --    0.24244   0.27778   0.28145   0.32119   0.33372

 Mulliken charges:
               1
     1  O   -1.014659
     2  H    0.345992
     3  C    0.457176
     4  H    0.088164
     5  H    0.047016
     6  H    0.076312
 Sum of Mulliken charges =  -0.00000

 Dipole moment (field-independent basis, Debye):
    X=              0.9057    Y=             -1.5353    Z=             -0.0016  Tot=              1.7826

 Test job not archived.
 1\1\GINC-SE114\SP\RHF\Aug-CC-pVDZ\C1H4O1\OHZDE\08-Apr-2025\0\\#t hf au
 g-cc-pvdz iop(5/13=1,5/36=2,99/5=2) pseudo=read geom=check guess=(read
 ,tcheck) scf=(maxcycle=1)\\title\\0,1\O,0,3.211523,12.095308,13.092198
 \H,0,4.065726,12.592587,13.07324\C,0,3.425896,10.840226,13.751501\H,0,
 4.053811,10.192498,13.135247\H,0,2.456381,10.363499,13.883414\H,0,3.89
 4402,10.968294,14.729265\\Version=ES64L-G16RevC.01\State=1-A\HF=-115.1
 814922\RMSD=7.560e-03\Dipole=0.6038373,-0.230586,0.2721246\Quadrupole=
 0.3922616,0.329001,-0.7212626,1.674183,-0.5345975,-0.0664096\PG=C01 [X

 Normal termination of Gaussian 16 at Tue Apr  8 18:56:50 2025.
