 Gaussian 16, Revision C.01,

 ----------------------------------------------------------------------
 #t hf aug-cc-pvdz symm=none int=(grid=ultrafine) guess=(read,tcheck) s
 table=(opt,rrhf)
 ----------------------------------------------------------------------
 -----
 title
 -----
 Symbolic Z-matrix:
 Charge =  0 Multiplicity = 1

 SCF Done:  E(RHF) =  -376.427524582     A.U. after   13 cycles
 Normal termination of Gaussian 16 at Tue Apr  8 19:00:42 2025.
 Gaussian 16:  ES64L-G16RevC.01  3-Jul-2019

 ----------------------------------------------------------------------
 #t hf aug-cc-pvdz iop(5/13=1,5/36=2,99/5=2) pseudo=read geom=check gue
 ss=(read,tcheck) scf=(maxcycle=1)
 ----------------------------------------------------------------------
 -----
 title
 -----
 Structure from the checkpoint file:  "3B-69_07b_oxalic_acid_dimerAB_mol3.chk"
 Charge =  0 Multiplicity = 1

                         Standard orientation:
 ---------------------------------------------------------------------
 Center     Atomic      Atomic             Coordinates (Angstroms)
 Number     Number       Type             X           Y           Z
 ---------------------------------------------------------------------
      1          8           0       -1.061967   -1.393698   -0.060228
      2          8           0       -0.219281   -0.272646    1.702400
      3          6           0       -0.393630   -0.508179    0.430154
      4          1           0       -0.688540   -0.914709    2.294864
      5          8           0        1.061967    1.393698    0.060228
      6          8           0        0.219281    0.272646   -1.702400
      7          6           0        0.393630    0.508179   -0.430154
      8          1           0        0.688540    0.914709   -2.294864
 ---------------------------------------------------------------------

 SCF Done:  E(RHF) =  -376.789666982     A.U. after    2 cycles

 The electronic state is 1-AG.
 Alpha  occ. eigenvalues --  -20.63267 -20.63263 -20.56788 -20.56784 -11.43013
 Alpha  occ. eigenvalues --  -11.42991  -1.59353  -1.57264  -1.48722  -1.47199
 Alpha  occ. eigenvalues --   -0.99330  -0.87042  -0.76306  -0.73394  -0.72045
 Alpha  occ. eigenvalues --   -0.68734  -0.64260  -0.63354  -0.58897  -0.52347
 Alpha  occ. eigenvalues --   -0.49637  -0.49433  -0.44923
 Alpha virt. eigenvalues --    0.03233   0.03495   0.07421   0.08762   0.09564
 Alpha virt. eigenvalues --    0.10676   0.11213   0.11925   0.13392   0.13619
 Alpha virt. eigenvalues --    0.17935   0.19131   0.19468   0.20778   0.24108

 Mulliken charges:
               1
     1  O   -1.122762
     2  O   -1.174911
     3  C    1.859160
     4  H    0.438513
     5  O   -1.122762
     6  O   -1.174911
     7  C    1.859160
     8  H    0.438513
 Sum of Mulliken charges =  -0.00000

 Dipole moment (field-independent basis, Debye):
    X=             -0.0000    Y=             -0.0000    Z=             -0.0000  Tot=              0.0000

 Test job not archived.
 1\1\GINC-SE230\SP\RHF\Aug-CC-pVDZ\C2H2O4\OHZDE\08-Apr-2025\0\\#t hf au
 g-cc-pvdz iop(5/13=1,5/36=2,99/5=2) pseudo=read geom=check guess=(read
 ,tcheck) scf=(maxcycle=1)\\title\\0,1\O,0,-1.061967,-1.393698,11.71837
 2\O,0,-0.219281,-0.272646,13.481\C,0,-0.39363,-0.508179,12.208754\H,0,
 -0.68854,-0.914709,14.073464\O,0,1.061967,1.393698,11.838828\O,0,0.219
 281,0.272646,10.0762\C,0,0.39363,0.508179,11.348446\H,0,0.68854,0.9147
 09,9.483736\\Version=ES64L-G16RevC.01\State=1-AG\HF=-376.789667\RMSD=1
 .410e-02\Dipole=0.,0.,0.\Quadrupole=-2.3177592,-3.7775938,6.095353,-2.

 Normal termination of Gaussian 16 at Tue Apr  8 19:00:45 2025.
