 Gaussian 16, Revision C.01,

 ----------------------------------------------------------------------
 #t hf aug-cc-pvdz symm=none int=(grid=ultrafine) guess=(read,tcheck) s
 table=(opt,rrhf)
 ----------------------------------------------------------------------
 -----
 title
 -----
 Symbolic Z-matrix:
 Charge =  0 Multiplicity = 1

 SCF Done:  E(RHF) =  -416.027289060     A.U. after   14 cycles
 Normal termination of Gaussian 16 at Tue Apr  8 19:01:50 2025.
 Gaussian 16:  ES64L-G16RevC.01  3-Jul-2019

 ----------------------------------------------------------------------
 #t hf aug-cc-pvdz iop(5/13=1,5/36=2,99/5=2) pseudo=read geom=check gue
 ss=(read,tcheck) scf=(maxcycle=1)
 ----------------------------------------------------------------------
 -----
 title
 -----
 Structure from the checkpoint file:  "3B-69_09a_acetamide_dimerBC_mol1.chk"
 Charge =  0 Multiplicity = 1

                         Standard orientation:
 ---------------------------------------------------------------------
 Center     Atomic      Atomic             Coordinates (Angstroms)
 Number     Number       Type             X           Y           Z
 ---------------------------------------------------------------------
      1          6           0        1.695263    1.274885    0.405489
      2          6           0        2.250488   -0.067880   -0.007418
      3          8           0        1.486236   -0.998644   -0.339053
      4          7           0        3.573738   -0.215855    0.042332
      5          1           0        4.000528   -1.140038   -0.048484
      6          1           0        4.168260    0.570480    0.313243
      7          1           0        1.563286    1.263419    1.489266
      8          1           0        2.363055    2.097368    0.157863
      9          1           0        0.726407    1.439478   -0.056654
     10          6           0       -3.578147   -0.053570    0.492449
     11          6           0       -2.216399    0.021025   -0.157062
     12          8           0       -1.877427    1.029038   -0.812343
     13          7           0       -1.395545   -1.009847    0.040073
     14          1           0       -0.407862   -0.948331   -0.215289
     15          1           0       -1.709858   -1.820674    0.577602
     16          1           0       -3.484911    0.330745    1.510156
     17          1           0       -3.957611   -1.071510    0.552050
     18          1           0       -4.286355    0.569079   -0.046159
 ---------------------------------------------------------------------

 SCF Done:  E(RHF) =  -416.455489596     A.U. after    2 cycles

 The electronic state is 1-A.
 Alpha  occ. eigenvalues --  -20.51413 -20.47912 -15.54855 -15.50169 -11.37278
 Alpha  occ. eigenvalues --  -11.33860 -11.24676 -11.23357  -1.45016  -1.41243
 Alpha  occ. eigenvalues --   -1.24494  -1.20385  -1.01501  -0.99502  -0.85068
 Alpha  occ. eigenvalues --   -0.81205  -0.76951  -0.73148  -0.68588  -0.65807
 Alpha  occ. eigenvalues --   -0.63431  -0.61007  -0.59689  -0.57403  -0.55874
 Alpha  occ. eigenvalues --   -0.55586  -0.54684  -0.52005  -0.44374  -0.43330
 Alpha  occ. eigenvalues --   -0.40293  -0.39673
 Alpha virt. eigenvalues --    0.02158   0.03800   0.04584   0.04910   0.05527
 Alpha virt. eigenvalues --    0.05872   0.06684   0.07498   0.08879   0.09535
 Alpha virt. eigenvalues --    0.10871   0.12312   0.13102   0.13142   0.13921

 Mulliken charges:
               1
     1  C   -0.333528
     2  C    0.209150
     3  O   -1.552737
     4  N    0.852093
     5  H    0.083751
     6  H    0.105807
     7  H    0.292624
     8  H    0.121708
     9  H    0.101833
    10  C   -0.348735
    11  C    0.309339
    12  O   -1.343689
    13  N    0.877036
    14  H    0.009181
    15  H    0.074859
    16  H    0.240586
    17  H    0.132827
    18  H    0.167894
 Sum of Mulliken charges =  -0.00000

 Dipole moment (field-independent basis, Debye):
    X=              3.4931    Y=             -0.7711    Z=              3.6476  Tot=              5.1090

 Test job not archived.
 1\1\GINC-SE083\SP\RHF\Aug-CC-pVDZ\C4H10N2O2\OHZDE\08-Apr-2025\0\\#t hf
  aug-cc-pvdz iop(5/13=1,5/36=2,99/5=2) pseudo=read geom=check guess=(r
 ead,tcheck) scf=(maxcycle=1)\\title\\0,1\C,0,-1.245216,8.514214,17.661
 224\C,0,-1.929449,9.860636,17.688769\O,0,-1.399208,10.855873,17.151431
 \N,0,-3.087613,9.936672,18.343167\H,0,-3.510978,10.842736,18.553694\H,
 0,-3.494143,9.099314,18.765939\H,0,-0.637691,8.429121,18.564437\H,0,-1
 .951399,7.686576,17.653102\H,0,-0.58954,8.443121,16.798448\C,0,3.49586
 6,10.0911,15.512557\C,0,1.987714,10.010453,15.540103\O,0,1.390934,9.05

 Normal termination of Gaussian 16 at Tue Apr  8 19:01:56 2025.
