 Gaussian 16, Revision C.01,

 ----------------------------------------------------------------------
 #t hf aug-cc-pvdz symm=none int=(grid=ultrafine) guess=(read,tcheck) s
 table=(opt,rrhf)
 ----------------------------------------------------------------------
 -----
 title
 -----
 Symbolic Z-matrix:
 Charge =  0 Multiplicity = 1

 SCF Done:  E(RHF) =  -1359.96635056     A.U. after   15 cycles
 Normal termination of Gaussian 16 at Tue Apr  8 19:32:46 2025.
 Gaussian 16:  ES64L-G16RevC.01  3-Jul-2019

 ----------------------------------------------------------------------
 #t hf aug-cc-pvdz iop(5/13=1,5/36=2,99/5=2) pseudo=read geom=check gue
 ss=(read,tcheck) scf=(maxcycle=1)
 ----------------------------------------------------------------------
 -----
 title
 -----
 Structure from the checkpoint file:  "3B-69_20c_maleic_acid_trimer_mol1.chk"
 Charge =  0 Multiplicity = 1

                         Standard orientation:
 ---------------------------------------------------------------------
 Center     Atomic      Atomic             Coordinates (Angstroms)
 Number     Number       Type             X           Y           Z
 ---------------------------------------------------------------------
      1          6           0       -4.061292   -1.364128   -0.121181
      2          8           0       -4.572788   -0.841273    0.969377
      3          1           0       -4.390114    0.156173    1.040526
      4          8           0       -4.249526   -2.555432   -0.350011
      5          6           0       -3.261585   -0.550832   -1.082477
      6          1           0       -2.876982   -1.156969   -1.892174
      7          6           0       -2.953998    0.751439   -1.110432
      8          1           0       -2.343318    1.101036   -1.933619
      9          6           0       -3.353932    1.808265   -0.149679
     10          8           0       -2.878397    2.983754   -0.470538
     11          1           0       -3.203927    3.696041    0.163460
     12          8           0       -4.063777    1.622195    0.841553
     13          6           0       -0.382707   -1.653106    0.036842
     14          8           0       -0.894203   -1.130251    1.127400
     15          1           0       -0.711529   -0.132805    1.198549
     16          8           0       -0.570942   -2.844411   -0.191988
     17          6           0        0.417000   -0.839811   -0.924454
     18          1           0        0.801603   -1.445947   -1.734151
     19          6           0        0.724586    0.462460   -0.952409
     20          1           0        1.335267    0.812058   -1.775596
     21          6           0        0.324653    1.519287    0.008344
     22          8           0        0.800188    2.694776   -0.312515
     23          1           0        0.474658    3.407062    0.321482
     24          8           0       -0.385192    1.333217    0.999576
     25          6           0        3.295878   -1.942085    0.194865
     26          8           0        2.784382   -1.419229    1.285423
     27          1           0        2.967056   -0.421783    1.356572
     28          8           0        3.107643   -3.133389   -0.033965
     29          6           0        4.095585   -1.128789   -0.766431
     30          1           0        4.480188   -1.734926   -1.576128
     31          6           0        4.403171    0.173482   -0.794386
     32          1           0        5.013851    0.523080   -1.617573
     33          6           0        4.003238    1.230309    0.166367
     34          8           0        4.478773    2.405798   -0.154492
     35          1           0        4.153242    3.118084    0.479505
     36          8           0        3.293392    1.044239    1.157599
 ---------------------------------------------------------------------

 SCF Done:  E(RHF) =  -1361.28363187     A.U. after    2 cycles

 The electronic state is 1-A.
 Alpha  occ. eigenvalues --  -20.67471 -20.67109 -20.65838 -20.60357 -20.59486
 Alpha  occ. eigenvalues --  -20.58379 -20.58029 -20.56852 -20.55698 -20.53648
 Alpha  occ. eigenvalues --  -20.52093 -20.50929 -11.47182 -11.46429 -11.45010
 Alpha  occ. eigenvalues --  -11.40555 -11.39042 -11.38005 -11.32965 -11.32109
 Alpha  occ. eigenvalues --  -11.32108 -11.31172 -11.30788 -11.29893  -1.62429
 Alpha  occ. eigenvalues --   -1.61940  -1.60617  -1.54604  -1.53183  -1.51931
 Alpha  occ. eigenvalues --   -1.51598  -1.50663  -1.49269  -1.43783  -1.42170
 Alpha  occ. eigenvalues --   -1.41075  -1.14854  -1.14028  -1.12671  -0.99848
 Alpha  occ. eigenvalues --   -0.99062  -0.97774  -0.89823  -0.88903  -0.87654
 Alpha  occ. eigenvalues --   -0.83062  -0.81905  -0.80983  -0.80657  -0.80198
 Alpha  occ. eigenvalues --   -0.78883  -0.77741  -0.76829  -0.75492  -0.71267
 Alpha  occ. eigenvalues --   -0.70549  -0.69864  -0.69506  -0.68513  -0.68474
 Alpha  occ. eigenvalues --   -0.68056  -0.67864  -0.66648  -0.64506  -0.63593
 Alpha  occ. eigenvalues --   -0.63156  -0.62106  -0.61786  -0.61620  -0.60815
 Alpha  occ. eigenvalues --   -0.59852  -0.59569  -0.59100  -0.57893  -0.56658
 Alpha  occ. eigenvalues --   -0.54699  -0.54003  -0.52526  -0.49575  -0.48518
 Alpha  occ. eigenvalues --   -0.47719  -0.47214  -0.46538  -0.45417  -0.45143
 Alpha  occ. eigenvalues --   -0.44284  -0.43765  -0.42928  -0.42567  -0.41280
 Alpha virt. eigenvalues --   -0.00312   0.00384   0.01171   0.01467   0.01684
 Alpha virt. eigenvalues --    0.02702   0.03095   0.03746   0.04265   0.05164
 Alpha virt. eigenvalues --    0.05784   0.05964   0.06782   0.07798   0.08665

 Mulliken charges:
               1
     1  C    1.836865
     2  O   -1.474302
     3  H    0.790974
     4  O   -1.305564
     5  C    0.471268
     6  H   -0.334782
     7  C    0.493074
     8  H   -0.340896
     9  C    2.538324
    10  O   -1.680267
    11  H    0.547300
    12  O   -1.657234
    13  C    1.797713
    14  O   -1.525460
    15  H    0.932044
    16  O   -1.406808
    17  C    0.676426
    18  H   -0.464030
    19  C    0.644010
    20  H   -0.449000
    21  C    2.730145
    22  O   -1.766397
    23  H    0.540636
    24  O   -1.659675
    25  C    1.920820
    26  O   -1.490413
    27  H    0.887940
    28  O   -1.351849
    29  C    0.395114
    30  H   -0.272093
    31  C    0.473417
    32  H   -0.251839
    33  C    2.384881
    34  O   -1.613255
    35  H    0.519315
    36  O   -1.536402
 Sum of Mulliken charges =  -0.00000

 Dipole moment (field-independent basis, Debye):
    X=              8.3135    Y=             16.7402    Z=             -5.2234  Tot=             19.4070

 Test job not archived.
 1\1\GINC-SE249\SP\RHF\Aug-CC-pVDZ\C12H12O12\OHZDE\08-Apr-2025\0\\#t hf
  aug-cc-pvdz iop(5/13=1,5/36=2,99/5=2) pseudo=read geom=check guess=(r
 ead,tcheck) scf=(maxcycle=1)\\title\\0,1\C,0,-1.647553,10.845738,6.203
 201\O,0,-2.15126,10.135432,5.220314\H,0,-2.044314,9.136168,5.373168\O,
 0,-1.751616,12.068249,6.16272\C,0,-0.955798,10.207203,7.360275\H,0,-0.
 559945,10.946547,8.044089\C,0,-0.752528,8.923996,7.681774\H,0,-0.20685
 6,8.720057,8.594701\C,0,-1.192451,7.714058,6.945301\O,0,-0.824514,6.60
 6276,7.53547\H,0,-1.177353,5.797481,7.049024\O,0,-1.842498,7.729101,5.

 Normal termination of Gaussian 16 at Tue Apr  8 19:34:21 2025.
