 Gaussian 16, Revision C.01,

 ----------------------------------------------------------------------
 #t hf aug-cc-pvdz symm=none int=(grid=ultrafine) guess=(read,tcheck) s
 table=(opt,rrhf)
 ----------------------------------------------------------------------
 -----
 title
 -----
 Symbolic Z-matrix:
 Charge =  0 Multiplicity = 1

 SCF Done:  E(RHF) =  -299.743681657     A.U. after   14 cycles
 Normal termination of Gaussian 16 at Tue Apr  8 19:04:57 2025.
 Gaussian 16:  ES64L-G16RevC.01  3-Jul-2019

 ----------------------------------------------------------------------
 #t hf aug-cc-pvdz iop(5/13=1,5/36=2,99/5=2) pseudo=read geom=check gue
 ss=(read,tcheck) scf=(maxcycle=1)
 ----------------------------------------------------------------------
 -----
 title
 -----
 Structure from the checkpoint file:  "3B-69_14a_cyanoacetamide_dimerAC_mol3.chk"
 Charge =  0 Multiplicity = 1

                         Standard orientation:
 ---------------------------------------------------------------------
 Center     Atomic      Atomic             Coordinates (Angstroms)
 Number     Number       Type             X           Y           Z
 ---------------------------------------------------------------------
      1          6           0       -1.582478   -0.251012   -0.012987
      2          6           0       -0.279952   -0.866846    0.141214
      3          6           0        0.859133    0.153142    0.019186
      4          1           0       -0.184762   -1.675056   -0.582871
      5          1           0       -0.232632   -1.321462    1.134225
      6          1           0        2.881135    0.245901   -0.104343
      7          1           0        2.212777   -1.384224   -0.099706
      8          7           0       -2.615951    0.238652   -0.128840
      9          7           0        2.074360   -0.380695   -0.145108
     10          8           0        0.641800    1.364679    0.085731
 ---------------------------------------------------------------------

 SCF Done:  E(RHF) =  -300.041190919     A.U. after    2 cycles

 The electronic state is 1-A.
 Alpha  occ. eigenvalues --  -20.53248 -15.56317 -15.51538 -11.39483 -11.31752
 Alpha  occ. eigenvalues --  -11.28507  -1.47226  -1.26316  -1.23705  -1.08530
 Alpha  occ. eigenvalues --   -0.88063  -0.80238  -0.72499  -0.71074  -0.68131
 Alpha  occ. eigenvalues --   -0.62492  -0.60378  -0.59350  -0.50349  -0.49842
 Alpha  occ. eigenvalues --   -0.45804  -0.44908
 Alpha virt. eigenvalues --    0.01261   0.03866   0.04160   0.05090   0.08353
 Alpha virt. eigenvalues --    0.09083   0.10661   0.10939   0.11587   0.13161
 Alpha virt. eigenvalues --    0.14161   0.14211   0.14974   0.15872   0.16344

 Mulliken charges:
               1
     1  C   -1.407776
     2  C   -0.084246
     3  C    0.374386
     4  H    0.281917
     5  H    0.336673
     6  H    0.128172
     7  H    0.049997
     8  N    0.870730
     9  N    0.667612
    10  O   -1.217466
 Sum of Mulliken charges =  -0.00000

 Dipole moment (field-independent basis, Debye):
    X=              5.7412    Y=             -5.4666    Z=              0.5387  Tot=              7.9458

 Test job not archived.
 1\1\GINC-SE046\SP\RHF\Aug-CC-pVDZ\C3H4N2O1\OHZDE\08-Apr-2025\0\\#t hf
 aug-cc-pvdz iop(5/13=1,5/36=2,99/5=2) pseudo=read geom=check guess=(re
 ad,tcheck) scf=(maxcycle=1)\\title\\0,1\C,0,5.578016,24.531209,4.18029
 6\C,0,5.959025,25.683875,4.971369\C,0,5.523547,27.00179,4.318499\H,0,7
 .033398,25.650121,5.14786\H,0,5.473121,25.603895,5.947323\H,0,5.745653
 ,29.007129,4.522561\H,0,6.694405,28.03801,5.647154\N,0,5.270009,23.616
 585,3.555913\N,0,6.093512,28.097115,4.83246\O,0,4.699107,27.019141,3.4
 02268\\Version=ES64L-G16RevC.01\State=1-A\HF=-300.0411909\RMSD=2.255e-

 Normal termination of Gaussian 16 at Tue Apr  8 19:05:03 2025.
