 Gaussian 16, Revision C.01,

 ----------------------------------------------------------------------
 #t hf aug-cc-pvdz symm=none int=(grid=ultrafine) guess=(read,tcheck) s
 table=(opt,rrhf)
 ----------------------------------------------------------------------
 -----
 title
 -----
 Symbolic Z-matrix:
 Charge =  0 Multiplicity = 1

 SCF Done:  E(RHF) =  -230.728221026     A.U. after   11 cycles
 Normal termination of Gaussian 16 at Tue Apr  8 19:06:58 2025.
 Gaussian 16:  ES64L-G16RevC.01  3-Jul-2019

 ----------------------------------------------------------------------
 #t hf aug-cc-pvdz iop(5/13=1,5/36=2,99/5=2) pseudo=read geom=check gue
 ss=(read,tcheck) scf=(maxcycle=1)
 ----------------------------------------------------------------------
 -----
 title
 -----
 Structure from the checkpoint file:  "3B-69_19a_benzene_dimerAC_mol3.chk"
 Charge =  0 Multiplicity = 1

                         Standard orientation:
 ---------------------------------------------------------------------
 Center     Atomic      Atomic             Coordinates (Angstroms)
 Number     Number       Type             X           Y           Z
 ---------------------------------------------------------------------
      1          6           0       -0.717288   -1.192456   -0.002827
      2          6           0       -1.394810    0.023796    0.000543
      3          6           0        0.674809   -1.215763   -0.002460
      4          1           0       -1.276040   -2.119135    0.003107
      5          1           0       -2.476405    0.053351    0.004570
      6          1           0        1.193958   -2.162883    0.014751
      7          6           0        0.717288    1.192457    0.002826
      8          6           0        1.394809   -0.023796   -0.000543
      9          6           0       -0.674809    1.215763    0.002460
     10          1           0        1.276039    2.119136   -0.003107
     11          1           0        2.476411   -0.053355   -0.004564
     12          1           0       -1.193958    2.162883   -0.014751
 ---------------------------------------------------------------------

 SCF Done:  E(RHF) =  -230.970382571     A.U. after    2 cycles

 The electronic state is 1-A.
 Alpha  occ. eigenvalues --  -11.24281 -11.24262 -11.24239 -11.24158 -11.24157
 Alpha  occ. eigenvalues --  -11.24130  -1.15340  -1.01698  -1.01655  -0.83265
 Alpha  occ. eigenvalues --   -0.83221  -0.72337  -0.65038  -0.63737  -0.60112
 Alpha  occ. eigenvalues --   -0.60018  -0.51104  -0.50663  -0.50540  -0.34589
 Alpha  occ. eigenvalues --   -0.34554
 Alpha virt. eigenvalues --    0.03700   0.03799   0.03804   0.05286   0.05291
 Alpha virt. eigenvalues --    0.07877   0.10423   0.10452   0.12081   0.14101
 Alpha virt. eigenvalues --    0.14126   0.14593   0.14610   0.14652   0.14916

 Mulliken charges:
               1
     1  C    0.229789
     2  C    0.197109
     3  C    0.224219
     4  H   -0.214906
     5  H   -0.214981
     6  H   -0.221231
     7  C    0.229797
     8  C    0.197085
     9  C    0.224223
    10  H   -0.214905
    11  H   -0.214970
    12  H   -0.221230
 Sum of Mulliken charges =   0.00000

 Dipole moment (field-independent basis, Debye):
    X=             -0.0000    Y=             -0.0000    Z=              0.0000  Tot=              0.0000

 Test job not archived.
 1\1\GINC-SE335\SP\RHF\Aug-CC-pVDZ\C6H6\OHZDE\08-Apr-2025\0\\#t hf aug-
 cc-pvdz iop(5/13=1,5/36=2,99/5=2) pseudo=read geom=check guess=(read,t
 check) scf=(maxcycle=1)\\title\\0,1\C,0,11.571117,17.459389,10.02914\C
 ,0,12.03721,18.392292,10.95151\C,0,10.569132,17.809497,9.12807\H,0,11.
 996168,16.464449,10.00917\H,0,12.818468,18.132054,11.6534\H,0,10.22601
 6,17.08679,8.40225\C,0,10.494183,20.025411,10.06906\C,0,10.02809,19.09
 2508,9.14669\C,0,11.496168,19.675303,10.97013\H,0,10.069132,21.020351,
 10.08903\H,0,9.246832,19.352746,8.44479\H,0,11.839284,20.39801,11.6959

 Normal termination of Gaussian 16 at Tue Apr  8 19:07:02 2025.
