 Gaussian 16, Revision C.01,

 ----------------------------------------------------------------------
 #t hf aug-cc-pvdz symm=none int=(grid=ultrafine) guess=(read,tcheck) s
 table=(opt,rrhf)
 ----------------------------------------------------------------------
 -----
 title
 -----
 Symbolic Z-matrix:
 Charge =  0 Multiplicity = 1

 SCF Done:  E(RHF) =  -836.199941360     A.U. after   13 cycles
 Normal termination of Gaussian 16 at Tue Apr  8 19:16:51 2025.
 Gaussian 16:  ES64L-G16RevC.01  3-Jul-2019

 ----------------------------------------------------------------------
 #t hf aug-cc-pvdz iop(5/13=1,5/36=2,99/5=2) pseudo=read geom=check gue
 ss=(read,tcheck) scf=(maxcycle=1)
 ----------------------------------------------------------------------
 -----
 title
 -----
 Structure from the checkpoint file:  "3B-69_13b_triazine_trimer_mol1.chk"
 Charge =  0 Multiplicity = 1

                         Standard orientation:
 ---------------------------------------------------------------------
 Center     Atomic      Atomic             Coordinates (Angstroms)
 Number     Number       Type             X           Y           Z
 ---------------------------------------------------------------------
      1          6           0       -1.977909   -0.957818    0.559201
      2          7           0       -1.922938   -2.291709    0.579642
      3          1           0       -1.099540   -0.416766    0.885819
      4          6           0       -4.088438   -0.957818   -0.225593
      5          7           0       -3.033174   -0.240081    0.166804
      6          1           0       -4.966807   -0.416766   -0.552211
      7          6           0       -3.033174   -2.907863    0.166804
      8          7           0       -4.143410   -2.291709   -0.246034
      9          1           0       -3.033174   -3.989967    0.166804
     10          6           0        4.088438   -0.957819    0.225593
     11          7           0        4.143410   -2.291710    0.246034
     12          1           0        4.966807   -0.416767    0.552211
     13          6           0        1.977909   -0.957819   -0.559201
     14          7           0        3.033174   -0.240082   -0.166804
     15          1           0        1.099540   -0.416767   -0.885819
     16          6           0        3.033173   -2.907864   -0.166804
     17          7           0        1.922937   -2.291709   -0.579642
     18          1           0        3.033173   -3.989967   -0.166804
     19          6           0        1.055265    2.565652    0.392397
     20          7           0        1.110236    3.899543    0.412838
     21          1           0        1.933633    2.024600    0.719015
     22          6           0       -1.055264    2.565652   -0.392397
     23          7           0        0.000000    1.847915    0.000000
     24          1           0       -1.933633    2.024600   -0.719015
     25          6           0        0.000000    4.515697    0.000000
     26          7           0       -1.110236    3.899543   -0.412838
     27          1           0        0.000001    5.597800    0.000000
 ---------------------------------------------------------------------

 SCF Done:  E(RHF) =  -837.029852485     A.U. after    2 cycles

 The electronic state is 1-A.
 Alpha  occ. eigenvalues --  -15.52788 -15.52782 -15.52655 -15.52647 -15.52637
 Alpha  occ. eigenvalues --  -15.52476 -15.52470 -15.52397 -15.52362 -11.34878
 Alpha  occ. eigenvalues --  -11.34877 -11.34715 -11.34715 -11.34630 -11.34460
 Alpha  occ. eigenvalues --  -11.34455 -11.34378 -11.34377  -1.36033  -1.35996
 Alpha  occ. eigenvalues --   -1.35748  -1.22173  -1.22132  -1.22026  -1.21978
 Alpha  occ. eigenvalues --   -1.21942  -1.21778  -0.96453  -0.96352  -0.96283
 Alpha  occ. eigenvalues --   -0.96047  -0.95866  -0.95864  -0.79968  -0.79953
 Alpha  occ. eigenvalues --   -0.79773  -0.79024  -0.78348  -0.77712  -0.65159
 Alpha  occ. eigenvalues --   -0.64741  -0.64665  -0.64298  -0.64218  -0.64148
 Alpha  occ. eigenvalues --   -0.64057  -0.63879  -0.63819  -0.62083  -0.61363
 Alpha  occ. eigenvalues --   -0.60986  -0.49416  -0.49003  -0.48722  -0.48405
 Alpha  occ. eigenvalues --   -0.48026  -0.48023  -0.47778  -0.47678  -0.47610
 Alpha  occ. eigenvalues --   -0.47608  -0.47367  -0.47338
 Alpha virt. eigenvalues --    0.03063   0.04041   0.04115   0.04473   0.04972
 Alpha virt. eigenvalues --    0.05123   0.05155   0.05504   0.05624   0.05851
 Alpha virt. eigenvalues --    0.05919   0.06315   0.06467   0.06653   0.07226

 Mulliken charges:
               1
     1  C   -1.472530
     2  N    1.131533
     3  H    0.038999
     4  C   -0.751880
     5  N    0.997928
     6  H   -0.044235
     7  C   -0.730713
     8  N    0.858922
     9  H   -0.027826
    10  C   -0.751881
    11  N    0.858923
    12  H   -0.044234
    13  C   -1.472530
    14  N    0.997928
    15  H    0.038998
    16  C   -0.730713
    17  N    1.131533
    18  H   -0.027826
    19  C   -1.171776
    20  N    1.120118
    21  H   -0.014552
    22  C   -1.171777
    23  N    1.022075
    24  H   -0.014551
    25  C   -0.862144
    26  N    1.120118
    27  H   -0.027905
 Sum of Mulliken charges =  -0.00000

 Dipole moment (field-independent basis, Debye):
    X=             -0.0000    Y=             -0.1862    Z=             -0.0000  Tot=              0.1862

 Test job not archived.
 1\1\GINC-SE117\SP\RHF\Aug-CC-pVDZ\C9H9N9\OHZDE\08-Apr-2025\0\\#t hf au
 g-cc-pvdz iop(5/13=1,5/36=2,99/5=2) pseudo=read geom=check guess=(read
 ,tcheck) scf=(maxcycle=1)\\title\\0,1\C,0,-3.52347,8.354547,9.10125\N,
 0,-4.139624,7.170039,9.10125\H,0,-2.441366,8.354547,9.10125\C,0,-5.473
 515,9.480406,9.10125\N,0,-4.139624,9.539055,9.10125\H,0,-6.014567,10.4
 17535,9.10125\C,0,-5.473515,7.228688,9.10125\N,0,-6.191252,8.354547,9.
 10125\H,0,-6.014567,6.291559,9.10125\C,0,1.30003,5.569698,6.67425\N,0,
 0.683876,4.38519,6.67425\H,0,2.382134,5.569698,6.67425\C,0,-0.650015,6

 Normal termination of Gaussian 16 at Tue Apr  8 19:17:22 2025.
