 Gaussian 16, Revision C.01,

 ----------------------------------------------------------------------
 #t hf aug-cc-pvdz symm=none int=(grid=ultrafine) guess=(read,tcheck) s
 table=(opt,rrhf)
 ----------------------------------------------------------------------
 -----
 title
 -----
 Symbolic Z-matrix:
 Charge =  0 Multiplicity = 1

 SCF Done:  E(RHF) =  -887.762886801     A.U. after   15 cycles
 Normal termination of Gaussian 16 at Tue Apr  8 19:15:23 2025.
 Gaussian 16:  ES64L-G16RevC.01  3-Jul-2019

 ----------------------------------------------------------------------
 #t hf aug-cc-pvdz iop(5/13=1,5/36=2,99/5=2) pseudo=read geom=check gue
 ss=(read,tcheck) scf=(maxcycle=1)
 ----------------------------------------------------------------------
 -----
 title
 -----
 Structure from the checkpoint file:  "3B-69_15a_cyanoguanidine_trimer_mol1.chk"
 Charge =  0 Multiplicity = 1

                         Standard orientation:
 ---------------------------------------------------------------------
 Center     Atomic      Atomic             Coordinates (Angstroms)
 Number     Number       Type             X           Y           Z
 ---------------------------------------------------------------------
      1          7           0       -5.708468   -1.790213   -0.867811
      2          6           0       -4.817632   -1.680903   -0.118894
      3          7           0       -3.899361   -1.576887    0.786335
      4          6           0       -2.613644   -1.398246    0.442038
      5          7           0       -2.193883   -1.275123   -0.822089
      6          7           0       -1.720945   -1.314530    1.427201
      7          1           0       -1.198214   -1.254196   -1.008494
      8          1           0       -2.824197   -1.344752   -1.611894
      9          1           0       -0.744144   -1.177505    1.191893
     10          1           0       -2.025927   -1.451914    2.390593
     11          7           0        2.571446    2.413476    0.074558
     12          6           0        1.533935    2.951977    0.075022
     13          7           0        0.436901    3.637493    0.083112
     14          6           0       -0.752022    3.031345   -0.067123
     15          7           0       -0.899971    1.707728   -0.191712
     16          7           0       -1.838259    3.802413   -0.063485
     17          1           0       -1.816017    1.335135   -0.412111
     18          1           0       -0.110359    1.073796   -0.215778
     19          1           0       -2.747527    3.367123   -0.173205
     20          1           0       -1.731531    4.815413   -0.013975
     21          7           0        0.747616   -0.927100   -0.223794
     22          6           0        1.785128   -1.465601   -0.224259
     23          7           0        2.882161   -2.151117   -0.232349
     24          6           0        4.071084   -1.544970   -0.082114
     25          7           0        4.219034   -0.221353    0.042476
     26          7           0        5.157321   -2.316037   -0.085752
     27          1           0        5.135080    0.151241    0.262875
     28          1           0        3.429422    0.412579    0.066542
     29          1           0        6.066590   -1.880747    0.023969
     30          1           0        5.050593   -3.329038   -0.135262
 ---------------------------------------------------------------------

 SCF Done:  E(RHF) =  -888.652418226     A.U. after    2 cycles

 The electronic state is 1-A.
 Alpha  occ. eigenvalues --  -15.58349 -15.56739 -15.56629 -15.55476 -15.54379
 Alpha  occ. eigenvalues --  -15.53691 -15.52386 -15.50546 -15.50046 -15.47920
 Alpha  occ. eigenvalues --  -15.47816 -15.45137 -11.43392 -11.41498 -11.39520
 Alpha  occ. eigenvalues --  -11.33777 -11.30062 -11.26657  -1.37190  -1.35417
 Alpha  occ. eigenvalues --   -1.33473  -1.26834  -1.24269  -1.23663  -1.22197
 Alpha  occ. eigenvalues --   -1.21741  -1.20962  -1.20528  -1.18006  -1.15247
 Alpha  occ. eigenvalues --   -0.95932  -0.93983  -0.91849  -0.87693  -0.86144
 Alpha  occ. eigenvalues --   -0.84283  -0.82769  -0.81331  -0.79678  -0.76016
 Alpha  occ. eigenvalues --   -0.74450  -0.74095  -0.73348  -0.72269  -0.71363
 Alpha  occ. eigenvalues --   -0.68373  -0.66599  -0.64840  -0.62954  -0.60376
 Alpha  occ. eigenvalues --   -0.59850  -0.58122  -0.57697  -0.56710  -0.55315
 Alpha  occ. eigenvalues --   -0.54701  -0.52799  -0.51376  -0.50214  -0.48421
 Alpha  occ. eigenvalues --   -0.47720  -0.44550  -0.43753  -0.41705  -0.40770
 Alpha  occ. eigenvalues --   -0.38134
 Alpha virt. eigenvalues --    0.00682   0.02561   0.03391   0.03812   0.04687
 Alpha virt. eigenvalues --    0.04850   0.05269   0.06369   0.06692   0.07497
 Alpha virt. eigenvalues --    0.08294   0.08705   0.08887   0.09469   0.09716

 Mulliken charges:
               1
     1  N    0.919028
     2  C   -1.446187
     3  N    0.724826
     4  C   -2.019861
     5  N    0.557607
     6  N    0.761288
     7  H   -0.069628
     8  H    0.307817
     9  H    0.095522
    10  H    0.215824
    11  N    1.051271
    12  C   -1.869400
    13  N    0.828109
    14  C   -1.667087
    15  N    0.343162
    16  N    0.708829
    17  H    0.096420
    18  H    0.167002
    19  H    0.188266
    20  H    0.159437
    21  N    0.479356
    22  C   -1.458936
    23  N    0.840582
    24  C   -1.972248
    25  N    0.639869
    26  N    0.780472
    27  H    0.079419
    28  H    0.249906
    29  H    0.162154
    30  H    0.147182
 Sum of Mulliken charges =  -0.00000

 Dipole moment (field-independent basis, Debye):
    X=             11.6788    Y=              1.0000    Z=              1.2894  Tot=             11.7922

 Test job not archived.
 1\1\GINC-SE403\SP\RHF\Aug-CC-pVDZ\C6H12N12\OHZDE\08-Apr-2025\0\\#t hf
 aug-cc-pvdz iop(5/13=1,5/36=2,99/5=2) pseudo=read geom=check guess=(re
 ad,tcheck) scf=(maxcycle=1)\\title\\0,1\N,0,3.187601,4.376465,-1.49664
 1\C,0,2.374574,4.877151,-0.822315\N,0,1.447054,5.48737,-0.158373\C,0,1
 .185537,5.156956,1.116757\N,0,1.867065,4.229109,1.797929\N,0,0.206646,
 5.817607,1.733021\H,0,1.540497,3.95731,2.717722\H,0,2.611069,3.685335,
 1.377566\H,0,-0.007785,5.587082,2.696952\H,0,-0.346843,6.49436,1.20798
 1\N,0,1.420831,6.588365,7.397293\C,0,2.233857,7.089051,6.722967\N,0,3.

 Normal termination of Gaussian 16 at Tue Apr  8 19:15:57 2025.
