 Gaussian 16, Revision C.01,

 ----------------------------------------------------------------------
 #t hf aug-cc-pvdz symm=none int=(grid=ultrafine) guess=(read,tcheck) s
 table=(opt,rrhf)
 ----------------------------------------------------------------------
 -----
 title
 -----
 Symbolic Z-matrix:
 Charge =  0 Multiplicity = 1

 SCF Done:  E(RHF) =  -781.273004604     A.U. after   13 cycles
 Normal termination of Gaussian 16 at Tue Apr  8 19:09:59 2025.
 Gaussian 16:  ES64L-G16RevC.01  3-Jul-2019

 ----------------------------------------------------------------------
 #t hf aug-cc-pvdz iop(5/13=1,5/36=2,99/5=2) pseudo=read geom=check gue
 ss=(read,tcheck) scf=(maxcycle=1)
 ----------------------------------------------------------------------
 -----
 title
 -----
 Structure from the checkpoint file:  "3B-69_16b_triazolidinedione_dimerAC_mol1.chk"
 Charge =  0 Multiplicity = 1

                         Standard orientation:
 ---------------------------------------------------------------------
 Center     Atomic      Atomic             Coordinates (Angstroms)
 Number     Number       Type             X           Y           Z
 ---------------------------------------------------------------------
      1          7           0       -2.942915    1.491987   -0.093756
      2          7           0       -3.792176    0.380149    0.048861
      3          6           0       -3.019276   -0.747548    0.027163
      4          7           0       -1.712914   -0.308458    0.073336
      5          6           0       -1.657408    1.067805    0.008006
      6          8           0       -3.386221   -1.918446   -0.000399
      7          8           0       -0.640441    1.763890    0.034571
      8          1           0       -3.221675    2.380261    0.341562
      9          1           0       -4.678806    0.403175   -0.454606
     10          1           0       -0.889200   -0.929370    0.049105
     11          7           0        2.942914   -1.491986    0.093756
     12          7           0        3.792175   -0.380148   -0.048861
     13          6           0        3.019277    0.747548   -0.027164
     14          7           0        1.712914    0.308458   -0.073335
     15          6           0        1.657408   -1.067805   -0.008006
     16          8           0        3.386221    1.918447    0.000399
     17          8           0        0.640441   -1.763890   -0.034571
     18          1           0        3.221675   -2.380261   -0.341562
     19          1           0        4.678806   -0.403175    0.454606
     20          1           0        0.889200    0.929370   -0.049105
 ---------------------------------------------------------------------

 SCF Done:  E(RHF) =  -782.043855475     A.U. after    2 cycles

 The electronic state is 1-A.
 Alpha  occ. eigenvalues --  -20.54866 -20.54866 -20.52729 -20.52729 -15.60369
 Alpha  occ. eigenvalues --  -15.60336 -15.59590 -15.59584 -15.56186 -15.56181
 Alpha  occ. eigenvalues --  -11.42951 -11.42946 -11.41432 -11.41432  -1.51169
 Alpha  occ. eigenvalues --   -1.50414  -1.47721  -1.47471  -1.40736  -1.40395
 Alpha  occ. eigenvalues --   -1.26190  -1.26030  -1.17627  -1.17601  -0.95717
 Alpha  occ. eigenvalues --   -0.94462  -0.91913  -0.91486  -0.83494  -0.82182
 Alpha  occ. eigenvalues --   -0.78444  -0.78417  -0.75236  -0.75132  -0.71721
 Alpha  occ. eigenvalues --   -0.71591  -0.67667  -0.67165  -0.64648  -0.64512
 Alpha  occ. eigenvalues --   -0.59866  -0.59529  -0.58144  -0.57770  -0.50650
 Alpha  occ. eigenvalues --   -0.49012  -0.46642  -0.45908  -0.45637  -0.45589
 Alpha  occ. eigenvalues --   -0.43334  -0.43180
 Alpha virt. eigenvalues --    0.02074   0.02742   0.04428   0.04826   0.05603
 Alpha virt. eigenvalues --    0.07973   0.08364   0.09126   0.09310   0.09585
 Alpha virt. eigenvalues --    0.09930   0.11114   0.11608   0.12616   0.12911

 Mulliken charges:
               1
     1  N    0.342199
     2  N    0.310794
     3  C    0.382088
     4  N    0.747598
     5  C    0.076659
     6  O   -1.161705
     7  O   -1.358682
     8  H    0.224741
     9  H    0.179683
    10  H    0.256626
    11  N    0.342198
    12  N    0.310796
    13  C    0.382088
    14  N    0.747597
    15  C    0.076657
    16  O   -1.161704
    17  O   -1.358683
    18  H    0.224741
    19  H    0.179682
    20  H    0.256628
 Sum of Mulliken charges =  -0.00000

 Dipole moment (field-independent basis, Debye):
    X=              0.0000    Y=              0.0000    Z=             -0.0000  Tot=              0.0000

 Test job not archived.
 1\1\GINC-SE150\SP\RHF\Aug-CC-pVDZ\C4H6N6O4\OHZDE\08-Apr-2025\0\\#t hf
 aug-cc-pvdz iop(5/13=1,5/36=2,99/5=2) pseudo=read geom=check guess=(re
 ad,tcheck) scf=(maxcycle=1)\\title\\0,1\N,0,-0.050072,2.63415,3.305578
 \N,0,-0.508443,1.631479,4.178684\C,0,-0.094523,1.94988,5.442343\N,0,0.
 428735,3.222814,5.356588\C,0,0.451861,3.654419,4.047148\O,0,-0.182753,
 1.27341,6.462645\O,0,0.852126,4.747272,3.641043\H,0,-0.602367,2.840582
 ,2.463796\H,0,-0.455705,0.667432,3.850119\H,0,0.845509,3.735184,6.1493
 04\N,0,2.542325,6.87885,7.646573\N,0,3.000696,7.881521,6.773467\C,0,2.

 Normal termination of Gaussian 16 at Tue Apr  8 19:10:14 2025.
