 Gaussian 16, Revision C.01,

 ----------------------------------------------------------------------
 #t hf aug-cc-pvdz symm=none int=(grid=ultrafine) guess=(read,tcheck) s
 table=(opt,rrhf)
 ----------------------------------------------------------------------
 -----
 title
 -----
 Symbolic Z-matrix:
 Charge =  0 Multiplicity = 1

 SCF Done:  E(RHF) =  -390.627011433     A.U. after   13 cycles
 Normal termination of Gaussian 16 at Tue Apr  8 19:06:01 2025.
 Gaussian 16:  ES64L-G16RevC.01  3-Jul-2019

 ----------------------------------------------------------------------
 #t hf aug-cc-pvdz iop(5/13=1,5/36=2,99/5=2) pseudo=read geom=check gue
 ss=(read,tcheck) scf=(maxcycle=1)
 ----------------------------------------------------------------------
 -----
 title
 -----
 Structure from the checkpoint file:  "3B-69_16a_triazolidinedione_dimerAB_mol3.chk"
 Charge =  0 Multiplicity = 1

                         Standard orientation:
 ---------------------------------------------------------------------
 Center     Atomic      Atomic             Coordinates (Angstroms)
 Number     Number       Type             X           Y           Z
 ---------------------------------------------------------------------
      1          7           0       -0.703068    1.122029    0.073607
      2          7           0        0.694843    1.134570   -0.079528
      3          6           0        1.138306   -0.157375   -0.018206
      4          7           0        0.005884   -0.944133   -0.030228
      5          6           0       -1.130884   -0.165075    0.017486
      6          8           0        2.296901   -0.561116    0.014440
      7          8           0       -2.296585   -0.565797    0.012534
      8          1           0       -1.252395    1.861246   -0.382507
      9          1           0        1.209254    1.875777    0.395990
     10          1           0        0.012464   -1.974269    0.028090
 ---------------------------------------------------------------------

 SCF Done:  E(RHF) =  -391.012932700     A.U. after    2 cycles

 The electronic state is 1-A.
 Alpha  occ. eigenvalues --  -20.53693 -20.53401 -15.60297 -15.59823 -15.58203
 Alpha  occ. eigenvalues --  -11.42479 -11.42287  -1.50090  -1.47465  -1.40654
 Alpha  occ. eigenvalues --   -1.27038  -1.17721  -0.95634  -0.92334  -0.82738
 Alpha  occ. eigenvalues --   -0.78701  -0.75456  -0.72107  -0.66655  -0.64713
 Alpha  occ. eigenvalues --   -0.59413  -0.58758  -0.48764  -0.46047  -0.45772
 Alpha  occ. eigenvalues --   -0.43314
 Alpha virt. eigenvalues --    0.02039   0.04599   0.04831   0.09229   0.09319
 Alpha virt. eigenvalues --    0.09589   0.10046   0.10437   0.11425   0.13331
 Alpha virt. eigenvalues --    0.14395   0.14690   0.15089   0.16041   0.16773

 Mulliken charges:
               1
     1  N    0.150617
     2  N    0.119573
     3  C    0.500237
     4  N    0.404653
     5  C    0.492115
     6  O   -1.116969
     7  O   -1.126618
     8  H    0.202090
     9  H    0.198601
    10  H    0.175701
 Sum of Mulliken charges =  -0.00000

 Dipole moment (field-independent basis, Debye):
    X=              0.0458    Y=              2.6443    Z=              0.0807  Tot=              2.6459

 Test job not archived.
 1\1\GINC-SE184\SP\RHF\Aug-CC-pVDZ\C2H3N3O2\OHZDE\08-Apr-2025\0\\#t hf
 aug-cc-pvdz iop(5/13=1,5/36=2,99/5=2) pseudo=read geom=check guess=(re
 ad,tcheck) scf=(maxcycle=1)\\title\\0,1\N,0,4.758199,16.90365,2.170497
 \N,0,5.216569,15.90098,1.297392\C,0,4.80265,16.21938,0.033733\N,0,4.27
 9392,17.492314,0.119488\C,0,4.256265,17.923919,1.428927\O,0,4.89088,15
 .54291,-0.98657\O,0,3.856001,19.016772,1.835033\H,0,5.310494,17.110082
 ,3.01228\H,0,5.163831,14.936932,1.625956\H,0,3.862617,18.004684,-0.673
 229\\Version=ES64L-G16RevC.01\State=1-A\HF=-391.0129327\RMSD=1.847e-02

 Normal termination of Gaussian 16 at Tue Apr  8 19:06:05 2025.
