 Gaussian 16, Revision C.01,

 ----------------------------------------------------------------------
 #t hf aug-cc-pvdz symm=none int=(grid=ultrafine) guess=(read,tcheck) s
 table=(opt,rrhf)
 ----------------------------------------------------------------------
 -----
 title
 -----
 Symbolic Z-matrix:
 Charge =  0 Multiplicity = 1

 SCF Done:  E(RHF) =  -227.772752568     A.U. after   14 cycles
 Normal termination of Gaussian 16 at Tue Apr  8 18:53:50 2025.
 Gaussian 16:  ES64L-G16RevC.01  3-Jul-2019

 ----------------------------------------------------------------------
 #t hf aug-cc-pvdz iop(5/13=1,5/36=2,99/5=2) pseudo=read geom=check gue
 ss=(read,tcheck) scf=(maxcycle=1)
 ----------------------------------------------------------------------
 -----
 title
 -----
 Structure from the checkpoint file:  "3B-69_02a_formaldehyde_dimerAB_mol1.chk"
 Charge =  0 Multiplicity = 1

                         Standard orientation:
 ---------------------------------------------------------------------
 Center     Atomic      Atomic             Coordinates (Angstroms)
 Number     Number       Type             X           Y           Z
 ---------------------------------------------------------------------
      1          8           0        2.888445   -0.121483   -0.061604
      2          6           0        1.723126    0.166225    0.103411
      3          1           0        1.374396    1.206496    0.026792
      4          1           0        0.962286   -0.591915    0.330000
      5          8           0       -1.584429   -0.201491   -0.122157
      6          6           0       -2.749749    0.086217    0.042858
      7          1           0       -3.098479    1.126487   -0.033761
      8          1           0       -3.510588   -0.671924    0.269446
 ---------------------------------------------------------------------

 SCF Done:  E(RHF) =  -227.998284093     A.U. after    2 cycles

 The electronic state is 1-A.
 Alpha  occ. eigenvalues --  -20.58242 -20.54783 -11.37029 -11.33389  -1.50170
 Alpha  occ. eigenvalues --   -1.46687  -0.89630  -0.85915  -0.71516  -0.68192
 Alpha  occ. eigenvalues --   -0.67043  -0.63348  -0.55040  -0.51586  -0.45326
 Alpha  occ. eigenvalues --   -0.41772
 Alpha virt. eigenvalues --    0.02570   0.03872   0.05396   0.05902   0.06835
 Alpha virt. eigenvalues --    0.08456   0.10167   0.13267   0.14506   0.14930
 Alpha virt. eigenvalues --    0.15208   0.15980   0.17467   0.18878   0.24142

 Mulliken charges:
               1
     1  O   -0.896189
     2  C    0.678989
     3  H    0.095443
     4  H    0.125596
     5  O   -0.833352
     6  C    0.656457
     7  H    0.092082
     8  H    0.080974
 Sum of Mulliken charges =  -0.00000

 Dipole moment (field-independent basis, Debye):
    X=             -5.6671    Y=              1.2492    Z=              0.7326  Tot=              5.8492

 Test job not archived.
 1\1\GINC-SE340\SP\RHF\Aug-CC-pVDZ\C2H4O2\OHZDE\08-Apr-2025\0\\#t hf au
 g-cc-pvdz iop(5/13=1,5/36=2,99/5=2) pseudo=read geom=check guess=(read
 ,tcheck) scf=(maxcycle=1)\\title\\0,1\O,0,2.074088,0.498855,1.635515\C
 ,0,2.169454,0.15428,2.793163\H,0,2.970226,-0.523067,3.124239\H,0,1.470
 34,0.502963,3.564302\O,0,2.074088,0.498855,6.109515\C,0,2.169454,0.154
 28,7.267163\H,0,2.970226,-0.523067,7.598239\H,0,1.47034,0.502963,8.038
 302\\Version=ES64L-G16RevC.01\State=1-A\HF=-227.9982841\RMSD=6.648e-03
 \Dipole=0.1593036,-0.5984394,2.2163745\Quadrupole=0.3407069,0.105028,-

 Normal termination of Gaussian 16 at Tue Apr  8 18:53:51 2025.
