 Gaussian 16, Revision C.01,

 ----------------------------------------------------------------------
 #t hf aug-cc-pvdz symm=none int=(grid=ultrafine) guess=(read,tcheck) s
 table=(opt,rrhf)
 ----------------------------------------------------------------------
 -----
 title
 -----
 Symbolic Z-matrix:
 Charge =  0 Multiplicity = 1

 SCF Done:  E(RHF) =  -395.834350743     A.U. after   13 cycles
 Normal termination of Gaussian 16 at Tue Apr  8 18:59:47 2025.
 Gaussian 16:  ES64L-G16RevC.01  3-Jul-2019

 ----------------------------------------------------------------------
 #t hf aug-cc-pvdz iop(5/13=1,5/36=2,99/5=2) pseudo=read geom=check gue
 ss=(read,tcheck) scf=(maxcycle=1)
 ----------------------------------------------------------------------
 -----
 title
 -----
 Structure from the checkpoint file:  "3B-69_04c_acetonitrile_trimer_mol1.chk"
 Charge =  0 Multiplicity = 1

                         Standard orientation:
 ---------------------------------------------------------------------
 Center     Atomic      Atomic             Coordinates (Angstroms)
 Number     Number       Type             X           Y           Z
 ---------------------------------------------------------------------
      1          7           0        1.345657   -0.228267    0.000000
      2          6           0       -1.237761    0.097252    0.000000
      3          6           0        0.203055   -0.079082    0.000000
      4          1           0       -1.724382   -0.878108    0.000000
      5          1           0       -1.540978    0.649395    0.889258
      6          1           0       -1.540978    0.649395   -0.889258
      7          7           0       -0.337503   -6.101660    0.000000
      8          6           0        0.345073   -3.588873    0.000000
      9          6           0       -0.040432   -4.988312    0.000000
     10          1           0        1.432246   -3.510247    0.000000
     11          1           0       -0.050042   -3.098276   -0.889258
     12          1           0       -0.050042   -3.098276    0.889258
     13          7           0       -0.337503    3.390668    0.000000
     14          6           0        0.345073    5.903455    0.000000
     15          6           0       -0.040432    4.504016    0.000000
     16          1           0        1.432246    5.982081    0.000000
     17          1           0       -0.050042    6.394052   -0.889258
     18          1           0       -0.050042    6.394052    0.889258
 ---------------------------------------------------------------------

 SCF Done:  E(RHF) =  -396.236692194     A.U. after    2 cycles

 The electronic state is 1-A'.
 Alpha  occ. eigenvalues --  -15.52504 -15.50801 -15.50287 -11.30493 -11.29957
 Alpha  occ. eigenvalues --  -11.28611 -11.28233 -11.28208 -11.27546  -1.24798
 Alpha  occ. eigenvalues --   -1.23150  -1.22541  -1.06011  -1.04081  -1.03702
 Alpha  occ. eigenvalues --   -0.72103  -0.70286  -0.69818  -0.65087  -0.65021
 Alpha  occ. eigenvalues --   -0.63865  -0.63270  -0.62837  -0.62608  -0.61217
 Alpha  occ. eigenvalues --   -0.59810  -0.59127  -0.50889  -0.50883  -0.49195
 Alpha  occ. eigenvalues --   -0.49185  -0.48578  -0.48576
 Alpha virt. eigenvalues --    0.02022   0.03485   0.04195   0.04444   0.04460
 Alpha virt. eigenvalues --    0.05063   0.05368   0.07338   0.07500   0.07821
 Alpha virt. eigenvalues --    0.09162   0.11605   0.12178   0.12425   0.12706

 Mulliken charges:
               1
     1  N    0.759604
     2  C   -0.111874
     3  C   -1.317986
     4  H    0.113356
     5  H    0.286707
     6  H    0.286707
     7  N    0.889485
     8  C    0.229516
     9  C   -1.852802
    10  H    0.242383
    11  H    0.239068
    12  H    0.239068
    13  N    0.852573
    14  C   -0.146803
    15  C   -1.466862
    16  H    0.254798
    17  H    0.251531
    18  H    0.251531
 Sum of Mulliken charges =  -0.00000

 Dipole moment (field-independent basis, Debye):
    X=             -2.0481    Y=             10.5835    Z=             -0.0000  Tot=             10.7799

 Test job not archived.
 1\1\GINC-SE460\SP\RHF\Aug-CC-pVDZ\C6H9N3\OHZDE\08-Apr-2025\0\\#t hf au
 g-cc-pvdz iop(5/13=1,5/36=2,99/5=2) pseudo=read geom=check guess=(read
 ,tcheck) scf=(maxcycle=1)\\title\\0,1\N,0,0.,7.615376,7.171412\C,0,0.,
 5.649997,8.879421\C,0,0.,6.749023,7.931167\H,0,0.,4.702934,8.339793\H,
 0,0.889258,5.705299,9.506911\H,0,-0.889258,5.705299,9.506911\N,0,0.,2.
 948624,3.227912\C,0,0.,4.914003,4.935921\C,0,0.,3.814977,3.987667\H,0,
 0.,5.861066,4.396293\H,0,-0.889258,4.858701,5.563411\H,0,0.889258,4.85
 8701,5.563411\N,0,0.,8.230624,11.114912\C,0,0.,10.196003,12.822921\C,0

 Normal termination of Gaussian 16 at Tue Apr  8 18:59:52 2025.
