 Gaussian 16, Revision C.01,

 ----------------------------------------------------------------------
 #t hf aug-cc-pvdz symm=none int=(grid=ultrafine) guess=(read,tcheck) s
 table=(opt,rrhf)
 ----------------------------------------------------------------------
 -----
 title
 -----
 Symbolic Z-matrix:
 Charge =  0 Multiplicity = 1

 SCF Done:  E(RHF) =  -599.481993546     A.U. after   14 cycles
 Normal termination of Gaussian 16 at Tue Apr  8 19:07:37 2025.
 Gaussian 16:  ES64L-G16RevC.01  3-Jul-2019

 ----------------------------------------------------------------------
 #t hf aug-cc-pvdz iop(5/13=1,5/36=2,99/5=2) pseudo=read geom=check gue
 ss=(read,tcheck) scf=(maxcycle=1)
 ----------------------------------------------------------------------
 -----
 title
 -----
 Structure from the checkpoint file:  "3B-69_14b_cyanoacetamide_dimerAB_mol1.chk"
 Charge =  0 Multiplicity = 1

                         Standard orientation:
 ---------------------------------------------------------------------
 Center     Atomic      Atomic             Coordinates (Angstroms)
 Number     Number       Type             X           Y           Z
 ---------------------------------------------------------------------
      1          6           0       -1.443343   -1.192787    0.280044
      2          6           0       -3.105017    0.611807   -0.055500
      3          6           0       -2.046449    0.118204    0.803403
      4          1           0       -1.291383    0.898386    0.904715
      5          1           0       -2.458306   -0.034721    1.803627
      6          1           0        0.034654   -2.525632    0.684888
      7          1           0       -0.040922   -1.140564    1.777819
      8          7           0       -0.419948   -1.665064    0.997395
      9          7           0       -3.945311    1.006138   -0.733789
     10          8           0       -1.914325   -1.761783   -0.707900
     11          6           0        1.444612    1.202372   -0.202716
     12          6           0        3.086314   -0.649948   -0.139203
     13          6           0        2.619272    0.545335    0.535402
     14          1           0        3.460382    1.230262    0.647109
     15          1           0        2.316102    0.272089    1.548755
     16          1           0        0.242014    2.837011   -0.121695
     17          1           0        1.484998    2.762401    1.130521
     18          7           0        1.010145    2.343982    0.338521
     19          7           0        3.459153   -1.598585   -0.670943
     20          8           0        0.938307    0.672479   -1.194927
 ---------------------------------------------------------------------

 SCF Done:  E(RHF) =  -600.074708791     A.U. after    2 cycles

 The electronic state is 1-A.
 Alpha  occ. eigenvalues --  -20.54974 -20.52252 -15.58270 -15.55584 -15.53148
 Alpha  occ. eigenvalues --  -15.51186 -11.41224 -11.38647 -11.33630 -11.31307
 Alpha  occ. eigenvalues --  -11.30040 -11.28184  -1.48918  -1.46111  -1.28264
 Alpha  occ. eigenvalues --   -1.25603  -1.25271  -1.23340  -1.10308  -1.08001
 Alpha  occ. eigenvalues --   -0.89999  -0.87470  -0.82173  -0.79670  -0.74356
 Alpha  occ. eigenvalues --   -0.72431  -0.72011  -0.70550  -0.69995  -0.68020
 Alpha  occ. eigenvalues --   -0.64116  -0.61828  -0.61625  -0.61170  -0.59942
 Alpha  occ. eigenvalues --   -0.58629  -0.51833  -0.51429  -0.49923  -0.49477
 Alpha  occ. eigenvalues --   -0.47514  -0.46622  -0.44767  -0.43967
 Alpha virt. eigenvalues --   -0.00150   0.01652   0.02605   0.03729   0.04401
 Alpha virt. eigenvalues --    0.05275   0.06344   0.06537   0.07721   0.08616
 Alpha virt. eigenvalues --    0.09494   0.10116   0.10528   0.10994   0.11550

 Mulliken charges:
               1
     1  C    0.206252
     2  C   -1.577711
     3  C   -0.036070
     4  H    0.295578
     5  H    0.321959
     6  H    0.105072
     7  H    0.025884
     8  N    0.941479
     9  N    0.983246
    10  O   -1.287117
    11  C    0.027481
    12  C   -1.477530
    13  C   -0.008085
    14  H    0.241381
    15  H    0.343872
    16  H    0.102637
    17  H    0.071927
    18  N    0.989099
    19  N    0.957550
    20  O   -1.226905
 Sum of Mulliken charges =  -0.00000

 Dipole moment (field-independent basis, Debye):
    X=              5.2958    Y=              5.5834    Z=             10.0964  Tot=             12.6948

 Test job not archived.
 1\1\GINC-SE219\SP\RHF\Aug-CC-pVDZ\C6H8N4O2\OHZDE\08-Apr-2025\0\\#t hf
 aug-cc-pvdz iop(5/13=1,5/36=2,99/5=2) pseudo=read geom=check guess=(re
 ad,tcheck) scf=(maxcycle=1)\\title\\0,1\C,0,2.712508,16.885489,6.36813
 8\C,0,2.839569,14.413417,6.423138\C,0,2.199576,15.555103,5.799531\H,0,
 2.351814,15.490712,4.721686\H,0,1.121642,15.473767,5.957336\H,0,2.5237
 51,18.891506,6.112956\H,0,1.586888,17.904765,4.987234\N,0,2.203727,17.
 976476,5.788601\N,0,3.344448,13.505572,6.915663\O,0,3.504903,16.911923
 ,7.313138\C,0,4.07858,17.004511,2.842545\C,0,4.205641,19.476583,2.8975

 Normal termination of Gaussian 16 at Tue Apr  8 19:07:50 2025.
