 Gaussian 16, Revision C.01,

 ----------------------------------------------------------------------
 #t hf aug-cc-pvdz symm=none int=(grid=ultrafine) guess=(read,tcheck) s
 table=(opt,rrhf)
 ----------------------------------------------------------------------
 -----
 title
 -----
 Symbolic Z-matrix:
 Charge =  0 Multiplicity = 1

 SCF Done:  E(RHF) =  -379.283118320     A.U. after   12 cycles
 Normal termination of Gaussian 16 at Tue Apr  8 19:07:59 2025.
 Gaussian 16:  ES64L-G16RevC.01  3-Jul-2019

 ----------------------------------------------------------------------
 #t hf aug-cc-pvdz iop(5/13=1,5/36=2,99/5=2) pseudo=read geom=check gue
 ss=(read,tcheck) scf=(maxcycle=1)
 ----------------------------------------------------------------------
 -----
 title
 -----
 Structure from the checkpoint file:  "3B-69_21a_p-benzoquinone_dimerAB_mol2.chk"
 Charge =  0 Multiplicity = 1

                         Standard orientation:
 ---------------------------------------------------------------------
 Center     Atomic      Atomic             Coordinates (Angstroms)
 Number     Number       Type             X           Y           Z
 ---------------------------------------------------------------------
      1          8           0       -2.656299    0.000049    0.002256
      2          6           0       -1.430532    0.001920   -0.003925
      3          6           0       -0.668254    1.271622   -0.003403
      4          1           0       -1.243047    2.189353    0.005770
      5          6           0       -0.668888   -1.269783    0.000173
      6          1           0       -1.257556   -2.180053   -0.006741
      7          8           0        2.656299   -0.000049   -0.002257
      8          6           0        1.430532   -0.001920    0.003925
      9          6           0        0.668887    1.269784   -0.000173
     10          1           0        1.257555    2.180054    0.006741
     11          6           0        0.668254   -1.271622    0.003404
     12          1           0        1.243047   -2.189353   -0.005770
 ---------------------------------------------------------------------

 SCF Done:  E(RHF) =  -379.656495001     A.U. after    2 cycles

 The electronic state is 1-A.
 Alpha  occ. eigenvalues --  -20.56900 -20.56898 -11.37105 -11.37082 -11.29270
 Alpha  occ. eigenvalues --  -11.29249 -11.29156 -11.29130  -1.49135  -1.48986
 Alpha  occ. eigenvalues --   -1.17021  -1.08265  -0.97652  -0.88500  -0.84669
 Alpha  occ. eigenvalues --   -0.73258  -0.72637  -0.69513  -0.65836  -0.63695
 Alpha  occ. eigenvalues --   -0.61103  -0.60109  -0.58998  -0.55424  -0.45981
 Alpha  occ. eigenvalues --   -0.44384  -0.42306  -0.41855
 Alpha virt. eigenvalues --   -0.00267   0.03172   0.03357   0.04472   0.05403
 Alpha virt. eigenvalues --    0.08357   0.09321   0.09987   0.11539   0.12292
 Alpha virt. eigenvalues --    0.12896   0.12931   0.12976   0.13926   0.14082

 Mulliken charges:
               1
     1  O   -1.415188
     2  C    0.644684
     3  C    0.598249
     4  H   -0.193054
     5  C    0.564032
     6  H   -0.198716
     7  O   -1.415189
     8  C    0.644685
     9  C    0.564024
    10  H   -0.198716
    11  C    0.598242
    12  H   -0.193053
 Sum of Mulliken charges =  -0.00000

 Dipole moment (field-independent basis, Debye):
    X=             -0.0000    Y=              0.0000    Z=              0.0000  Tot=              0.0000

 Test job not archived.
 1\1\GINC-SE338\SP\RHF\Aug-CC-pVDZ\C6H4O2\OHZDE\08-Apr-2025\0\\#t hf au
 g-cc-pvdz iop(5/13=1,5/36=2,99/5=2) pseudo=read geom=check guess=(read
 ,tcheck) scf=(maxcycle=1)\\title\\0,1\O,0,0.080654,12.312048,7.623703\
 C,0,-0.510475,11.31644,7.221364\C,0,0.018253,9.957365,7.479383\H,0,0.9
 42935,9.888301,8.038752\C,0,-1.783484,11.439808,6.471979\H,0,-2.138694
 ,12.448619,6.295076\O,0,-2.49858,8.000952,5.895778\C,0,-1.907451,8.996
 56,6.298118\C,0,-0.634441,8.873192,7.047503\H,0,-0.279231,7.864381,7.2
 24406\C,0,-2.436179,10.355635,6.040099\H,0,-3.360861,10.424699,5.48073

 Normal termination of Gaussian 16 at Tue Apr  8 19:08:03 2025.
