 Gaussian 16, Revision C.01,

 ----------------------------------------------------------------------
 #t hf aug-cc-pvdz symm=none int=(grid=ultrafine) guess=(read,tcheck) s
 table=(opt,rrhf)
 ----------------------------------------------------------------------
 -----
 title
 -----
 Symbolic Z-matrix:
 Charge =  0 Multiplicity = 1

 SCF Done:  E(RHF) =  -591.809419347     A.U. after   15 cycles
 Normal termination of Gaussian 16 at Tue Apr  8 19:08:35 2025.
 Gaussian 16:  ES64L-G16RevC.01  3-Jul-2019

 ----------------------------------------------------------------------
 #t hf aug-cc-pvdz iop(5/13=1,5/36=2,99/5=2) pseudo=read geom=check gue
 ss=(read,tcheck) scf=(maxcycle=1)
 ----------------------------------------------------------------------
 -----
 title
 -----
 Structure from the checkpoint file:  "3B-69_15c_cyanoguanidine_dimerAB_mol1.chk"
 Charge =  0 Multiplicity = 1

                         Standard orientation:
 ---------------------------------------------------------------------
 Center     Atomic      Atomic             Coordinates (Angstroms)
 Number     Number       Type             X           Y           Z
 ---------------------------------------------------------------------
      1          7           0        4.629953    1.296552    0.612305
      2          6           0        3.920316    0.582947    0.017664
      3          7           0        3.194156   -0.189632   -0.723480
      4          6           0        2.163859   -0.873060   -0.199138
      5          7           0        1.788535   -0.783297    1.081662
      6          7           0        1.469631   -1.660570   -1.019105
      7          1           0        1.073517   -1.411789    1.428486
      8          1           0        2.286757   -0.212514    1.753912
      9          1           0        0.685793   -2.185018   -0.646496
     10          1           0        1.776071   -1.769137   -1.985707
     11          7           0       -4.191680   -1.746623    0.428116
     12          6           0       -3.843146   -0.662194    0.165529
     13          7           0       -3.557089    0.562335   -0.138086
     14          6           0       -2.288489    1.001046   -0.096725
     15          7           0       -1.243986    0.224088    0.211047
     16          7           0       -2.070735    2.277857   -0.407863
     17          1           0       -0.332942    0.651278    0.329572
     18          1           0       -1.350027   -0.749432    0.469796
     19          1           0       -1.120639    2.631570   -0.385788
     20          1           0       -2.865262    2.887650   -0.599933
 ---------------------------------------------------------------------

 SCF Done:  E(RHF) =  -592.401295110     A.U. after    2 cycles

 The electronic state is 1-A.
 Alpha  occ. eigenvalues --  -15.59548 -15.58834 -15.58510 -15.57881 -15.51610
 Alpha  occ. eigenvalues --  -15.50721 -15.48185 -15.47612 -11.43744 -11.42847
 Alpha  occ. eigenvalues --  -11.29480 -11.29024  -1.38065  -1.36948  -1.25662
 Alpha  occ. eigenvalues --   -1.25066  -1.24768  -1.24183  -1.18380  -1.17794
 Alpha  occ. eigenvalues --   -0.96131  -0.95267  -0.88714  -0.87836  -0.84370
 Alpha  occ. eigenvalues --   -0.83392  -0.76305  -0.76066  -0.75349  -0.75210
 Alpha  occ. eigenvalues --   -0.69194  -0.68106  -0.59936  -0.59300  -0.57741
 Alpha  occ. eigenvalues --   -0.57208  -0.56185  -0.55483  -0.53647  -0.52291
 Alpha  occ. eigenvalues --   -0.44754  -0.44177  -0.41375  -0.40712
 Alpha virt. eigenvalues --    0.00302   0.01821   0.02611   0.03352   0.04576
 Alpha virt. eigenvalues --    0.05221   0.05925   0.07309   0.07806   0.08728
 Alpha virt. eigenvalues --    0.08926   0.09694   0.09969   0.10808   0.10986

 Mulliken charges:
               1
     1  N    0.868730
     2  C   -1.364751
     3  N    0.661208
     4  C   -2.000648
     5  N    0.418516
     6  N    0.680190
     7  H    0.065160
     8  H    0.240120
     9  H    0.162380
    10  H    0.172837
    11  N    0.878324
    12  C   -1.575702
    13  N    0.649454
    14  C   -1.452161
    15  N    0.336615
    16  N    0.571084
    17  H    0.113523
    18  H    0.210035
    19  H    0.186214
    20  H    0.178873
 Sum of Mulliken charges =   0.00000

 Dipole moment (field-independent basis, Debye):
    X=              0.0863    Y=              0.3097    Z=             -0.5599  Tot=              0.6456

 Test job not archived.
 1\1\GINC-SE132\SP\RHF\Aug-CC-pVDZ\C4H8N8\OHZDE\08-Apr-2025\0\\#t hf au
 g-cc-pvdz iop(5/13=1,5/36=2,99/5=2) pseudo=read geom=check guess=(read
 ,tcheck) scf=(maxcycle=1)\\title\\0,1\N,0,3.187601,-0.047335,-1.496641
 \C,0,2.374574,0.453351,-0.822315\N,0,1.447054,1.06357,-0.158373\C,0,1.
 185537,0.733156,1.116757\N,0,1.867065,-0.194691,1.797929\N,0,0.206646,
 1.393807,1.733021\H,0,1.540497,-0.46649,2.717722\H,0,2.611069,-0.73846
 5,1.377566\H,0,-0.007785,1.163282,2.696952\H,0,-0.346843,2.07056,1.207
 981\N,0,1.420831,2.164565,7.397293\C,0,2.233857,2.665251,6.722967\N,0,

 Normal termination of Gaussian 16 at Tue Apr  8 19:08:46 2025.
