 Gaussian 16, Revision C.01,

 ----------------------------------------------------------------------
 #t hf aug-cc-pvdz symm=none int=(grid=ultrafine) guess=(read,tcheck) s
 table=(opt,rrhf)
 ----------------------------------------------------------------------
 -----
 title
 -----
 Symbolic Z-matrix:
 Charge =  0 Multiplicity = 1

 SCF Done:  E(RHF) =  -455.689572165     A.U. after   13 cycles
 Normal termination of Gaussian 16 at Tue Apr  8 19:01:11 2025.
 Gaussian 16:  ES64L-G16RevC.01  3-Jul-2019

 ----------------------------------------------------------------------
 #t hf aug-cc-pvdz iop(5/13=1,5/36=2,99/5=2) pseudo=read geom=check gue
 ss=(read,tcheck) scf=(maxcycle=1)
 ----------------------------------------------------------------------
 -----
 title
 -----
 Structure from the checkpoint file:  "3B-69_06a_acetic_acid_dimerAB_mol1.chk"
 Charge =  0 Multiplicity = 1

                         Standard orientation:
 ---------------------------------------------------------------------
 Center     Atomic      Atomic             Coordinates (Angstroms)
 Number     Number       Type             X           Y           Z
 ---------------------------------------------------------------------
      1          8           0       -3.892235   -0.595942   -0.452684
      2          1           0       -4.609822    0.015855   -0.798339
      3          8           0       -2.950817    1.301573    0.237623
      4          6           0       -2.910846    0.080436    0.119677
      5          6           0       -1.786361   -0.781117    0.600582
      6          1           0       -0.990336   -0.163396    1.002838
      7          1           0       -2.152577   -1.459290    1.371528
      8          1           0       -1.413268   -1.395324   -0.216803
      9          8           0        1.863619   -0.498367   -0.700202
     10          1           0        1.146032    0.113430   -1.045857
     11          8           0        2.805037    1.399147   -0.009895
     12          6           0        2.845008    0.178011   -0.127841
     13          6           0        3.969493   -0.683542    0.353064
     14          1           0        4.765518   -0.065821    0.755320
     15          1           0        3.603277   -1.361716    1.124010
     16          1           0        4.342586   -1.297750   -0.464321
 ---------------------------------------------------------------------

 SCF Done:  E(RHF) =  -456.146563478     A.U. after    2 cycles

 The electronic state is 1-A.
 Alpha  occ. eigenvalues --  -20.61205 -20.61171 -20.53406 -20.53269 -11.40046
 Alpha  occ. eigenvalues --  -11.39935 -11.26098 -11.25911  -1.55482  -1.55481
 Alpha  occ. eigenvalues --   -1.44055  -1.43946  -1.04029  -1.03832  -0.84091
 Alpha  occ. eigenvalues --   -0.83924  -0.70755  -0.70664  -0.69080  -0.68955
 Alpha  occ. eigenvalues --   -0.65950  -0.65800  -0.58842  -0.58617  -0.57386
 Alpha  occ. eigenvalues --   -0.57262  -0.56916  -0.56724  -0.46936  -0.46823
 Alpha  occ. eigenvalues --   -0.44553  -0.44405
 Alpha virt. eigenvalues --    0.02957   0.03553   0.04083   0.04882   0.05807
 Alpha virt. eigenvalues --    0.05984   0.06623   0.08519   0.09794   0.11273
 Alpha virt. eigenvalues --    0.11613   0.12376   0.12844   0.13728   0.14140

 Mulliken charges:
               1
     1  O   -1.216201
     2  H    0.403822
     3  O   -1.181966
     4  C    1.879726
     5  C   -0.507762
     6  H    0.190325
     7  H    0.233814
     8  H    0.201428
     9  O   -1.225856
    10  H    0.422016
    11  O   -1.187460
    12  C    1.874682
    13  C   -0.507244
    14  H    0.183560
    15  H    0.226379
    16  H    0.210738
 Sum of Mulliken charges =  -0.00000

 Dipole moment (field-independent basis, Debye):
    X=             -0.1910    Y=             -4.2729    Z=             -0.6685  Tot=              4.3291

 Test job not archived.
 1\1\GINC-SE028\SP\RHF\Aug-CC-pVDZ\C4H8O4\OHZDE\08-Apr-2025\0\\#t hf au
 g-cc-pvdz iop(5/13=1,5/36=2,99/5=2) pseudo=read geom=check guess=(read
 ,tcheck) scf=(maxcycle=1)\\title\\0,1\O,0,4.919921,3.501003,0.030827\H
 ,0,4.228836,3.730734,-0.660786\O,0,3.244878,2.37471,0.97372\C,0,4.4111
 08,2.75681,0.998036\C,0,5.385992,2.434653,2.086074\H,0,4.892304,1.8762
 53,2.874431\H,0,6.206877,1.84636,1.675647\H,0,5.815635,3.352282,2.4834
 8\O,0,4.919921,3.501003,5.792827\H,0,4.228836,3.730734,5.101214\O,0,3.
 244878,2.37471,6.73572\C,0,4.411108,2.75681,6.760036\C,0,5.385992,2.43

 Normal termination of Gaussian 16 at Tue Apr  8 19:01:16 2025.
