 Gaussian 16, Revision C.01,

 ----------------------------------------------------------------------
 #t hf aug-cc-pvdz symm=none int=(grid=ultrafine) guess=(read,tcheck) s
 table=(opt,rrhf)
 ----------------------------------------------------------------------
 -----
 title
 -----
 Symbolic Z-matrix:
 Charge =  0 Multiplicity = 1

 SCF Done:  E(RHF) =  -610.990085459     A.U. after   14 cycles
 Normal termination of Gaussian 16 at Tue Apr  8 19:16:24 2025.
 Gaussian 16:  ES64L-G16RevC.01  3-Jul-2019

 ----------------------------------------------------------------------
 #t hf aug-cc-pvdz iop(5/13=1,5/36=2,99/5=2) pseudo=read geom=check gue
 ss=(read,tcheck) scf=(maxcycle=1)
 ----------------------------------------------------------------------
 -----
 title
 -----
 Structure from the checkpoint file:  "3B-69_23b_cyclobutylfuran_dimerBC_mol1.chk"
 Charge =  0 Multiplicity = 1

                         Standard orientation:
 ---------------------------------------------------------------------
 Center     Atomic      Atomic             Coordinates (Angstroms)
 Number     Number       Type             X           Y           Z
 ---------------------------------------------------------------------
      1          6           0        3.628976    1.358381    0.005881
      2          6           0        2.591250    0.494908    0.016889
      3          6           0        1.148588    0.005705    0.027042
      4          6           0        1.739594   -1.465922    0.033352
      5          6           0        3.118825   -0.822303    0.001406
      6          6           0        4.465552   -0.728967   -0.022048
      7          8           0        4.794139    0.617683   -0.019631
      8          1           0        3.762361    2.423502    0.014711
      9          1           0        0.580595    0.252149   -0.869497
     10          1           0        0.571317    0.273093    0.910815
     11          1           0        1.476640   -2.060203   -0.837529
     12          1           0        1.515673   -2.032097    0.934781
     13          1           0        5.307278   -1.395930   -0.028627
     14          6           0       -4.281584   -0.856954    0.006621
     15          6           0       -3.714707    0.368292    0.004633
     16          6           0       -3.613553    1.888234    0.020179
     17          6           0       -2.040003    1.696738   -0.027597
     18          6           0       -2.306123    0.197869   -0.016975
     19          6           0       -2.049219   -1.127606   -0.024242
     20          8           0       -3.265641   -1.792093   -0.009651
     21          1           0       -5.276420   -1.260186    0.014294
     22          1           0       -3.976173    2.356820    0.934547
     23          1           0       -4.041673    2.393332   -0.844333
     24          1           0       -1.512589    2.087822    0.838218
     25          1           0       -1.572385    2.075671   -0.933695
     26          1           0       -1.188181   -1.768949   -0.050283
 ---------------------------------------------------------------------

 SCF Done:  E(RHF) =  -611.615250642     A.U. after    2 cycles

 The electronic state is 1-A.
 Alpha  occ. eigenvalues --  -20.59978 -20.59689 -11.29570 -11.29472 -11.29296
 Alpha  occ. eigenvalues --  -11.29209 -11.26131 -11.26072 -11.25927 -11.25811
 Alpha  occ. eigenvalues --  -11.23128 -11.22964 -11.22861 -11.22725  -1.52131
 Alpha  occ. eigenvalues --   -1.51854  -1.16533  -1.16256  -1.00250  -0.99849
 Alpha  occ. eigenvalues --   -0.99645  -0.99371  -0.88478  -0.87930  -0.79857
 Alpha  occ. eigenvalues --   -0.79019  -0.75136  -0.74846  -0.72572  -0.71934
 Alpha  occ. eigenvalues --   -0.65916  -0.65487  -0.61072  -0.60766  -0.60742
 Alpha  occ. eigenvalues --   -0.60492  -0.58147  -0.57657  -0.54169  -0.53544
 Alpha  occ. eigenvalues --   -0.53010  -0.52790  -0.50985  -0.50764  -0.46609
 Alpha  occ. eigenvalues --   -0.46288  -0.38539  -0.38212  -0.32572  -0.32252
 Alpha virt. eigenvalues --    0.02870   0.03373   0.03665   0.03776   0.04346
 Alpha virt. eigenvalues --    0.04454   0.05311   0.05729   0.06888   0.07141
 Alpha virt. eigenvalues --    0.07335   0.09417   0.09595   0.09778   0.10468

 Mulliken charges:
               1
     1  C    1.165851
     2  C    0.056462
     3  C   -0.524408
     4  C   -0.267917
     5  C   -0.192965
     6  C    1.219776
     7  O   -1.605289
     8  H   -0.206496
     9  H    0.136872
    10  H    0.106694
    11  H    0.111673
    12  H    0.120321
    13  H   -0.200386
    14  C    1.221635
    15  C   -0.257026
    16  C   -0.422338
    17  C   -0.207830
    18  C   -0.322733
    19  C    1.551388
    20  O   -1.608838
    21  H   -0.222589
    22  H    0.158882
    23  H    0.134808
    24  H    0.120694
    25  H    0.136914
    26  H   -0.203152
 Sum of Mulliken charges =  -0.00000

 Dipole moment (field-independent basis, Debye):
    X=             -1.3269    Y=              1.0020    Z=              0.0303  Tot=              1.6630

 Test job not archived.
 1\1\GINC-SE047\SP\RHF\Aug-CC-pVDZ\C12H12O2\OHZDE\08-Apr-2025\0\\#t hf
 aug-cc-pvdz iop(5/13=1,5/36=2,99/5=2) pseudo=read geom=check guess=(re
 ad,tcheck) scf=(maxcycle=1)\\title\\0,1\C,0,9.633653,11.628619,4.88436
 2\C,0,8.707305,11.331693,5.820469\C,0,7.822565,10.485713,6.72725\C,0,7
 .238541,11.850722,7.284636\C,0,8.19906,12.55267,6.334786\C,0,8.830902,
 13.563949,5.70152\O,0,9.722723,13.004064,4.800063\H,0,10.281234,11.085
 372,4.222642\H,0,8.363944,9.898852,7.468624\H,0,7.100363,9.851695,6.21
 5159\H,0,7.416903,12.017496,8.343466\H,0,6.183244,12.004402,7.07016\H,

 Normal termination of Gaussian 16 at Tue Apr  8 19:16:47 2025.
