 Gaussian 16, Revision C.01,

 ----------------------------------------------------------------------
 #t hf aug-cc-pvdz symm=none int=(grid=ultrafine) guess=(read,tcheck) s
 table=(opt,rrhf)
 ----------------------------------------------------------------------
 -----
 title
 -----
 Symbolic Z-matrix:
 Charge =  0 Multiplicity = 1

 SCF Done:  E(RHF) =  -227.770007737     A.U. after   12 cycles
 Normal termination of Gaussian 16 at Tue Apr  8 18:54:35 2025.
 Gaussian 16:  ES64L-G16RevC.01  3-Jul-2019

 ----------------------------------------------------------------------
 #t hf aug-cc-pvdz iop(5/13=1,5/36=2,99/5=2) pseudo=read geom=check gue
 ss=(read,tcheck) scf=(maxcycle=1)
 ----------------------------------------------------------------------
 -----
 title
 -----
 Structure from the checkpoint file:  "3B-69_02a_formaldehyde_dimerAC_mol1.chk"
 Charge =  0 Multiplicity = 1

                         Standard orientation:
 ---------------------------------------------------------------------
 Center     Atomic      Atomic             Coordinates (Angstroms)
 Number     Number       Type             X           Y           Z
 ---------------------------------------------------------------------
      1          8           0        5.122797   -0.149771   -0.081006
      2          6           0        3.963072    0.154703    0.093092
      3          1           0        3.627359    1.198863    0.011404
      4          1           0        3.194581   -0.591421    0.333333
      5          8           0       -3.825047   -0.191958   -0.112911
      6          6           0       -4.984771    0.112516    0.061187
      7          1           0       -5.320485    1.156676   -0.020502
      8          1           0       -5.753263   -0.633608    0.301428
 ---------------------------------------------------------------------

 SCF Done:  E(RHF) =  -227.995875654     A.U. after    2 cycles

 The electronic state is 1-A.
 Alpha  occ. eigenvalues --  -20.57094 -20.56314 -11.35849 -11.35063  -1.48894
 Alpha  occ. eigenvalues --   -1.48116  -0.88452  -0.87664  -0.70387  -0.69608
 Alpha  occ. eigenvalues --   -0.65731  -0.64943  -0.53746  -0.52969  -0.44108
 Alpha  occ. eigenvalues --   -0.43327
 Alpha virt. eigenvalues --    0.02995   0.03832   0.04624   0.05428   0.06648
 Alpha virt. eigenvalues --    0.07367   0.08518   0.10119   0.14126   0.14893
 Alpha virt. eigenvalues --    0.15109   0.15535   0.15980   0.16608   0.21914

 Mulliken charges:
               1
     1  O   -0.823677
     2  C    0.625144
     3  H    0.100120
     4  H    0.098379
     5  O   -0.821895
     6  C    0.623069
     7  H    0.099118
     8  H    0.099744
 Sum of Mulliken charges =   0.00000

 Dipole moment (field-independent basis, Debye):
    X=             -5.2616    Y=              1.3596    Z=              0.7781  Tot=              5.4898

 Test job not archived.
 1\1\GINC-SE340\SP\RHF\Aug-CC-pVDZ\C2H4O2\OHZDE\08-Apr-2025\0\\#t hf au
 g-cc-pvdz iop(5/13=1,5/36=2,99/5=2) pseudo=read geom=check guess=(read
 ,tcheck) scf=(maxcycle=1)\\title\\0,1\O,0,2.074088,0.498855,1.635515\C
 ,0,2.169454,0.15428,2.793163\H,0,2.970226,-0.523067,3.124239\H,0,1.470
 34,0.502963,3.564302\O,0,2.074088,0.498855,10.583515\C,0,2.169454,0.15
 428,11.741163\H,0,2.970226,-0.523067,12.072239\H,0,1.47034,0.502963,12
 .512302\\Version=ES64L-G16RevC.01\State=1-A\HF=-227.9958757\RMSD=6.162
 e-03\Dipole=0.1673688,-0.6057312,2.0664262\Quadrupole=0.3194219,0.0898

 Normal termination of Gaussian 16 at Tue Apr  8 18:54:36 2025.
