 Gaussian 16, Revision C.01,

 ----------------------------------------------------------------------
 #t hf aug-cc-pvdz symm=none int=(grid=ultrafine) guess=(read,tcheck) s
 table=(opt,rrhf)
 ----------------------------------------------------------------------
 -----
 title
 -----
 Symbolic Z-matrix:
 Charge =  0 Multiplicity = 1

 SCF Done:  E(RHF) =  -1018.16948458     A.U. after   14 cycles
 Normal termination of Gaussian 16 at Tue Apr  8 19:07:42 2025.
 Gaussian 16:  ES64L-G16RevC.01  3-Jul-2019

 ----------------------------------------------------------------------
 #t hf aug-cc-pvdz iop(5/13=1,5/36=2,99/5=2) pseudo=read geom=check gue
 ss=(read,tcheck) scf=(maxcycle=1)
 ----------------------------------------------------------------------
 -----
 title
 -----
 Structure from the checkpoint file:  "3B-69_08c_vinylene_carbonate_trimer_mol1.chk"
 Charge =  0 Multiplicity = 1

                         Standard orientation:
 ---------------------------------------------------------------------
 Center     Atomic      Atomic             Coordinates (Angstroms)
 Number     Number       Type             X           Y           Z
 ---------------------------------------------------------------------
      1          6           0        4.154051   -1.114059   -0.333750
      2          6           0        3.258602   -0.157496   -0.153043
      3          6           0        2.241164   -2.095122    0.200071
      4          1           0        5.196293   -1.126681   -0.588004
      5          1           0        3.278306    0.912260   -0.217505
      6          8           0        3.535944   -2.344373   -0.106674
      7          8           0        2.047337   -0.754104    0.201780
      8          8           0        1.399402   -2.918430    0.423340
      9          6           0       -1.374548   -1.063722   -0.032514
     10          6           0       -1.612344   -2.364175   -0.074574
     11          6           0       -3.573306   -1.330364   -0.063298
     12          1           0       -0.484601   -0.464765   -0.014653
     13          1           0       -0.995738   -3.240839   -0.087961
     14          8           0       -2.597787   -0.392176   -0.034311
     15          8           0       -2.994846   -2.554662   -0.112063
     16          8           0       -4.752973   -1.120472   -0.039254
     17          6           0       -1.404065    2.621670   -0.004344
     18          6           0       -1.166269    3.922123    0.037716
     19          6           0        0.794692    2.888313    0.026439
     20          1           0       -2.294012    2.022713   -0.022205
     21          1           0       -1.782876    4.798787    0.051104
     22          8           0       -0.180825    1.950125   -0.002547
     23          8           0        0.216233    4.112611    0.075206
     24          8           0        1.974360    2.678420    0.002397
 ---------------------------------------------------------------------

 SCF Done:  E(RHF) =  -1019.15251304     A.U. after    2 cycles

 The electronic state is 1-A.
 Alpha  occ. eigenvalues --  -20.66123 -20.65754 -20.64901 -20.64704 -20.63806
 Alpha  occ. eigenvalues --  -20.63124 -20.57060 -20.55879 -20.54197 -11.48367
 Alpha  occ. eigenvalues --  -11.47140 -11.45501 -11.35075 -11.34885 -11.33875
 Alpha  occ. eigenvalues --  -11.33566 -11.32305 -11.32120  -1.66116  -1.64973
 Alpha  occ. eigenvalues --   -1.63636  -1.53661  -1.52514  -1.51268  -1.51130
 Alpha  occ. eigenvalues --   -1.49922  -1.48097  -1.09338  -1.08156  -1.06639
 Alpha  occ. eigenvalues --   -0.91966  -0.90832  -0.90549  -0.89282  -0.89233
 Alpha  occ. eigenvalues --   -0.87976  -0.78716  -0.77282  -0.75714  -0.74618
 Alpha  occ. eigenvalues --   -0.73484  -0.72165  -0.71018  -0.70145  -0.68611
 Alpha  occ. eigenvalues --   -0.67964  -0.66939  -0.65134  -0.64516  -0.63087
 Alpha  occ. eigenvalues --   -0.61877  -0.61022  -0.59981  -0.59582  -0.58655
 Alpha  occ. eigenvalues --   -0.58450  -0.57295  -0.55145  -0.53952  -0.52184
 Alpha  occ. eigenvalues --   -0.50541  -0.49347  -0.47526  -0.39596  -0.38444
 Alpha  occ. eigenvalues --   -0.36884
 Alpha virt. eigenvalues --    0.02608   0.02894   0.04688   0.05042   0.05555
 Alpha virt. eigenvalues --    0.06595   0.06828   0.08195   0.08434   0.08697
 Alpha virt. eigenvalues --    0.08741   0.09723   0.10120   0.10342   0.11302

 Mulliken charges:
               1
     1  C    0.904750
     2  C    0.928226
     3  C    2.174218
     4  H   -0.094003
     5  H   -0.105690
     6  O   -1.372557
     7  O   -1.239890
     8  O   -1.211840
     9  C    1.007579
    10  C    0.753184
    11  C    2.508371
    12  H   -0.196519
    13  H   -0.069757
    14  O   -1.321346
    15  O   -1.401754
    16  O   -1.314180
    17  C    0.955791
    18  C    0.967624
    19  C    2.171376
    20  H   -0.127443
    21  H   -0.096157
    22  O   -1.213222
    23  O   -1.320935
    24  O   -1.285827
 Sum of Mulliken charges =  -0.00000

 Dipole moment (field-independent basis, Debye):
    X=              3.9801    Y=              3.9697    Z=             -0.9381  Tot=              5.6991

 Test job not archived.
 1\1\GINC-SE452\SP\RHF\Aug-CC-pVDZ\C9H6O9\OHZDE\08-Apr-2025\0\\#t hf au
 g-cc-pvdz iop(5/13=1,5/36=2,99/5=2) pseudo=read geom=check guess=(read
 ,tcheck) scf=(maxcycle=1)\\title\\0,1\C,0,0.845927,15.309211,1.553806\
 C,0,1.46459,14.71303,2.55945\C,0,0.932131,13.146144,1.084452\H,0,0.584
 258,16.325703,1.331665\H,0,1.890128,15.047782,3.484534\O,0,0.509604,14
 .34051,0.607341\O,0,1.545281,13.348493,2.275671\O,0,0.782676,12.082704
 ,0.552468\C,0,1.292572,10.034211,3.17663\C,0,0.673909,9.43803,2.170986
 \C,0,1.206368,7.871144,3.645984\H,0,1.554241,11.050703,3.398771\H,0,0.

 Normal termination of Gaussian 16 at Tue Apr  8 19:08:07 2025.
