 Gaussian 16, Revision C.01,

 ----------------------------------------------------------------------
 #t hf aug-cc-pvdz symm=none int=(grid=ultrafine) guess=(read,tcheck) s
 table=(opt,rrhf)
 ----------------------------------------------------------------------
 -----
 title
 -----
 Symbolic Z-matrix:
 Charge =  0 Multiplicity = 1

 SCF Done:  E(RHF) =  -899.256391679     A.U. after   14 cycles
 Normal termination of Gaussian 16 at Tue Apr  8 19:18:49 2025.
 Gaussian 16:  ES64L-G16RevC.01  3-Jul-2019

 ----------------------------------------------------------------------
 #t hf aug-cc-pvdz iop(5/13=1,5/36=2,99/5=2) pseudo=read geom=check gue
 ss=(read,tcheck) scf=(maxcycle=1)
 ----------------------------------------------------------------------
 -----
 title
 -----
 Structure from the checkpoint file:  "3B-69_14b_cyanoacetamide_trimer_mol1.chk"
 Charge =  0 Multiplicity = 1

                         Standard orientation:
 ---------------------------------------------------------------------
 Center     Atomic      Atomic             Coordinates (Angstroms)
 Number     Number       Type             X           Y           Z
 ---------------------------------------------------------------------
      1          6           0        1.526040    2.265484   -0.086158
      2          6           0       -0.899181    2.320806   -0.581687
      3          6           0        0.413655    2.010356   -1.112729
      4          1           0        0.411335    0.975853   -1.457504
      5          1           0        0.579181    2.624078   -2.001214
      6          1           0        3.533393    2.068479    0.151693
      7          1           0        2.904628    1.488331   -1.393203
      8          7           0        2.754483    1.938762   -0.497441
      9          7           0       -1.941856    2.566408   -0.164343
     10          8           0        1.277214    2.769764    1.011750
     11          6           0        1.629135   -1.504794   -0.376840
     12          6           0        3.983630   -1.571886    0.386154
     13          6           0        3.089032   -1.825802   -0.726117
     14          1           0        3.211212   -2.863492   -1.038111
     15          1           0        3.411821   -1.216106   -1.573193
     16          1           0       -0.242118   -1.602466   -1.160246
     17          1           0        1.036967   -2.231476   -2.202796
     18          7           0        0.748170   -1.777493   -1.343541
     19          7           0        4.696261   -1.371238    1.265679
     20          8           0        1.329199   -0.999205    0.707610
     21          6           0       -4.678568   -0.805320   -0.039207
     22          6           0       -3.726281   -0.288147    0.922711
     23          6           0       -2.289461   -0.718409    0.601460
     24          1           0       -4.032118   -0.596695    1.921624
     25          1           0       -3.774472    0.803659    0.897725
     26          1           0       -0.422282   -0.681248    1.391787
     27          1           0       -1.687078   -0.058871    2.448655
     28          7           0       -5.433129   -1.210224   -0.805986
     29          7           0       -1.413097   -0.531480    1.594332
     30          8           0       -1.993201   -1.183925   -0.500814
 ---------------------------------------------------------------------

 SCF Done:  E(RHF) =  -900.144998158     A.U. after    2 cycles

 The electronic state is 1-A.
 Alpha  occ. eigenvalues --  -20.55594 -20.53433 -20.53263 -15.56593 -15.56372
 Alpha  occ. eigenvalues --  -15.53860 -15.53489 -15.52324 -15.50747 -11.41647
 Alpha  occ. eigenvalues --  -11.39601 -11.39193 -11.33716 -11.31920 -11.30382
 Alpha  occ. eigenvalues --  -11.30237 -11.29641 -11.27796  -1.50067  -1.47948
 Alpha  occ. eigenvalues --   -1.47160  -1.27327  -1.26405  -1.25623  -1.24710
 Alpha  occ. eigenvalues --   -1.24444  -1.22971  -1.10419  -1.08799  -1.07302
 Alpha  occ. eigenvalues --   -0.89397  -0.88271  -0.86328  -0.81388  -0.80447
 Alpha  occ. eigenvalues --   -0.78895  -0.75086  -0.73378  -0.72817  -0.71028
 Alpha  occ. eigenvalues --   -0.70911  -0.70520  -0.69374  -0.68682  -0.66890
 Alpha  occ. eigenvalues --   -0.65145  -0.62612  -0.62558  -0.62135  -0.61478
 Alpha  occ. eigenvalues --   -0.60848  -0.59681  -0.59476  -0.58188  -0.52241
 Alpha  occ. eigenvalues --   -0.51777  -0.51247  -0.50801  -0.49747  -0.49030
 Alpha  occ. eigenvalues --   -0.48129  -0.47715  -0.45815  -0.45343  -0.45153
 Alpha  occ. eigenvalues --   -0.44977
 Alpha virt. eigenvalues --    0.00279   0.01941   0.03030   0.03513   0.03809
 Alpha virt. eigenvalues --    0.04896   0.05874   0.06053   0.06272   0.06856
 Alpha virt. eigenvalues --    0.07155   0.08042   0.08641   0.09111   0.09605

 Mulliken charges:
               1
     1  C    0.099933
     2  C   -1.872748
     3  C   -0.041909
     4  H    0.309365
     5  H    0.302312
     6  H    0.098500
     7  H    0.047467
     8  N    1.039733
     9  N    1.300007
    10  O   -1.298928
    11  C    0.066498
    12  C   -1.532851
    13  C   -0.081151
    14  H    0.255662
    15  H    0.320273
    16  H   -0.110750
    17  H    0.118897
    18  N    1.429170
    19  N    0.998497
    20  O   -1.497082
    21  C   -1.579577
    22  C    0.073891
    23  C   -0.223254
    24  H    0.261098
    25  H    0.421512
    26  H   -0.018557
    27  H    0.034493
    28  N    0.962423
    29  N    1.620631
    30  O   -1.503557
 Sum of Mulliken charges =  -0.00000

 Dipole moment (field-independent basis, Debye):
    X=              6.1624    Y=             -1.7090    Z=             -4.7111  Tot=              7.9429

 Test job not archived.
 1\1\GINC-SE366\SP\RHF\Aug-CC-pVDZ\C9H12N6O3\OHZDE\08-Apr-2025\0\\#t hf
  aug-cc-pvdz iop(5/13=1,5/36=2,99/5=2) pseudo=read geom=check guess=(r
 ead,tcheck) scf=(maxcycle=1)\\title\\0,1\C,0,2.712508,16.885489,6.3681
 38\C,0,2.839569,14.413417,6.423138\C,0,2.199576,15.555103,5.799531\H,0
 ,2.351814,15.490712,4.721686\H,0,1.121642,15.473767,5.957336\H,0,2.523
 751,18.891506,6.112956\H,0,1.586888,17.904765,4.987234\N,0,2.203727,17
 .976476,5.788601\N,0,3.344448,13.505572,6.915663\O,0,3.504903,16.91192
 3,7.313138\C,0,4.07858,17.004511,2.842545\C,0,4.205641,19.476583,2.897

 Normal termination of Gaussian 16 at Tue Apr  8 19:19:23 2025.
