 Gaussian 16, Revision C.01,

 ----------------------------------------------------------------------
 #t hf aug-cc-pvdz symm=none int=(grid=ultrafine) guess=(read,tcheck) s
 table=(opt,rrhf)
 ----------------------------------------------------------------------
 -----
 title
 -----
 Symbolic Z-matrix:
 Charge =  0 Multiplicity = 1

 SCF Done:  E(RHF) =  -638.992257152     A.U. after   15 cycles
 Normal termination of Gaussian 16 at Tue Apr  8 19:03:38 2025.
 Gaussian 16:  ES64L-G16RevC.01  3-Jul-2019

 ----------------------------------------------------------------------
 #t hf aug-cc-pvdz iop(5/13=1,5/36=2,99/5=2) pseudo=read geom=check gue
 ss=(read,tcheck) scf=(maxcycle=1)
 ----------------------------------------------------------------------
 -----
 title
 -----
 Structure from the checkpoint file:  "3B-69_11b_isoxazole_dimerAC_mol1.chk"
 Charge =  0 Multiplicity = 1

                         Standard orientation:
 ---------------------------------------------------------------------
 Center     Atomic      Atomic             Coordinates (Angstroms)
 Number     Number       Type             X           Y           Z
 ---------------------------------------------------------------------
      1          8           0       -0.536875    1.051364    1.005283
      2          7           0       -1.842995    0.672123    0.665819
      3          6           0       -2.515922    1.797028    0.525032
      4          8           0       -3.793304    1.830113    0.170689
      5          6           0       -1.701247    2.932747    0.790665
      6          6           0       -0.496944    2.394167    1.076208
      7          1           0       -4.099084    0.916298   -0.124207
      8          1           0       -1.978512    3.970652    0.752687
      9          1           0        0.459016    2.810499    1.334047
     10          8           0        0.536875   -1.051364   -1.005283
     11          7           0        1.842995   -0.672123   -0.665819
     12          6           0        2.515922   -1.797028   -0.525032
     13          8           0        3.793304   -1.830113   -0.170689
     14          6           0        1.701247   -2.932747   -0.790665
     15          6           0        0.496944   -2.394167   -1.076208
     16          1           0        4.099084   -0.916298    0.124207
     17          1           0        1.978512   -3.970652   -0.752687
     18          1           0       -0.459016   -2.810499   -1.334047
 ---------------------------------------------------------------------

 SCF Done:  E(RHF) =  -639.622308172     A.U. after    2 cycles

 The electronic state is 1-AG.
 Alpha  occ. eigenvalues --  -20.62077 -20.62077 -20.60560 -20.60560 -15.54167
 Alpha  occ. eigenvalues --  -15.54160 -11.34648 -11.34648 -11.32385 -11.32385
 Alpha  occ. eigenvalues --  -11.24428 -11.24428  -1.56013  -1.55867  -1.51908
 Alpha  occ. eigenvalues --   -1.51865  -1.16532  -1.16504  -1.07862  -1.07709
 Alpha  occ. eigenvalues --   -0.86396  -0.86319  -0.83484  -0.83409  -0.75788
 Alpha  occ. eigenvalues --   -0.75620  -0.68661  -0.68574  -0.67001  -0.66789
 Alpha  occ. eigenvalues --   -0.63539  -0.63536  -0.59941  -0.59915  -0.58654
 Alpha  occ. eigenvalues --   -0.58064  -0.55353  -0.55012  -0.51336  -0.51161
 Alpha  occ. eigenvalues --   -0.40308  -0.40201  -0.38803  -0.38615
 Alpha virt. eigenvalues --    0.03205   0.03858   0.04113   0.04193   0.05275
 Alpha virt. eigenvalues --    0.05964   0.09142   0.09550   0.10520   0.10616
 Alpha virt. eigenvalues --    0.11010   0.11529   0.11870   0.11903   0.12942

 Mulliken charges:
               1
     1  O   -1.456045
     2  N    1.394267
     3  C   -0.398169
     4  O   -1.383140
     5  C    0.948440
     6  C    0.719370
     7  H    0.375848
     8  H   -0.122585
     9  H   -0.077986
    10  O   -1.456045
    11  N    1.394267
    12  C   -0.398169
    13  O   -1.383140
    14  C    0.948440
    15  C    0.719370
    16  H    0.375848
    17  H   -0.122585
    18  H   -0.077986
 Sum of Mulliken charges =  -0.00000

 Dipole moment (field-independent basis, Debye):
    X=             -0.0000    Y=             -0.0000    Z=             -0.0000  Tot=              0.0000

 Test job not archived.
 1\1\GINC-SE187\SP\RHF\Aug-CC-pVDZ\C6H6N2O4\OHZDE\08-Apr-2025\0\\#t hf
 aug-cc-pvdz iop(5/13=1,5/36=2,99/5=2) pseudo=read geom=check guess=(re
 ad,tcheck) scf=(maxcycle=1)\\title\\0,1\O,0,5.635182,5.056864,8.090723
 \N,0,4.329062,4.677623,7.751259\C,0,3.656135,5.802528,7.610472\O,0,2.3
 78753,5.835613,7.256129\C,0,4.47081,6.938247,7.876105\C,0,5.675113,6.3
 99667,8.161648\H,0,2.072973,4.921798,6.961233\H,0,4.193545,7.976152,7.
 838127\H,0,6.631073,6.815999,8.419487\O,0,6.708932,2.954136,6.080158\N
 ,0,8.015052,3.333377,6.419622\C,0,8.687979,2.208472,6.560409\O,0,9.965

 Normal termination of Gaussian 16 at Tue Apr  8 19:03:47 2025.
