 Gaussian 16, Revision C.01,

 ----------------------------------------------------------------------
 #t hf aug-cc-pvdz symm=none int=(grid=ultrafine) guess=(read,tcheck) s
 table=(opt,rrhf)
 ----------------------------------------------------------------------
 -----
 title
 -----
 Symbolic Z-matrix:
 Charge =  0 Multiplicity = 1

 SCF Done:  E(RHF) =  -557.466827418     A.U. after   13 cycles
 Normal termination of Gaussian 16 at Tue Apr  8 19:05:38 2025.
 Gaussian 16:  ES64L-G16RevC.01  3-Jul-2019

 ----------------------------------------------------------------------
 #t hf aug-cc-pvdz iop(5/13=1,5/36=2,99/5=2) pseudo=read geom=check gue
 ss=(read,tcheck) scf=(maxcycle=1)
 ----------------------------------------------------------------------
 -----
 title
 -----
 Structure from the checkpoint file:  "3B-69_13c_triazine_dimerAC_mol1.chk"
 Charge =  0 Multiplicity = 1

                         Standard orientation:
 ---------------------------------------------------------------------
 Center     Atomic      Atomic             Coordinates (Angstroms)
 Number     Number       Type             X           Y           Z
 ---------------------------------------------------------------------
      1          6           0       -1.111720    1.392425   -0.606750
      2          7           0       -1.727874    0.207916   -0.606750
      3          1           0       -0.029616    1.392425   -0.606750
      4          6           0       -3.061765    2.518283   -0.606750
      5          7           0       -1.727874    2.576933   -0.606750
      6          1           0       -3.602817    3.455412   -0.606750
      7          6           0       -3.061765    0.266566   -0.606750
      8          7           0       -3.779502    1.392425   -0.606750
      9          1           0       -3.602817   -0.670563   -0.606750
     10          6           0        3.061765   -2.518283    0.606750
     11          7           0        3.779502   -1.392425    0.606750
     12          1           0        3.602817   -3.455412    0.606750
     13          6           0        1.111720   -1.392425    0.606750
     14          7           0        1.727874   -2.576933    0.606750
     15          1           0        0.029616   -1.392425    0.606750
     16          6           0        3.061765   -0.266566    0.606750
     17          7           0        1.727874   -0.207916    0.606750
     18          1           0        3.602817    0.670563    0.606750
 ---------------------------------------------------------------------

 SCF Done:  E(RHF) =  -558.020995181     A.U. after    2 cycles

 The electronic state is 1-AG.
 Alpha  occ. eigenvalues --  -15.52729 -15.52711 -15.52636 -15.52635 -15.52510
 Alpha  occ. eigenvalues --  -15.52507 -11.34879 -11.34877 -11.34761 -11.34760
 Alpha  occ. eigenvalues --  -11.34404 -11.34403  -1.36056  -1.35867  -1.22169
 Alpha  occ. eigenvalues --   -1.22086  -1.21998  -1.21950  -0.96448  -0.96287
 Alpha  occ. eigenvalues --   -0.96042  -0.95994  -0.79993  -0.79895  -0.78852
 Alpha  occ. eigenvalues --   -0.77960  -0.64938  -0.64668  -0.64396  -0.64189
 Alpha  occ. eigenvalues --   -0.64162  -0.63877  -0.61917  -0.61147  -0.49245
 Alpha  occ. eigenvalues --   -0.48773  -0.48366  -0.48085  -0.47754  -0.47701
 Alpha  occ. eigenvalues --   -0.47556  -0.47516
 Alpha virt. eigenvalues --    0.03111   0.04079   0.04623   0.04911   0.05431
 Alpha virt. eigenvalues --    0.05534   0.05732   0.05880   0.06391   0.06679
 Alpha virt. eigenvalues --    0.08025   0.08331   0.09199   0.09457   0.10155

 Mulliken charges:
               1
     1  C   -1.144920
     2  N    0.861375
     3  H    0.053263
     4  C   -0.742209
     5  N    0.990612
     6  H   -0.007216
     7  C   -0.807468
     8  N    0.833065
     9  H   -0.036501
    10  C   -0.742209
    11  N    0.833065
    12  H   -0.007216
    13  C   -1.144920
    14  N    0.990612
    15  H    0.053263
    16  C   -0.807468
    17  N    0.861375
    18  H   -0.036501
 Sum of Mulliken charges =  -0.00000

 Dipole moment (field-independent basis, Debye):
    X=             -0.0000    Y=             -0.0000    Z=              0.0000  Tot=              0.0000

 Test job not archived.
 1\1\GINC-SE249\SP\RHF\Aug-CC-pVDZ\C6H6N6\OHZDE\08-Apr-2025\0\\#t hf au
 g-cc-pvdz iop(5/13=1,5/36=2,99/5=2) pseudo=read geom=check guess=(read
 ,tcheck) scf=(maxcycle=1)\\title\\0,1\C,0,-3.52347,13.924245,6.67425\N
 ,0,-4.139624,12.739737,6.67425\H,0,-2.441366,13.924245,6.67425\C,0,-5.
 473515,15.050104,6.67425\N,0,-4.139624,15.108753,6.67425\H,0,-6.014567
 ,15.987233,6.67425\C,0,-5.473515,12.798386,6.67425\N,0,-6.191252,13.92
 4245,6.67425\H,0,-6.014567,11.861257,6.67425\C,0,0.650015,10.013537,7.
 88775\N,0,1.367752,11.139396,7.88775\H,0,1.191067,9.076408,7.88775\C,0

 Normal termination of Gaussian 16 at Tue Apr  8 19:05:44 2025.
