 Gaussian 16, Revision C.01,

 ----------------------------------------------------------------------
 #t hf aug-cc-pvdz symm=none int=(grid=ultrafine) guess=(read,tcheck) s
 table=(opt,rrhf)
 ----------------------------------------------------------------------
 -----
 title
 -----
 Symbolic Z-matrix:
 Charge =  0 Multiplicity = 1

 SCF Done:  E(RHF) =  -305.495687714     A.U. after   13 cycles
 Normal termination of Gaussian 16 at Tue Apr  8 19:09:10 2025.
 Gaussian 16:  ES64L-G16RevC.01  3-Jul-2019

 ----------------------------------------------------------------------
 #t hf aug-cc-pvdz iop(5/13=1,5/36=2,99/5=2) pseudo=read geom=check gue
 ss=(read,tcheck) scf=(maxcycle=1)
 ----------------------------------------------------------------------
 -----
 title
 -----
 Structure from the checkpoint file:  "3B-69_23a_cyclobutylfuran_dimerAB_mol2.chk"
 Charge =  0 Multiplicity = 1

                         Standard orientation:
 ---------------------------------------------------------------------
 Center     Atomic      Atomic             Coordinates (Angstroms)
 Number     Number       Type             X           Y           Z
 ---------------------------------------------------------------------
      1          8           0       -1.898647    0.002312    0.002418
      2          6           0       -1.093110   -1.125507   -0.006850
      3          1           0       -1.615590   -2.064148   -0.011558
      4          6           0        0.192434   -0.712753   -0.005676
      5          6           0        1.715332   -0.793386    0.010151
      6          1           0        2.145004   -1.227655    0.911806
      7          1           0        2.171744   -1.268290   -0.857217
      8          6           0        1.710707    0.793505   -0.008614
      9          1           0        2.155164    1.266086    0.864788
     10          1           0        2.132679    1.241760   -0.905885
     11          6           0        0.194544    0.706303   -0.001604
     12          6           0       -1.086480    1.125904    0.008556
     13          1           0       -1.600386    2.069355    0.002939
 ---------------------------------------------------------------------

 SCF Done:  E(RHF) =  -305.809642002     A.U. after    2 cycles

 The electronic state is 1-A.
 Alpha  occ. eigenvalues --  -20.59541 -11.29180 -11.29070 -11.25828 -11.25696
 Alpha  occ. eigenvalues --  -11.22681 -11.22565  -1.51519  -1.16112  -0.99692
 Alpha  occ. eigenvalues --   -0.99238  -0.87950  -0.79166  -0.74624  -0.71922
 Alpha  occ. eigenvalues --   -0.65296  -0.60650  -0.60224  -0.57619  -0.53497
 Alpha  occ. eigenvalues --   -0.52627  -0.50623  -0.46249  -0.38097  -0.32160
 Alpha virt. eigenvalues --    0.03560   0.03838   0.04124   0.04410   0.05256
 Alpha virt. eigenvalues --    0.06846   0.08912   0.09773   0.10087   0.11748
 Alpha virt. eigenvalues --    0.12747   0.13664   0.14647   0.15083   0.15372

 Mulliken charges:
               1
     1  O   -1.514024
     2  C    1.214998
     3  H   -0.194436
     4  C   -0.254359
     5  C   -0.261165
     6  H    0.134015
     7  H    0.114514
     8  C   -0.269543
     9  H    0.120951
    10  H    0.137242
    11  C   -0.242253
    12  C    1.207353
    13  H   -0.193292
 Sum of Mulliken charges =   0.00000

 Dipole moment (field-independent basis, Debye):
    X=              1.5875    Y=              0.0085    Z=             -0.0010  Tot=              1.5876

 Test job not archived.
 1\1\GINC-SE186\SP\RHF\Aug-CC-pVDZ\C6H6O1\OHZDE\08-Apr-2025\0\\#t hf au
 g-cc-pvdz iop(5/13=1,5/36=2,99/5=2) pseudo=read geom=check guess=(read
 ,tcheck) scf=(maxcycle=1)\\title\\0,1\O,0,-0.126301,16.441388,12.92452
 6\C,0,-0.701266,17.4636,12.185981\H,0,-1.568703,17.187494,11.615566\C,
 0,0.02543,18.581936,12.396288\C,0,0.473934,20.034432,12.273536\H,0,0.8
 24753,20.32698,11.284835\H,0,-0.238268,20.779526,12.625356\C,0,1.63389
 8,19.669284,13.293216\H,0,2.642979,19.773757,12.900092\H,0,1.574915,20
 .176469,14.254138\C,0,1.077037,18.256376,13.291762\C,0,0.973511,16.948

 Normal termination of Gaussian 16 at Tue Apr  8 19:09:15 2025.
