 Gaussian 16, Revision C.01,

 ----------------------------------------------------------------------
 #t hf aug-cc-pvdz symm=none int=(grid=ultrafine) guess=(read,tcheck) s
 table=(opt,rrhf)
 ----------------------------------------------------------------------
 -----
 title
 -----
 Symbolic Z-matrix:
 Charge =  0 Multiplicity = 1

 SCF Done:  E(RHF) =  -1129.30389239     A.U. after   13 cycles

 1\1\GINC-SE097\Stability\RHF\Aug-CC-pVDZ\C6H6O12\OHZDE\08-Apr-2025\0\\
 #t hf aug-cc-pvdz symm=none int=(grid=ultrafine) guess=(read,tcheck) s
 table=(opt,rrhf)\\title\\0,1\O,0,17.460467,7.487698,15.644572\O,0,16.6
 17781,6.366646,17.4072\C,0,16.79213,6.602179,16.134954\H,0,17.08704,7.
 008709,17.999664\O,0,15.336533,4.700302,15.765028\O,0,16.179219,5.8213
 54,14.0024\C,0,16.00487,5.585821,15.274646\H,0,15.70996,5.179291,13.40
 9936\O,0,15.336533,4.440698,11.838828\O,0,16.179219,3.319646,10.0762\C
 ,0,16.00487,3.555179,11.348446\H,0,15.70996,3.961709,9.483736\O,0,17.4

 Normal termination of Gaussian 16 at Tue Apr  8 19:07:27 2025.
 Gaussian 16:  ES64L-G16RevC.01  3-Jul-2019

 ----------------------------------------------------------------------
 #t hf aug-cc-pvdz iop(5/13=1,5/36=2,99/5=2) pseudo=read geom=check gue
 ss=(read,tcheck) scf=(maxcycle=1)
 ----------------------------------------------------------------------
 -----
 title
 -----
 Structure from the checkpoint file:  "3B-69_07c_oxalic_acid_trimer_mol1.chk"
 Charge =  0 Multiplicity = 1

                         Standard orientation:
 ---------------------------------------------------------------------
 Center     Atomic      Atomic             Coordinates (Angstroms)
 Number     Number       Type             X           Y           Z
 ---------------------------------------------------------------------
      1          8           0       -1.244585    2.667458   -0.972272
      2          8           0       -0.075541    4.333349   -0.006932
      3          6           0       -0.360810    3.083337   -0.253049
      4          1           0       -0.675254    4.976926   -0.464769
      5          8           0        1.474228    2.555618    1.239228
      6          8           0        0.305184    0.889727    0.273889
      7          6           0        0.590453    2.139740    0.520006
      8          1           0        0.904898    0.246150    0.731726
      9          8           0        1.561210   -1.373492    1.046944
     10          8           0        2.630903   -3.141315    0.150121
     11          6           0        2.445814   -1.869886    0.381843
     12          1           0        1.948419   -3.726512    0.568717
     13          8           0        4.408819   -1.515097   -0.994196
     14          8           0        3.339125    0.252726   -0.097373
     15          6           0        3.524214   -1.018703   -0.329094
     16          1           0        4.021609    0.837923   -0.515968
     17          8           0       -4.523640   -1.096441    0.860717
     18          8           0       -3.453947   -2.864264   -0.036106
     19          6           0       -3.639036   -1.592835    0.195616
     20          1           0       -4.136431   -3.449461    0.382490
     21          8           0       -1.676031   -1.238046   -1.180422
     22          8           0       -2.745725    0.529777   -0.283600
     23          6           0       -2.560636   -0.741652   -0.515321
     24          1           0       -2.063241    1.114974   -0.702195
 ---------------------------------------------------------------------

 SCF Done:  E(RHF) =  -1130.38701168     A.U. after    2 cycles

 The electronic state is 1-A.
 Alpha  occ. eigenvalues --  -20.65260 -20.64655 -20.64628 -20.62087 -20.60933
 Alpha  occ. eigenvalues --  -20.59666 -20.58921 -20.58751 -20.58186 -20.56264
 Alpha  occ. eigenvalues --  -20.55253 -20.54223 -11.45778 -11.44644 -11.44515
 Alpha  occ. eigenvalues --  -11.42582 -11.41271 -11.40443  -1.61296  -1.60216
 Alpha  occ. eigenvalues --   -1.58960  -1.57477  -1.56582  -1.54449  -1.51382
 Alpha  occ. eigenvalues --   -1.50428  -1.48998  -1.46987  -1.46875  -1.44824
 Alpha  occ. eigenvalues --   -1.01285  -0.99791  -0.97210  -0.88823  -0.87250
 Alpha  occ. eigenvalues --   -0.84943  -0.78532  -0.77250  -0.76197  -0.75173
 Alpha  occ. eigenvalues --   -0.73973  -0.73725  -0.71760  -0.71552  -0.70454
 Alpha  occ. eigenvalues --   -0.69804  -0.68979  -0.66688  -0.66198  -0.65073
 Alpha  occ. eigenvalues --   -0.64631  -0.63118  -0.62073  -0.60995  -0.60758
 Alpha  occ. eigenvalues --   -0.59190  -0.56901  -0.54429  -0.52930  -0.52441
 Alpha  occ. eigenvalues --   -0.51718  -0.50776  -0.50361  -0.48503  -0.48226
 Alpha  occ. eigenvalues --   -0.47096  -0.46575  -0.45481  -0.42830
 Alpha virt. eigenvalues --    0.02750   0.02795   0.03589   0.04145   0.05457
 Alpha virt. eigenvalues --    0.06479   0.06681   0.06773   0.08239   0.09108
 Alpha virt. eigenvalues --    0.09293   0.09416   0.09679   0.10298   0.10771

 Mulliken charges:
               1
     1  O   -1.339620
     2  O   -1.346601
     3  C    2.139117
     4  H    0.479801
     5  O   -1.226005
     6  O   -1.292435
     7  C    1.800342
     8  H    0.746019
     9  O   -1.260898
    10  O   -1.333334
    11  C    2.062820
    12  H    0.460879
    13  O   -1.181698
    14  O   -1.219181
    15  C    1.905383
    16  H    0.485400
    17  O   -1.202981
    18  O   -1.258640
    19  C    1.897090
    20  H    0.470545
    21  O   -1.208069
    22  O   -1.402779
    23  C    2.021705
    24  H    0.803140
 Sum of Mulliken charges =  -0.00000

 Dipole moment (field-independent basis, Debye):
    X=              1.6231    Y=             -0.0640    Z=              0.0403  Tot=              1.6248

 Test job not archived.
 1\1\GINC-SE097\SP\RHF\Aug-CC-pVDZ\C6H6O12\OHZDE\08-Apr-2025\0\\#t hf a
 ug-cc-pvdz iop(5/13=1,5/36=2,99/5=2) pseudo=read geom=check guess=(rea
 d,tcheck) scf=(maxcycle=1)\\title\\0,1\O,0,17.460467,7.487698,15.64457
 2\O,0,16.617781,6.366646,17.4072\C,0,16.79213,6.602179,16.134954\H,0,1
 7.08704,7.008709,17.999664\O,0,15.336533,4.700302,15.765028\O,0,16.179
 219,5.821354,14.0024\C,0,16.00487,5.585821,15.274646\H,0,15.70996,5.17
 9291,13.409936\O,0,15.336533,4.440698,11.838828\O,0,16.179219,3.319646
 ,10.0762\C,0,16.00487,3.555179,11.348446\H,0,15.70996,3.961709,9.48373

 Normal termination of Gaussian 16 at Tue Apr  8 19:07:51 2025.
