 Gaussian 16, Revision C.01,

 ----------------------------------------------------------------------
 #t hf aug-cc-pvdz symm=none int=(grid=ultrafine) guess=(read,tcheck) s
 table=(opt,rrhf)
 ----------------------------------------------------------------------
 -----
 title
 -----
 Symbolic Z-matrix:
 Charge =  0 Multiplicity = 1

 SCF Done:  E(RHF) =  -449.657244225     A.U. after   14 cycles
 Normal termination of Gaussian 16 at Tue Apr  8 19:03:04 2025.
 Gaussian 16:  ES64L-G16RevC.01  3-Jul-2019

 ----------------------------------------------------------------------
 #t hf aug-cc-pvdz iop(5/13=1,5/36=2,99/5=2) pseudo=read geom=check gue
 ss=(read,tcheck) scf=(maxcycle=1)
 ----------------------------------------------------------------------
 -----
 title
 -----
 Structure from the checkpoint file:  "3B-69_12a_pyrazole_dimerAC_mol1.chk"
 Charge =  0 Multiplicity = 1

                         Standard orientation:
 ---------------------------------------------------------------------
 Center     Atomic      Atomic             Coordinates (Angstroms)
 Number     Number       Type             X           Y           Z
 ---------------------------------------------------------------------
      1          6           0        2.416458    0.955485   -0.607817
      2          6           0        3.604958    0.240427   -0.390889
      3          6           0        3.240005   -0.805625    0.434459
      4          1           0        1.287490   -1.308399    1.198295
      5          1           0        3.820618   -1.606473    0.854173
      6          1           0        4.582615    0.455813   -0.780391
      7          1           0        2.252307    1.840655   -1.198048
      8          7           0        1.918630   -0.679459    0.672594
      9          7           0        1.393898    0.390645    0.037484
     10          6           0       -3.180679   -0.789570   -0.584216
     11          6           0       -3.640547    0.160011    0.340996
     12          6           0       -2.515740    0.876259    0.698076
     13          1           0       -0.473824    0.566241    0.073766
     14          1           0       -2.375669    1.689200    1.387407
     15          1           0       -4.642749    0.301807    0.700081
     16          1           0       -3.744618   -1.546879   -1.099859
     17          7           0       -1.481498    0.355468    0.005425
     18          7           0       -1.867159   -0.668638   -0.783943
 ---------------------------------------------------------------------

 SCF Done:  E(RHF) =  -450.118662778     A.U. after    2 cycles

 The electronic state is 1-A.
 Alpha  occ. eigenvalues --  -15.59873 -15.54971 -15.54378 -15.50573 -11.29954
 Alpha  occ. eigenvalues --  -11.27760 -11.26280 -11.24186 -11.24040 -11.21065
 Alpha  occ. eigenvalues --   -1.38574  -1.34599  -1.13003  -1.09004  -1.07748
 Alpha  occ. eigenvalues --   -1.04199  -0.86255  -0.85186  -0.83203  -0.81505
 Alpha  occ. eigenvalues --   -0.78254  -0.74781  -0.66243  -0.65730  -0.63288
 Alpha  occ. eigenvalues --   -0.62665  -0.61771  -0.59889  -0.59362  -0.56256
 Alpha  occ. eigenvalues --   -0.52327  -0.48106  -0.41421  -0.38357  -0.37469
 Alpha  occ. eigenvalues --   -0.34976
 Alpha virt. eigenvalues --    0.02864   0.03790   0.03980   0.04671   0.04858
 Alpha virt. eigenvalues --    0.05825   0.05965   0.08608   0.09443   0.09683
 Alpha virt. eigenvalues --    0.10148   0.11027   0.11430   0.11768   0.13007

 Mulliken charges:
               1
     1  C   -0.487311
     2  C    0.699712
     3  C   -0.438732
     4  H    0.066610
     5  H   -0.199210
     6  H   -0.103485
     7  H   -0.221812
     8  N    0.539305
     9  N    0.081210
    10  C   -0.734214
    11  C    0.886810
    12  C   -0.561947
    13  H    0.227306
    14  H   -0.277254
    15  H   -0.119862
    16  H   -0.171300
    17  N    0.475975
    18  N    0.338198
 Sum of Mulliken charges =   0.00000

 Dipole moment (field-independent basis, Debye):
    X=              3.0707    Y=              0.1340    Z=              2.3077  Tot=              3.8435

 Test job not archived.
 1\1\GINC-SE364\SP\RHF\Aug-CC-pVDZ\C6H8N4\OHZDE\08-Apr-2025\0\\#t hf au
 g-cc-pvdz iop(5/13=1,5/36=2,99/5=2) pseudo=read geom=check guess=(read
 ,tcheck) scf=(maxcycle=1)\\title\\0,1\C,0,10.627016,5.579002,5.969045\
 C,0,11.476074,4.843862,6.811403\C,0,10.688278,3.817185,7.295063\H,0,8.
 629312,3.364017,6.843575\H,0,10.917516,3.011175,7.967689\H,0,12.510061
 ,5.034319,7.031661\H,0,10.840612,6.458651,5.386431\N,0,9.461334,3.9727
 73,6.757422\N,0,9.404905,5.04376,5.93667\C,0,5.922353,3.945079,2.87547
 7\C,0,5.048807,4.916747,3.387313\C,0,5.801878,5.615759,4.309254\H,0,7.

 Normal termination of Gaussian 16 at Tue Apr  8 19:03:14 2025.
