 Gaussian 16, Revision C.01,

 ----------------------------------------------------------------------
 #t hf aug-cc-pvdz symm=none int=(grid=ultrafine) guess=(read,tcheck) s
 table=(opt,rrhf)
 ----------------------------------------------------------------------
 -----
 title
 -----
 Symbolic Z-matrix:
 Charge =  0 Multiplicity = 1

 SCF Done:  E(RHF) =  -449.655408448     A.U. after   14 cycles
 Normal termination of Gaussian 16 at Tue Apr  8 19:03:16 2025.
 Gaussian 16:  ES64L-G16RevC.01  3-Jul-2019

 ----------------------------------------------------------------------
 #t hf aug-cc-pvdz iop(5/13=1,5/36=2,99/5=2) pseudo=read geom=check gue
 ss=(read,tcheck) scf=(maxcycle=1)
 ----------------------------------------------------------------------
 -----
 title
 -----
 Structure from the checkpoint file:  "3B-69_12a_pyrazole_dimerAB_mol1.chk"
 Charge =  0 Multiplicity = 1

                         Standard orientation:
 ---------------------------------------------------------------------
 Center     Atomic      Atomic             Coordinates (Angstroms)
 Number     Number       Type             X           Y           Z
 ---------------------------------------------------------------------
      1          6           0        3.453485   -0.780752   -0.017945
      2          6           0        3.612833    0.612388    0.050365
      3          6           0        2.326333    1.115055    0.021044
      4          1           0        0.456687    0.043768   -0.051818
      5          1           0        1.965007    2.126447    0.055076
      6          1           0        4.530530    1.167190    0.113163
      7          1           0        4.203613   -1.552861   -0.017281
      8          7           0        1.491004    0.059904   -0.065775
      9          7           0        2.162337   -1.111755   -0.084729
     10          6           0       -2.249853   -1.119131    0.084615
     11          6           0       -3.575522   -0.672276   -0.025477
     12          6           0       -3.480002    0.704203   -0.068973
     13          1           0       -1.701614    1.925925   -0.074445
     14          1           0       -4.228869    1.469417   -0.165490
     15          1           0       -4.470922   -1.263598   -0.070787
     16          1           0       -1.888996   -2.131018    0.142058
     17          7           0       -2.168608    1.010342    0.015712
     18          7           0       -1.397458   -0.093091    0.107327
 ---------------------------------------------------------------------

 SCF Done:  E(RHF) =  -450.116834104     A.U. after    2 cycles

 The electronic state is 1-A.
 Alpha  occ. eigenvalues --  -15.60326 -15.54826 -15.54685 -15.50387 -11.30353
 Alpha  occ. eigenvalues --  -11.27980 -11.26230 -11.24495 -11.23839 -11.20966
 Alpha  occ. eigenvalues --   -1.39079  -1.34326  -1.13385  -1.08862  -1.08231
 Alpha  occ. eigenvalues --   -1.03952  -0.86797  -0.85468  -0.83020  -0.81401
 Alpha  occ. eigenvalues --   -0.78554  -0.74759  -0.66830  -0.66034  -0.63454
 Alpha  occ. eigenvalues --   -0.62634  -0.61599  -0.59838  -0.59524  -0.56161
 Alpha  occ. eigenvalues --   -0.52607  -0.47879  -0.41790  -0.38849  -0.37165
 Alpha  occ. eigenvalues --   -0.34767
 Alpha virt. eigenvalues --    0.02183   0.03433   0.03637   0.04867   0.05248
 Alpha virt. eigenvalues --    0.06132   0.07290   0.07365   0.08411   0.10117
 Alpha virt. eigenvalues --    0.10420   0.11516   0.11695   0.12364   0.12689

 Mulliken charges:
               1
     1  C   -0.734024
     2  C    0.915061
     3  C   -0.615942
     4  H    0.195989
     5  H   -0.329384
     6  H   -0.127180
     7  H   -0.186368
     8  N    0.401812
     9  N    0.539118
    10  C   -0.616092
    11  C    0.775692
    12  C   -0.504468
    13  H    0.070098
    14  H   -0.209942
    15  H   -0.106400
    16  H   -0.228607
    17  N    0.789711
    18  N   -0.029076
 Sum of Mulliken charges =  -0.00000

 Dipole moment (field-independent basis, Debye):
    X=             -4.1256    Y=              3.4899    Z=             -0.1337  Tot=              5.4053

 Test job not archived.
 1\1\GINC-SE230\SP\RHF\Aug-CC-pVDZ\C6H8N4\OHZDE\08-Apr-2025\0\\#t hf au
 g-cc-pvdz iop(5/13=1,5/36=2,99/5=2) pseudo=read geom=check guess=(read
 ,tcheck) scf=(maxcycle=1)\\title\\0,1\C,0,10.627016,5.579002,5.969045\
 C,0,11.476074,4.843862,6.811403\C,0,10.688278,3.817185,7.295063\H,0,8.
 629312,3.364017,6.843575\H,0,10.917516,3.011175,7.967689\H,0,12.510061
 ,5.034319,7.031661\H,0,10.840612,6.458651,5.386431\N,0,9.461334,3.9727
 73,6.757422\N,0,9.404905,5.04376,5.93667\C,0,5.922353,2.348921,6.26197
 7\C,0,5.048807,1.377253,6.773813\C,0,5.801878,0.678241,7.695754\H,0,7.

 Normal termination of Gaussian 16 at Tue Apr  8 19:03:27 2025.
