 Gaussian 16, Revision C.01,

 ----------------------------------------------------------------------
 #t hf aug-cc-pvdz symm=none int=(grid=ultrafine) guess=(read,tcheck) s
 table=(opt,rrhf)
 ----------------------------------------------------------------------
 -----
 title
 -----
 Symbolic Z-matrix:
 Charge =  0 Multiplicity = 1

 SCF Done:  E(RHF) =  -824.874373465     A.U. after   15 cycles
 Normal termination of Gaussian 16 at Tue Apr  8 19:16:07 2025.
 Gaussian 16:  ES64L-G16RevC.01  3-Jul-2019

 ----------------------------------------------------------------------
 #t hf aug-cc-pvdz iop(5/13=1,5/36=2,99/5=2) pseudo=read geom=check gue
 ss=(read,tcheck) scf=(maxcycle=1)
 ----------------------------------------------------------------------
 -----
 title
 -----
 Structure from the checkpoint file:  "3B-69_22c_uracil_dimerBC_mol1.chk"
 Charge =  0 Multiplicity = 1

                         Standard orientation:
 ---------------------------------------------------------------------
 Center     Atomic      Atomic             Coordinates (Angstroms)
 Number     Number       Type             X           Y           Z
 ---------------------------------------------------------------------
      1          6           0       -2.078640   -1.144696   -0.012164
      2          6           0       -1.928739    1.304965    0.068517
      3          6           0       -1.118060    1.186186    1.239994
      4          6           0       -0.834550   -0.036660    1.709229
      5          1           0       -0.279072   -0.189618    2.473878
      6          1           0       -1.072044   -1.929921    1.374555
      7          1           0       -2.838263    0.193834   -1.204226
      8          1           0       -0.791492    1.967231    1.627931
      9          7           0       -1.291459   -1.167329    1.110473
     10          7           0       -2.359869    0.121617   -0.472766
     11          8           0       -2.501320   -2.144034   -0.559834
     12          8           0       -2.254665    2.376350   -0.475645
     13          6           0        1.519565   -1.228794   -0.649602
     14          6           0        1.669468    1.220867   -0.568921
     15          6           0        2.480147    1.102089    0.602555
     16          6           0        2.763656   -0.120757    1.071791
     17          1           0        3.319134   -0.273716    1.836439
     18          1           0        2.526161   -2.014019    0.737118
     19          1           0        0.759942    0.109736   -1.841664
     20          1           0        2.806714    1.883133    0.990493
     21          7           0        2.306747   -1.251427    0.473035
     22          7           0        1.238337    0.037519   -1.110205
     23          8           0        1.096886   -2.228132   -1.197272
     24          8           0        1.343542    2.292253   -1.113084
 ---------------------------------------------------------------------

 SCF Done:  E(RHF) =  -825.719720321     A.U. after    2 cycles

 The electronic state is 1-A.
 Alpha  occ. eigenvalues --  -20.54851 -20.53303 -20.53230 -20.51943 -15.58649
 Alpha  occ. eigenvalues --  -15.57192 -15.56799 -15.55533 -11.43681 -11.42214
 Alpha  occ. eigenvalues --  -11.39011 -11.37782 -11.34859 -11.33689 -11.26180
 Alpha  occ. eigenvalues --  -11.24892  -1.51500  -1.49918  -1.46595  -1.45300
 Alpha  occ. eigenvalues --   -1.37279  -1.35889  -1.30490  -1.29166  -1.13812
 Alpha  occ. eigenvalues --   -1.12584  -1.01155  -0.99857  -0.97932  -0.96590
 Alpha  occ. eigenvalues --   -0.90859  -0.89535  -0.83330  -0.81979  -0.80641
 Alpha  occ. eigenvalues --   -0.79467  -0.72825  -0.72380  -0.71583  -0.69980
 Alpha  occ. eigenvalues --   -0.69664  -0.68313  -0.65570  -0.64226  -0.62626
 Alpha  occ. eigenvalues --   -0.61411  -0.61055  -0.59269  -0.56047  -0.54057
 Alpha  occ. eigenvalues --   -0.49328  -0.47852  -0.45931  -0.45036  -0.44183
 Alpha  occ. eigenvalues --   -0.43767  -0.40117  -0.38370
 Alpha virt. eigenvalues --    0.00520   0.02397   0.02558   0.04265   0.04769
 Alpha virt. eigenvalues --    0.05092   0.05372   0.06050   0.06753   0.07451
 Alpha virt. eigenvalues --    0.08284   0.08476   0.09487   0.09973   0.10296

 Mulliken charges:
               1
     1  C    0.321220
     2  C    0.308022
     3  C    1.442286
     4  C    0.038371
     5  H   -0.674940
     6  H   -0.263388
     7  H   -0.074448
     8  H   -0.660536
     9  N    1.294414
    10  N    0.996447
    11  O   -1.293971
    12  O   -1.445818
    13  C   -0.017481
    14  C    0.489973
    15  C    1.129475
    16  C    0.260089
    17  H   -0.599691
    18  H   -0.175912
    19  H   -0.118849
    20  H   -0.519313
    21  N    0.958874
    22  N    1.387604
    23  O   -1.285024
    24  O   -1.497402
 Sum of Mulliken charges =  -0.00000

 Dipole moment (field-independent basis, Debye):
    X=              5.5825    Y=             -2.5788    Z=              7.1982  Tot=              9.4672

 Test job not archived.
 1\1\GINC-SE083\SP\RHF\Aug-CC-pVDZ\C8H8N4O4\OHZDE\08-Apr-2025\0\\#t hf
 aug-cc-pvdz iop(5/13=1,5/36=2,99/5=2) pseudo=read geom=check guess=(re
 ad,tcheck) scf=(maxcycle=1)\\title\\0,1\C,0,8.26454,9.785332,3.107764\
 C,0,7.979082,12.222909,3.026813\C,0,6.571336,12.022418,2.879434\C,0,6.
 095124,10.769966,2.857103\H,0,5.162869,10.564154,2.785122\H,0,6.600568
 ,8.90577,3.005925\H,0,9.591364,11.203993,3.236764\H,0,6.024709,12.7745
 07,2.82715\N,0,6.904021,9.68422,2.969041\N,0,8.730514,11.08048,3.12366
 5\O,0,9.005743,8.826934,3.204553\O,0,8.547345,13.329695,3.074863\C,0,6

 Normal termination of Gaussian 16 at Tue Apr  8 19:16:35 2025.
