 Gaussian 16, Revision C.01,

 ----------------------------------------------------------------------
 #t hf aug-cc-pvdz symm=none int=(grid=ultrafine) guess=(read,tcheck) s
 table=(opt,rrhf)
 ----------------------------------------------------------------------
 -----
 title
 -----
 Symbolic Z-matrix:
 Charge =  0 Multiplicity = 1

 SCF Done:  E(RHF) =  -752.853125548     A.U. after   13 cycles
 Normal termination of Gaussian 16 at Tue Apr  8 19:01:46 2025.
 Gaussian 16:  ES64L-G16RevC.01  3-Jul-2019

 ----------------------------------------------------------------------
 #t hf aug-cc-pvdz iop(5/13=1,5/36=2,99/5=2) pseudo=read geom=check gue
 ss=(read,tcheck) scf=(maxcycle=1)
 ----------------------------------------------------------------------
 -----
 title
 -----
 Structure from the checkpoint file:  "3B-69_07a_oxalic_acid_dimerBC_mol1.chk"
 Charge =  0 Multiplicity = 1

                         Standard orientation:
 ---------------------------------------------------------------------
 Center     Atomic      Atomic             Coordinates (Angstroms)
 Number     Number       Type             X           Y           Z
 ---------------------------------------------------------------------
      1          6           0       -2.350396    0.762060   -0.275185
      2          1           0       -2.504197    2.626751    0.002654
      3          8           0       -1.286670    0.804107   -0.865746
      4          8           0       -3.014148    1.785656    0.186250
      5          6           0       -3.074154   -0.570618   -0.020956
      6          8           0       -4.137881   -0.612664    0.569605
      7          8           0       -2.410403   -1.594213   -0.482391
      8          1           0       -2.920352   -2.435308   -0.298795
      9          6           0        3.074154    0.570618    0.020956
     10          1           0        2.920353    2.435308    0.298795
     11          8           0        4.137881    0.612664   -0.569605
     12          8           0        2.410403    1.594213    0.482391
     13          6           0        2.350397   -0.762061    0.275185
     14          8           0        1.286670   -0.804107    0.865746
     15          8           0        3.014147   -1.785656   -0.186250
     16          1           0        2.504197   -2.626751   -0.002654
 ---------------------------------------------------------------------

 SCF Done:  E(RHF) =  -753.575529970     A.U. after    2 cycles

 The electronic state is 1-A.
 Alpha  occ. eigenvalues --  -20.63130 -20.63130 -20.63107 -20.63107 -20.56350
 Alpha  occ. eigenvalues --  -20.56349 -20.56226 -20.56225 -11.42559 -11.42559
 Alpha  occ. eigenvalues --  -11.42454 -11.42453  -1.59055  -1.59054  -1.57029
 Alpha  occ. eigenvalues --   -1.57028  -1.47985  -1.47953  -1.46509  -1.46489
 Alpha  occ. eigenvalues --   -0.98771  -0.98766  -0.85759  -0.85751  -0.75721
 Alpha  occ. eigenvalues --   -0.75700  -0.73072  -0.73052  -0.71688  -0.71598
 Alpha  occ. eigenvalues --   -0.68379  -0.68252  -0.64370  -0.64295  -0.62973
 Alpha  occ. eigenvalues --   -0.62970  -0.58768  -0.58751  -0.51764  -0.51732
 Alpha  occ. eigenvalues --   -0.49154  -0.49023  -0.48983  -0.48611  -0.44563
 Alpha  occ. eigenvalues --   -0.44530
 Alpha virt. eigenvalues --    0.02810   0.02944   0.04309   0.04582   0.07610
 Alpha virt. eigenvalues --    0.07824   0.08451   0.09348   0.10219   0.10565
 Alpha virt. eigenvalues --    0.11012   0.11618   0.12069   0.12493   0.12733

 Mulliken charges:
               1
     1  C    1.978608
     2  H    0.446618
     3  O   -1.138747
     4  O   -1.243034
     5  C    1.876988
     6  O   -1.150788
     7  O   -1.231383
     8  H    0.461737
     9  C    1.876988
    10  H    0.461737
    11  O   -1.150788
    12  O   -1.231383
    13  C    1.978608
    14  O   -1.138747
    15  O   -1.243033
    16  H    0.446618
 Sum of Mulliken charges =  -0.00000

 Dipole moment (field-independent basis, Debye):
    X=              0.0000    Y=             -0.0000    Z=             -0.0000  Tot=              0.0000

 Test job not archived.
 1\1\GINC-SE222\SP\RHF\Aug-CC-pVDZ\C4H4O8\OHZDE\08-Apr-2025\0\\#t hf au
 g-cc-pvdz iop(5/13=1,5/36=2,99/5=2) pseudo=read geom=check guess=(read
 ,tcheck) scf=(maxcycle=1)\\title\\0,1\C,0,-1.953003,3.017605,2.44175\H
 ,0,-3.453591,2.371173,1.488712\O,0,-2.584787,3.63715,3.277847\O,0,-2.4
 5442,2.333279,1.451036\C,0,-0.415475,2.997395,2.451144\O,0,0.216308,2.
 37785,1.615046\O,0,0.085942,3.681721,3.441857\H,0,1.085112,3.643827,3.
 404182\C,0,-4.321482,3.017605,7.334643\H,0,-5.822069,2.371173,6.381605
 \O,0,-4.953265,3.63715,8.170741\O,0,-4.822899,2.333279,6.34393\C,0,-2.

 Normal termination of Gaussian 16 at Tue Apr  8 19:01:54 2025.
