 Gaussian 16, Revision C.01,

 ----------------------------------------------------------------------
 #t hf aug-cc-pvdz symm=none int=(grid=ultrafine) guess=(read,tcheck) s
 table=(opt,rrhf)
 ----------------------------------------------------------------------
 -----
 title
 -----
 Symbolic Z-matrix:
 Charge =  0 Multiplicity = 1

 SCF Done:  E(RHF) =  -1129.30492597     A.U. after   13 cycles

 1\1\GINC-SE220\Stability\RHF\Aug-CC-pVDZ\C6H6O12\OHZDE\08-Apr-2025\0\\
 #t hf aug-cc-pvdz symm=none int=(grid=ultrafine) guess=(read,tcheck) s
 table=(opt,rrhf)\\title\\0,1\O,0,-1.061967,-1.393698,3.865972\O,0,-0.2
 19281,-0.272646,5.6286\C,0,-0.39363,-0.508179,4.356354\H,0,-0.68854,-0
 .914709,6.221064\O,0,1.061967,1.393698,3.986428\O,0,0.219281,0.272646,
 2.2238\C,0,0.39363,0.508179,3.496046\H,0,0.68854,0.914709,1.631336\O,0
 ,-1.061967,-1.393698,11.718372\O,0,-0.219281,-0.272646,13.481\C,0,-0.3
 9363,-0.508179,12.208754\H,0,-0.68854,-0.914709,14.073464\O,0,1.061967

 Normal termination of Gaussian 16 at Tue Apr  8 19:06:57 2025.
 Gaussian 16:  ES64L-G16RevC.01  3-Jul-2019

 ----------------------------------------------------------------------
 #t hf aug-cc-pvdz iop(5/13=1,5/36=2,99/5=2) pseudo=read geom=check gue
 ss=(read,tcheck) scf=(maxcycle=1)
 ----------------------------------------------------------------------
 -----
 title
 -----
 Structure from the checkpoint file:  "3B-69_07b_oxalic_acid_trimer_mol1.chk"
 Charge =  0 Multiplicity = 1

                         Standard orientation:
 ---------------------------------------------------------------------
 Center     Atomic      Atomic             Coordinates (Angstroms)
 Number     Number       Type             X           Y           Z
 ---------------------------------------------------------------------
      1          8           0       -3.937036   -2.540638    0.932380
      2          8           0       -2.204359   -1.330602    0.153033
      3          6           0       -3.470128   -1.596200    0.331274
      4          1           0       -1.595433   -2.001917    0.555534
      5          8           0       -3.890501    0.415606   -0.952730
      6          8           0       -5.623177   -0.794430   -0.173384
      7          6           0       -4.357408   -0.528831   -0.351624
      8          1           0       -6.232104   -0.123114   -0.575884
      9          8           0        3.913289   -2.439685    0.782725
     10          8           0        5.645965   -1.229649    0.003378
     11          6           0        4.380196   -1.495247    0.181619
     12          1           0        6.254892   -1.900964    0.405879
     13          8           0        3.959824    0.516559   -1.102385
     14          8           0        2.227148   -0.693477   -0.323039
     15          6           0        3.492916   -0.427878   -0.501279
     16          1           0        1.618221   -0.022162   -0.725539
     17          8           0        0.031749    0.724760   -1.005831
     18          8           0       -1.726080    1.748820   -0.038839
     19          6           0       -0.455026    1.545035   -0.256504
     20          1           0       -2.320601    1.140596   -0.548810
     21          8           0       -0.077325    3.323398    1.345842
     22          8           0        1.680504    2.299337    0.378850
     23          6           0        0.409450    2.503122    0.596515
     24          1           0        2.275024    2.907562    0.888821
 ---------------------------------------------------------------------

 SCF Done:  E(RHF) =  -1130.38854600     A.U. after    2 cycles

 The electronic state is 1-A.
 Alpha  occ. eigenvalues --  -20.66096 -20.65026 -20.63575 -20.62332 -20.61879
 Alpha  occ. eigenvalues --  -20.60513 -20.59475 -20.58684 -20.57878 -20.57055
 Alpha  occ. eigenvalues --  -20.55678 -20.54663 -11.46566 -11.45032 -11.43890
 Alpha  occ. eigenvalues --  -11.43216 -11.41684 -11.40871  -1.62023  -1.59556
 Alpha  occ. eigenvalues --   -1.59507  -1.57807  -1.57196  -1.54934  -1.52209
 Alpha  occ. eigenvalues --   -1.49621  -1.49467  -1.47679  -1.47296  -1.45263
 Alpha  occ. eigenvalues --   -1.01935  -0.99694  -0.97617  -0.89418  -0.87207
 Alpha  occ. eigenvalues --   -0.85312  -0.79117  -0.77472  -0.76564  -0.75062
 Alpha  occ. eigenvalues --   -0.74384  -0.73851  -0.72559  -0.71970  -0.71211
 Alpha  occ. eigenvalues --   -0.69925  -0.68849  -0.67075  -0.66825  -0.65681
 Alpha  occ. eigenvalues --   -0.64405  -0.63374  -0.62462  -0.61490  -0.61289
 Alpha  occ. eigenvalues --   -0.59319  -0.57255  -0.55054  -0.53332  -0.52853
 Alpha  occ. eigenvalues --   -0.51237  -0.50797  -0.50404  -0.49618  -0.48612
 Alpha  occ. eigenvalues --   -0.47710  -0.47075  -0.45634  -0.43248
 Alpha virt. eigenvalues --    0.02325   0.03460   0.04138   0.04358   0.04787
 Alpha virt. eigenvalues --    0.05977   0.06765   0.06834   0.08246   0.08438
 Alpha virt. eigenvalues --    0.08878   0.09524   0.09921   0.10104   0.10400

 Mulliken charges:
               1
     1  O   -1.210932
     2  O   -1.170733
     3  C    1.906677
     4  H    0.489349
     5  O   -1.267342
     6  O   -1.277607
     7  C    1.963380
     8  H    0.458922
     9  O   -1.240647
    10  O   -1.287426
    11  C    2.138322
    12  H    0.487064
    13  O   -1.204009
    14  O   -1.324543
    15  C    1.753831
    16  H    0.777719
    17  O   -1.278307
    18  O   -1.437563
    19  C    1.977993
    20  H    0.710700
    21  O   -1.255800
    22  O   -1.248290
    23  C    2.036024
    24  H    0.503217
 Sum of Mulliken charges =  -0.00000

 Dipole moment (field-independent basis, Debye):
    X=             -2.2487    Y=             -0.0440    Z=              0.0512  Tot=              2.2498

 Test job not archived.
 1\1\GINC-SE220\SP\RHF\Aug-CC-pVDZ\C6H6O12\OHZDE\08-Apr-2025\0\\#t hf a
 ug-cc-pvdz iop(5/13=1,5/36=2,99/5=2) pseudo=read geom=check guess=(rea
 d,tcheck) scf=(maxcycle=1)\\title\\0,1\O,0,-1.061967,-1.393698,3.86597
 2\O,0,-0.219281,-0.272646,5.6286\C,0,-0.39363,-0.508179,4.356354\H,0,-
 0.68854,-0.914709,6.221064\O,0,1.061967,1.393698,3.986428\O,0,0.219281
 ,0.272646,2.2238\C,0,0.39363,0.508179,3.496046\H,0,0.68854,0.914709,1.
 631336\O,0,-1.061967,-1.393698,11.718372\O,0,-0.219281,-0.272646,13.48
 1\C,0,-0.39363,-0.508179,12.208754\H,0,-0.68854,-0.914709,14.073464\O,

 Normal termination of Gaussian 16 at Tue Apr  8 19:07:19 2025.
