 Gaussian 16, Revision C.01,

 ----------------------------------------------------------------------
 #t hf aug-cc-pvdz symm=none int=(grid=ultrafine) guess=(read,tcheck) s
 table=(opt,rrhf)
 ----------------------------------------------------------------------
 -----
 title
 -----
 Symbolic Z-matrix:
 Charge =  0 Multiplicity = 1

 SCF Done:  E(RHF) =  -191.887035065     A.U. after   13 cycles
 Normal termination of Gaussian 16 at Tue Apr  8 18:58:40 2025.
 Gaussian 16:  ES64L-G16RevC.01  3-Jul-2019

 ----------------------------------------------------------------------
 #t hf aug-cc-pvdz iop(5/13=1,5/36=2,99/5=2) pseudo=read geom=check gue
 ss=(read,tcheck) scf=(maxcycle=1)
 ----------------------------------------------------------------------
 -----
 title
 -----
 Structure from the checkpoint file:  "3B-69_03c_methanol_ethyne_dimerBC_mol1.chk"
 Charge =  0 Multiplicity = 1

                         Standard orientation:
 ---------------------------------------------------------------------
 Center     Atomic      Atomic             Coordinates (Angstroms)
 Number     Number       Type             X           Y           Z
 ---------------------------------------------------------------------
      1          8           0       -1.475700   -0.409823   -0.225345
      2          1           0       -1.198172    0.064736   -1.046978
      3          6           0       -2.721515    0.140098    0.223430
      4          1           0       -2.574881    1.159873    0.586962
      5          1           0       -3.080122   -0.475538    1.046243
      6          1           0       -3.472924    0.146744   -0.568569
      7          6           0        3.208803   -0.260050    0.129294
      8          1           0        4.042710   -0.902661    0.323520
      9          6           0        2.284540    0.478879   -0.070493
     10          1           0        1.458019    1.131865   -0.231807
 ---------------------------------------------------------------------

 SCF Done:  E(RHF) =  -192.089243325     A.U. after    2 cycles

 The electronic state is 1-A.
 Alpha  occ. eigenvalues --  -20.55249 -11.28524 -11.25012 -11.24667  -1.43545
 Alpha  occ. eigenvalues --   -1.02998  -0.93025  -0.76413  -0.68782  -0.68420
 Alpha  occ. eigenvalues --   -0.62361  -0.59485  -0.50444  -0.44667  -0.41596
 Alpha  occ. eigenvalues --   -0.41535
 Alpha virt. eigenvalues --    0.03253   0.04011   0.04638   0.05039   0.06459
 Alpha virt. eigenvalues --    0.07684   0.10828   0.11260   0.11459   0.12687
 Alpha virt. eigenvalues --    0.14128   0.14534   0.15403   0.15550   0.16752

 Mulliken charges:
               1
     1  O   -1.002671
     2  H    0.344963
     3  C    0.463266
     4  H    0.081825
     5  H    0.043713
     6  H    0.071058
     7  C    0.169732
     8  H   -0.191147
     9  C    0.248817
    10  H   -0.229555
 Sum of Mulliken charges =  -0.00000

 Dipole moment (field-independent basis, Debye):
    X=             -1.0039    Y=              1.2251    Z=             -0.6783  Tot=              1.7230

 Test job not archived.
 1\1\GINC-SE114\SP\RHF\Aug-CC-pVDZ\C3H6O1\OHZDE\08-Apr-2025\0\\#t hf au
 g-cc-pvdz iop(5/13=1,5/36=2,99/5=2) pseudo=read geom=check guess=(read
 ,tcheck) scf=(maxcycle=1)\\title\\0,1\O,0,0.929023,6.189692,13.237802\
 H,0,1.783226,5.692413,13.25676\C,0,1.143396,7.444774,12.578499\H,0,1.7
 71311,8.092502,13.194753\H,0,0.173881,7.921501,12.446586\H,0,1.611902,
 7.316706,11.600735\C,0,0.779291,3.91789,17.34989\H,0,0.128231,3.29013,
 17.922699\C,0,1.513982,4.636857,16.730609\H,0,2.15468,5.288095,16.1820
 23\\Version=ES64L-G16RevC.01\State=1-A\HF=-192.0892433\RMSD=1.745e-02\

 Normal termination of Gaussian 16 at Tue Apr  8 18:58:42 2025.
