 Gaussian 16, Revision C.01,

 ----------------------------------------------------------------------
 #t hf aug-cc-pvdz symm=none int=(grid=ultrafine) guess=(read,tcheck) s
 table=(opt,rrhf)
 ----------------------------------------------------------------------
 -----
 title
 -----
 Symbolic Z-matrix:
 Charge =  0 Multiplicity = 1

 SCF Done:  E(RHF) =  -156.087224551     A.U. after   10 cycles
 Normal termination of Gaussian 16 at Tue Apr  8 19:11:51 2025.
 Gaussian 16:  ES64L-G16RevC.01  3-Jul-2019

 ----------------------------------------------------------------------
 #t hf aug-cc-pvdz iop(5/13=1,5/36=2,99/5=2) pseudo=read geom=check gue
 ss=(read,tcheck) scf=(maxcycle=1)
 ----------------------------------------------------------------------
 -----
 title
 -----
 Structure from the checkpoint file:  "A21x12_14_ethene-dimer_1p6_mol1.chk"
 Charge =  0 Multiplicity = 1

                         Standard orientation:
 ---------------------------------------------------------------------
 Center     Atomic      Atomic             Coordinates (Angstroms)
 Number     Number       Type             X           Y           Z
 ---------------------------------------------------------------------
      1          1           0       -0.924445    1.231722   -3.049422
      2          1           0        0.924445    1.231722   -3.049422
      3          1           0        0.924445   -1.231722   -3.049422
      4          1           0       -0.924445   -1.231722   -3.049422
      5          6           0        0.000000   -0.667288   -3.048794
      6          6           0        0.000000    0.667288   -3.048794
      7          1           0        0.000000   -1.233449    3.972876
      8          1           0        0.000000   -1.225471    2.121320
      9          1           0        0.000000    1.225471    2.121320
     10          1           0        0.000000    1.233449    3.972876
     11          6           0        0.000000    0.667117    3.049568
     12          6           0       -0.000000   -0.667117    3.049568
 ---------------------------------------------------------------------

 SCF Done:  E(RHF) =  -156.260544832     A.U. after    2 cycles

 The electronic state is 1-A1.
 Alpha  occ. eigenvalues --  -11.24341 -11.24206 -11.24066 -11.23932  -1.03701
 Alpha  occ. eigenvalues --   -1.03459  -0.79682  -0.79382  -0.65291  -0.65086
 Alpha  occ. eigenvalues --   -0.60110  -0.59792  -0.51553  -0.51314  -0.38474
 Alpha  occ. eigenvalues --   -0.38213
 Alpha virt. eigenvalues --    0.03792   0.04024   0.04452   0.04715   0.05493
 Alpha virt. eigenvalues --    0.06703   0.06883   0.07783   0.10303   0.11578
 Alpha virt. eigenvalues --    0.12347   0.12448   0.13138   0.14709   0.15381

 Mulliken charges:
               1
     1  H   -0.051687
     2  H   -0.051687
     3  H   -0.051687
     4  H   -0.051687
     5  C    0.103806
     6  C    0.103806
     7  H   -0.050160
     8  H   -0.052804
     9  H   -0.052804
    10  H   -0.050160
    11  C    0.102531
    12  C    0.102531
 Sum of Mulliken charges =  -0.00000

 Dipole moment (field-independent basis, Debye):
    X=             -0.0000    Y=             -0.0000    Z=             -0.0399  Tot=              0.0399

 Test job not archived.
 1\1\GINC-SE105\SP\RHF\Aug-CC-pVDZ\C4H8\OHZDE\08-Apr-2025\0\\#t hf aug-
 cc-pvdz iop(5/13=1,5/36=2,99/5=2) pseudo=read geom=check guess=(read,t
 check) scf=(maxcycle=1)\\title\\0,1\H,0,0.9244451,-1.23172221,-3.04958
 613\H,0,-0.9244451,-1.23172221,-3.04958613\H,0,-0.9244451,1.23172221,-
 3.04958613\H,0,0.9244451,1.23172221,-3.04958613\C,0,0.,0.66728778,-3.0
 489582\C,0,0.,-0.66728778,-3.0489582\H,0,0.,1.23344948,3.9727113\H,0,0
 .,1.22547148,2.12115537\H,0,0.,-1.22547148,2.12115537\H,0,0.,-1.233449
 48,3.9727113\C,0,0.,-0.66711698,3.0494038\C,0,0.,0.66711698,3.0494038\

 Normal termination of Gaussian 16 at Tue Apr  8 19:11:53 2025.
