 Gaussian 16, Revision C.01,

 ----------------------------------------------------------------------
 #t hf aug-cc-pvdz symm=none int=(grid=ultrafine) guess=(read,tcheck) s
 table=(opt,rrhf)
 ----------------------------------------------------------------------
 -----
 title
 -----
 Symbolic Z-matrix:
 Charge =  0 Multiplicity = 1

 SCF Done:  E(RHF) =  -80.3992236076     A.U. after    9 cycles
 Normal termination of Gaussian 16 at Tue Apr  8 19:13:49 2025.
 Gaussian 16:  ES64L-G16RevC.01  3-Jul-2019

 ----------------------------------------------------------------------
 #t hf aug-cc-pvdz iop(5/13=1,5/36=2,99/5=2) pseudo=read geom=check gue
 ss=(read,tcheck) scf=(maxcycle=1)
 ----------------------------------------------------------------------
 -----
 title
 -----
 Structure from the checkpoint file:  "A21x12_19_methane-dimer_1p1_mol1.chk"
 Charge =  0 Multiplicity = 1

                         Standard orientation:
 ---------------------------------------------------------------------
 Center     Atomic      Atomic             Coordinates (Angstroms)
 Number     Number       Type             X           Y           Z
 ---------------------------------------------------------------------
      1          6           0        0.000000    0.000000    2.000888
      2          1           0        0.000000    1.025482    1.636640
      3          1           0        0.888094   -0.512741    1.636640
      4          1           0       -0.888094   -0.512741    1.636640
      5          1           0        0.000000    0.000000    3.089094
      6          6           0       -0.000000   -0.000000   -2.000888
      7          1           0       -0.000000   -0.000000   -3.089094
      8          1           0       -0.888094    0.512741   -1.636640
      9          1           0       -0.000000   -1.025482   -1.636640
     10          1           0        0.888094    0.512741   -1.636640
 ---------------------------------------------------------------------

 SCF Done:  E(RHF) =  -80.4991391975     A.U. after    2 cycles

 The electronic state is 1-A1G.
 Alpha  occ. eigenvalues --  -11.21867 -11.21864  -0.94734  -0.94434  -0.55407
 Alpha  occ. eigenvalues --   -0.55153  -0.55153  -0.54814  -0.54814  -0.54685
 Alpha virt. eigenvalues --    0.03655   0.04198   0.05475   0.05475   0.06426
 Alpha virt. eigenvalues --    0.08102   0.08102   0.09433   0.13674   0.13674
 Alpha virt. eigenvalues --    0.15798   0.16380   0.16380   0.17940   0.19118

 Mulliken charges:
               1
     1  C   -0.292644
     2  H    0.085201
     3  H    0.085201
     4  H    0.085201
     5  H    0.037040
     6  C   -0.292644
     7  H    0.037040
     8  H    0.085201
     9  H    0.085201
    10  H    0.085201
 Sum of Mulliken charges =  -0.00000

 Dipole moment (field-independent basis, Debye):
    X=              0.0000    Y=             -0.0000    Z=              0.0000  Tot=              0.0000

 Test job not archived.
 1\1\GINC-SE022\SP\RHF\Aug-CC-pVDZ\C2H8\OHZDE\08-Apr-2025\0\\#t hf aug-
 cc-pvdz iop(5/13=1,5/36=2,99/5=2) pseudo=read geom=check guess=(read,t
 check) scf=(maxcycle=1)\\title\\0,1\C,0,0.,0.,2.00088752\H,0,0.5127411
 5,0.88809373,1.63664038\H,0,0.51274115,-0.88809373,1.63664038\H,0,-1.0
 254823,0.,1.63664038\H,0,0.,0.,3.08909367\C,0,0.,0.,-2.00088752\H,0,0.
 ,0.,-3.08909367\H,0,-0.51274115,0.88809373,-1.63664038\H,0,-0.51274115
 ,-0.88809373,-1.63664038\H,0,1.0254823,0.,-1.63664038\\Version=ES64L-G
 16RevC.01\State=1-A1G\HF=-80.4991392\RMSD=6.534e-03\Dipole=0.,0.,0.\Qu

 Normal termination of Gaussian 16 at Tue Apr  8 19:13:51 2025.
