 Gaussian 16, Revision C.01,

 ----------------------------------------------------------------------
 #t hf aug-cc-pvdz symm=none int=(grid=ultrafine) guess=(read,tcheck) s
 table=(opt,rrhf)
 ----------------------------------------------------------------------
 -----
 title
 -----
 Symbolic Z-matrix:
 Charge =  0 Multiplicity = 1

 SCF Done:  E(RHF) =  -154.087142358     A.U. after   11 cycles
 Normal termination of Gaussian 16 at Tue Apr  8 19:10:52 2025.
 Gaussian 16:  ES64L-G16RevC.01  3-Jul-2019

 ----------------------------------------------------------------------
 #t hf aug-cc-pvdz iop(5/13=1,5/36=2,99/5=2) pseudo=read geom=check gue
 ss=(read,tcheck) scf=(maxcycle=1)
 ----------------------------------------------------------------------
 -----
 title
 -----
 Structure from the checkpoint file:  "A21x12_10_water-ethene_1p1_mol1.chk"
 Charge =  0 Multiplicity = 1

                         Standard orientation:
 ---------------------------------------------------------------------
 Center     Atomic      Atomic             Coordinates (Angstroms)
 Number     Number       Type             X           Y           Z
 ---------------------------------------------------------------------
      1          6           0       -0.041068   -1.396166    0.668062
      2          6           0       -0.041068   -1.396166   -0.668062
      3          1           0       -0.896264   -1.045205   -1.232679
      4          1           0        0.812729   -1.750222   -1.232585
      5          1           0        0.812729   -1.750222    1.232585
      6          1           0       -0.896264   -1.045205    1.232679
      7          1           0        0.803011    2.736410    0.000000
      8          8           0       -0.041068    2.282543    0.000000
      9          1           0        0.185430    1.348084    0.000000
 ---------------------------------------------------------------------

 SCF Done:  E(RHF) =  -154.252474025     A.U. after    2 cycles

 The electronic state is 1-A'.
 Alpha  occ. eigenvalues --  -20.54874 -11.25302 -11.25168  -1.43027  -1.04670
 Alpha  occ. eigenvalues --   -0.80591  -0.70224  -0.66157  -0.60975  -0.57004
 Alpha  occ. eigenvalues --   -0.52421  -0.48974  -0.39600
 Alpha virt. eigenvalues --    0.03550   0.04510   0.04881   0.05120   0.06967
 Alpha virt. eigenvalues --    0.09424   0.09839   0.12409   0.14460   0.14581
 Alpha virt. eigenvalues --    0.16349   0.17419   0.19048   0.19696   0.20285

 Mulliken charges:
               1
     1  C    0.082499
     2  C    0.082499
     3  H   -0.057097
     4  H   -0.039062
     5  H   -0.039062
     6  H   -0.057097
     7  H    0.338979
     8  O   -0.790121
     9  H    0.478463
 Sum of Mulliken charges =  -0.00000

 Dipole moment (field-independent basis, Debye):
    X=              1.6949    Y=             -1.1073    Z=             -0.0000  Tot=              2.0245

 Test job not archived.
 1\1\GINC-SE120\SP\RHF\Aug-CC-pVDZ\C2H6O1\OHZDE\08-Apr-2025\0\\#t hf au
 g-cc-pvdz iop(5/13=1,5/36=2,99/5=2) pseudo=read geom=check guess=(read
 ,tcheck) scf=(maxcycle=1)\\title\\0,1\C,0,0.01493702,-0.66806246,1.825
 98081\C,0,0.01493702,0.66806246,1.82598081\H,0,0.87298093,1.23267933,1
 .48204087\H,0,-0.84173408,1.23258495,2.17302657\H,0,-0.84173408,-1.232
 58495,2.17302657\H,0,0.87298093,-1.23267933,1.48204087\H,0,-0.79524127
 ,0.,-2.31337477\O,0,0.04508945,0.,-1.85260493\H,0,-0.18906046,0.,-0.92
 003383\\Version=ES64L-G16RevC.01\State=1-A'\HF=-154.252474\RMSD=8.767e

 Normal termination of Gaussian 16 at Tue Apr  8 19:10:53 2025.
