 Gaussian 16, Revision C.01,

 ----------------------------------------------------------------------
 #t hf aug-cc-pvdz symm=none int=(grid=ultrafine) guess=(read,tcheck) s
 table=(opt,rrhf)
 ----------------------------------------------------------------------
 -----
 title
 -----
 Symbolic Z-matrix:
 Charge =  0 Multiplicity = 1

 SCF Done:  E(RHF) =  -227.771448321     A.U. after   12 cycles
 Normal termination of Gaussian 16 at Tue Apr  8 19:10:52 2025.
 Gaussian 16:  ES64L-G16RevC.01  3-Jul-2019

 ----------------------------------------------------------------------
 #t hf aug-cc-pvdz iop(5/13=1,5/36=2,99/5=2) pseudo=read geom=check gue
 ss=(read,tcheck) scf=(maxcycle=1)
 ----------------------------------------------------------------------
 -----
 title
 -----
 Structure from the checkpoint file:  "A21x12_09_formaldehyde-dimer_1p7_mol1.chk"
 Charge =  0 Multiplicity = 1

                         Standard orientation:
 ---------------------------------------------------------------------
 Center     Atomic      Atomic             Coordinates (Angstroms)
 Number     Number       Type             X           Y           Z
 ---------------------------------------------------------------------
      1          6           0       -0.972798   -2.257560    0.000000
      2          8           0       -2.040798   -1.687533    0.000000
      3          1           0       -0.464263   -2.536180    0.935423
      4          1           0       -0.464263   -2.536180   -0.935423
      5          6           0        1.078231    2.397116    0.000000
      6          8           0        1.905531    1.513361    0.000000
      7          1           0        1.378065    3.456596    0.000000
      8          1           0        0.000000    2.171798    0.000000
 ---------------------------------------------------------------------

 SCF Done:  E(RHF) =  -227.997191377     A.U. after    2 cycles

 The electronic state is 1-A'.
 Alpha  occ. eigenvalues --  -20.56814 -20.56444 -11.35578 -11.35230  -1.48746
 Alpha  occ. eigenvalues --   -1.48356  -0.87973  -0.87694  -0.70199  -0.69675
 Alpha  occ. eigenvalues --   -0.65448  -0.65146  -0.53572  -0.53208  -0.43834
 Alpha  occ. eigenvalues --   -0.43436
 Alpha virt. eigenvalues --    0.03460   0.04041   0.05188   0.05926   0.07230
 Alpha virt. eigenvalues --    0.07809   0.10022   0.10993   0.14713   0.15176
 Alpha virt. eigenvalues --    0.15680   0.16241   0.16733   0.17715   0.21376

 Mulliken charges:
               1
     1  C    0.589424
     2  O   -0.818704
     3  H    0.113803
     4  H    0.113803
     5  C    0.611521
     6  O   -0.825314
     7  H    0.110344
     8  H    0.105123
 Sum of Mulliken charges =   0.00000

 Dipole moment (field-independent basis, Debye):
    X=              0.5587    Y=              0.7143    Z=              0.0000  Tot=              0.9068

 Test job not archived.
 1\1\GINC-SE035\SP\RHF\Aug-CC-pVDZ\C2H4O2\OHZDE\08-Apr-2025\0\\#t hf au
 g-cc-pvdz iop(5/13=1,5/36=2,99/5=2) pseudo=read geom=check guess=(read
 ,tcheck) scf=(maxcycle=1)\\title\\0,1\C,0,0.,0.60349119,-2.37128253\O,
 0,0.,-0.59076675,-2.56953298\H,0,0.9354225,1.17652763,-2.28259409\H,0,
 -0.9354225,1.17652763,-2.28259409\C,0,0.,-0.60425645,2.56977764\O,0,0.
 ,0.59013469,2.37260226\H,0,0.,-1.01163151,3.59273533\H,0,0.,-1.3222807
 5,1.73443895\\Version=ES64L-G16RevC.01\State=1-A'\HF=-227.9971914\RMSD
 =6.209e-03\Dipole=0.,0.0032053,0.356745\Quadrupole=0.0404983,-0.024943

 Normal termination of Gaussian 16 at Tue Apr  8 19:10:54 2025.
