 Gaussian 16, Revision C.01,

 ----------------------------------------------------------------------
 #t hf aug-cc-pvdz symm=none int=(grid=ultrafine) guess=(read,tcheck) s
 table=(opt,rrhf)
 ----------------------------------------------------------------------
 -----
 title
 -----
 Symbolic Z-matrix:
 Charge =  0 Multiplicity = 1

 SCF Done:  E(RHF) =  -118.243243096     A.U. after   10 cycles
 Normal termination of Gaussian 16 at Tue Apr  8 19:11:48 2025.
 Gaussian 16:  ES64L-G16RevC.01  3-Jul-2019

 ----------------------------------------------------------------------
 #t hf aug-cc-pvdz iop(5/13=1,5/36=2,99/5=2) pseudo=read geom=check gue
 ss=(read,tcheck) scf=(maxcycle=1)
 ----------------------------------------------------------------------
 -----
 title
 -----
 Structure from the checkpoint file:  "A21x12_15_methane-ethene_1p5_mol1.chk"
 Charge =  0 Multiplicity = 1

                         Standard orientation:
 ---------------------------------------------------------------------
 Center     Atomic      Atomic             Coordinates (Angstroms)
 Number     Number       Type             X           Y           Z
 ---------------------------------------------------------------------
      1          6           0        1.315508    2.225376    0.000000
      2          6           0        0.000000    2.449613    0.000000
      3          1           0       -0.556935    2.544044    0.924000
      4          1           0       -0.556935    2.544044   -0.924000
      5          1           0        1.872205    2.130084   -0.924036
      6          1           0        1.872205    2.130084    0.924036
      7          1           0       -0.694511   -2.711549    0.000000
      8          6           0       -1.052172   -3.739402    0.000000
      9          1           0       -0.687711   -4.252079   -0.888255
     10          1           0       -0.687711   -4.252079    0.888255
     11          1           0       -2.140619   -3.746074    0.000000
 ---------------------------------------------------------------------

 SCF Done:  E(RHF) =  -118.380109142     A.U. after    2 cycles

 The electronic state is 1-A'.
 Alpha  occ. eigenvalues --  -11.24274 -11.24139 -11.21780  -1.03639  -0.94457
 Alpha  occ. eigenvalues --   -0.79633  -0.65225  -0.60064  -0.54908  -0.54885
 Alpha  occ. eigenvalues --   -0.54884  -0.51488  -0.38409
 Alpha virt. eigenvalues --    0.03533   0.04430   0.04547   0.04653   0.06448
 Alpha virt. eigenvalues --    0.06490   0.06949   0.08019   0.10047   0.12786
 Alpha virt. eigenvalues --    0.14766   0.14866   0.14999   0.15231   0.15787

 Mulliken charges:
               1
     1  C    0.092887
     2  C    0.098465
     3  H   -0.048598
     4  H   -0.048598
     5  H   -0.046064
     6  H   -0.046064
     7  H    0.062009
     8  C   -0.237166
     9  H    0.058705
    10  H    0.058705
    11  H    0.055720
 Sum of Mulliken charges =   0.00000

 Dipole moment (field-independent basis, Debye):
    X=              0.0067    Y=              0.0191    Z=              0.0000  Tot=              0.0203

 Test job not archived.
 1\1\GINC-SE343\SP\RHF\Aug-CC-pVDZ\C3H8\OHZDE\08-Apr-2025\0\\#t hf aug-
 cc-pvdz iop(5/13=1,5/36=2,99/5=2) pseudo=read geom=check guess=(read,t
 check) scf=(maxcycle=1)\\title\\0,1\C,0,0.,0.62893622,-3.23377675\C,0,
 0.,-0.69655118,-3.07909535\H,0,-0.92399961,-1.25756986,-3.01312743\H,0
 ,0.92399961,-1.25756986,-3.01312743\H,0,0.92403607,1.18996839,-3.29885
 145\H,0,-0.92403607,1.18996839,-3.29885145\H,0,0.,0.08808415,2.0691363
 9\C,0,0.,0.03384513,3.15608713\H,0,0.88825459,0.52774994,3.54560957\H,
 0,-0.88825459,0.52774994,3.54560957\H,0,0.,-1.00881796,3.46852155\\Ver

 Normal termination of Gaussian 16 at Tue Apr  8 19:11:50 2025.
