 Gaussian 16, Revision C.01,

 ----------------------------------------------------------------------
 #t hf aug-cc-pvdz symm=none int=(grid=ultrafine) guess=(read,tcheck) s
 table=(opt,rrhf)
 ----------------------------------------------------------------------
 -----
 title
 -----
 Symbolic Z-matrix:
 Charge =  0 Multiplicity = 1

 SCF Done:  E(RHF) =  -132.248033442     A.U. after   11 cycles
 Normal termination of Gaussian 16 at Tue Apr  8 19:08:50 2025.
 Gaussian 16:  ES64L-G16RevC.01  3-Jul-2019

 ----------------------------------------------------------------------
 #t hf aug-cc-pvdz iop(5/13=1,5/36=2,99/5=2) pseudo=read geom=check gue
 ss=(read,tcheck) scf=(maxcycle=1)
 ----------------------------------------------------------------------
 -----
 title
 -----
 Structure from the checkpoint file:  "A21x12_01_water-ammonia_1p7_mol1.chk"
 Charge =  0 Multiplicity = 1

                         Standard orientation:
 ---------------------------------------------------------------------
 Center     Atomic      Atomic             Coordinates (Angstroms)
 Number     Number       Type             X           Y           Z
 ---------------------------------------------------------------------
      1          8           0       -0.038329    2.600410    0.000000
      2          1           0        0.847868    2.963116    0.000000
      3          1           0        0.084978    1.638054    0.000000
      4          7           0       -0.038329   -2.428940    0.000000
      5          1           0       -1.036396   -2.603270    0.000000
      6          1           0        0.339240   -2.899303    0.813484
      7          1           0        0.339240   -2.899303   -0.813484
 ---------------------------------------------------------------------

 SCF Done:  E(RHF) =  -132.389027416     A.U. after    2 cycles

 The electronic state is 1-A'.
 Alpha  occ. eigenvalues --  -20.55030 -15.49353  -1.42821  -1.15120  -0.70031
 Alpha  occ. eigenvalues --   -0.67103  -0.67028  -0.56841  -0.48974  -0.47789
 Alpha virt. eigenvalues --    0.02647   0.04849   0.06050   0.06166   0.08617
 Alpha virt. eigenvalues --    0.16546   0.17171   0.19067   0.19845   0.20806
 Alpha virt. eigenvalues --    0.21353   0.23577   0.25112   0.27905   0.27937

 Mulliken charges:
               1
     1  O   -0.744230
     2  H    0.356867
     3  H    0.386768
     4  N   -0.088992
     5  H    0.029873
     6  H    0.029857
     7  H    0.029857
 Sum of Mulliken charges =  -0.00000

 Dipole moment (field-independent basis, Debye):
    X=              1.3144    Y=             -2.7461    Z=              0.0000  Tot=              3.0444

 Test job not archived.
 1\1\GINC-SE247\SP\RHF\Aug-CC-pVDZ\H5N1O1\OHZDE\08-Apr-2025\0\\#t hf au
 g-cc-pvdz iop(5/13=1,5/36=2,99/5=2) pseudo=read geom=check guess=(read
 ,tcheck) scf=(maxcycle=1)\\title\\0,1\O,0,0.,-0.05854016,-2.56387146\H
 ,0,0.,0.82225939,-2.93949317\H,0,0.,0.07882122,-1.60342096\N,0,0.,0.01
 497954,2.46494098\H,0,0.,-0.98043297,2.65384249\H,0,-0.81348351,0.3993
 8336,2.92973519\H,0,0.81348351,0.39938336,2.92973519\\Version=ES64L-G1
 6RevC.01\State=1-A'\HF=-132.3890274\RMSD=6.698e-03\Dipole=0.,0.5328669
 ,1.0727083\Quadrupole=-1.2858105,0.0559313,1.2298792,0.,0.,-4.0925203\

 Normal termination of Gaussian 16 at Tue Apr  8 19:08:51 2025.
