 Gaussian 16, Revision C.01,

 ----------------------------------------------------------------------
 #t hf aug-cc-pvdz symm=none int=(grid=ultrafine) guess=(read,tcheck) s
 table=(opt,rrhf)
 ----------------------------------------------------------------------
 -----
 title
 -----
 Symbolic Z-matrix:
 Charge =  0 Multiplicity = 1

 SCF Done:  E(RHF) =  -76.8282208966     A.U. after    9 cycles
 Normal termination of Gaussian 16 at Tue Apr  8 19:11:46 2025.
 Gaussian 16:  ES64L-G16RevC.01  3-Jul-2019

 ----------------------------------------------------------------------
 #t hf aug-cc-pvdz iop(5/13=1,5/36=2,99/5=2) pseudo=read geom=check gue
 ss=(read,tcheck) scf=(maxcycle=1)
 ----------------------------------------------------------------------
 -----
 title
 -----
 Structure from the checkpoint file:  "A21x12_12_ethyne-dimer_1p3_mol2.chk"
 Charge =  0 Multiplicity = 1

                         Standard orientation:
 ---------------------------------------------------------------------
 Center     Atomic      Atomic             Coordinates (Angstroms)
 Number     Number       Type             X           Y           Z
 ---------------------------------------------------------------------
      1          6           0        0.000000    0.603564   -0.000366
      2          1           0        0.000000    1.668476    0.002196
      3          6           0       -0.000000   -0.603564   -0.000366
      4          1           0       -0.000000   -1.668476    0.002196
 ---------------------------------------------------------------------

 SCF Done:  E(RHF) =  -76.9083339178     A.U. after    2 cycles

 The electronic state is 1-A1.
 Alpha  occ. eigenvalues --  -11.25727 -11.25398  -1.03335  -0.77143  -0.69343
 Alpha  occ. eigenvalues --   -0.41954  -0.41954
 Alpha virt. eigenvalues --    0.03776   0.03793   0.10620   0.10621   0.12039
 Alpha virt. eigenvalues --    0.12039   0.12983   0.13701   0.17485   0.22552
 Alpha virt. eigenvalues --    0.22553   0.25765   0.33060   0.35622   0.38852

 Mulliken charges:
               1
     1  C    0.191687
     2  H   -0.191687
     3  C    0.191687
     4  H   -0.191687
 Sum of Mulliken charges =  -0.00000

 Dipole moment (field-independent basis, Debye):
    X=              0.0000    Y=              0.0000    Z=              0.0059  Tot=              0.0059

 Test job not archived.
 1\1\GINC-SE128\SP\RHF\Aug-CC-pVDZ\C2H2\OHZDE\08-Apr-2025\0\\#t hf aug-
 cc-pvdz iop(5/13=1,5/36=2,99/5=2) pseudo=read geom=check guess=(read,t
 check) scf=(maxcycle=1)\\title\\0,1\C,0,0.,0.603564,-2.18173428\H,0,0.
 ,1.66847581,-2.184296\C,0,0.,-0.603564,-2.18173428\H,0,0.,-1.66847581,
 -2.184296\\Version=ES64L-G16RevC.01\State=1-A1\HF=-76.9083339\RMSD=3.5
 72e-02\Dipole=0.,0.,-0.0023016\Quadrupole=-1.8756638,3.751314,-1.87565
 03,0.,0.,0.\PG=C02V [SGV(C2H2)]\\@

 Normal termination of Gaussian 16 at Tue Apr  8 19:11:47 2025.
