 Gaussian 16, Revision C.01,

 ----------------------------------------------------------------------
 #t hf aug-cc-pvdz symm=none int=(grid=ultrafine) guess=(read,tcheck) s
 table=(opt,rrhf)
 ----------------------------------------------------------------------
 -----
 title
 -----
 Symbolic Z-matrix:
 Charge =  0 Multiplicity = 1

 SCF Done:  E(RHF) =  -116.241043229     A.U. after   10 cycles
 Normal termination of Gaussian 16 at Tue Apr  8 19:10:45 2025.
 Gaussian 16:  ES64L-G16RevC.01  3-Jul-2019

 ----------------------------------------------------------------------
 #t hf aug-cc-pvdz iop(5/13=1,5/36=2,99/5=2) pseudo=read geom=check gue
 ss=(read,tcheck) scf=(maxcycle=1)
 ----------------------------------------------------------------------
 -----
 title
 -----
 Structure from the checkpoint file:  "A21x12_08_water-methane_1p8_mol1.chk"
 Charge =  0 Multiplicity = 1

                         Standard orientation:
 ---------------------------------------------------------------------
 Center     Atomic      Atomic             Coordinates (Angstroms)
 Number     Number       Type             X           Y           Z
 ---------------------------------------------------------------------
      1          8           0       -0.003730   -3.312734    0.000000
      2          1           0        0.033680   -3.898449    0.757550
      3          1           0        0.033680   -3.898449   -0.757550
      4          6           0       -0.003730    3.428765    0.000000
      5          1           0       -0.512196    3.801329    0.887590
      6          1           0        1.025772    3.782720   -0.000000
      7          1           0       -0.016520    2.340803    0.000000
      8          1           0       -0.512196    3.801329   -0.887590
 ---------------------------------------------------------------------

 SCF Done:  E(RHF) =  -116.369910785     A.U. after    2 cycles

 The electronic state is 1-A'.
 Alpha  occ. eigenvalues --  -20.55964 -11.21471  -1.44127  -0.94139  -0.71237
 Alpha  occ. eigenvalues --   -0.58015  -0.54631  -0.54556  -0.54543  -0.50012
 Alpha virt. eigenvalues --    0.03508   0.04362   0.05552   0.06360   0.06521
 Alpha virt. eigenvalues --    0.07799   0.15139   0.15162   0.15605   0.17489
 Alpha virt. eigenvalues --    0.19655   0.20554   0.22992   0.24688   0.29037

 Mulliken charges:
               1
     1  O   -0.743622
     2  H    0.371836
     3  H    0.371836
     4  C   -0.244894
     5  H    0.060014
     6  H    0.059958
     7  H    0.064858
     8  H    0.060014
 Sum of Mulliken charges =  -0.00000

 Dipole moment (field-independent basis, Debye):
    X=              0.1246    Y=             -1.9892    Z=             -0.0000  Tot=              1.9931

 Test job not archived.
 1\1\GINC-SE284\SP\RHF\Aug-CC-pVDZ\C1H6O1\OHZDE\08-Apr-2025\0\\#t hf au
 g-cc-pvdz iop(5/13=1,5/36=2,99/5=2) pseudo=read geom=check guess=(read
 ,tcheck) scf=(maxcycle=1)\\title\\0,1\O,0,-0.00527852,0.,3.33832075\H,
 0,0.03157148,0.75755,3.92407075\H,0,0.03157148,-0.75755,3.92407075\C,0
 ,0.00116766,0.,-3.40317582\H,0,-0.50694234,0.88759,-3.77622582\H,0,1.0
 3100766,0.,-3.75614582\H,0,-0.01266234,0.,-2.31522582\H,0,-0.50694234,
 -0.88759,-3.77622582\\Version=ES64L-G16RevC.01\State=1-A'\HF=-116.3699
 108\RMSD=5.847e-03\Dipole=0.0482755,0.,0.7826445\Quadrupole=-4.4545766

 Normal termination of Gaussian 16 at Tue Apr  8 19:10:47 2025.
