 Gaussian 16, Revision C.01,

 ----------------------------------------------------------------------
 #t hf aug-cc-pvdz symm=none int=(grid=ultrafine) guess=(read,tcheck) s
 table=(opt,rrhf)
 ----------------------------------------------------------------------
 -----
 title
 -----
 Symbolic Z-matrix:
 Charge =  0 Multiplicity = 1

 SCF Done:  E(RHF) =  -185.777017338     A.U. after   11 cycles
 Normal termination of Gaussian 16 at Tue Apr  8 19:09:51 2025.
 Gaussian 16:  ES64L-G16RevC.01  3-Jul-2019

 ----------------------------------------------------------------------
 #t hf aug-cc-pvdz iop(5/13=1,5/36=2,99/5=2) pseudo=read geom=check gue
 ss=(read,tcheck) scf=(maxcycle=1)
 ----------------------------------------------------------------------
 -----
 title
 -----
 Structure from the checkpoint file:  "A21x12_03_HCN-dimer_1p4_mol1.chk"
 Charge =  0 Multiplicity = 1

                         Standard orientation:
 ---------------------------------------------------------------------
 Center     Atomic      Atomic             Coordinates (Angstroms)
 Number     Number       Type             X           Y           Z
 ---------------------------------------------------------------------
      1          1           0        0.000000    0.000000   -4.688613
      2          6           0        0.000000    0.000000   -3.619900
      3          7           0        0.000000    0.000000   -2.464908
      4          1           0        0.000000    0.000000    1.542578
      5          6           0        0.000000    0.000000    2.616902
      6          7           0        0.000000    0.000000    3.774054
 ---------------------------------------------------------------------

 SCF Done:  E(RHF) =  -185.954484229     A.U. after    2 cycles

 The electronic state is 1-SG.
 Alpha  occ. eigenvalues --  -15.55470 -15.53379 -11.31624 -11.29501  -1.26249
 Alpha  occ. eigenvalues --   -1.23990  -0.83032  -0.80617  -0.64232  -0.61956
 Alpha  occ. eigenvalues --   -0.54284  -0.54284  -0.52064  -0.52064
 Alpha virt. eigenvalues --    0.02307   0.04971   0.07163   0.07163   0.07605
 Alpha virt. eigenvalues --    0.08809   0.08809   0.11178   0.14664   0.14994
 Alpha virt. eigenvalues --    0.14994   0.16178   0.16485   0.16485   0.19311

 Mulliken charges:
               1
     1  H    0.130211
     2  C   -0.762021
     3  N    0.628272
     4  H    0.163940
     5  C   -0.706475
     6  N    0.546072
 Sum of Mulliken charges =  -0.00000

 Dipole moment (field-independent basis, Debye):
    X=             -0.0000    Y=             -0.0000    Z=             -7.8098  Tot=              7.8098

 Test job not archived.
 1\1\GINC-SE046\SP\RHF\Aug-CC-pVDZ\C2H2N2\OHZDE\08-Apr-2025\0\\#t hf au
 g-cc-pvdz iop(5/13=1,5/36=2,99/5=2) pseudo=read geom=check guess=(read
 ,tcheck) scf=(maxcycle=1)\\title\\0,1\H,0,0.,0.,4.74646825\C,0,0.,0.,3
 .67775495\N,0,0.,0.,2.5227631\H,0,0.,0.,-1.48472322\C,0,0.,0.,-2.55904
 654\N,0,0.,0.,-3.71619886\\Version=ES64L-G16RevC.01\State=1-SG\HF=-185
 .9544842\RMSD=1.779e-02\Dipole=0.,0.,3.0726208\Quadrupole=-1.3000786,-
 1.3000786,2.6001571,0.,0.,0.\PG=C*V [C*(H1C1N1H1C1N1)]\\@

 Normal termination of Gaussian 16 at Tue Apr  8 19:09:52 2025.
