 Gaussian 16, Revision C.01,

 ----------------------------------------------------------------------
 #t hf aug-cc-pvdz symm=none int=(grid=ultrafine) guess=(read,tcheck) s
 table=(opt,rrhf)
 ----------------------------------------------------------------------
 -----
 title
 -----
 Symbolic Z-matrix:
 Charge =  0 Multiplicity = 1

 SCF Done:  E(RHF) =  -113.884850215     A.U. after   11 cycles
 Normal termination of Gaussian 16 at Tue Apr  8 19:10:45 2025.
 Gaussian 16:  ES64L-G16RevC.01  3-Jul-2019

 ----------------------------------------------------------------------
 #t hf aug-cc-pvdz iop(5/13=1,5/36=2,99/5=2) pseudo=read geom=check gue
 ss=(read,tcheck) scf=(maxcycle=1)
 ----------------------------------------------------------------------
 -----
 title
 -----
 Structure from the checkpoint file:  "A21x12_09_formaldehyde-dimer_0p9_mol3.chk"
 Charge =  0 Multiplicity = 1

                         Standard orientation:
 ---------------------------------------------------------------------
 Center     Atomic      Atomic             Coordinates (Angstroms)
 Number     Number       Type             X           Y           Z
 ---------------------------------------------------------------------
      1          6           0        0.000113    0.533970   -0.000000
      2          8           0        0.000113   -0.676587    0.000000
      3          1           0       -0.942831    1.102525   -0.000000
      4          1           0        0.941248    1.106346   -0.000000
 ---------------------------------------------------------------------

 SCF Done:  E(RHF) =  -113.997790142     A.U. after    2 cycles

 The electronic state is 1-A'.
 Alpha  occ. eigenvalues --  -20.56687 -11.35488  -1.48580  -0.87911  -0.70110
 Alpha  occ. eigenvalues --   -0.65280  -0.53393  -0.43706
 Alpha virt. eigenvalues --    0.03326   0.04867   0.06975   0.09120   0.14533
 Alpha virt. eigenvalues --    0.15506   0.15866   0.21790   0.25549   0.26524
 Alpha virt. eigenvalues --    0.26540   0.32516   0.33941   0.35407   0.44912

 Mulliken charges:
               1
     1  C    0.606969
     2  O   -0.814005
     3  H    0.102391
     4  H    0.104645
 Sum of Mulliken charges =  -0.00000

 Dipole moment (field-independent basis, Debye):
    X=              0.0002    Y=              2.7087    Z=             -0.0000  Tot=              2.7087

 Test job not archived.
 1\1\GINC-SE403\SP\RHF\Aug-CC-pVDZ\C1H2O1\OHZDE\08-Apr-2025\0\\#t hf au
 g-cc-pvdz iop(5/13=1,5/36=2,99/5=2) pseudo=read geom=check guess=(read
 ,tcheck) scf=(maxcycle=1)\\title\\0,1\C,0,0.,-0.60200491,1.55231177\O,
 0,0.,0.59238623,1.35513639\H,0,0.,-1.00937997,2.57526946\H,0,0.,-1.320
 02921,0.71697308\\Version=ES64L-G16RevC.01\State=1-A'\HF=-113.9977901\
 RMSD=8.633e-03\Dipole=0.,-1.0514831,0.1735045\Quadrupole=-0.0182371,-0
 .2510633,0.2693003,0.,0.,0.0921379\PG=CS [SG(C1H2O1)]\\@

 Normal termination of Gaussian 16 at Tue Apr  8 19:10:46 2025.
