 Gaussian 16, Revision C.01,

 ----------------------------------------------------------------------
 #t hf aug-cc-pvdz symm=none int=(grid=ultrafine) guess=(read,tcheck) s
 table=(opt,rrhf)
 ----------------------------------------------------------------------
 -----
 title
 -----
 Symbolic Z-matrix:
 Charge =  0 Multiplicity = 1

 SCF Done:  E(RHF) =  -66.5910318689     A.U. after   10 cycles
 Normal termination of Gaussian 16 at Tue Apr  8 19:12:47 2025.
 Gaussian 16:  ES64L-G16RevC.01  3-Jul-2019

 ----------------------------------------------------------------------
 #t hf aug-cc-pvdz iop(5/13=1,5/36=2,99/5=2) pseudo=read geom=check gue
 ss=(read,tcheck) scf=(maxcycle=1)
 ----------------------------------------------------------------------
 -----
 title
 -----
 Structure from the checkpoint file:  "A21x12_16_borane-methane_1p2_mol1.chk"
 Charge =  0 Multiplicity = 1

                         Standard orientation:
 ---------------------------------------------------------------------
 Center     Atomic      Atomic             Coordinates (Angstroms)
 Number     Number       Type             X           Y           Z
 ---------------------------------------------------------------------
      1          6           0        0.001180   -1.590760   -0.000000
      2          1           0       -0.846011   -0.902538    0.000000
      3          1           0       -0.387319   -2.607376    0.000000
      4          1           0        0.606835   -1.433241    0.889943
      5          1           0        0.606835   -1.433241   -0.889943
      6          5           0        0.001180    1.985228    0.000000
      7          1           0       -0.589174    2.063999    1.030518
      8          1           0       -0.589174    2.063999   -1.030518
      9          1           0        1.185034    1.866819   -0.000000
 ---------------------------------------------------------------------

 SCF Done:  E(RHF) =  -66.6714497815     A.U. after    2 cycles

 The electronic state is 1-A'.
 Alpha  occ. eigenvalues --  -11.22500  -7.60754  -0.95201  -0.71941  -0.55808
 Alpha  occ. eigenvalues --   -0.55662  -0.55382  -0.50061  -0.50059
 Alpha virt. eigenvalues --    0.03262   0.03744   0.04849   0.04927   0.05930
 Alpha virt. eigenvalues --    0.07499   0.07634   0.09493   0.10546   0.10756
 Alpha virt. eigenvalues --    0.10846   0.15731   0.15766   0.16366   0.18797

 Mulliken charges:
               1
     1  C   -0.322172
     2  H    0.096608
     3  H    0.022926
     4  H    0.100828
     5  H    0.100828
     6  B   -0.660157
     7  H    0.226985
     8  H    0.226985
     9  H    0.207169
 Sum of Mulliken charges =  -0.00000

 Dipole moment (field-independent basis, Debye):
    X=              0.0118    Y=             -0.1548    Z=             -0.0000  Tot=              0.1553

 Test job not archived.
 1\1\GINC-SE247\SP\RHF\Aug-CC-pVDZ\C1H7B1\OHZDE\08-Apr-2025\0\\#t hf au
 g-cc-pvdz iop(5/13=1,5/36=2,99/5=2) pseudo=read geom=check guess=(read
 ,tcheck) scf=(maxcycle=1)\\title\\0,1\C,0,0.00494546,0.,1.78907988\H,0
 ,0.84998181,0.,1.09821431\H,0,0.39661879,0.,2.80447715\H,0,-0.60119901
 ,-0.88994299,1.63345454\H,0,-0.60119901,0.88994299,1.63345454\B,0,-0.0
 0622794,0.,-1.78689023\H,0,0.58387651,-1.030518,-1.86750572\H,0,0.5838
 7651,1.030518,-1.86750572\H,0,-1.18970625,0.,-1.66478264\\Version=ES64
 L-G16RevC.01\State=1-A'\HF=-66.6714498\RMSD=5.634e-03\Dipole=-0.004463

 Normal termination of Gaussian 16 at Tue Apr  8 19:12:49 2025.
