 Gaussian 16, Revision C.01,

 ----------------------------------------------------------------------
 #t hf aug-cc-pvdz symm=none int=(grid=ultrafine) guess=(read,tcheck) s
 table=(opt,rrhf)
 ----------------------------------------------------------------------
 -----
 title
 -----
 Symbolic Z-matrix:
 Charge =  0 Multiplicity = 1

 SCF Done:  E(RHF) =  -227.773687243     A.U. after   12 cycles
 Normal termination of Gaussian 16 at Tue Apr  8 19:10:47 2025.
 Gaussian 16:  ES64L-G16RevC.01  3-Jul-2019

 ----------------------------------------------------------------------
 #t hf aug-cc-pvdz iop(5/13=1,5/36=2,99/5=2) pseudo=read geom=check gue
 ss=(read,tcheck) scf=(maxcycle=1)
 ----------------------------------------------------------------------
 -----
 title
 -----
 Structure from the checkpoint file:  "A21x12_09_formaldehyde-dimer_1p3_mol1.chk"
 Charge =  0 Multiplicity = 1

                         Standard orientation:
 ---------------------------------------------------------------------
 Center     Atomic      Atomic             Coordinates (Angstroms)
 Number     Number       Type             X           Y           Z
 ---------------------------------------------------------------------
      1          6           0       -0.970043   -1.633195    0.000000
      2          8           0       -1.900714   -0.858981    0.000000
      3          1           0       -0.528355   -2.008891    0.935423
      4          1           0       -0.528355   -2.008891   -0.935423
      5          6           0        1.101518    1.748549    0.000000
      6          8           0        1.733022    0.715760    0.000000
      7          1           0        1.609398    2.725511    0.000000
      8          1           0        0.000000    1.745916    0.000000
 ---------------------------------------------------------------------

 SCF Done:  E(RHF) =  -227.999250985     A.U. after    2 cycles

 The electronic state is 1-A'.
 Alpha  occ. eigenvalues --  -20.56904 -20.56138 -11.35584 -11.35008  -1.48882
 Alpha  occ. eigenvalues --   -1.48150  -0.87976  -0.87361  -0.70235  -0.69400
 Alpha  occ. eigenvalues --   -0.65592  -0.64908  -0.53719  -0.53034  -0.43923
 Alpha  occ. eigenvalues --   -0.43172
 Alpha virt. eigenvalues --    0.03536   0.04209   0.05298   0.06315   0.07430
 Alpha virt. eigenvalues --    0.08467   0.10379   0.11741   0.15020   0.15756
 Alpha virt. eigenvalues --    0.16021   0.16189   0.16874   0.18093   0.22031

 Mulliken charges:
               1
     1  C    0.539035
     2  O   -0.808532
     3  H    0.129415
     4  H    0.129415
     5  C    0.614723
     6  O   -0.830654
     7  H    0.110269
     8  H    0.116330
 Sum of Mulliken charges =  -0.00000

 Dipole moment (field-independent basis, Debye):
    X=              0.7285    Y=              0.6109    Z=              0.0000  Tot=              0.9507

 Test job not archived.
 1\1\GINC-SE078\SP\RHF\Aug-CC-pVDZ\C2H4O2\OHZDE\08-Apr-2025\0\\#t hf au
 g-cc-pvdz iop(5/13=1,5/36=2,99/5=2) pseudo=read geom=check guess=(read
 ,tcheck) scf=(maxcycle=1)\\title\\0,1\C,0,0.,0.6022046,-1.78987346\O,0
 ,0.,-0.59205334,-1.98812391\H,0,0.9354225,1.17524104,-1.70118502\H,0,-
 0.9354225,1.17524104,-1.70118502\C,0,0.,-0.60296985,1.98836857\O,0,0.,
 0.59142129,1.79119319\H,0,0.,-1.01034491,3.01132626\H,0,0.,-1.32099415
 ,1.15302988\\Version=ES64L-G16RevC.01\State=1-A'\HF=-227.999251\RMSD=6
 .375e-03\Dipole=0.,0.0054524,0.373994\Quadrupole=0.0592151,0.0168951,-

 Normal termination of Gaussian 16 at Tue Apr  8 19:10:49 2025.
