 Gaussian 16, Revision C.01,

 ----------------------------------------------------------------------
 #t hf aug-cc-pvdz symm=none int=(grid=ultrafine) guess=(read,tcheck) s
 table=(opt,rrhf)
 ----------------------------------------------------------------------
 -----
 title
 -----
 Symbolic Z-matrix:
 Charge =  0 Multiplicity = 1

 SCF Done:  E(RHF) =  -40.1995639439     A.U. after    9 cycles
 Normal termination of Gaussian 16 at Tue Apr  8 19:10:45 2025.
 Gaussian 16:  ES64L-G16RevC.01  3-Jul-2019

 ----------------------------------------------------------------------
 #t hf aug-cc-pvdz iop(5/13=1,5/36=2,99/5=2) pseudo=read geom=check gue
 ss=(read,tcheck) scf=(maxcycle=1)
 ----------------------------------------------------------------------
 -----
 title
 -----
 Structure from the checkpoint file:  "A21x12_06_HF-methane_1p2_mol2.chk"
 Charge =  0 Multiplicity = 1

                         Standard orientation:
 ---------------------------------------------------------------------
 Center     Atomic      Atomic             Coordinates (Angstroms)
 Number     Number       Type             X           Y           Z
 ---------------------------------------------------------------------
      1          6           0        0.000000    0.000000    0.003595
      2          1           0        0.000000    1.031868    0.354060
      3          1           0        0.000000    0.000000   -1.083748
      4          1           0        0.893624   -0.515934    0.354060
      5          1           0       -0.893624   -0.515934    0.354060
 ---------------------------------------------------------------------

 SCF Done:  E(RHF) =  -40.2497102171     A.U. after    2 cycles

 The electronic state is 1-A1.
 Alpha  occ. eigenvalues --  -11.21983  -0.94591  -0.55157  -0.55157  -0.54795
 Alpha virt. eigenvalues --    0.03761   0.06049   0.06049   0.06095   0.14688
 Alpha virt. eigenvalues --    0.14750   0.14750   0.16958   0.29774   0.29774
 Alpha virt. eigenvalues --    0.29856   0.30562   0.30562   0.41590   0.43673

 Mulliken charges:
               1
     1  C   -0.251754
     2  H    0.065541
     3  H    0.055132
     4  H    0.065541
     5  H    0.065541
 Sum of Mulliken charges =  -0.00000

 Dipole moment (field-independent basis, Debye):
    X=              0.0000    Y=             -0.0000    Z=             -0.0135  Tot=              0.0135

 Test job not archived.
 1\1\GINC-SE179\SP\RHF\Aug-CC-pVDZ\C1H4\OHZDE\08-Apr-2025\0\\#t hf aug-
 cc-pvdz iop(5/13=1,5/36=2,99/5=2) pseudo=read geom=check guess=(read,t
 check) scf=(maxcycle=1)\\title\\0,1\C,0,0.,0.,1.59509033\H,0,0.5159337
 8,-0.89362352,1.24462485\H,0,0.,0.,2.68243283\H,0,0.51593378,0.8936235
 2,1.24462485\H,0,-1.03186756,0.,1.24462485\\Version=ES64L-G16RevC.01\S
 tate=1-A1\HF=-40.2497102\RMSD=8.076e-03\Dipole=0.,0.,0.0053237\Quadrup
 ole=0.0188591,0.0188591,-0.0377183,0.,0.,0.\PG=C03V [C3(H1C1),3SGV(H1)
 ]\\@

 Normal termination of Gaussian 16 at Tue Apr  8 19:10:46 2025.
