 Gaussian 16, Revision C.01,

 ----------------------------------------------------------------------
 #t hf aug-cc-pvdz symm=none int=(grid=ultrafine) guess=(read,tcheck) s
 table=(opt,rrhf)
 ----------------------------------------------------------------------
 -----
 title
 -----
 Symbolic Z-matrix:
 Charge =  0 Multiplicity = 1

 SCF Done:  E(RHF) =  -26.3912152656     A.U. after    8 cycles
 Normal termination of Gaussian 16 at Tue Apr  8 19:11:46 2025.
 Gaussian 16:  ES64L-G16RevC.01  3-Jul-2019

 ----------------------------------------------------------------------
 #t hf aug-cc-pvdz iop(5/13=1,5/36=2,99/5=2) pseudo=read geom=check gue
 ss=(read,tcheck) scf=(maxcycle=1)
 ----------------------------------------------------------------------
 -----
 title
 -----
 Structure from the checkpoint file:  "A21x12_16_borane-methane_0p9_mol3.chk"
 Charge =  0 Multiplicity = 1

                         Standard orientation:
 ---------------------------------------------------------------------
 Center     Atomic      Atomic             Coordinates (Angstroms)
 Number     Number       Type             X           Y           Z
 ---------------------------------------------------------------------
      1          5           0        0.000000    0.004907    0.000000
      2          1           0        0.594768   -0.026286    1.030518
      3          1           0        0.594768   -0.026286   -1.030518
      4          1           0       -1.189536    0.028035   -0.000000
 ---------------------------------------------------------------------

 SCF Done:  E(RHF) =  -26.4221774073     A.U. after    2 cycles

 The electronic state is 1-A'.
 Alpha  occ. eigenvalues --   -7.60938  -0.72053  -0.50245  -0.50224
 Alpha virt. eigenvalues --    0.02876   0.04611   0.05026   0.05027   0.10772
 Alpha virt. eigenvalues --    0.10774   0.11074   0.14042   0.24806   0.24809
 Alpha virt. eigenvalues --    0.24938   0.26395   0.26398   0.35788   0.35789

 Mulliken charges:
               1
     1  B   -0.358983
     2  H    0.119297
     3  H    0.119297
     4  H    0.120389
 Sum of Mulliken charges =  -0.00000

 Dipole moment (field-independent basis, Debye):
    X=             -0.0001    Y=              0.0293    Z=             -0.0000  Tot=              0.0293

 Test job not archived.
 1\1\GINC-SE333\SP\RHF\Aug-CC-pVDZ\B1H3\OHZDE\08-Apr-2025\0\\#t hf aug-
 cc-pvdz iop(5/13=1,5/36=2,99/5=2) pseudo=read geom=check guess=(read,t
 check) scf=(maxcycle=1)\\title\\0,1\B,0,-0.00514783,0.,-1.4885711\H,0,
 0.58495662,-1.030518,-1.56918659\H,0,0.58495662,1.030518,-1.56918659\H
 ,0,-1.18862614,0.,-1.36646351\\Version=ES64L-G16RevC.01\State=1-A'\HF=
 -26.4221774\RMSD=4.323e-03\Dipole=0.000903,0.,0.0115076\Quadrupole=-0.
 5389207,-0.5622204,1.1011411,0.,0.189928,0.\PG=CS [SG(B1H1),X(H2)]\\@

 Normal termination of Gaussian 16 at Tue Apr  8 19:11:47 2025.
