 Gaussian 16, Revision C.01,

 ----------------------------------------------------------------------
 #t hf aug-cc-pvdz symm=none int=(grid=ultrafine) guess=(read,tcheck) s
 table=(opt,rrhf)
 ----------------------------------------------------------------------
 -----
 title
 -----
 Symbolic Z-matrix:
 Charge =  0 Multiplicity = 1

 SCF Done:  E(RHF) =  -156.087114994     A.U. after   11 cycles
 Normal termination of Gaussian 16 at Tue Apr  8 19:11:51 2025.
 Gaussian 16:  ES64L-G16RevC.01  3-Jul-2019

 ----------------------------------------------------------------------
 #t hf aug-cc-pvdz iop(5/13=1,5/36=2,99/5=2) pseudo=read geom=check gue
 ss=(read,tcheck) scf=(maxcycle=1)
 ----------------------------------------------------------------------
 -----
 title
 -----
 Structure from the checkpoint file:  "A21x12_14_ethene-dimer_1p1_mol1.chk"
 Charge =  0 Multiplicity = 1

                         Standard orientation:
 ---------------------------------------------------------------------
 Center     Atomic      Atomic             Coordinates (Angstroms)
 Number     Number       Type             X           Y           Z
 ---------------------------------------------------------------------
      1          1           0       -0.924445    1.231722   -2.096594
      2          1           0        0.924445    1.231722   -2.096594
      3          1           0        0.924445   -1.231722   -2.096594
      4          1           0       -0.924445   -1.231722   -2.096594
      5          6           0        0.000000   -0.667288   -2.095966
      6          6           0        0.000000    0.667288   -2.095966
      7          1           0        0.000000   -1.233449    3.020048
      8          1           0        0.000000   -1.225471    1.168492
      9          1           0        0.000000    1.225471    1.168492
     10          1           0        0.000000    1.233449    3.020048
     11          6           0       -0.000000    0.667117    2.096741
     12          6           0       -0.000000   -0.667117    2.096741
 ---------------------------------------------------------------------

 SCF Done:  E(RHF) =  -156.260120418     A.U. after    2 cycles

 The electronic state is 1-A1.
 Alpha  occ. eigenvalues --  -11.24445 -11.24312 -11.23756 -11.23625  -1.03853
 Alpha  occ. eigenvalues --   -1.03156  -0.79823  -0.79070  -0.65391  -0.64792
 Alpha  occ. eigenvalues --   -0.60247  -0.59510  -0.51663  -0.51006  -0.38636
 Alpha  occ. eigenvalues --   -0.37916
 Alpha virt. eigenvalues --    0.03870   0.04017   0.04578   0.04731   0.05829
 Alpha virt. eigenvalues --    0.06822   0.07779   0.08431   0.10964   0.12382
 Alpha virt. eigenvalues --    0.12744   0.13189   0.14393   0.14408   0.15670

 Mulliken charges:
               1
     1  H   -0.050441
     2  H   -0.050441
     3  H   -0.050441
     4  H   -0.050441
     5  C    0.092174
     6  C    0.092174
     7  H   -0.066305
     8  H   -0.030544
     9  H   -0.030544
    10  H   -0.066305
    11  C    0.105557
    12  C    0.105557
 Sum of Mulliken charges =  -0.00000

 Dipole moment (field-independent basis, Debye):
    X=             -0.0000    Y=              0.0000    Z=             -0.1037  Tot=              0.1037

 Test job not archived.
 1\1\GINC-SE231\SP\RHF\Aug-CC-pVDZ\C4H8\OHZDE\08-Apr-2025\0\\#t hf aug-
 cc-pvdz iop(5/13=1,5/36=2,99/5=2) pseudo=read geom=check guess=(read,t
 check) scf=(maxcycle=1)\\title\\0,1\H,0,0.9244451,-1.23172221,-2.09675
 848\H,0,-0.9244451,-1.23172221,-2.09675848\H,0,-0.9244451,1.23172221,-
 2.09675848\H,0,0.9244451,1.23172221,-2.09675848\C,0,0.,0.66728778,-2.0
 9613055\C,0,0.,-0.66728778,-2.09613055\H,0,0.,1.23344948,3.01988364\H,
 0,0.,1.22547148,1.16832771\H,0,0.,-1.22547148,1.16832771\H,0,0.,-1.233
 44948,3.01988364\C,0,0.,-0.66711698,2.09657614\C,0,0.,0.66711698,2.096

 Normal termination of Gaussian 16 at Tue Apr  8 19:11:53 2025.
