 Gaussian 16, Revision C.01,

 ----------------------------------------------------------------------
 #t hf aug-cc-pvdz symm=none int=(grid=ultrafine) guess=(read,tcheck) s
 table=(opt,rrhf)
 ----------------------------------------------------------------------
 -----
 title
 -----
 Symbolic Z-matrix:
 Charge =  0 Multiplicity = 1

 SCF Done:  E(RHF) =  -153.657930595     A.U. after   11 cycles
 Normal termination of Gaussian 16 at Tue Apr  8 19:11:48 2025.
 Gaussian 16:  ES64L-G16RevC.01  3-Jul-2019

 ----------------------------------------------------------------------
 #t hf aug-cc-pvdz iop(5/13=1,5/36=2,99/5=2) pseudo=read geom=check gue
 ss=(read,tcheck) scf=(maxcycle=1)
 ----------------------------------------------------------------------
 -----
 title
 -----
 Structure from the checkpoint file:  "A21x12_12_ethyne-dimer_1p1_mol1.chk"
 Charge =  0 Multiplicity = 1

                         Standard orientation:
 ---------------------------------------------------------------------
 Center     Atomic      Atomic             Coordinates (Angstroms)
 Number     Number       Type             X           Y           Z
 ---------------------------------------------------------------------
      1          6           0        0.000000    0.603564   -2.399803
      2          1           0        0.000000    1.668476   -2.402364
      3          6           0       -0.000000   -0.603564   -2.399803
      4          1           0       -0.000000   -1.668476   -2.402364
      5          6           0        0.000000   -0.000000    1.796613
      6          1           0        0.000000   -0.000000    0.729680
      7          6           0        0.000000   -0.000000    3.004084
      8          1           0        0.000000   -0.000000    4.068497
 ---------------------------------------------------------------------

 SCF Done:  E(RHF) =  -153.817935048     A.U. after    2 cycles

 The electronic state is 1-A1.
 Alpha  occ. eigenvalues --  -11.26501 -11.26172 -11.25182 -11.24856  -1.04164
 Alpha  occ. eigenvalues --   -1.02830  -0.77847  -0.76563  -0.70066  -0.68757
 Alpha  occ. eigenvalues --   -0.42859  -0.42720  -0.41460  -0.41446
 Alpha virt. eigenvalues --    0.03558   0.03622   0.03993   0.06573   0.09601
 Alpha virt. eigenvalues --    0.10285   0.10288   0.11263   0.11609   0.12445
 Alpha virt. eigenvalues --    0.13639   0.14380   0.14839   0.15168   0.16268

 Mulliken charges:
               1
     1  C    0.206974
     2  H   -0.205496
     3  C    0.206974
     4  H   -0.205496
     5  C    0.351775
     6  H   -0.308392
     7  C    0.143454
     8  H   -0.189791
 Sum of Mulliken charges =  -0.00000

 Dipole moment (field-independent basis, Debye):
    X=              0.0000    Y=              0.0000    Z=             -0.2571  Tot=              0.2571

 Test job not archived.
 1\1\GINC-SE100\SP\RHF\Aug-CC-pVDZ\C4H4\OHZDE\08-Apr-2025\0\\#t hf aug-
 cc-pvdz iop(5/13=1,5/36=2,99/5=2) pseudo=read geom=check guess=(read,t
 check) scf=(maxcycle=1)\\title\\0,1\C,0,0.,0.603564,-2.39992755\H,0,0.
 ,1.66847581,-2.40248927\C,0,0.,-0.603564,-2.39992755\H,0,0.,-1.6684758
 1,-2.40248927\C,0,0.,0.,1.79648851\H,0,0.,0.,0.72955531\C,0,0.,0.,3.00
 395881\H,0,0.,0.,4.06837197\\Version=ES64L-G16RevC.01\State=1-A1\HF=-1
 53.817935\RMSD=2.774e-02\Dipole=0.,0.,-0.1011605\Quadrupole=-3.8004086
 ,1.8787402,1.9216684,0.,0.,0.\PG=C02V [C2(H1C1C1H1),SGV(C2H2)]\\@

 Normal termination of Gaussian 16 at Tue Apr  8 19:11:50 2025.
