 Gaussian 16, Revision C.01,

 ----------------------------------------------------------------------
 #t hf aug-cc-pvdz symm=none int=(grid=ultrafine) guess=(read,tcheck) s
 table=(opt,rrhf)
 ----------------------------------------------------------------------
 -----
 title
 -----
 Symbolic Z-matrix:
 Charge =  0 Multiplicity = 1

 SCF Done:  E(RHF) =  -185.775233827     A.U. after   11 cycles
 Normal termination of Gaussian 16 at Tue Apr  8 19:09:51 2025.
 Gaussian 16:  ES64L-G16RevC.01  3-Jul-2019

 ----------------------------------------------------------------------
 #t hf aug-cc-pvdz iop(5/13=1,5/36=2,99/5=2) pseudo=read geom=check gue
 ss=(read,tcheck) scf=(maxcycle=1)
 ----------------------------------------------------------------------
 -----
 title
 -----
 Structure from the checkpoint file:  "A21x12_03_HCN-dimer_1p9_mol1.chk"
 Charge =  0 Multiplicity = 1

                         Standard orientation:
 ---------------------------------------------------------------------
 Center     Atomic      Atomic             Coordinates (Angstroms)
 Number     Number       Type             X           Y           Z
 ---------------------------------------------------------------------
      1          1           0        0.000000    0.000000   -5.802490
      2          6           0        0.000000    0.000000   -4.733777
      3          7           0        0.000000    0.000000   -3.578785
      4          1           0        0.000000    0.000000    2.656456
      5          6           0        0.000000    0.000000    3.730779
      6          7           0        0.000000    0.000000    4.887931
 ---------------------------------------------------------------------

 SCF Done:  E(RHF) =  -185.952884075     A.U. after    2 cycles

 The electronic state is 1-SG.
 Alpha  occ. eigenvalues --  -15.54891 -15.53869 -11.30984 -11.29989  -1.25652
 Alpha  occ. eigenvalues --   -1.24450  -0.82501  -0.81213  -0.63524  -0.62402
 Alpha  occ. eigenvalues --   -0.53676  -0.53676  -0.52515  -0.52515
 Alpha virt. eigenvalues --    0.02433   0.04136   0.07246   0.07554   0.07554
 Alpha virt. eigenvalues --    0.08540   0.08540   0.08878   0.15089   0.15089
 Alpha virt. eigenvalues --    0.15231   0.16104   0.16104   0.16774   0.18111

 Mulliken charges:
               1
     1  H    0.145391
     2  C   -0.683028
     3  N    0.537329
     4  H    0.170068
     5  C   -0.676801
     6  N    0.507042
 Sum of Mulliken charges =  -0.00000

 Dipole moment (field-independent basis, Debye):
    X=             -0.0000    Y=              0.0000    Z=             -7.6763  Tot=              7.6763

 Test job not archived.
 1\1\GINC-SE247\SP\RHF\Aug-CC-pVDZ\C2H2N2\OHZDE\08-Apr-2025\0\\#t hf au
 g-cc-pvdz iop(5/13=1,5/36=2,99/5=2) pseudo=read geom=check guess=(read
 ,tcheck) scf=(maxcycle=1)\\title\\0,1\H,0,0.,0.,5.86034543\C,0,0.,0.,4
 .79163213\N,0,0.,0.,3.63664028\H,0,0.,0.,-2.5986004\C,0,0.,0.,-3.67292
 372\N,0,0.,0.,-4.83007604\\Version=ES64L-G16RevC.01\State=1-SG\HF=-185
 .9528841\RMSD=1.682e-02\Dipole=0.,0.,3.0200848\Quadrupole=-1.2636988,-
 1.2636988,2.5273977,0.,0.,0.\PG=C*V [C*(H1C1N1H1C1N1)]\\@

 Normal termination of Gaussian 16 at Tue Apr  8 19:09:52 2025.
