 Gaussian 16, Revision C.01,

 ----------------------------------------------------------------------
 #t hf aug-cc-pvdz symm=none int=(grid=ultrafine) guess=(read,tcheck) s
 table=(opt,rrhf)
 ----------------------------------------------------------------------
 -----
 title
 -----
 Symbolic Z-matrix:
 Charge =  0 Multiplicity = 1

 SCF Done:  E(RHF) =  -78.0435079339     A.U. after    9 cycles
 Normal termination of Gaussian 16 at Tue Apr  8 19:10:50 2025.
 Gaussian 16:  ES64L-G16RevC.01  3-Jul-2019

 ----------------------------------------------------------------------
 #t hf aug-cc-pvdz iop(5/13=1,5/36=2,99/5=2) pseudo=read geom=check gue
 ss=(read,tcheck) scf=(maxcycle=1)
 ----------------------------------------------------------------------
 -----
 title
 -----
 Structure from the checkpoint file:  "A21x12_10_water-ethene_1p3_mol2.chk"
 Charge =  0 Multiplicity = 1

                         Standard orientation:
 ---------------------------------------------------------------------
 Center     Atomic      Atomic             Coordinates (Angstroms)
 Number     Number       Type             X           Y           Z
 ---------------------------------------------------------------------
      1          6           0       -0.000014   -0.000424    0.668062
      2          6           0       -0.000014   -0.000424   -0.668062
      3          1           0        0.924394    0.001273   -1.232679
      4          1           0       -0.924310    0.001273   -1.232585
      5          1           0       -0.924310    0.001273    1.232585
      6          1           0        0.924394    0.001273    1.232679
 ---------------------------------------------------------------------

 SCF Done:  E(RHF) =  -78.1301451310     A.U. after    2 cycles

 The electronic state is 1-A'.
 Alpha  occ. eigenvalues --  -11.24287 -11.24154  -1.03567  -0.79626  -0.65192
 Alpha  occ. eigenvalues --   -0.60005  -0.51498  -0.38345
 Alpha virt. eigenvalues --    0.04140   0.04663   0.04768   0.06929   0.09977
 Alpha virt. eigenvalues --    0.12046   0.12778   0.14733   0.17499   0.17737
 Alpha virt. eigenvalues --    0.20459   0.20525   0.22207   0.24884   0.29204

 Mulliken charges:
               1
     1  C    0.085979
     2  C    0.085979
     3  H   -0.042834
     4  H   -0.043145
     5  H   -0.043145
     6  H   -0.042834
 Sum of Mulliken charges =  -0.00000

 Dipole moment (field-independent basis, Debye):
    X=             -0.0001    Y=              0.0054    Z=              0.0000  Tot=              0.0054

 Test job not archived.
 1\1\GINC-SE128\SP\RHF\Aug-CC-pVDZ\C2H4\OHZDE\08-Apr-2025\0\\#t hf aug-
 cc-pvdz iop(5/13=1,5/36=2,99/5=2) pseudo=read geom=check guess=(read,t
 check) scf=(maxcycle=1)\\title\\0,1\C,0,0.01357013,-0.66806246,1.65996
 226\C,0,0.01357013,0.66806246,1.65996226\H,0,0.87161404,1.23267933,1.3
 1602232\H,0,-0.84310097,1.23258495,2.00700802\H,0,-0.84310097,-1.23258
 495,2.00700802\H,0,0.87161404,-1.23267933,1.31602232\\Version=ES64L-G1
 6RevC.01\State=1-A'\HF=-78.1301451\RMSD=1.203e-02\Dipole=0.0007711,0.,
 0.0019884\Quadrupole=0.4913792,1.0814188,-1.572798,0.,-0.9930731,0.\PG

 Normal termination of Gaussian 16 at Tue Apr  8 19:10:51 2025.
