 Gaussian 16, Revision C.01,

 ----------------------------------------------------------------------
 #t hf aug-cc-pvdz symm=none int=(grid=ultrafine) guess=(read,tcheck) s
 table=(opt,rrhf)
 ----------------------------------------------------------------------
 -----
 title
 -----
 Symbolic Z-matrix:
 Charge =  0 Multiplicity = 1

 SCF Done:  E(RHF) =  -112.411123159     A.U. after   10 cycles
 Normal termination of Gaussian 16 at Tue Apr  8 19:10:45 2025.
 Gaussian 16:  ES64L-G16RevC.01  3-Jul-2019

 ----------------------------------------------------------------------
 #t hf aug-cc-pvdz iop(5/13=1,5/36=2,99/5=2) pseudo=read geom=check gue
 ss=(read,tcheck) scf=(maxcycle=1)
 ----------------------------------------------------------------------
 -----
 title
 -----
 Structure from the checkpoint file:  "A21x12_05_ammonia-dimer_1p9_mol1.chk"
 Charge =  0 Multiplicity = 1

                         Standard orientation:
 ---------------------------------------------------------------------
 Center     Atomic      Atomic             Coordinates (Angstroms)
 Number     Number       Type             X           Y           Z
 ---------------------------------------------------------------------
      1          7           0       -0.000000    3.039057    0.000000
      2          1           0       -0.180337    3.618173    0.811060
      3          1           0       -0.180337    3.618173   -0.811060
      4          1           0       -0.700575    2.305331    0.000000
      5          7           0       -0.000000   -3.039057    0.000000
      6          1           0        0.180337   -3.618173    0.811060
      7          1           0        0.700575   -2.305331    0.000000
      8          1           0        0.180337   -3.618173   -0.811060
 ---------------------------------------------------------------------

 SCF Done:  E(RHF) =  -112.535928379     A.U. after    2 cycles

 The electronic state is 1-AG.
 Alpha  occ. eigenvalues --  -15.48574 -15.48572  -1.14321  -1.14321  -0.66305
 Alpha  occ. eigenvalues --   -0.66294  -0.66228  -0.66228  -0.46958  -0.46956
 Alpha virt. eigenvalues --    0.02856   0.03900   0.06173   0.06728   0.07294
 Alpha virt. eigenvalues --    0.07490   0.16005   0.17929   0.18739   0.19321
 Alpha virt. eigenvalues --    0.19784   0.20498   0.21172   0.21661   0.28095

 Mulliken charges:
               1
     1  N   -0.087851
     2  H    0.030576
     3  H    0.030576
     4  H    0.026698
     5  N   -0.087851
     6  H    0.030576
     7  H    0.026698
     8  H    0.030576
 Sum of Mulliken charges =  -0.00000

 Dipole moment (field-independent basis, Debye):
    X=             -0.0000    Y=             -0.0000    Z=              0.0000  Tot=              0.0000

 Test job not archived.
 1\1\GINC-SE128\SP\RHF\Aug-CC-pVDZ\H6N2\OHZDE\08-Apr-2025\0\\#t hf aug-
 cc-pvdz iop(5/13=1,5/36=2,99/5=2) pseudo=read geom=check guess=(read,t
 check) scf=(maxcycle=1)\\title\\0,1\N,0,-0.03872201,-3.03881004,0.\H,0
 ,0.13422193,-3.62017699,0.81105976\H,0,0.13422193,-3.62017699,-0.81105
 976\H,0,0.67114508,-2.31406979,0.\N,0,0.03872201,3.03881004,0.\H,0,-0.
 13422193,3.62017699,0.81105976\H,0,-0.67114508,2.31406979,0.\H,0,-0.13
 422193,3.62017699,-0.81105976\\Version=ES64L-G16RevC.01\State=1-AG\HF=
 -112.5359284\RMSD=7.153e-03\Dipole=0.,0.,0.\Quadrupole=-4.102996,4.660

 Normal termination of Gaussian 16 at Tue Apr  8 19:10:46 2025.
