 Gaussian 16, Revision C.01,

 ----------------------------------------------------------------------
 #t hf aug-cc-pvdz symm=none int=(grid=ultrafine) guess=(read,tcheck) s
 table=(opt,rrhf)
 ----------------------------------------------------------------------
 -----
 title
 -----
 Symbolic Z-matrix:
 Charge =  0 Multiplicity = 1

 SCF Done:  E(RHF) =  -152.084308933     A.U. after   10 cycles
 Normal termination of Gaussian 16 at Tue Apr  8 19:09:46 2025.
 Gaussian 16:  ES64L-G16RevC.01  3-Jul-2019

 ----------------------------------------------------------------------
 #t hf aug-cc-pvdz iop(5/13=1,5/36=2,99/5=2) pseudo=read geom=check gue
 ss=(read,tcheck) scf=(maxcycle=1)
 ----------------------------------------------------------------------
 -----
 title
 -----
 Structure from the checkpoint file:  "A21x12_02_water-dimer_1p6_mol1.chk"
 Charge =  0 Multiplicity = 1

                         Standard orientation:
 ---------------------------------------------------------------------
 Center     Atomic      Atomic             Coordinates (Angstroms)
 Number     Number       Type             X           Y           Z
 ---------------------------------------------------------------------
      1          8           0       -0.002035    2.400771   -0.000000
      2          1           0        0.891547    2.745375    0.000000
      3          1           0        0.104824    1.441883   -0.000000
      4          8           0       -0.002035   -2.272397    0.000000
      5          1           0       -0.481907   -2.607128    0.760178
      6          1           0       -0.481907   -2.607128   -0.760178
 ---------------------------------------------------------------------

 SCF Done:  E(RHF) =  -152.241665802     A.U. after    2 cycles

 The electronic state is 1-A'.
 Alpha  occ. eigenvalues --  -20.56687 -20.55145  -1.44782  -1.43117  -0.71970
 Alpha  occ. eigenvalues --   -0.70277  -0.58706  -0.57089  -0.50746  -0.49155
 Alpha virt. eigenvalues --    0.03183   0.04876   0.05450   0.08135   0.16500
 Alpha virt. eigenvalues --    0.17876   0.20170   0.21713   0.22391   0.23025
 Alpha virt. eigenvalues --    0.23913   0.25105   0.28605   0.30557   0.33339

 Mulliken charges:
               1
     1  O   -0.741578
     2  H    0.355033
     3  H    0.383915
     4  O   -0.757601
     5  H    0.380115
     6  H    0.380115
 Sum of Mulliken charges =  -0.00000

 Dipole moment (field-independent basis, Debye):
    X=              0.0569    Y=             -2.2375    Z=             -0.0000  Tot=              2.2382

 Test job not archived.
 1\1\GINC-SE186\SP\RHF\Aug-CC-pVDZ\H4O2\OHZDE\08-Apr-2025\0\\#t hf aug-
 cc-pvdz iop(5/13=1,5/36=2,99/5=2) pseudo=read geom=check guess=(read,t
 check) scf=(maxcycle=1)\\title\\0,1\O,0,-0.07300062,0.,2.37137863\H,0,
 0.80973279,0.,2.74289028\H,0,0.06285362,0.,1.41616666\O,0,0.06854857,0
 .,-2.29964538\H,0,-0.40096458,-0.76017841,-2.6487578\H,0,-0.40096458,0
 .76017841,-2.6487578\\Version=ES64L-G16RevC.01\State=1-A'\HF=-152.2416
 658\RMSD=5.779e-03\Dipole=0.0490208,0.,-0.879213\Quadrupole=-0.4639418
 ,-0.1016983,0.5656402,0.,6.8701293,0.\PG=CS [SG(H2O2),X(H2)]\\@

 Normal termination of Gaussian 16 at Tue Apr  8 19:09:48 2025.
