 Gaussian 16, Revision C.01,

 ----------------------------------------------------------------------
 #t hf aug-cc-pvdz symm=none int=(grid=ultrafine) guess=(read,tcheck) s
 table=(opt,rrhf)
 ----------------------------------------------------------------------
 -----
 title
 -----
 Symbolic Z-matrix:
 Charge =  0 Multiplicity = 1

 SCF Done:  E(RHF) =  -132.251255810     A.U. after   11 cycles
 Normal termination of Gaussian 16 at Tue Apr  8 19:08:45 2025.
 Gaussian 16:  ES64L-G16RevC.01  3-Jul-2019

 ----------------------------------------------------------------------
 #t hf aug-cc-pvdz iop(5/13=1,5/36=2,99/5=2) pseudo=read geom=check gue
 ss=(read,tcheck) scf=(maxcycle=1)
 ----------------------------------------------------------------------
 -----
 title
 -----
 Structure from the checkpoint file:  "A21x12_01_water-ammonia_1p3_mol1.chk"
 Charge =  0 Multiplicity = 1

                         Standard orientation:
 ---------------------------------------------------------------------
 Center     Atomic      Atomic             Coordinates (Angstroms)
 Number     Number       Type             X           Y           Z
 ---------------------------------------------------------------------
      1          8           0       -0.037956    2.005089    0.000000
      2          1           0        0.849808    2.363941    0.000000
      3          1           0        0.081169    1.042206    0.000000
      4          7           0       -0.037956   -1.833286    0.000000
      5          1           0       -1.036771   -2.003279    0.000000
      6          1           0        0.337566   -2.305286    0.813484
      7          1           0        0.337566   -2.305286   -0.813484
 ---------------------------------------------------------------------

 SCF Done:  E(RHF) =  -132.392229265     A.U. after    2 cycles

 The electronic state is 1-A'.
 Alpha  occ. eigenvalues --  -20.54034 -15.49989  -1.41885  -1.15749  -0.69088
 Alpha  occ. eigenvalues --   -0.67713  -0.67632  -0.55974  -0.48548  -0.48049
 Alpha virt. eigenvalues --    0.02570   0.05278   0.05931   0.06189   0.09481
 Alpha virt. eigenvalues --    0.16050   0.17986   0.18707   0.20018   0.21271
 Alpha virt. eigenvalues --    0.22520   0.23968   0.26315   0.27695   0.27710

 Mulliken charges:
               1
     1  O   -0.794696
     2  H    0.343391
     3  H    0.443468
     4  N   -0.105699
     5  H    0.019564
     6  H    0.046986
     7  H    0.046986
 Sum of Mulliken charges =  -0.00000

 Dipole moment (field-independent basis, Debye):
    X=              1.2842    Y=             -2.9371    Z=             -0.0000  Tot=              3.2056

 Test job not archived.
 1\1\GINC-SE247\SP\RHF\Aug-CC-pVDZ\H5N1O1\OHZDE\08-Apr-2025\0\\#t hf au
 g-cc-pvdz iop(5/13=1,5/36=2,99/5=2) pseudo=read geom=check guess=(read
 ,tcheck) scf=(maxcycle=1)\\title\\0,1\O,0,0.,-0.05817157,-1.96830771\H
 ,0,0.,0.82262798,-2.34392942\H,0,0.,0.07918981,-1.00785721\N,0,0.,0.01
 461095,1.86937722\H,0,0.,-0.98080156,2.05827873\H,0,-0.81348351,0.3990
 1477,2.33417143\H,0,0.81348351,0.39901477,2.33417143\\Version=ES64L-G1
 6RevC.01\State=1-A'\HF=-132.3922293\RMSD=7.016e-03\Dipole=0.,0.5270506
 ,1.1457729\Quadrupole=-1.0788993,0.2646461,0.8142532,0.,0.,-3.206364\P

 Normal termination of Gaussian 16 at Tue Apr  8 19:08:46 2025.
