 Gaussian 16, Revision C.01,

 ----------------------------------------------------------------------
 #t hf aug-cc-pvdz symm=none int=(grid=ultrafine) guess=(read,tcheck) s
 table=(opt,rrhf)
 ----------------------------------------------------------------------
 -----
 title
 -----
 Symbolic Z-matrix:
 Charge =  0 Multiplicity = 1

 SCF Done:  E(RHF) =  -154.085465703     A.U. after   10 cycles
 Normal termination of Gaussian 16 at Tue Apr  8 19:11:47 2025.
 Gaussian 16:  ES64L-G16RevC.01  3-Jul-2019

 ----------------------------------------------------------------------
 #t hf aug-cc-pvdz iop(5/13=1,5/36=2,99/5=2) pseudo=read geom=check gue
 ss=(read,tcheck) scf=(maxcycle=1)
 ----------------------------------------------------------------------
 -----
 title
 -----
 Structure from the checkpoint file:  "A21x12_10_water-ethene_1p6_mol1.chk"
 Charge =  0 Multiplicity = 1

                         Standard orientation:
 ---------------------------------------------------------------------
 Center     Atomic      Atomic             Coordinates (Angstroms)
 Number     Number       Type             X           Y           Z
 ---------------------------------------------------------------------
      1          6           0       -0.041164   -2.034871    0.668062
      2          6           0       -0.041164   -2.034871   -0.668062
      3          1           0       -0.898142   -1.688284   -1.232679
      4          1           0        0.814432   -2.384560   -1.232585
      5          1           0        0.814432   -2.384560    1.232585
      6          1           0       -0.898142   -1.688284    1.232679
      7          1           0        0.800586    3.762099    0.000000
      8          8           0       -0.041164    3.303926    0.000000
      9          1           0        0.190106    2.370636    0.000000
 ---------------------------------------------------------------------

 SCF Done:  E(RHF) =  -154.250720922     A.U. after    2 cycles

 The electronic state is 1-A'.
 Alpha  occ. eigenvalues --  -20.55682 -11.24747 -11.24613  -1.43735  -1.04039
 Alpha  occ. eigenvalues --   -0.80070  -0.70883  -0.65641  -0.60454  -0.57660
 Alpha  occ. eigenvalues --   -0.51933  -0.49702  -0.38846
 Alpha virt. eigenvalues --    0.03430   0.04504   0.04563   0.04907   0.06881
 Alpha virt. eigenvalues --    0.08039   0.09488   0.12503   0.14563   0.14855
 Alpha virt. eigenvalues --    0.15855   0.17323   0.18840   0.18852   0.20303

 Mulliken charges:
               1
     1  C    0.093932
     2  C    0.093932
     3  H   -0.048602
     4  H   -0.044621
     5  H   -0.044621
     6  H   -0.048602
     7  H    0.358568
     8  O   -0.737131
     9  H    0.377145
 Sum of Mulliken charges =  -0.00000

 Dipole moment (field-independent basis, Debye):
    X=              1.7614    Y=             -0.8856    Z=              0.0000  Tot=              1.9714

 Test job not archived.
 1\1\GINC-SE028\SP\RHF\Aug-CC-pVDZ\C2H6O1\OHZDE\08-Apr-2025\0\\#t hf au
 g-cc-pvdz iop(5/13=1,5/36=2,99/5=2) pseudo=read geom=check guess=(read
 ,tcheck) scf=(maxcycle=1)\\title\\0,1\C,0,0.02177144,-0.66806246,2.656
 07361\C,0,0.02177144,0.66806246,2.65607361\H,0,0.87981535,1.23267933,2
 .31213367\H,0,-0.83489966,1.23258495,3.00311937\H,0,-0.83489966,-1.232
 58495,3.00311937\H,0,0.87981535,-1.23267933,2.31213367\H,0,-0.8020757,
 0.,-3.14346757\O,0,0.03825502,0.,-2.68269773\H,0,-0.19589489,0.,-1.750
 12663\\Version=ES64L-G16RevC.01\State=1-A'\HF=-154.2507209\RMSD=8.513e

 Normal termination of Gaussian 16 at Tue Apr  8 19:11:49 2025.
