 Gaussian 16, Revision C.01,

 ----------------------------------------------------------------------
 #t hf aug-cc-pvdz symm=none int=(grid=ultrafine) guess=(read,tcheck) s
 table=(opt,rrhf)
 ----------------------------------------------------------------------
 -----
 title
 -----
 Symbolic Z-matrix:
 Charge =  0 Multiplicity = 1

 SCF Done:  E(RHF) =  -185.779160078     A.U. after   11 cycles
 Normal termination of Gaussian 16 at Tue Apr  8 19:09:46 2025.
 Gaussian 16:  ES64L-G16RevC.01  3-Jul-2019

 ----------------------------------------------------------------------
 #t hf aug-cc-pvdz iop(5/13=1,5/36=2,99/5=2) pseudo=read geom=check gue
 ss=(read,tcheck) scf=(maxcycle=1)
 ----------------------------------------------------------------------
 -----
 title
 -----
 Structure from the checkpoint file:  "A21x12_03_HCN-dimer_1p2_mol1.chk"
 Charge =  0 Multiplicity = 1

                         Standard orientation:
 ---------------------------------------------------------------------
 Center     Atomic      Atomic             Coordinates (Angstroms)
 Number     Number       Type             X           Y           Z
 ---------------------------------------------------------------------
      1          1           0        0.000000    0.000000   -4.243062
      2          6           0        0.000000    0.000000   -3.174349
      3          7           0        0.000000    0.000000   -2.019357
      4          1           0        0.000000    0.000000    1.097028
      5          6           0        0.000000    0.000000    2.171351
      6          7           0        0.000000    0.000000    3.328503
 ---------------------------------------------------------------------

 SCF Done:  E(RHF) =  -185.956439697     A.U. after    2 cycles

 The electronic state is 1-SG.
 Alpha  occ. eigenvalues --  -15.55999 -15.52917 -11.32224 -11.29017  -1.26804
 Alpha  occ. eigenvalues --   -1.23565  -0.83522  -0.80043  -0.64957  -0.61531
 Alpha  occ. eigenvalues --   -0.54847  -0.54847  -0.51648  -0.51648
 Alpha virt. eigenvalues --    0.02194   0.05221   0.06881   0.06881   0.07913
 Alpha virt. eigenvalues --    0.09010   0.09010   0.12528   0.14749   0.15292
 Alpha virt. eigenvalues --    0.15292   0.16792   0.16792   0.17247   0.19961

 Mulliken charges:
               1
     1  H    0.117669
     2  C   -0.796217
     3  N    0.661546
     4  H    0.129745
     5  C   -0.678113
     6  N    0.565371
 Sum of Mulliken charges =  -0.00000

 Dipole moment (field-independent basis, Debye):
    X=              0.0000    Y=              0.0000    Z=             -7.9662  Tot=              7.9662

 Test job not archived.
 1\1\GINC-SE460\SP\RHF\Aug-CC-pVDZ\C2H2N2\OHZDE\08-Apr-2025\0\\#t hf au
 g-cc-pvdz iop(5/13=1,5/36=2,99/5=2) pseudo=read geom=check guess=(read
 ,tcheck) scf=(maxcycle=1)\\title\\0,1\H,0,0.,0.,4.30091738\C,0,0.,0.,3
 .23220408\N,0,0.,0.,2.07721223\H,0,0.,0.,-1.03917235\C,0,0.,0.,-2.1134
 9567\N,0,0.,0.,-3.27064799\\Version=ES64L-G16RevC.01\State=1-SG\HF=-18
 5.9564397\RMSD=1.859e-02\Dipole=0.,0.,3.1341459\Quadrupole=-1.3261959,
 -1.3261959,2.6523919,0.,0.,0.\PG=C*V [C*(H1C1N1H1C1N1)]\\@

 Normal termination of Gaussian 16 at Tue Apr  8 19:09:48 2025.
