 Gaussian 16, Revision C.01,

 ----------------------------------------------------------------------
 #t hf aug-cc-pvdz symm=none int=(grid=ultrafine) guess=(read,tcheck) s
 table=(opt,rrhf)
 ----------------------------------------------------------------------
 -----
 title
 -----
 Symbolic Z-matrix:
 Charge =  0 Multiplicity = 1

 SCF Done:  E(RHF) =  -132.247216243     A.U. after   11 cycles
 Normal termination of Gaussian 16 at Tue Apr  8 19:08:50 2025.
 Gaussian 16:  ES64L-G16RevC.01  3-Jul-2019

 ----------------------------------------------------------------------
 #t hf aug-cc-pvdz iop(5/13=1,5/36=2,99/5=2) pseudo=read geom=check gue
 ss=(read,tcheck) scf=(maxcycle=1)
 ----------------------------------------------------------------------
 -----
 title
 -----
 Structure from the checkpoint file:  "A21x12_01_water-ammonia_2p0_mol1.chk"
 Charge =  0 Multiplicity = 1

                         Standard orientation:
 ---------------------------------------------------------------------
 Center     Atomic      Atomic             Coordinates (Angstroms)
 Number     Number       Type             X           Y           Z
 ---------------------------------------------------------------------
      1          8           0       -0.038510    3.046965    0.000000
      2          1           0        0.846919    3.411541    0.000000
      3          1           0        0.086829    2.084872    0.000000
      4          7           0       -0.038510   -2.875656    0.000000
      5          1           0       -1.036207   -3.052094    0.000000
      6          1           0        0.340051   -3.345222    0.813484
      7          1           0        0.340051   -3.345222   -0.813484
 ---------------------------------------------------------------------

 SCF Done:  E(RHF) =  -132.388245862     A.U. after    2 cycles

 The electronic state is 1-A'.
 Alpha  occ. eigenvalues --  -20.55345 -15.49136  -1.43127  -1.14912  -0.70345
 Alpha  occ. eigenvalues --   -0.66898  -0.66825  -0.57137  -0.49275  -0.47548
 Alpha virt. eigenvalues --    0.02683   0.04591   0.06098   0.06147   0.07818
 Alpha virt. eigenvalues --    0.16808   0.17393   0.19453   0.19738   0.20192
 Alpha virt. eigenvalues --    0.20641   0.23383   0.25428   0.27999   0.28014

 Mulliken charges:
               1
     1  O   -0.738129
     2  H    0.361375
     3  H    0.377148
     4  N   -0.100421
     5  H    0.033444
     6  H    0.033292
     7  H    0.033292
 Sum of Mulliken charges =   0.00000

 Dipole moment (field-independent basis, Debye):
    X=              1.3256    Y=             -2.6945    Z=             -0.0000  Tot=              3.0029

 Test job not archived.
 1\1\GINC-SE452\SP\RHF\Aug-CC-pVDZ\H5N1O1\OHZDE\08-Apr-2025\0\\#t hf au
 g-cc-pvdz iop(5/13=1,5/36=2,99/5=2) pseudo=read geom=check guess=(read
 ,tcheck) scf=(maxcycle=1)\\title\\0,1\O,0,0.,-0.05881659,-3.01054428\H
 ,0,0.,0.82198296,-3.38616599\H,0,0.,0.07854479,-2.05009378\N,0,0.,0.01
 525597,2.91161379\H,0,0.,-0.98015654,3.1005153\H,0,-0.81348351,0.39965
 979,3.376408\H,0,0.81348351,0.39965979,3.376408\\Version=ES64L-G16RevC
 .01\State=1-A'\HF=-132.3882459\RMSD=6.558e-03\Dipole=0.,0.5347621,1.05
 34784\Quadrupole=-1.437584,-0.095929,1.533513,0.,0.,-4.7599431\PG=CS [

 Normal termination of Gaussian 16 at Tue Apr  8 19:08:51 2025.
