 Gaussian 16, Revision C.01,

 ----------------------------------------------------------------------
 #t hf aug-cc-pvdz symm=none int=(grid=ultrafine) guess=(read,tcheck) s
 table=(opt,rrhf)
 ----------------------------------------------------------------------
 -----
 title
 -----
 Symbolic Z-matrix:
 Charge =  0 Multiplicity = 1

 SCF Done:  E(RHF) =  -227.775062764     A.U. after   12 cycles
 Normal termination of Gaussian 16 at Tue Apr  8 19:10:47 2025.
 Gaussian 16:  ES64L-G16RevC.01  3-Jul-2019

 ----------------------------------------------------------------------
 #t hf aug-cc-pvdz iop(5/13=1,5/36=2,99/5=2) pseudo=read geom=check gue
 ss=(read,tcheck) scf=(maxcycle=1)
 ----------------------------------------------------------------------
 -----
 title
 -----
 Structure from the checkpoint file:  "A21x12_09_formaldehyde-dimer_1p1_mol1.chk"
 Charge =  0 Multiplicity = 1

                         Standard orientation:
 ---------------------------------------------------------------------
 Center     Atomic      Atomic             Coordinates (Angstroms)
 Number     Number       Type             X           Y           Z
 ---------------------------------------------------------------------
      1          6           0       -0.944762   -1.323617    0.000000
      2          8           0       -1.758070   -0.426909    0.000000
      3          1           0       -0.559928   -1.757367    0.935423
      4          1           0       -0.559928   -1.757367   -0.935423
      5          6           0        1.091071    1.419459    0.000000
      6          8           0        1.572004    0.308536    0.000000
      7          1           0        1.730531    2.315835    0.000000
      8          1           0        0.000000    1.570830    0.000000
 ---------------------------------------------------------------------

 SCF Done:  E(RHF) =  -228.000363474     A.U. after    2 cycles

 The electronic state is 1-A'.
 Alpha  occ. eigenvalues --  -20.57021 -20.55673 -11.35570 -11.34772  -1.49091
 Alpha  occ. eigenvalues --   -1.47865  -0.88077  -0.86943  -0.70403  -0.69094
 Alpha  occ. eigenvalues --   -0.65841  -0.64532  -0.53922  -0.52734  -0.44060
 Alpha  occ. eigenvalues --   -0.42829
 Alpha virt. eigenvalues --    0.03547   0.04303   0.05346   0.06418   0.07536
 Alpha virt. eigenvalues --    0.08864   0.10519   0.12312   0.15130   0.15802
 Alpha virt. eigenvalues --    0.15892   0.16419   0.17381   0.18197   0.22127

 Mulliken charges:
               1
     1  C    0.552251
     2  O   -0.830407
     3  H    0.123582
     4  H    0.123582
     5  C    0.627899
     6  O   -0.841846
     7  H    0.095725
     8  H    0.149214
 Sum of Mulliken charges =  -0.00000

 Dipole moment (field-independent basis, Debye):
    X=              0.8789    Y=              0.5368    Z=              0.0000  Tot=              1.0298

 Test job not archived.
 1\1\GINC-SE343\SP\RHF\Aug-CC-pVDZ\C2H4O2\OHZDE\08-Apr-2025\0\\#t hf au
 g-cc-pvdz iop(5/13=1,5/36=2,99/5=2) pseudo=read geom=check guess=(read
 ,tcheck) scf=(maxcycle=1)\\title\\0,1\C,0,0.,0.6015613,-1.49916892\O,0
 ,0.,-0.59269664,-1.69741937\H,0,0.9354225,1.17459774,-1.41048048\H,0,-
 0.9354225,1.17459774,-1.41048048\C,0,0.,-0.60232656,1.69766403\O,0,0.,
 0.59206458,1.50048865\H,0,0.,-1.00970162,2.72062172\H,0,0.,-1.32035086
 ,0.86232534\\Version=ES64L-G16RevC.01\State=1-A'\HF=-228.0003635\RMSD=
 6.601e-03\Dipole=0.,0.0096538,0.4050586\Quadrupole=0.08975,0.0682773,-

 Normal termination of Gaussian 16 at Tue Apr  8 19:10:48 2025.
