 Gaussian 16, Revision C.01,

 ----------------------------------------------------------------------
 #t hf aug-cc-pvdz symm=none int=(grid=ultrafine) guess=(read,tcheck) s
 table=(opt,rrhf)
 ----------------------------------------------------------------------
 -----
 title
 -----
 Symbolic Z-matrix:
 Charge =  0 Multiplicity = 1

 SCF Done:  E(RHF) =  -185.776415313     A.U. after   11 cycles
 Normal termination of Gaussian 16 at Tue Apr  8 19:09:51 2025.
 Gaussian 16:  ES64L-G16RevC.01  3-Jul-2019

 ----------------------------------------------------------------------
 #t hf aug-cc-pvdz iop(5/13=1,5/36=2,99/5=2) pseudo=read geom=check gue
 ss=(read,tcheck) scf=(maxcycle=1)
 ----------------------------------------------------------------------
 -----
 title
 -----
 Structure from the checkpoint file:  "A21x12_03_HCN-dimer_1p5_mol1.chk"
 Charge =  0 Multiplicity = 1

                         Standard orientation:
 ---------------------------------------------------------------------
 Center     Atomic      Atomic             Coordinates (Angstroms)
 Number     Number       Type             X           Y           Z
 ---------------------------------------------------------------------
      1          1           0        0.000000    0.000000   -4.911389
      2          6           0        0.000000    0.000000   -3.842675
      3          7           0        0.000000    0.000000   -2.687683
      4          1           0        0.000000    0.000000    1.765354
      5          6           0        0.000000    0.000000    2.839677
      6          7           0        0.000000    0.000000    3.996829
 ---------------------------------------------------------------------

 SCF Done:  E(RHF) =  -185.953943590     A.U. after    2 cycles

 The electronic state is 1-SG.
 Alpha  occ. eigenvalues --  -15.55294 -15.53527 -11.31430 -11.29649  -1.26070
 Alpha  occ. eigenvalues --   -1.24127  -0.82872  -0.80799  -0.64013  -0.62089
 Alpha  occ. eigenvalues --   -0.54101  -0.54101  -0.52197  -0.52197
 Alpha virt. eigenvalues --    0.02338   0.04815   0.07264   0.07264   0.07500
 Alpha virt. eigenvalues --    0.08747   0.08747   0.10462   0.14647   0.14936
 Alpha virt. eigenvalues --    0.14936   0.16379   0.16379   0.16434   0.19048

 Mulliken charges:
               1
     1  H    0.133571
     2  C   -0.742362
     3  N    0.606624
     4  H    0.170129
     5  C   -0.719007
     6  N    0.551045
 Sum of Mulliken charges =  -0.00000

 Dipole moment (field-independent basis, Debye):
    X=              0.0000    Y=             -0.0000    Z=             -7.7651  Tot=              7.7651

 Test job not archived.
 1\1\GINC-SE166\SP\RHF\Aug-CC-pVDZ\C2H2N2\OHZDE\08-Apr-2025\0\\#t hf au
 g-cc-pvdz iop(5/13=1,5/36=2,99/5=2) pseudo=read geom=check guess=(read
 ,tcheck) scf=(maxcycle=1)\\title\\0,1\H,0,0.,0.,4.96924369\C,0,0.,0.,3
 .90053039\N,0,0.,0.,2.74553854\H,0,0.,0.,-1.70749865\C,0,0.,0.,-2.7818
 2197\N,0,0.,0.,-3.93897429\\Version=ES64L-G16RevC.01\State=1-SG\HF=-18
 5.9539436\RMSD=1.771e-02\Dipole=0.,0.,3.0550441\Quadrupole=-1.2895049,
 -1.2895049,2.5790098,0.,0.,0.\PG=C*V [C*(H1C1N1H1C1N1)]\\@

 Normal termination of Gaussian 16 at Tue Apr  8 19:09:52 2025.
