 Gaussian 16, Revision C.01,

 ----------------------------------------------------------------------
 #t hf aug-cc-pvdz symm=none int=(grid=ultrafine) guess=(read,tcheck) s
 table=(opt,rrhf)
 ----------------------------------------------------------------------
 -----
 title
 -----
 Symbolic Z-matrix:
 Charge =  0 Multiplicity = 1

 SCF Done:  E(RHF) =  -191.929613943     A.U. after   12 cycles
 Normal termination of Gaussian 16 at Tue Apr  8 19:11:49 2025.
 Gaussian 16:  ES64L-G16RevC.01  3-Jul-2019

 ----------------------------------------------------------------------
 #t hf aug-cc-pvdz iop(5/13=1,5/36=2,99/5=2) pseudo=read geom=check gue
 ss=(read,tcheck) scf=(maxcycle=1)
 ----------------------------------------------------------------------
 -----
 title
 -----
 Structure from the checkpoint file:  "A21x12_11_formaldehyde-ethene_1p2_mol1.chk"
 Charge =  0 Multiplicity = 1

                         Standard orientation:
 ---------------------------------------------------------------------
 Center     Atomic      Atomic             Coordinates (Angstroms)
 Number     Number       Type             X           Y           Z
 ---------------------------------------------------------------------
      1          8           0        1.969027    1.236937    0.000000
      2          6           0        1.046367    2.017259    0.000000
      3          1           0        0.000000    1.671354    0.000000
      4          1           0        1.214866    3.107095    0.000000
      5          6           0       -0.787693   -1.724190    0.000000
      6          6           0       -2.118881   -1.623333    0.000000
      7          1           0       -0.219933   -1.762746    0.921130
      8          1           0       -0.219933   -1.762746   -0.921130
      9          1           0       -2.682988   -1.583433   -0.923940
     10          1           0       -2.682988   -1.583433    0.923940
 ---------------------------------------------------------------------

 SCF Done:  E(RHF) =  -192.128894633     A.U. after    2 cycles

 The electronic state is 1-A'.
 Alpha  occ. eigenvalues --  -20.56462 -11.35181 -11.24249 -11.24112  -1.48520
 Alpha  occ. eigenvalues --   -1.03599  -0.87586  -0.79601  -0.69780  -0.65174
 Alpha  occ. eigenvalues --   -0.65118  -0.60049  -0.53297  -0.51382  -0.43421
 Alpha  occ. eigenvalues --   -0.38430
 Alpha virt. eigenvalues --    0.03311   0.04287   0.04635   0.05400   0.06786
 Alpha virt. eigenvalues --    0.07151   0.07883   0.10330   0.10927   0.13527
 Alpha virt. eigenvalues --    0.15119   0.15367   0.15841   0.16252   0.17004

 Mulliken charges:
               1
     1  O   -0.843671
     2  C    0.629164
     3  H    0.101497
     4  H    0.119987
     5  C    0.098631
     6  C    0.074413
     7  H   -0.041965
     8  H   -0.041965
     9  H   -0.048046
    10  H   -0.048046
 Sum of Mulliken charges =  -0.00000

 Dipole moment (field-independent basis, Debye):
    X=             -1.9788    Y=              1.6650    Z=              0.0000  Tot=              2.5861

 Test job not archived.
 1\1\GINC-SE042\SP\RHF\Aug-CC-pVDZ\C3H6O1\OHZDE\08-Apr-2025\0\\#t hf au
 g-cc-pvdz iop(5/13=1,5/36=2,99/5=2) pseudo=read geom=check guess=(read
 ,tcheck) scf=(maxcycle=1)\\title\\0,1\O,0,0.,-0.49869884,-2.26024941\C
 ,0,0.,0.70623116,-2.16887941\H,0,0.,1.20910116,-1.18823941\H,0,0.,1.35
 084116,-3.06364941\C,0,0.,-0.61208794,1.78387183\C,0,0.,0.40719206,2.6
 4602183\H,0,0.92113,-1.04368794,1.41298183\H,0,-0.92113,-1.04368794,1.
 41298183\H,0,-0.92394,0.83713206,3.01339183\H,0,0.92394,0.83713206,3.0
 1339183\\Version=ES64L-G16RevC.01\State=1-A'\HF=-192.1288946\RMSD=8.22

 Normal termination of Gaussian 16 at Tue Apr  8 19:11:52 2025.
