 Gaussian 16, Revision C.01,

 ----------------------------------------------------------------------
 #t hf aug-cc-pvdz symm=none int=(grid=ultrafine) guess=(read,tcheck) s
 table=(opt,rrhf)
 ----------------------------------------------------------------------
 -----
 title
 -----
 Symbolic Z-matrix:
 Charge =  0 Multiplicity = 1

 SCF Done:  E(RHF) =  -112.411811717     A.U. after   10 cycles
 Normal termination of Gaussian 16 at Tue Apr  8 19:10:45 2025.
 Gaussian 16:  ES64L-G16RevC.01  3-Jul-2019

 ----------------------------------------------------------------------
 #t hf aug-cc-pvdz iop(5/13=1,5/36=2,99/5=2) pseudo=read geom=check gue
 ss=(read,tcheck) scf=(maxcycle=1)
 ----------------------------------------------------------------------
 -----
 title
 -----
 Structure from the checkpoint file:  "A21x12_05_ammonia-dimer_1p5_mol1.chk"
 Charge =  0 Multiplicity = 1

                         Standard orientation:
 ---------------------------------------------------------------------
 Center     Atomic      Atomic             Coordinates (Angstroms)
 Number     Number       Type             X           Y           Z
 ---------------------------------------------------------------------
      1          7           0       -0.000000    2.394002   -0.000000
      2          1           0       -0.183534    2.972113    0.811060
      3          1           0       -0.183534    2.972113   -0.811060
      4          1           0       -0.696511    1.656417   -0.000000
      5          7           0       -0.000000   -2.394002   -0.000000
      6          1           0        0.183534   -2.972113    0.811060
      7          1           0        0.696511   -1.656417   -0.000000
      8          1           0        0.183534   -2.972113   -0.811060
 ---------------------------------------------------------------------

 SCF Done:  E(RHF) =  -112.536573507     A.U. after    2 cycles

 The electronic state is 1-AG.
 Alpha  occ. eigenvalues --  -15.48498 -15.48495  -1.14251  -1.14237  -0.66275
 Alpha  occ. eigenvalues --   -0.66160  -0.66156  -0.66145  -0.46906  -0.46897
 Alpha virt. eigenvalues --    0.02907   0.04296   0.06115   0.06868   0.07542
 Alpha virt. eigenvalues --    0.08093   0.16234   0.18251   0.18312   0.18596
 Alpha virt. eigenvalues --    0.20186   0.20940   0.21434   0.23188   0.27938

 Mulliken charges:
               1
     1  N   -0.094197
     2  H    0.029914
     3  H    0.029914
     4  H    0.034369
     5  N   -0.094197
     6  H    0.029914
     7  H    0.034369
     8  H    0.029914
 Sum of Mulliken charges =   0.00000

 Dipole moment (field-independent basis, Debye):
    X=             -0.0000    Y=              0.0000    Z=              0.0000  Tot=              0.0000

 Test job not archived.
 1\1\GINC-SE109\SP\RHF\Aug-CC-pVDZ\H6N2\OHZDE\08-Apr-2025\0\\#t hf aug-
 cc-pvdz iop(5/13=1,5/36=2,99/5=2) pseudo=read geom=check guess=(read,t
 check) scf=(maxcycle=1)\\title\\0,1\N,0,-0.04372614,-2.39360257,0.\H,0
 ,0.1292178,-2.97496952,0.81105976\H,0,0.1292178,-2.97496952,-0.8110597
 6\H,0,0.66614095,-1.66886232,0.\N,0,0.04372614,2.39360257,0.\H,0,-0.12
 92178,2.97496952,0.81105976\H,0,-0.66614095,1.66886232,0.\H,0,-0.12921
 78,2.97496952,-0.81105976\\Version=ES64L-G16RevC.01\State=1-AG\HF=-112
 .5365735\RMSD=7.193e-03\Dipole=0.,0.,0.\Quadrupole=-3.6947684,3.825704

 Normal termination of Gaussian 16 at Tue Apr  8 19:10:47 2025.
