 Gaussian 16, Revision C.01,

 ----------------------------------------------------------------------
 #t hf aug-cc-pvdz symm=none int=(grid=ultrafine) guess=(read,tcheck) s
 table=(opt,rrhf)
 ----------------------------------------------------------------------
 -----
 title
 -----
 Symbolic Z-matrix:
 Charge =  0 Multiplicity = 1

 SCF Done:  E(RHF) =  -80.3971033951     A.U. after    9 cycles
 Normal termination of Gaussian 16 at Tue Apr  8 19:12:52 2025.
 Gaussian 16:  ES64L-G16RevC.01  3-Jul-2019

 ----------------------------------------------------------------------
 #t hf aug-cc-pvdz iop(5/13=1,5/36=2,99/5=2) pseudo=read geom=check gue
 ss=(read,tcheck) scf=(maxcycle=1)
 ----------------------------------------------------------------------
 -----
 title
 -----
 Structure from the checkpoint file:  "A21x12_19_methane-dimer_0p9_mol1.chk"
 Charge =  0 Multiplicity = 1

                         Standard orientation:
 ---------------------------------------------------------------------
 Center     Atomic      Atomic             Coordinates (Angstroms)
 Number     Number       Type             X           Y           Z
 ---------------------------------------------------------------------
      1          6           0        0.000000    0.000000    1.637142
      2          1           0        0.000000    1.025482    1.272894
      3          1           0        0.888094   -0.512741    1.272894
      4          1           0       -0.888094   -0.512741    1.272894
      5          1           0        0.000000    0.000000    2.725348
      6          6           0       -0.000000   -0.000000   -1.637142
      7          1           0       -0.000000   -0.000000   -2.725348
      8          1           0       -0.888094    0.512741   -1.272894
      9          1           0       -0.000000   -1.025482   -1.272894
     10          1           0        0.888094    0.512741   -1.272894
 ---------------------------------------------------------------------

 SCF Done:  E(RHF) =  -80.4968948574     A.U. after    2 cycles

 The electronic state is 1-A1G.
 Alpha  occ. eigenvalues --  -11.21734 -11.21732  -0.95262  -0.93819  -0.56210
 Alpha  occ. eigenvalues --   -0.55627  -0.55627  -0.54271  -0.54271  -0.53712
 Alpha virt. eigenvalues --    0.03742   0.04119   0.05389   0.05389   0.06651
 Alpha virt. eigenvalues --    0.08338   0.08338   0.09910   0.13374   0.13374
 Alpha virt. eigenvalues --    0.16196   0.17000   0.17000   0.17609   0.20013

 Mulliken charges:
               1
     1  C   -0.290823
     2  H    0.100488
     3  H    0.100488
     4  H    0.100488
     5  H   -0.010640
     6  C   -0.290823
     7  H   -0.010640
     8  H    0.100488
     9  H    0.100488
    10  H    0.100488
 Sum of Mulliken charges =   0.00000

 Dipole moment (field-independent basis, Debye):
    X=              0.0000    Y=              0.0000    Z=              0.0000  Tot=              0.0000

 Test job not archived.
 1\1\GINC-SE105\SP\RHF\Aug-CC-pVDZ\C2H8\OHZDE\08-Apr-2025\0\\#t hf aug-
 cc-pvdz iop(5/13=1,5/36=2,99/5=2) pseudo=read geom=check guess=(read,t
 check) scf=(maxcycle=1)\\title\\0,1\C,0,0.,0.,1.63714162\H,0,0.5127411
 5,0.88809373,1.27289448\H,0,0.51274115,-0.88809373,1.27289448\H,0,-1.0
 254823,0.,1.27289448\H,0,0.,0.,2.72534777\C,0,0.,0.,-1.63714162\H,0,0.
 ,0.,-2.72534777\H,0,-0.51274115,0.88809373,-1.27289448\H,0,-0.51274115
 ,-0.88809373,-1.27289448\H,0,1.0254823,0.,-1.27289448\\Version=ES64L-G
 16RevC.01\State=1-A1G\HF=-80.4968949\RMSD=7.165e-03\Dipole=0.,0.,0.\Qu

 Normal termination of Gaussian 16 at Tue Apr  8 19:12:53 2025.
