 Gaussian 16, Revision C.01,

 ----------------------------------------------------------------------
 #t hf aug-cc-pvdz symm=none int=(grid=ultrafine) guess=(read,tcheck) s
 table=(opt,rrhf)
 ----------------------------------------------------------------------
 -----
 title
 -----
 Symbolic Z-matrix:
 Charge =  0 Multiplicity = 1

 SCF Done:  E(RHF) =  -185.774488466     A.U. after   11 cycles
 Normal termination of Gaussian 16 at Tue Apr  8 19:09:46 2025.
 Gaussian 16:  ES64L-G16RevC.01  3-Jul-2019

 ----------------------------------------------------------------------
 #t hf aug-cc-pvdz iop(5/13=1,5/36=2,99/5=2) pseudo=read geom=check gue
 ss=(read,tcheck) scf=(maxcycle=1)
 ----------------------------------------------------------------------
 -----
 title
 -----
 Structure from the checkpoint file:  "A21x12_03_HCN-dimer_0p9_mol1.chk"
 Charge =  0 Multiplicity = 1

                         Standard orientation:
 ---------------------------------------------------------------------
 Center     Atomic      Atomic             Coordinates (Angstroms)
 Number     Number       Type             X           Y           Z
 ---------------------------------------------------------------------
      1          1           0        0.000000    0.000000   -3.574736
      2          6           0        0.000000    0.000000   -2.506023
      3          7           0        0.000000    0.000000   -1.351031
      4          1           0        0.000000    0.000000    0.428701
      5          6           0        0.000000    0.000000    1.503025
      6          7           0        0.000000    0.000000    2.660177
 ---------------------------------------------------------------------

 SCF Done:  E(RHF) =  -185.951353236     A.U. after    2 cycles

 The electronic state is 1-SG.
 Alpha  occ. eigenvalues --  -15.57656 -15.50618 -11.34576 -11.25912  -1.28991
 Alpha  occ. eigenvalues --   -1.21447  -0.85725  -0.80131  -0.66236  -0.59042
 Alpha  occ. eigenvalues --   -0.57056  -0.57056  -0.49587  -0.49587
 Alpha virt. eigenvalues --    0.01677   0.05246   0.05767   0.05767   0.08951
 Alpha virt. eigenvalues --    0.09464   0.09464   0.13281   0.13943   0.15516
 Alpha virt. eigenvalues --    0.15516   0.18302   0.18302   0.19509   0.23512

 Mulliken charges:
               1
     1  H    0.127791
     2  C   -0.773413
     3  N    0.690509
     4  H    0.041857
     5  C   -0.858193
     6  N    0.771448
 Sum of Mulliken charges =  -0.00000

 Dipole moment (field-independent basis, Debye):
    X=             -0.0000    Y=             -0.0000    Z=             -8.8578  Tot=              8.8578

 Test job not archived.
 1\1\GINC-SE247\SP\RHF\Aug-CC-pVDZ\C2H2N2\OHZDE\08-Apr-2025\0\\#t hf au
 g-cc-pvdz iop(5/13=1,5/36=2,99/5=2) pseudo=read geom=check guess=(read
 ,tcheck) scf=(maxcycle=1)\\title\\0,1\H,0,0.,0.,3.63259107\C,0,0.,0.,2
 .56387777\N,0,0.,0.,1.40888592\H,0,0.,0.,-0.37084604\C,0,0.,0.,-1.4451
 6936\N,0,0.,0.,-2.60232168\\Version=ES64L-G16RevC.01\State=1-SG\HF=-18
 5.9513532\RMSD=2.575e-02\Dipole=0.,0.,3.4849333\Quadrupole=-1.2989778,
 -1.2989778,2.5979556,0.,0.,0.\PG=C*V [C*(H1C1N1H1C1N1)]\\@

 Normal termination of Gaussian 16 at Tue Apr  8 19:09:47 2025.
