 Gaussian 16, Revision C.01,

 ----------------------------------------------------------------------
 #t hf aug-cc-pvdz symm=none int=(grid=ultrafine) guess=(read,tcheck) s
 table=(opt,rrhf)
 ----------------------------------------------------------------------
 -----
 title
 -----
 Symbolic Z-matrix:
 Charge =  0 Multiplicity = 1

 SCF Done:  E(RHF) =  -80.3992680000     A.U. after    8 cycles
 Normal termination of Gaussian 16 at Tue Apr  8 19:13:49 2025.
 Gaussian 16:  ES64L-G16RevC.01  3-Jul-2019

 ----------------------------------------------------------------------
 #t hf aug-cc-pvdz iop(5/13=1,5/36=2,99/5=2) pseudo=read geom=check gue
 ss=(read,tcheck) scf=(maxcycle=1)
 ----------------------------------------------------------------------
 -----
 title
 -----
 Structure from the checkpoint file:  "A21x12_19_methane-dimer_1p7_mol1.chk"
 Charge =  0 Multiplicity = 1

                         Standard orientation:
 ---------------------------------------------------------------------
 Center     Atomic      Atomic             Coordinates (Angstroms)
 Number     Number       Type             X           Y           Z
 ---------------------------------------------------------------------
      1          6           0        0.000000    0.000000    3.092125
      2          1           0        0.000000    1.025482    2.727878
      3          1           0        0.888094   -0.512741    2.727878
      4          1           0       -0.888094   -0.512741    2.727878
      5          1           0        0.000000    0.000000    4.180331
      6          6           0       -0.000000   -0.000000   -3.092125
      7          1           0       -0.000000   -0.000000   -4.180331
      8          1           0       -0.888094    0.512741   -2.727878
      9          1           0       -0.000000   -1.025482   -2.727878
     10          1           0        0.888094    0.512741   -2.727878
 ---------------------------------------------------------------------

 SCF Done:  E(RHF) =  -80.4995647765     A.U. after    2 cycles

 The electronic state is 1-A1G.
 Alpha  occ. eigenvalues --  -11.21927 -11.21926  -0.94616  -0.94615  -0.55093
 Alpha  occ. eigenvalues --   -0.55076  -0.55033  -0.55033  -0.55028  -0.55028
 Alpha virt. eigenvalues --    0.03307   0.04245   0.05342   0.05342   0.05759
 Alpha virt. eigenvalues --    0.07510   0.07510   0.08350   0.12697   0.14464
 Alpha virt. eigenvalues --    0.14464   0.15196   0.15196   0.17250   0.17953

 Mulliken charges:
               1
     1  C   -0.250828
     2  H    0.067459
     3  H    0.067459
     4  H    0.067459
     5  H    0.048452
     6  C   -0.250828
     7  H    0.048452
     8  H    0.067459
     9  H    0.067459
    10  H    0.067459
 Sum of Mulliken charges =  -0.00000

 Dipole moment (field-independent basis, Debye):
    X=              0.0000    Y=              0.0000    Z=             -0.0000  Tot=              0.0000

 Test job not archived.
 1\1\GINC-SE039\SP\RHF\Aug-CC-pVDZ\C2H8\OHZDE\08-Apr-2025\0\\#t hf aug-
 cc-pvdz iop(5/13=1,5/36=2,99/5=2) pseudo=read geom=check guess=(read,t
 check) scf=(maxcycle=1)\\title\\0,1\C,0,0.,0.,3.09212519\H,0,0.5127411
 5,0.88809373,2.72787805\H,0,0.51274115,-0.88809373,2.72787805\H,0,-1.0
 254823,0.,2.72787805\H,0,0.,0.,4.18033134\C,0,0.,0.,-3.09212519\H,0,0.
 ,0.,-4.18033134\H,0,-0.51274115,0.88809373,-2.72787805\H,0,-0.51274115
 ,-0.88809373,-2.72787805\H,0,1.0254823,0.,-2.72787805\\Version=ES64L-G
 16RevC.01\State=1-A1G\HF=-80.4995648\RMSD=5.885e-03\Dipole=0.,0.,0.\Qu

 Normal termination of Gaussian 16 at Tue Apr  8 19:13:51 2025.
