 Gaussian 16, Revision C.01,

 ----------------------------------------------------------------------
 #t hf aug-cc-pvdz symm=none int=(grid=ultrafine) guess=(read,tcheck) s
 table=(opt,rrhf)
 ----------------------------------------------------------------------
 -----
 title
 -----
 Symbolic Z-matrix:
 Charge =  0 Multiplicity = 1

 SCF Done:  E(RHF) =  -112.409530271     A.U. after   10 cycles
 Normal termination of Gaussian 16 at Tue Apr  8 19:10:45 2025.
 Gaussian 16:  ES64L-G16RevC.01  3-Jul-2019

 ----------------------------------------------------------------------
 #t hf aug-cc-pvdz iop(5/13=1,5/36=2,99/5=2) pseudo=read geom=check gue
 ss=(read,tcheck) scf=(maxcycle=1)
 ----------------------------------------------------------------------
 -----
 title
 -----
 Structure from the checkpoint file:  "A21x12_05_ammonia-dimer_0p9_mol1.chk"
 Charge =  0 Multiplicity = 1

                         Standard orientation:
 ---------------------------------------------------------------------
 Center     Atomic      Atomic             Coordinates (Angstroms)
 Number     Number       Type             X           Y           Z
 ---------------------------------------------------------------------
      1          7           0       -0.000000    1.426712   -0.000000
      2          1           0       -0.193709    2.001493    0.811060
      3          1           0       -0.193709    2.001493   -0.811060
      4          1           0       -0.683384    0.676948   -0.000000
      5          7           0       -0.000000   -1.426712   -0.000000
      6          1           0        0.193709   -2.001493    0.811060
      7          1           0        0.683384   -0.676948   -0.000000
      8          1           0        0.193709   -2.001493   -0.811060
 ---------------------------------------------------------------------

 SCF Done:  E(RHF) =  -112.536590432     A.U. after    2 cycles

 The electronic state is 1-AG.
 Alpha  occ. eigenvalues --  -15.47658 -15.47657  -1.14683  -1.13026  -0.68533
 Alpha  occ. eigenvalues --   -0.65906  -0.65525  -0.63256  -0.46794  -0.46355
 Alpha virt. eigenvalues --    0.03148   0.05161   0.06202   0.06780   0.07677
 Alpha virt. eigenvalues --    0.08457   0.16287   0.17935   0.18936   0.19997
 Alpha virt. eigenvalues --    0.21665   0.22272   0.23053   0.24123   0.27429

 Mulliken charges:
               1
     1  N   -0.147606
     2  H    0.085926
     3  H    0.085926
     4  H   -0.024246
     5  N   -0.147606
     6  H    0.085926
     7  H   -0.024246
     8  H    0.085926
 Sum of Mulliken charges =  -0.00000

 Dipole moment (field-independent basis, Debye):
    X=              0.0000    Y=             -0.0000    Z=              0.0000  Tot=              0.0000

 Test job not archived.
 1\1\GINC-SE035\SP\RHF\Aug-CC-pVDZ\H6N2\OHZDE\08-Apr-2025\0\\#t hf aug-
 cc-pvdz iop(5/13=1,5/36=2,99/5=2) pseudo=read geom=check guess=(read,t
 check) scf=(maxcycle=1)\\title\\0,1\N,0,-0.05123232,-1.42579136,0.\H,0
 ,0.12171162,-2.00715831,0.81105976\H,0,0.12171162,-2.00715831,-0.81105
 976\H,0,0.65863477,-0.70105111,0.\N,0,0.05123232,1.42579136,0.\H,0,-0.
 12171162,2.00715831,0.81105976\H,0,-0.65863477,0.70105111,0.\H,0,-0.12
 171162,2.00715831,-0.81105976\\Version=ES64L-G16RevC.01\State=1-AG\HF=
 -112.5365904\RMSD=7.757e-03\Dipole=0.,0.,0.\Quadrupole=-2.9416673,2.34

 Normal termination of Gaussian 16 at Tue Apr  8 19:10:46 2025.
