 Gaussian 16, Revision C.01,

 ----------------------------------------------------------------------
 #t hf aug-cc-pvdz symm=none int=(grid=ultrafine) guess=(read,tcheck) s
 table=(opt,rrhf)
 ----------------------------------------------------------------------
 -----
 title
 -----
 Symbolic Z-matrix:
 Charge =  0 Multiplicity = 1

 SCF Done:  E(RHF) =  -66.5853637298     A.U. after   11 cycles
 Normal termination of Gaussian 16 at Tue Apr  8 19:11:47 2025.
 Gaussian 16:  ES64L-G16RevC.01  3-Jul-2019

 ----------------------------------------------------------------------
 #t hf aug-cc-pvdz iop(5/13=1,5/36=2,99/5=2) pseudo=read geom=check gue
 ss=(read,tcheck) scf=(maxcycle=1)
 ----------------------------------------------------------------------
 -----
 title
 -----
 Structure from the checkpoint file:  "A21x12_16_borane-methane_0p9_mol1.chk"
 Charge =  0 Multiplicity = 1

                         Standard orientation:
 ---------------------------------------------------------------------
 Center     Atomic      Atomic             Coordinates (Angstroms)
 Number     Number       Type             X           Y           Z
 ---------------------------------------------------------------------
      1          6           0        0.001179   -1.192999    0.000000
      2          1           0       -0.845898   -0.504637    0.000000
      3          1           0       -0.387488   -2.209550    0.000000
      4          1           0        0.606861   -1.035580    0.889943
      5          1           0        0.606861   -1.035580   -0.889943
      6          5           0        0.001179    1.488026   -0.000000
      7          1           0       -0.589161    1.566895    1.030518
      8          1           0       -0.589161    1.566895   -1.030518
      9          1           0        1.185014    1.369421   -0.000000
 ---------------------------------------------------------------------

 SCF Done:  E(RHF) =  -66.6666858855     A.U. after    2 cycles

 The electronic state is 1-A'.
 Alpha  occ. eigenvalues --  -11.23091  -7.60142  -0.96351  -0.71929  -0.57059
 Alpha  occ. eigenvalues --   -0.56573  -0.55812  -0.49426  -0.49235
 Alpha virt. eigenvalues --    0.03420   0.03781   0.04846   0.04931   0.06584
 Alpha virt. eigenvalues --    0.07921   0.07994   0.10248   0.10599   0.10868
 Alpha virt. eigenvalues --    0.11359   0.16019   0.16276   0.16713   0.18982

 Mulliken charges:
               1
     1  C   -0.413544
     2  H    0.167689
     3  H   -0.010848
     4  H    0.161631
     5  H    0.161631
     6  B   -1.076492
     7  H    0.347918
     8  H    0.347918
     9  H    0.314096
 Sum of Mulliken charges =  -0.00000

 Dipole moment (field-independent basis, Debye):
    X=              0.0112    Y=             -0.4961    Z=             -0.0000  Tot=              0.4962

 Test job not archived.
 1\1\GINC-SE403\SP\RHF\Aug-CC-pVDZ\C1H7B1\OHZDE\08-Apr-2025\0\\#t hf au
 g-cc-pvdz iop(5/13=1,5/36=2,99/5=2) pseudo=read geom=check guess=(read
 ,tcheck) scf=(maxcycle=1)\\title\\0,1\C,0,0.00332529,0.,1.34160118\H,0
 ,0.84836164,0.,0.65073561\H,0,0.39499862,0.,2.35699844\H,0,-0.60281918
 ,-0.88994299,1.18597584\H,0,-0.60281918,0.88994299,1.18597584\B,0,-0.0
 0460777,0.,-1.33941153\H,0,0.58549668,-1.030518,-1.42002702\H,0,0.5854
 9668,1.030518,-1.42002702\H,0,-1.18808608,0.,-1.21730394\\Version=ES64
 L-G16RevC.01\State=1-A'\HF=-66.6666859\RMSD=9.179e-03\Dipole=-0.003832

 Normal termination of Gaussian 16 at Tue Apr  8 19:11:48 2025.
