 Gaussian 16, Revision C.01,

 ----------------------------------------------------------------------
 #t hf aug-cc-pvdz symm=none int=(grid=ultrafine) guess=(read,tcheck) s
 table=(opt,rrhf)
 ----------------------------------------------------------------------
 -----
 title
 -----
 Symbolic Z-matrix:
 Charge =  0 Multiplicity = 1

 SCF Done:  E(RHF) =  -112.413402870     A.U. after   10 cycles
 Normal termination of Gaussian 16 at Tue Apr  8 19:10:45 2025.
 Gaussian 16:  ES64L-G16RevC.01  3-Jul-2019

 ----------------------------------------------------------------------
 #t hf aug-cc-pvdz iop(5/13=1,5/36=2,99/5=2) pseudo=read geom=check gue
 ss=(read,tcheck) scf=(maxcycle=1)
 ----------------------------------------------------------------------
 -----
 title
 -----
 Structure from the checkpoint file:  "A21x12_05_ammonia-dimer_1p0_mol1.chk"
 Charge =  0 Multiplicity = 1

                         Standard orientation:
 ---------------------------------------------------------------------
 Center     Atomic      Atomic             Coordinates (Angstroms)
 Number     Number       Type             X           Y           Z
 ---------------------------------------------------------------------
      1          7           0       -0.000000    1.587880   -0.000000
      2          1           0       -0.191158    2.163515    0.811060
      3          1           0       -0.191158    2.163515   -0.811060
      4          1           0       -0.686703    0.841155    0.000000
      5          7           0       -0.000000   -1.587880   -0.000000
      6          1           0        0.191158   -2.163515    0.811060
      7          1           0        0.686703   -0.841155    0.000000
      8          1           0        0.191158   -2.163515   -0.811060
 ---------------------------------------------------------------------

 SCF Done:  E(RHF) =  -112.538992956     A.U. after    2 cycles

 The electronic state is 1-AG.
 Alpha  occ. eigenvalues --  -15.48043 -15.48032  -1.14355  -1.13555  -0.67402
 Alpha  occ. eigenvalues --   -0.65959  -0.65787  -0.64456  -0.46802  -0.46644
 Alpha virt. eigenvalues --    0.03099   0.04991   0.06177   0.06822   0.07739
 Alpha virt. eigenvalues --    0.08494   0.16254   0.18123   0.18789   0.19479
 Alpha virt. eigenvalues --    0.21597   0.22586   0.23313   0.23370   0.27515

 Mulliken charges:
               1
     1  N   -0.150588
     2  H    0.075470
     3  H    0.075470
     4  H   -0.000352
     5  N   -0.150588
     6  H    0.075470
     7  H   -0.000352
     8  H    0.075470
 Sum of Mulliken charges =   0.00000

 Dipole moment (field-independent basis, Debye):
    X=             -0.0000    Y=              0.0000    Z=              0.0000  Tot=              0.0000

 Test job not archived.
 1\1\GINC-SE059\SP\RHF\Aug-CC-pVDZ\H6N2\OHZDE\08-Apr-2025\0\\#t hf aug-
 cc-pvdz iop(5/13=1,5/36=2,99/5=2) pseudo=read geom=check guess=(read,t
 check) scf=(maxcycle=1)\\title\\0,1\N,0,-0.04998129,-1.58709323,0.\H,0
 ,0.12296265,-2.16846018,0.81105976\H,0,0.12296265,-2.16846018,-0.81105
 976\H,0,0.6598858,-0.86235298,0.\N,0,0.04998129,1.58709323,0.\H,0,-0.1
 2296265,2.16846018,0.81105976\H,0,-0.6598858,0.86235298,0.\H,0,-0.1229
 6265,2.16846018,-0.81105976\\Version=ES64L-G16RevC.01\State=1-AG\HF=-1
 12.538993\RMSD=7.480e-03\Dipole=0.,0.,0.\Quadrupole=-3.1132309,2.66209

 Normal termination of Gaussian 16 at Tue Apr  8 19:10:47 2025.
