 Gaussian 16, Revision C.01,

 ----------------------------------------------------------------------
 #t hf aug-cc-pvdz symm=none int=(grid=ultrafine) guess=(read,tcheck) s
 table=(opt,rrhf)
 ----------------------------------------------------------------------
 -----
 title
 -----
 Symbolic Z-matrix:
 Charge =  0 Multiplicity = 1

 SCF Done:  E(RHF) =  -56.2053717660     A.U. after   10 cycles
 Normal termination of Gaussian 16 at Tue Apr  8 19:08:44 2025.
 Gaussian 16:  ES64L-G16RevC.01  3-Jul-2019

 ----------------------------------------------------------------------
 #t hf aug-cc-pvdz iop(5/13=1,5/36=2,99/5=2) pseudo=read geom=check gue
 ss=(read,tcheck) scf=(maxcycle=1)
 ----------------------------------------------------------------------
 -----
 title
 -----
 Structure from the checkpoint file:  "A21x12_01_water-ammonia_1p6_mol3.chk"
 Charge =  0 Multiplicity = 1

                         Standard orientation:
 ---------------------------------------------------------------------
 Center     Atomic      Atomic             Coordinates (Angstroms)
 Number     Number       Type             X           Y           Z
 ---------------------------------------------------------------------
      1          7           0        0.000000    0.114121   -0.000000
      2          1           0       -0.938082   -0.268672   -0.000000
      3          1           0        0.469041   -0.265089    0.813484
      4          1           0        0.469041   -0.265089   -0.813484
 ---------------------------------------------------------------------

 SCF Done:  E(RHF) =  -56.2678493264     A.U. after    2 cycles

 The electronic state is 1-A'.
 Alpha  occ. eigenvalues --  -15.48702  -1.14490  -0.66475  -0.66406  -0.47086
 Alpha virt. eigenvalues --    0.03111   0.06341   0.06343   0.15578   0.18733
 Alpha virt. eigenvalues --    0.20631   0.20636   0.28307   0.28325   0.33119
 Alpha virt. eigenvalues --    0.33666   0.33687   0.46716   0.52628   0.53013

 Mulliken charges:
               1
     1  N   -0.089727
     2  H    0.030198
     3  H    0.029764
     4  H    0.029764
 Sum of Mulliken charges =   0.00000

 Dipole moment (field-independent basis, Debye):
    X=              0.0017    Y=             -1.6819    Z=             -0.0000  Tot=              1.6819

 Test job not archived.
 1\1\GINC-SE452\SP\RHF\Aug-CC-pVDZ\H3N1\OHZDE\08-Apr-2025\0\\#t hf aug-
 cc-pvdz iop(5/13=1,5/36=2,99/5=2) pseudo=read geom=check guess=(read,t
 check) scf=(maxcycle=1)\\title\\0,1\N,0,0.,0.01433452,1.42270441\H,0,0
 .,-0.98107799,1.61160592\H,0,-0.81348351,0.39873834,1.88749862\H,0,0.8
 1348351,0.39873834,1.88749862\\Version=ES64L-G16RevC.01\State=1-A'\HF=
 -56.2678493\RMSD=9.979e-03\Dipole=0.,-0.1307399,0.6486588\Quadrupole=0
 .7605035,0.6665064,-1.4270099,0.,0.,0.4352284\PG=CS [SG(H1N1),X(H2)]\\
 @

 Normal termination of Gaussian 16 at Tue Apr  8 19:08:45 2025.
