 Gaussian 16, Revision C.01,

 ----------------------------------------------------------------------
 #t hf aug-cc-pvdz symm=none int=(grid=ultrafine) guess=(read,tcheck) s
 table=(opt,rrhf)
 ----------------------------------------------------------------------
 -----
 title
 -----
 Symbolic Z-matrix:
 Charge =  0 Multiplicity = 1

 SCF Done:  E(RHF) =  -119.436134704     A.U. after   10 cycles
 Normal termination of Gaussian 16 at Tue Apr  8 19:12:52 2025.
 Gaussian 16:  ES64L-G16RevC.01  3-Jul-2019

 ----------------------------------------------------------------------
 #t hf aug-cc-pvdz iop(5/13=1,5/36=2,99/5=2) pseudo=read geom=check gue
 ss=(read,tcheck) scf=(maxcycle=1)
 ----------------------------------------------------------------------
 -----
 title
 -----
 Structure from the checkpoint file:  "A21x12_17_methane-ethane_1p0_mol1.chk"
 Charge =  0 Multiplicity = 1

                         Standard orientation:
 ---------------------------------------------------------------------
 Center     Atomic      Atomic             Coordinates (Angstroms)
 Number     Number       Type             X           Y           Z
 ---------------------------------------------------------------------
      1          1           0       -1.898493   -0.461760   -0.888281
      2          6           0       -2.386234   -0.064525   -0.000001
      3          1           0       -3.434949   -0.355154   -0.000001
      4          1           0       -2.308839    1.020970    0.000001
      5          1           0       -1.898493   -0.461762    0.888289
      6          1           0        0.589321    1.064425   -0.880429
      7          1           0        2.060832   -0.992978   -0.881002
      8          6           0        1.169149    0.783063    0.000000
      9          6           0        1.481993   -0.711387   -0.000002
     10          1           0        2.084431    1.377029    0.000001
     11          1           0        0.566582   -1.305123   -0.000002
     12          1           0        0.589321    1.064423    0.880431
     13          1           0        2.060832   -0.992980    0.881008
 ---------------------------------------------------------------------

 SCF Done:  E(RHF) =  -119.580549542     A.U. after    2 cycles

 The electronic state is 1-A.
 Alpha  occ. eigenvalues --  -11.22080 -11.22046 -11.21896  -1.02049  -0.94649
 Alpha  occ. eigenvalues --   -0.84243  -0.60364  -0.60212  -0.55097  -0.55044
 Alpha  occ. eigenvalues --   -0.54970  -0.51861  -0.49172  -0.49162
 Alpha virt. eigenvalues --    0.03865   0.04096   0.04297   0.04434   0.06462
 Alpha virt. eigenvalues --    0.07304   0.07892   0.08460   0.08733   0.10150
 Alpha virt. eigenvalues --    0.13822   0.15111   0.15119   0.15808   0.16321

 Mulliken charges:
               1
     1  H    0.101185
     2  C   -0.305787
     3  H    0.013694
     4  H    0.093271
     5  H    0.101204
     6  H    0.172037
     7  H    0.137622
     8  C   -0.412879
     9  C   -0.400448
    10  H    0.069393
    11  H    0.121031
    12  H    0.172037
    13  H    0.137640
 Sum of Mulliken charges =  -0.00000

 Dipole moment (field-independent basis, Debye):
    X=             -0.0202    Y=              0.0099    Z=             -0.0000  Tot=              0.0225

 Test job not archived.
 1\1\GINC-SE368\SP\RHF\Aug-CC-pVDZ\C3H10\OHZDE\08-Apr-2025\0\\#t hf aug
 -cc-pvdz iop(5/13=1,5/36=2,99/5=2) pseudo=read geom=check guess=(read,
 tcheck) scf=(maxcycle=1)\\title\\0,1\H,0,-0.88828048,-0.4464609,1.3685
 7287\C,0,-0.00000048,-0.0488809,1.85603287\H,0,-0.00000048,-0.3387709,
 2.90495288\H,0,-0.00000048,1.0365591,1.77787287\H,0,0.88828952,-0.4464
 609,1.36857287\H,0,-0.88043048,1.0779691,-1.12031712\H,0,-0.88100048,-
 0.9804709,-2.59037712\C,0,-0.00000048,0.7961991,-1.69994713\C,0,-0.000
 00048,-0.6984709,-2.01173712\H,0,-0.00000048,1.3895191,-2.61564713\H,0

 Normal termination of Gaussian 16 at Tue Apr  8 19:12:54 2025.
