 Gaussian 16, Revision C.01,

 ----------------------------------------------------------------------
 #t hf aug-cc-pvdz symm=none int=(grid=ultrafine) guess=(read,tcheck) s
 table=(opt,rrhf)
 ----------------------------------------------------------------------
 -----
 title
 -----
 Symbolic Z-matrix:
 Charge =  0 Multiplicity = 1

 SCF Done:  E(RHF) =  -76.0409017379     A.U. after   10 cycles
 Normal termination of Gaussian 16 at Tue Apr  8 19:08:44 2025.
 Gaussian 16:  ES64L-G16RevC.01  3-Jul-2019

 ----------------------------------------------------------------------
 #t hf aug-cc-pvdz iop(5/13=1,5/36=2,99/5=2) pseudo=read geom=check gue
 ss=(read,tcheck) scf=(maxcycle=1)
 ----------------------------------------------------------------------
 -----
 title
 -----
 Structure from the checkpoint file:  "A21x12_01_water-ammonia_1p5_mol2.chk"
 Charge =  0 Multiplicity = 1

                         Standard orientation:
 ---------------------------------------------------------------------
 Center     Atomic      Atomic             Coordinates (Angstroms)
 Number     Number       Type             X           Y           Z
 ---------------------------------------------------------------------
      1          8           0       -0.000000    0.117417   -0.000000
      2          1           0        0.764421   -0.459264   -0.000000
      3          1           0       -0.764421   -0.480073    0.000000
 ---------------------------------------------------------------------

 SCF Done:  E(RHF) =  -76.1195012502     A.U. after    2 cycles

 The electronic state is 1-A'.
 Alpha  occ. eigenvalues --  -20.56014  -1.43789  -0.71016  -0.57782  -0.49928
 Alpha virt. eigenvalues --    0.03664   0.05679   0.17350   0.19653   0.22653
 Alpha virt. eigenvalues --    0.23010   0.28976   0.32931   0.38422   0.40308
 Alpha virt. eigenvalues --    0.43211   0.53665   0.64237   0.65587   0.81617

 Mulliken charges:
               1
     1  O   -0.735373
     2  H    0.363780
     3  H    0.371593
 Sum of Mulliken charges =  -0.00000

 Dipole moment (field-independent basis, Debye):
    X=              0.0060    Y=             -1.9584    Z=              0.0000  Tot=              1.9585

 Test job not archived.
 1\1\GINC-SE342\SP\RHF\Aug-CC-pVDZ\H2O1\OHZDE\08-Apr-2025\0\\#t hf aug-
 cc-pvdz iop(5/13=1,5/36=2,99/5=2) pseudo=read geom=check guess=(read,t
 check) scf=(maxcycle=1)\\title\\0,1\O,0,0.,-0.05789513,-1.5216349\H,0,
 0.,0.82290442,-1.89725661\H,0,0.,0.07946625,-0.5611844\\Version=ES64L-
 G16RevC.01\State=1-A'\HF=-76.1195013\RMSD=7.928e-03\Dipole=0.,0.669303
 7,0.3817387\Quadrupole=-1.1753826,0.1839181,0.9914645,0.,0.,-0.6399527
 \PG=CS [SG(H2O1)]\\@

 Normal termination of Gaussian 16 at Tue Apr  8 19:08:45 2025.
