 Gaussian 16, Revision C.01,

 ----------------------------------------------------------------------
 #t hf aug-cc-pvdz symm=none int=(grid=ultrafine) guess=(read,tcheck) s
 table=(opt,rrhf)
 ----------------------------------------------------------------------
 -----
 title
 -----
 Symbolic Z-matrix:
 Charge =  0 Multiplicity = 1

 SCF Done:  E(RHF) =  -79.2372769594     A.U. after    9 cycles
 Normal termination of Gaussian 16 at Tue Apr  8 19:12:47 2025.
 Gaussian 16:  ES64L-G16RevC.01  3-Jul-2019

 ----------------------------------------------------------------------
 #t hf aug-cc-pvdz iop(5/13=1,5/36=2,99/5=2) pseudo=read geom=check gue
 ss=(read,tcheck) scf=(maxcycle=1)
 ----------------------------------------------------------------------
 -----
 title
 -----
 Structure from the checkpoint file:  "A21x12_17_methane-ethane_0p9_mol3.chk"
 Charge =  0 Multiplicity = 1

                         Standard orientation:
 ---------------------------------------------------------------------
 Center     Atomic      Atomic             Coordinates (Angstroms)
 Number     Number       Type             X           Y           Z
 ---------------------------------------------------------------------
      1          1           0        1.157764    0.510126   -0.880012
      2          1           0       -1.157808   -0.507901   -0.881418
      3          6           0        0.763410   -0.000352   -0.000000
      4          6           0       -0.763433    0.000117   -0.000001
      5          1           0        1.156925   -1.018036   -0.000833
      6          1           0       -1.156696    1.017881    0.000832
      7          1           0        1.157762    0.508683    0.880848
      8          1           0       -1.157809   -0.509345    0.880591
 ---------------------------------------------------------------------

 SCF Done:  E(RHF) =  -79.3322024468     A.U. after    2 cycles

 The electronic state is 1-A.
 Alpha  occ. eigenvalues --  -11.22179 -11.22152  -1.02086  -0.84318  -0.60297
 Alpha  occ. eigenvalues --   -0.60265  -0.51952  -0.49273  -0.49242
 Alpha virt. eigenvalues --    0.04014   0.04570   0.04838   0.04840   0.08175
 Alpha virt. eigenvalues --    0.08177   0.12527   0.14296   0.14299   0.15219
 Alpha virt. eigenvalues --    0.16975   0.17771   0.17773   0.20396   0.29329

 Mulliken charges:
               1
     1  H    0.138399
     2  H    0.138573
     3  C   -0.415701
     4  C   -0.415739
     5  H    0.138863
     6  H    0.138617
     7  H    0.138400
     8  H    0.138588
 Sum of Mulliken charges =  -0.00000

 Dipole moment (field-independent basis, Debye):
    X=              0.0000    Y=              0.0006    Z=             -0.0000  Tot=              0.0006

 Test job not archived.
 1\1\GINC-SE332\SP\RHF\Aug-CC-pVDZ\C2H6\OHZDE\08-Apr-2025\0\\#t hf aug-
 cc-pvdz iop(5/13=1,5/36=2,99/5=2) pseudo=read geom=check guess=(read,t
 check) scf=(maxcycle=1)\\title\\0,1\H,0,-0.88043048,1.0779691,-1.12031
 712\H,0,-0.88100048,-0.9804709,-2.59037712\C,0,-0.00000048,0.7961991,-
 1.69994713\C,0,-0.00000048,-0.6984709,-2.01173712\H,0,-0.00000048,1.38
 95191,-2.61564713\H,0,-0.00000048,-1.2915609,-1.09590713\H,0,0.8804295
 2,1.0779691,-1.12031712\H,0,0.88100952,-0.9804709,-2.59037712\\Version
 =ES64L-G16RevC.01\State=1-A\HF=-79.3322024\RMSD=7.792e-03\Dipole=-0.00

 Normal termination of Gaussian 16 at Tue Apr  8 19:12:48 2025.
