 Gaussian 16, Revision C.01,

 ----------------------------------------------------------------------
 #t hf aug-cc-pvdz symm=none int=(grid=ultrafine) guess=(read,tcheck) s
 table=(opt,rrhf)
 ----------------------------------------------------------------------
 -----
 title
 -----
 Symbolic Z-matrix:
 Charge =  0 Multiplicity = 1

 SCF Done:  E(RHF) =  -119.436950875     A.U. after   10 cycles
 Normal termination of Gaussian 16 at Tue Apr  8 19:12:53 2025.
 Gaussian 16:  ES64L-G16RevC.01  3-Jul-2019

 ----------------------------------------------------------------------
 #t hf aug-cc-pvdz iop(5/13=1,5/36=2,99/5=2) pseudo=read geom=check gue
 ss=(read,tcheck) scf=(maxcycle=1)
 ----------------------------------------------------------------------
 -----
 title
 -----
 Structure from the checkpoint file:  "A21x12_17_methane-ethane_1p2_mol1.chk"
 Charge =  0 Multiplicity = 1

                         Standard orientation:
 ---------------------------------------------------------------------
 Center     Atomic      Atomic             Coordinates (Angstroms)
 Number     Number       Type             X           Y           Z
 ---------------------------------------------------------------------
      1          1           0       -2.379876   -0.453166   -0.888281
      2          6           0       -2.864006   -0.051538   -0.000001
      3          1           0       -3.915305   -0.332676   -0.000001
      4          1           0       -2.776803    1.033213    0.000001
      5          1           0       -2.379876   -0.453168    0.888289
      6          1           0        0.864078    1.063825   -0.880429
      7          1           0        2.316932   -1.006795   -0.881002
      8          6           0        1.441339    0.777233    0.000000
      9          6           0        1.740662   -0.719984   -0.000002
     10          1           0        2.361952    1.362901    0.000001
     11          1           0        0.819921   -1.305421   -0.000002
     12          1           0        0.864077    1.063822    0.880431
     13          1           0        2.316931   -1.006798    0.881008
 ---------------------------------------------------------------------

 SCF Done:  E(RHF) =  -119.581641883     A.U. after    2 cycles

 The electronic state is 1-A.
 Alpha  occ. eigenvalues --  -11.22140 -11.22109 -11.21948  -1.02065  -0.94653
 Alpha  occ. eigenvalues --   -0.84274  -0.60282  -0.60225  -0.55106  -0.55053
 Alpha  occ. eigenvalues --   -0.55048  -0.51918  -0.49229  -0.49204
 Alpha virt. eigenvalues --    0.03775   0.04162   0.04319   0.04484   0.06166
 Alpha virt. eigenvalues --    0.07151   0.07563   0.08606   0.08686   0.09865
 Alpha virt. eigenvalues --    0.13456   0.14558   0.14681   0.15698   0.15906

 Mulliken charges:
               1
     1  H    0.084129
     2  C   -0.315875
     3  H    0.046083
     4  H    0.097941
     5  H    0.084147
     6  H    0.161866
     7  H    0.136103
     8  C   -0.430107
     9  C   -0.400972
    10  H    0.114933
    11  H    0.123769
    12  H    0.161866
    13  H    0.136119
 Sum of Mulliken charges =   0.00000

 Dipole moment (field-independent basis, Debye):
    X=             -0.0097    Y=              0.0057    Z=             -0.0000  Tot=              0.0113

 Test job not archived.
 1\1\GINC-SE078\SP\RHF\Aug-CC-pVDZ\C3H10\OHZDE\08-Apr-2025\0\\#t hf aug
 -cc-pvdz iop(5/13=1,5/36=2,99/5=2) pseudo=read geom=check guess=(read,
 tcheck) scf=(maxcycle=1)\\title\\0,1\H,0,-0.88828045,-0.45623218,1.739
 72715\C,0,-0.00000045,-0.05865218,2.22718715\H,0,-0.00000045,-0.348542
 18,3.27610715\H,0,-0.00000045,1.02678782,2.14902715\H,0,0.88828955,-0.
 45623218,1.73972715\H,0,-0.88043051,1.08774038,-1.4914714\H,0,-0.88100
 051,-0.97069962,-2.9615314\C,0,-0.00000051,0.80597038,-2.0711014\C,0,-
 0.00000051,-0.68869962,-2.3828914\H,0,-0.00000051,1.39929038,-2.986801

 Normal termination of Gaussian 16 at Tue Apr  8 19:12:55 2025.
