 Gaussian 16, Revision C.01,

 ----------------------------------------------------------------------
 #t hf aug-cc-pvdz symm=none int=(grid=ultrafine) guess=(read,tcheck) s
 table=(opt,rrhf)
 ----------------------------------------------------------------------
 -----
 title
 -----
 Symbolic Z-matrix:
 Charge =  0 Multiplicity = 1

 SCF Done:  E(RHF) =  -154.082686470     A.U. after   11 cycles
 Normal termination of Gaussian 16 at Tue Apr  8 19:10:52 2025.
 Gaussian 16:  ES64L-G16RevC.01  3-Jul-2019

 ----------------------------------------------------------------------
 #t hf aug-cc-pvdz iop(5/13=1,5/36=2,99/5=2) pseudo=read geom=check gue
 ss=(read,tcheck) scf=(maxcycle=1)
 ----------------------------------------------------------------------
 -----
 title
 -----
 Structure from the checkpoint file:  "A21x12_10_water-ethene_0p9_mol1.chk"
 Charge =  0 Multiplicity = 1

                         Standard orientation:
 ---------------------------------------------------------------------
 Center     Atomic      Atomic             Coordinates (Angstroms)
 Number     Number       Type             X           Y           Z
 ---------------------------------------------------------------------
      1          6           0       -0.041000   -1.140638    0.668062
      2          6           0       -0.041000   -1.140638   -0.668062
      3          1           0       -0.894921   -0.786584   -1.232679
      4          1           0        0.811510   -1.497781   -1.232585
      5          1           0        0.811510   -1.497781    1.232585
      6          1           0       -0.894921   -0.786584    1.232679
      7          1           0        0.804716    2.324893   -0.000000
      8          8           0       -0.041000    1.874084   -0.000000
      9          1           0        0.182114    0.938812   -0.000000
 ---------------------------------------------------------------------

 SCF Done:  E(RHF) =  -154.248863304     A.U. after    2 cycles

 The electronic state is 1-A'.
 Alpha  occ. eigenvalues --  -20.53653 -11.25614 -11.25478  -1.42198  -1.05352
 Alpha  occ. eigenvalues --   -0.80993  -0.69946  -0.66314  -0.61365  -0.56353
 Alpha  occ. eigenvalues --   -0.52802  -0.47997  -0.40005
 Alpha virt. eigenvalues --    0.03546   0.04482   0.05006   0.05271   0.06995
 Alpha virt. eigenvalues --    0.09452   0.10327   0.12347   0.14251   0.14424
 Alpha virt. eigenvalues --    0.17033   0.17465   0.18534   0.20150   0.20181

 Mulliken charges:
               1
     1  C    0.039874
     2  C    0.039874
     3  H   -0.044892
     4  H   -0.043092
     5  H   -0.043092
     6  H   -0.044892
     7  H    0.290293
     8  O   -0.859029
     9  H    0.664956
 Sum of Mulliken charges =   0.00000

 Dipole moment (field-independent basis, Debye):
    X=              1.6422    Y=             -1.2887    Z=             -0.0000  Tot=              2.0875

 Test job not archived.
 1\1\GINC-SE100\SP\RHF\Aug-CC-pVDZ\C2H6O1\OHZDE\08-Apr-2025\0\\#t hf au
 g-cc-pvdz iop(5/13=1,5/36=2,99/5=2) pseudo=read geom=check guess=(read
 ,tcheck) scf=(maxcycle=1)\\title\\0,1\C,0,0.01220325,-0.66806246,1.493
 9437\C,0,0.01220325,0.66806246,1.4939437\H,0,0.87024716,1.23267933,1.1
 5000376\H,0,-0.84446785,1.23258495,1.84098946\H,0,-0.84446785,-1.23258
 495,1.84098946\H,0,0.87024716,-1.23267933,1.15000376\H,0,-0.7925075,0.
 ,-1.98133766\O,0,0.04782322,0.,-1.52056782\H,0,-0.18632669,0.,-0.58799
 672\\Version=ES64L-G16RevC.01\State=1-A'\HF=-154.2488633\RMSD=9.057e-0

 Normal termination of Gaussian 16 at Tue Apr  8 19:10:54 2025.
