 Gaussian 16, Revision C.01,

 ----------------------------------------------------------------------
 #t hf aug-cc-pvdz symm=none int=(grid=ultrafine) guess=(read,tcheck) s
 table=(opt,rrhf)
 ----------------------------------------------------------------------
 -----
 title
 -----
 Symbolic Z-matrix:
 Charge =  0 Multiplicity = 1

 SCF Done:  E(RHF) =  -152.085463667     A.U. after   10 cycles
 Normal termination of Gaussian 16 at Tue Apr  8 19:09:47 2025.
 Gaussian 16:  ES64L-G16RevC.01  3-Jul-2019

 ----------------------------------------------------------------------
 #t hf aug-cc-pvdz iop(5/13=1,5/36=2,99/5=2) pseudo=read geom=check gue
 ss=(read,tcheck) scf=(maxcycle=1)
 ----------------------------------------------------------------------
 -----
 title
 -----
 Structure from the checkpoint file:  "A21x12_02_water-dimer_1p4_mol1.chk"
 Charge =  0 Multiplicity = 1

                         Standard orientation:
 ---------------------------------------------------------------------
 Center     Atomic      Atomic             Coordinates (Angstroms)
 Number     Number       Type             X           Y           Z
 ---------------------------------------------------------------------
      1          8           0       -0.001820    2.108523    0.000000
      2          1           0        0.892912    2.450128    0.000000
      3          1           0        0.101823    1.149282    0.000000
      4          8           0       -0.001820   -1.980136   -0.000000
      5          1           0       -0.482812   -2.313256    0.760178
      6          1           0       -0.482812   -2.313256   -0.760178
 ---------------------------------------------------------------------

 SCF Done:  E(RHF) =  -152.242828057     A.U. after    2 cycles

 The electronic state is 1-A'.
 Alpha  occ. eigenvalues --  -20.56989 -20.54813  -1.45087  -1.42799  -0.72261
 Alpha  occ. eigenvalues --   -0.69956  -0.59055  -0.56782  -0.51065  -0.48846
 Alpha virt. eigenvalues --    0.03167   0.05049   0.05449   0.08540   0.16339
 Alpha virt. eigenvalues --    0.18090   0.20188   0.21705   0.22558   0.23446
 Alpha virt. eigenvalues --    0.24643   0.25803   0.28690   0.31310   0.34145

 Mulliken charges:
               1
     1  O   -0.753526
     2  H    0.353229
     3  H    0.392841
     4  O   -0.768197
     5  H    0.387827
     6  H    0.387827
 Sum of Mulliken charges =   0.00000

 Dipole moment (field-independent basis, Debye):
    X=              0.0447    Y=             -2.3013    Z=             -0.0000  Tot=              2.3017

 Test job not archived.
 1\1\GINC-SE128\SP\RHF\Aug-CC-pVDZ\H4O2\OHZDE\08-Apr-2025\0\\#t hf aug-
 cc-pvdz iop(5/13=1,5/36=2,99/5=2) pseudo=read geom=check guess=(read,t
 check) scf=(maxcycle=1)\\title\\0,1\O,0,-0.07100024,0.,2.0790391\H,0,0
 .81173317,0.,2.45055075\H,0,0.064854,0.,1.12382713\O,0,0.06654819,0.,-
 2.00730585\H,0,-0.40296496,-0.76017841,-2.35641827\H,0,-0.40296496,0.7
 6017841,-2.35641827\\Version=ES64L-G16RevC.01\State=1-A'\HF=-152.24282
 81\RMSD=5.845e-03\Dipole=0.0480453,0.,-0.9042993\Quadrupole=-0.4300244
 ,-0.0751542,0.5051786,0.,6.1675509,0.\PG=CS [SG(H2O2),X(H2)]\\@

 Normal termination of Gaussian 16 at Tue Apr  8 19:09:48 2025.
