 Gaussian 16, Revision C.01,

 ----------------------------------------------------------------------
 #t hf aug-cc-pvdz symm=none int=(grid=ultrafine) guess=(read,tcheck) s
 table=(opt,rrhf)
 ----------------------------------------------------------------------
 -----
 title
 -----
 Symbolic Z-matrix:
 Charge =  0 Multiplicity = 1

 SCF Done:  E(RHF) =  -119.433619936     A.U. after   10 cycles
 Normal termination of Gaussian 16 at Tue Apr  8 19:12:58 2025.
 Gaussian 16:  ES64L-G16RevC.01  3-Jul-2019

 ----------------------------------------------------------------------
 #t hf aug-cc-pvdz iop(5/13=1,5/36=2,99/5=2) pseudo=read geom=check gue
 ss=(read,tcheck) scf=(maxcycle=1)
 ----------------------------------------------------------------------
 -----
 title
 -----
 Structure from the checkpoint file:  "A21x12_18_methane-ethane_0p9_mol1.chk"
 Charge =  0 Multiplicity = 1

                         Standard orientation:
 ---------------------------------------------------------------------
 Center     Atomic      Atomic             Coordinates (Angstroms)
 Number     Number       Type             X           Y           Z
 ---------------------------------------------------------------------
      1          6           0       -2.535896    0.000001    0.000000
      2          1           0       -2.171497   -0.197909    1.006159
      3          1           0       -2.171497   -0.772409   -0.674472
      4          1           0       -2.171496    0.970319   -0.331687
      5          1           0       -3.624136    0.000001    0.000000
      6          6           0        0.645386   -0.000000    0.000000
      7          6           0        2.172176   -0.000000    0.000000
      8          1           0        0.249676    0.764810    0.670181
      9          1           0        0.249676    0.197986   -0.997442
     10          1           0        0.249676   -0.962807    0.327254
     11          1           0        2.566536    0.963199   -0.327332
     12          1           0        2.566536   -0.198115    0.997815
     13          1           0        2.566536   -0.765076   -0.670484
 ---------------------------------------------------------------------

 SCF Done:  E(RHF) =  -119.577900079     A.U. after    2 cycles

 The electronic state is 1-A.
 Alpha  occ. eigenvalues --  -11.22027 -11.21953 -11.21638  -1.02031  -0.94496
 Alpha  occ. eigenvalues --   -0.84230  -0.60221  -0.60221  -0.55426  -0.54915
 Alpha  occ. eigenvalues --   -0.54915  -0.51296  -0.49087  -0.49086
 Alpha virt. eigenvalues --    0.03746   0.03929   0.04455   0.04455   0.06144
 Alpha virt. eigenvalues --    0.07425   0.07425   0.08845   0.08845   0.09676
 Alpha virt. eigenvalues --    0.14683   0.14683   0.14747   0.16114   0.16906

 Mulliken charges:
               1
     1  C   -0.269477
     2  H    0.105638
     3  H    0.105643
     4  H    0.105651
     5  H   -0.013076
     6  C   -0.294735
     7  C   -0.585207
     8  H    0.118675
     9  H    0.118687
    10  H    0.118691
    11  H    0.163178
    12  H    0.163163
    13  H    0.163169
 Sum of Mulliken charges =  -0.00000

 Dipole moment (field-independent basis, Debye):
    X=             -0.0088    Y=             -0.0000    Z=              0.0000  Tot=              0.0088

 Test job not archived.
 1\1\GINC-SE054\SP\RHF\Aug-CC-pVDZ\C3H10\OHZDE\08-Apr-2025\0\\#t hf aug
 -cc-pvdz iop(5/13=1,5/36=2,99/5=2) pseudo=read geom=check guess=(read,
 tcheck) scf=(maxcycle=1)\\title\\0,1\C,0,0.,-0.00000015,-1.97242662\H,
 0,0.39305,-0.94712015,-1.60802662\H,0,0.62371,0.81394985,-1.60802662\H
 ,0,-1.01676,0.13316985,-1.60802662\H,0,0.,-0.00000015,-3.06066662\C,0,
 0.,-0.00000018,1.20885565\C,0,0.,-0.00000018,2.73564565\H,0,-0.61711,-
 0.80824018,0.81314565\H,0,-0.3914,0.93855982,0.81314565\H,0,1.00852,-0
 .13031018,0.81314565\H,0,-1.00892,0.13030982,3.13000565\H,0,0.3916,-0.

 Normal termination of Gaussian 16 at Tue Apr  8 19:13:00 2025.
