 Gaussian 16, Revision C.01,

 ----------------------------------------------------------------------
 #t hf aug-cc-pvdz symm=none int=(grid=ultrafine) guess=(read,tcheck) s
 table=(opt,rrhf)
 ----------------------------------------------------------------------
 -----
 title
 -----
 Symbolic Z-matrix:
 Charge =  0 Multiplicity = 1

 SCF Done:  E(RHF) =  -92.8872811830     A.U. after   10 cycles
 Normal termination of Gaussian 16 at Tue Apr  8 19:09:45 2025.
 Gaussian 16:  ES64L-G16RevC.01  3-Jul-2019

 ----------------------------------------------------------------------
 #t hf aug-cc-pvdz iop(5/13=1,5/36=2,99/5=2) pseudo=read geom=check gue
 ss=(read,tcheck) scf=(maxcycle=1)
 ----------------------------------------------------------------------
 -----
 title
 -----
 Structure from the checkpoint file:  "A21x12_03_HCN-dimer_0p9_mol2.chk"
 Charge =  0 Multiplicity = 1

                         Standard orientation:
 ---------------------------------------------------------------------
 Center     Atomic      Atomic             Coordinates (Angstroms)
 Number     Number       Type             X           Y           Z
 ---------------------------------------------------------------------
      1          1           0        0.000000    0.000000   -1.569873
      2          6           0        0.000000    0.000000   -0.501159
      3          7           0        0.000000    0.000000    0.653833
 ---------------------------------------------------------------------

 SCF Done:  E(RHF) =  -92.9762186369     A.U. after    2 cycles

 The electronic state is 1-SG.
 Alpha  occ. eigenvalues --  -15.54323 -11.30381  -1.25067  -0.81963  -0.62895
 Alpha  occ. eigenvalues --   -0.53085  -0.53085
 Alpha virt. eigenvalues --    0.02962   0.07885   0.07993   0.07993   0.15669
 Alpha virt. eigenvalues --    0.15677   0.15677   0.17854   0.23363   0.23363
 Alpha virt. eigenvalues --    0.26255   0.33295   0.41105   0.41105   0.42709

 Mulliken charges:
               1
     1  H    0.153503
     2  C   -0.639049
     3  N    0.485546
 Sum of Mulliken charges =   0.00000

 Dipole moment (field-independent basis, Debye):
    X=             -0.0000    Y=              0.0000    Z=             -3.7935  Tot=              3.7935

 Test job not archived.
 1\1\GINC-SE335\SP\RHF\Aug-CC-pVDZ\C1H1N1\OHZDE\08-Apr-2025\0\\#t hf au
 g-cc-pvdz iop(5/13=1,5/36=2,99/5=2) pseudo=read geom=check guess=(read
 ,tcheck) scf=(maxcycle=1)\\title\\0,1\H,0,0.,0.,3.85536651\C,0,0.,0.,2
 .78665321\N,0,0.,0.,1.63166136\\Version=ES64L-G16RevC.01\State=1-SG\HF
 =-92.9762186\RMSD=2.308e-02\Dipole=0.,0.,1.4924964\Quadrupole=-0.63268
 81,-0.6326881,1.2653762,0.,0.,0.\PG=C*V [C*(H1C1N1)]\\@

 Normal termination of Gaussian 16 at Tue Apr  8 19:09:46 2025.
