 Gaussian 16, Revision C.01,

 ----------------------------------------------------------------------
 #t hf aug-cc-pvdz symm=none int=(grid=ultrafine) guess=(read,tcheck) s
 table=(opt,rrhf)
 ----------------------------------------------------------------------
 -----
 title
 -----
 Symbolic Z-matrix:
 Charge =  0 Multiplicity = 1

 SCF Done:  E(RHF) =  -392.672322933     A.U. after   15 cycles
 Normal termination of Gaussian 16 at Tue Apr  8 19:14:20 2025.
 Gaussian 16:  ES64L-G16RevC.01  3-Jul-2019

 ----------------------------------------------------------------------
 #t hf aug-cc-pvdz iop(5/13=1,5/36=2,99/5=2) pseudo=read geom=check gue
 ss=(read,tcheck) scf=(maxcycle=1)
 ----------------------------------------------------------------------
 -----
 title
 -----
 Structure from the checkpoint file:  "ACHC_11_dimer_mol3.chk"
 Charge =  0 Multiplicity = 1

                         Standard orientation:
 ---------------------------------------------------------------------
 Center     Atomic      Atomic             Coordinates (Angstroms)
 Number     Number       Type             X           Y           Z
 ---------------------------------------------------------------------
      1          7           0        1.294824    0.886872    0.000058
      2          6           0        1.177404   -0.517190    0.000004
      3          7           0       -0.074111   -1.043763   -0.000035
      4          6           0       -1.156699   -0.250615   -0.000029
      5          6           0       -1.043194    1.190704    0.000023
      6          6           0        0.210909    1.712726    0.000063
      7          1           0        2.238384    1.251428    0.000092
      8          8           0        2.215145   -1.192644   -0.000009
      9          7           0       -2.356326   -0.840689   -0.000071
     10          1           0       -2.437958   -1.880038   -0.000129
     11          1           0       -3.191610   -0.276335   -0.000072
     12          1           0       -1.920715    1.831706    0.000032
     13          1           0        0.409506    2.783705    0.000106
 ---------------------------------------------------------------------

 SCF Done:  E(RHF) =  -393.064208196     A.U. after    2 cycles

 The electronic state is 1-A.
 Alpha  occ. eigenvalues --  -20.48065 -15.56144 -15.55113 -15.47805 -11.37010
 Alpha  occ. eigenvalues --  -11.36319 -11.34031 -11.25808  -1.42957  -1.30901
 Alpha  occ. eigenvalues --   -1.26984  -1.18058  -1.07580  -0.92723  -0.91270
 Alpha  occ. eigenvalues --   -0.80056  -0.79560  -0.76621  -0.71156  -0.64953
 Alpha  occ. eigenvalues --   -0.64081  -0.63440  -0.59635  -0.57803  -0.49872
 Alpha  occ. eigenvalues --   -0.46957  -0.41944  -0.41915  -0.35744
 Alpha virt. eigenvalues --    0.02030   0.02639   0.03667   0.05797   0.06713
 Alpha virt. eigenvalues --    0.07054   0.09495   0.09849   0.11104   0.11612
 Alpha virt. eigenvalues --    0.11911   0.12103   0.12404   0.12927   0.14899

 Mulliken charges:
               1
     1  N    0.523448
     2  C    0.600373
     3  N    0.850515
     4  C   -2.027284
     5  C    1.062579
     6  C   -0.397721
     7  H    0.146034
     8  O   -1.365107
     9  N    0.851066
    10  H    0.035999
    11  H    0.151321
    12  H   -0.245338
    13  H   -0.185886
 Sum of Mulliken charges =  -0.00000

 Dipole moment (field-independent basis, Debye):
    X=             -5.2373    Y=              5.6909    Z=              0.0001  Tot=              7.7340

 Test job not archived.
 1\1\GINC-SE120\SP\RHF\Aug-CC-pVDZ\C4H5N3O1\OHZDE\08-Apr-2025\0\\#t hf
 aug-cc-pvdz iop(5/13=1,5/36=2,99/5=2) pseudo=read geom=check guess=(re
 ad,tcheck) scf=(maxcycle=1)\\title\\0,1\N,0,-1.197258,0.989061,3.40005
 8\C,0,0.193037,1.217664,3.400004\N,0,1.008972,0.132391,3.399965\C,0,0.
 503844,-1.110962,3.399971\C,0,-0.921627,-1.352449,3.400023\C,0,-1.7337
 81,-0.263556,3.400063\H,0,-1.780954,1.8152,3.400092\O,0,0.594965,2.388
 816,3.399991\N,0,1.368706,-2.130425,3.399929\H,0,2.396574,-1.956075,3.
 399871\H,0,1.025139,-3.078136,3.399928\H,0,-1.329225,-2.359817,3.40003

 Normal termination of Gaussian 16 at Tue Apr  8 19:14:24 2025.
