 Gaussian 16, Revision C.01,

 ----------------------------------------------------------------------
 #t hf aug-cc-pvdz symm=none int=(grid=ultrafine) guess=(read,tcheck) s
 table=(opt,rrhf)
 ----------------------------------------------------------------------
 -----
 title
 -----
 Symbolic Z-matrix:
 Charge =  0 Multiplicity = 1

 SCF Done:  E(RHF) =  -857.250969366     A.U. after   16 cycles
 Normal termination of Gaussian 16 at Tue Apr  8 19:26:13 2025.
 Gaussian 16:  ES64L-G16RevC.01  3-Jul-2019

 ----------------------------------------------------------------------
 #t hf aug-cc-pvdz iop(5/13=1,5/36=2,99/5=2) pseudo=read geom=check gue
 ss=(read,tcheck) scf=(maxcycle=1)
 ----------------------------------------------------------------------
 -----
 title
 -----
 Structure from the checkpoint file:  "ACHC_23_dimer_mol1.chk"
 Charge =  0 Multiplicity = 1

                         Standard orientation:
 ---------------------------------------------------------------------
 Center     Atomic      Atomic             Coordinates (Angstroms)
 Number     Number       Type             X           Y           Z
 ---------------------------------------------------------------------
      1          7           0        2.977468    0.314808   -0.943983
      2          6           0        2.654789    1.547062   -0.502016
      3          7           0        1.792535    1.869623    0.462873
      4          6           0        1.227602    0.775390    1.000000
      5          6           0        1.463222   -0.558080    0.645652
      6          6           0        2.399275   -0.776294   -0.392178
      7          7           0        0.703323   -1.426042    1.412100
      8          6           0        0.023697   -0.636940    2.211564
      9          7           0        0.296062    0.703701    2.011823
     10          1           0        3.173025    2.363089   -1.008410
     11          7           0        2.731623   -1.997655   -0.843944
     12          1           0        2.292863   -2.802700   -0.423589
     13          1           0        3.415994   -2.105287   -1.599084
     14          1           0       -0.686804   -0.965955    2.963322
     15          1           0       -0.102775    1.490490    2.504573
     16          7           0       -2.752462   -1.055343    0.171795
     17          6           0       -1.809403   -1.185038   -0.866954
     18          7           0       -1.270125   -0.046226   -1.372773
     19          6           0       -1.626251    1.156901   -0.896599
     20          6           0       -2.593250    1.296950    0.169038
     21          6           0       -3.129930    0.154798    0.671776
     22          1           0       -3.137672   -1.919598    0.529404
     23          8           0       -1.523914   -2.323510   -1.261314
     24          7           0       -1.053111    2.233597   -1.443891
     25          1           0       -0.355817    2.132391   -2.212297
     26          1           0       -1.296516    3.153570   -1.111329
     27          1           0       -2.880665    2.271844    0.553616
     28          1           0       -3.866027    0.146502    1.474601
 ---------------------------------------------------------------------

 SCF Done:  E(RHF) =  -858.101246319     A.U. after    2 cycles

 The electronic state is 1-A.
 Alpha  occ. eigenvalues --  -20.47778 -15.56692 -15.56019 -15.54487 -15.51984
 Alpha  occ. eigenvalues --  -15.50344 -15.49151 -15.48075 -15.47506 -11.36710
 Alpha  occ. eigenvalues --  -11.35962 -11.33966 -11.33458 -11.32308 -11.31299
 Alpha  occ. eigenvalues --  -11.31092 -11.25797 -11.24824  -1.42685  -1.35508
 Alpha  occ. eigenvalues --   -1.30680  -1.28578  -1.26625  -1.23816  -1.18559
 Alpha  occ. eigenvalues --   -1.17644  -1.14894  -1.07462  -1.03805  -0.92425
 Alpha  occ. eigenvalues --   -0.91534  -0.90963  -0.89869  -0.86915  -0.81040
 Alpha  occ. eigenvalues --   -0.79692  -0.79366  -0.77070  -0.76220  -0.72480
 Alpha  occ. eigenvalues --   -0.71195  -0.70777  -0.66538  -0.66396  -0.64118
 Alpha  occ. eigenvalues --   -0.63963  -0.63528  -0.63343  -0.61990  -0.59363
 Alpha  occ. eigenvalues --   -0.58308  -0.57471  -0.53098  -0.52528  -0.49846
 Alpha  occ. eigenvalues --   -0.48400  -0.46664  -0.45688  -0.44427  -0.41639
 Alpha  occ. eigenvalues --   -0.41586  -0.40195  -0.35629  -0.32304
 Alpha virt. eigenvalues --    0.01545   0.02235   0.03160   0.03392   0.04788
 Alpha virt. eigenvalues --    0.05163   0.05569   0.06117   0.06666   0.07293
 Alpha virt. eigenvalues --    0.07843   0.08361   0.09003   0.09096   0.10406

 Mulliken charges:
               1
     1  N    1.641483
     2  C   -1.161318
     3  N    1.804204
     4  C   -2.102514
     5  C   -0.052156
     6  C   -3.077166
     7  N    1.534134
     8  C   -1.376389
     9  N    1.915769
    10  H   -0.211274
    11  N    1.232374
    12  H    0.200100
    13  H    0.015165
    14  H   -0.287115
    15  H   -0.161368
    16  N    1.105105
    17  C   -0.024303
    18  N    1.871468
    19  C   -3.385683
    20  C    1.469091
    21  C   -0.658025
    22  H    0.028916
    23  O   -1.391592
    24  N    1.505760
    25  H    0.017182
    26  H    0.102831
    27  H   -0.297158
    28  H   -0.257521
 Sum of Mulliken charges =  -0.00000

 Dipole moment (field-independent basis, Debye):
    X=             -4.3043    Y=              4.5662    Z=              4.7764  Tot=              7.8861

 Test job not archived.
 1\1\GINC-SE284\SP\RHF\Aug-CC-pVDZ\C9H10N8O1\OHZDE\08-Apr-2025\0\\#t hf
  aug-cc-pvdz iop(5/13=1,5/36=2,99/5=2) pseudo=read geom=check guess=(r
 ead,tcheck) scf=(maxcycle=1)\\title\\0,1\N,0,-0.214386,-1.993021,0.000
 158\C,0,-1.483458,-1.537649,0.000039\N,0,-1.896987,-0.269765,-0.000126
 \C,0,-0.859092,0.583332,-0.00013\C,0,0.502351,0.258224,0.000025\C,0,0.
 818987,-1.120415,0.000169\N,0,1.293025,1.395362,-0.000018\C,0,0.430884
 ,2.385528,-0.000191\N,0,-0.88463,1.960299,-0.000268\H,0,-2.247335,-2.3
 17004,0.000055\N,0,2.078153,-1.590279,0.000313\H,0,2.839337,-0.928535,

 Normal termination of Gaussian 16 at Tue Apr  8 19:26:52 2025.
