 Gaussian 16, Revision C.01,

 ----------------------------------------------------------------------
 #t hf aug-cc-pvdz symm=none int=(grid=ultrafine) guess=(read,tcheck) s
 table=(opt,rrhf)
 ----------------------------------------------------------------------
 -----
 title
 -----
 Symbolic Z-matrix:
 Charge =  0 Multiplicity = 1

 SCF Done:  E(RHF) =  -857.253680696     A.U. after   16 cycles
 Normal termination of Gaussian 16 at Tue Apr  8 19:27:57 2025.
 Gaussian 16:  ES64L-G16RevC.01  3-Jul-2019

 ----------------------------------------------------------------------
 #t hf aug-cc-pvdz iop(5/13=1,5/36=2,99/5=2) pseudo=read geom=check gue
 ss=(read,tcheck) scf=(maxcycle=1)
 ----------------------------------------------------------------------
 -----
 title
 -----
 Structure from the checkpoint file:  "ACHC_12_dimer_mol1.chk"
 Charge =  0 Multiplicity = 1

                         Standard orientation:
 ---------------------------------------------------------------------
 Center     Atomic      Atomic             Coordinates (Angstroms)
 Number     Number       Type             X           Y           Z
 ---------------------------------------------------------------------
      1          7           0        1.382249    1.763685    1.130903
      2          6           0        1.442024    0.780049    2.051118
      3          7           0        1.550990   -0.532103    1.839172
      4          6           0        1.600028   -0.813191    0.526318
      5          6           0        1.548918    0.097292   -0.535582
      6          6           0        1.432913    1.463246   -0.186849
      7          7           0        1.625209   -0.548436   -1.758473
      8          6           0        1.720254   -1.819714   -1.444572
      9          7           0        1.710548   -2.044561   -0.080480
     10          1           0        1.393827    1.121111    3.086616
     11          7           0        1.372137    2.455188   -1.091631
     12          1           0        1.410939    2.217068   -2.070967
     13          1           0        1.288111    3.430951   -0.789952
     14          1           0        1.799849   -2.637317   -2.154074
     15          1           0        1.771881   -2.934083    0.394811
     16          7           0       -1.802362   -1.102228    1.204068
     17          6           0       -1.751031   -1.395067   -0.173172
     18          7           0       -1.816394   -0.352686   -1.040776
     19          6           0       -1.925895    0.909065   -0.596844
     20          6           0       -1.979078    1.216383    0.814897
     21          6           0       -1.913342    0.170220    1.678901
     22          1           0       -1.751712   -1.897472    1.827147
     23          8           0       -1.649654   -2.580083   -0.517560
     24          7           0       -1.984928    1.883622   -1.510104
     25          1           0       -1.946541    1.661806   -2.528060
     26          1           0       -2.067391    2.843412   -1.213124
     27          1           0       -2.067761    2.238579    1.172916
     28          1           0       -1.944855    0.289547    2.761123
 ---------------------------------------------------------------------

 SCF Done:  E(RHF) =  -858.102959000     A.U. after    2 cycles

 The electronic state is 1-A.
 Alpha  occ. eigenvalues --  -20.47782 -15.56086 -15.55391 -15.54500 -15.53378
 Alpha  occ. eigenvalues --  -15.49819 -15.49740 -15.48845 -15.47138 -11.36562
 Alpha  occ. eigenvalues --  -11.35572 -11.34161 -11.32991 -11.31975 -11.31585
 Alpha  occ. eigenvalues --  -11.31504 -11.25208 -11.24810  -1.42759  -1.35261
 Alpha  occ. eigenvalues --   -1.30273  -1.29272  -1.26317  -1.24612  -1.18431
 Alpha  occ. eigenvalues --   -1.17341  -1.15519  -1.06653  -1.04037  -0.92009
 Alpha  occ. eigenvalues --   -0.91849  -0.90528  -0.90200  -0.86515  -0.81519
 Alpha  occ. eigenvalues --   -0.79328  -0.78694  -0.77837  -0.75907  -0.72564
 Alpha  occ. eigenvalues --   -0.71952  -0.70430  -0.66614  -0.66403  -0.63898
 Alpha  occ. eigenvalues --   -0.63547  -0.63222  -0.62521  -0.62047  -0.59480
 Alpha  occ. eigenvalues --   -0.59259  -0.57097  -0.53268  -0.53226  -0.49087
 Alpha  occ. eigenvalues --   -0.48697  -0.46428  -0.45962  -0.44941  -0.41675
 Alpha  occ. eigenvalues --   -0.41348  -0.40819  -0.34957  -0.32651
 Alpha virt. eigenvalues --    0.02095   0.02929   0.03338   0.04219   0.04399
 Alpha virt. eigenvalues --    0.04678   0.05135   0.06602   0.06995   0.07399
 Alpha virt. eigenvalues --    0.07624   0.08681   0.08995   0.09538   0.09896

 Mulliken charges:
               1
     1  N    1.882747
     2  C   -1.280775
     3  N    1.745807
     4  C   -2.246418
     5  C    0.120255
     6  C   -3.259664
     7  N    1.235266
     8  C   -0.872159
     9  N    1.479580
    10  H   -0.235650
    11  N    1.326881
    12  H    0.214532
    13  H    0.001217
    14  H   -0.169566
    15  H   -0.077106
    16  N    1.463605
    17  C   -0.671960
    18  N    1.662782
    19  C   -2.458472
    20  C    1.141766
    21  C   -0.350943
    22  H   -0.012233
    23  O   -1.462854
    24  N    1.271525
    25  H   -0.002404
    26  H    0.146021
    27  H   -0.308924
    28  H   -0.282856
 Sum of Mulliken charges =  -0.00000

 Dipole moment (field-independent basis, Debye):
    X=             -0.3315    Y=              4.3706    Z=              1.7107  Tot=              4.7052

 Test job not archived.
 1\1\GINC-SE166\SP\RHF\Aug-CC-pVDZ\C9H10N8O1\OHZDE\08-Apr-2025\0\\#t hf
  aug-cc-pvdz iop(5/13=1,5/36=2,99/5=2) pseudo=read geom=check guess=(r
 ead,tcheck) scf=(maxcycle=1)\\title\\0,1\N,0,-0.214386,-1.993021,0.000
 158\C,0,-1.483458,-1.537649,0.000039\N,0,-1.896987,-0.269765,-0.000126
 \C,0,-0.859092,0.583332,-0.00013\C,0,0.502351,0.258224,0.000025\C,0,0.
 818987,-1.120415,0.000169\N,0,1.293025,1.395362,-0.000018\C,0,0.430884
 ,2.385528,-0.000191\N,0,-0.88463,1.960299,-0.000268\H,0,-2.247335,-2.3
 17004,0.000055\N,0,2.078153,-1.590279,0.000313\H,0,2.839337,-0.928535,

 Normal termination of Gaussian 16 at Tue Apr  8 19:28:41 2025.
