 Gaussian 16, Revision C.01,

 ----------------------------------------------------------------------
 #t hf aug-cc-pvdz symm=none int=(grid=ultrafine) guess=(read,tcheck) s
 table=(opt,rrhf)
 ----------------------------------------------------------------------
 -----
 title
 -----
 Symbolic Z-matrix:
 Charge =  0 Multiplicity = 1

 SCF Done:  E(RHF) =  -857.253423352     A.U. after   16 cycles
 Normal termination of Gaussian 16 at Tue Apr  8 19:28:02 2025.
 Gaussian 16:  ES64L-G16RevC.01  3-Jul-2019

 ----------------------------------------------------------------------
 #t hf aug-cc-pvdz iop(5/13=1,5/36=2,99/5=2) pseudo=read geom=check gue
 ss=(read,tcheck) scf=(maxcycle=1)
 ----------------------------------------------------------------------
 -----
 title
 -----
 Structure from the checkpoint file:  "ACHC_11_dimer_mol1.chk"
 Charge =  0 Multiplicity = 1

                         Standard orientation:
 ---------------------------------------------------------------------
 Center     Atomic      Atomic             Coordinates (Angstroms)
 Number     Number       Type             X           Y           Z
 ---------------------------------------------------------------------
      1          7           0       -1.347439   -2.016959    0.646446
      2          6           0       -1.379846   -1.314934    1.797105
      3          7           0       -1.495333    0.005278    1.946230
      4          6           0       -1.583656    0.625957    0.757972
      5          6           0       -1.564160    0.032153   -0.509403
      6          6           0       -1.437537   -1.376340   -0.541321
      7          7           0       -1.677098    0.980029   -1.512909
      8          6           0       -1.762939    2.120702   -0.868540
      9          7           0       -1.712488    1.973625    0.505221
     10          1           0       -1.300647   -1.919438    2.702205
     11          7           0       -1.403668   -2.090477   -1.679360
     12          1           0       -1.471778   -1.600087   -2.558100
     13          1           0       -1.310485   -3.110638   -1.651559
     14          1           0       -1.863859    3.097255   -1.331534
     15          1           0       -1.759739    2.703613    1.202212
     16          7           0        1.766261    1.396348    0.915478
     17          6           0        1.733478    1.336504   -0.491832
     18          7           0        1.828387    0.112482   -1.071772
     19          6           0        1.948905   -0.997018   -0.326410
     20          6           0        1.983178   -0.942583    1.117940
     21          6           0        1.887900    0.284199    1.693447
     22          1           0        1.693713    2.320498    1.320311
     23          8           0        1.620554    2.396597   -1.121590
     24          7           0        2.037252   -2.166828   -0.967527
     25          1           0        2.012497   -2.205866   -2.009052
     26          1           0        2.128769   -3.020943   -0.439981
     27          1           0        2.080812   -1.841840    1.720211
     28          1           0        1.903226    0.438345    2.771613
 ---------------------------------------------------------------------

 SCF Done:  E(RHF) =  -858.102776349     A.U. after    2 cycles

 The electronic state is 1-A.
 Alpha  occ. eigenvalues --  -20.47706 -15.56474 -15.55564 -15.54368 -15.53163
 Alpha  occ. eigenvalues --  -15.49799 -15.49729 -15.48916 -15.47122 -11.36530
 Alpha  occ. eigenvalues --  -11.35525 -11.34136 -11.33048 -11.31981 -11.31645
 Alpha  occ. eigenvalues --  -11.31589 -11.25193 -11.24785  -1.42673  -1.35436
 Alpha  occ. eigenvalues --   -1.30276  -1.29275  -1.26287  -1.24550  -1.18519
 Alpha  occ. eigenvalues --   -1.17315  -1.15562  -1.06676  -1.04046  -0.91961
 Alpha  occ. eigenvalues --   -0.91882  -0.90530  -0.90253  -0.86758  -0.81516
 Alpha  occ. eigenvalues --   -0.79303  -0.78815  -0.77762  -0.75832  -0.72546
 Alpha  occ. eigenvalues --   -0.71910  -0.70362  -0.66648  -0.66557  -0.63912
 Alpha  occ. eigenvalues --   -0.63578  -0.63202  -0.62533  -0.62098  -0.59596
 Alpha  occ. eigenvalues --   -0.59204  -0.56643  -0.53544  -0.53212  -0.49150
 Alpha  occ. eigenvalues --   -0.48679  -0.46265  -0.45851  -0.44963  -0.41579
 Alpha  occ. eigenvalues --   -0.41319  -0.40899  -0.35387  -0.32338
 Alpha virt. eigenvalues --    0.02357   0.02766   0.02976   0.03831   0.04437
 Alpha virt. eigenvalues --    0.04980   0.05278   0.06196   0.06962   0.07644
 Alpha virt. eigenvalues --    0.08082   0.08436   0.08599   0.09447   0.10209

 Mulliken charges:
               1
     1  N    1.899128
     2  C   -1.245953
     3  N    1.895017
     4  C   -2.314825
     5  C    0.400201
     6  C   -3.662745
     7  N    1.281051
     8  C   -0.936541
     9  N    1.445531
    10  H   -0.239592
    11  N    1.430754
    12  H    0.213324
    13  H   -0.011240
    14  H   -0.165106
    15  H   -0.093686
    16  N    1.473016
    17  C   -0.598900
    18  N    1.607568
    19  C   -2.957833
    20  C    1.589456
    21  C   -0.557272
    22  H   -0.012474
    23  O   -1.440560
    24  N    1.453202
    25  H    0.011977
    26  H    0.117315
    27  H   -0.304965
    28  H   -0.275850
 Sum of Mulliken charges =   0.00000

 Dipole moment (field-independent basis, Debye):
    X=              0.3085    Y=             -2.9228    Z=              3.6893  Tot=              4.7168

 Test job not archived.
 1\1\GINC-SE054\SP\RHF\Aug-CC-pVDZ\C9H10N8O1\OHZDE\08-Apr-2025\0\\#t hf
  aug-cc-pvdz iop(5/13=1,5/36=2,99/5=2) pseudo=read geom=check guess=(r
 ead,tcheck) scf=(maxcycle=1)\\title\\0,1\N,0,-0.214386,-1.993021,0.000
 158\C,0,-1.483458,-1.537649,0.000039\N,0,-1.896987,-0.269765,-0.000126
 \C,0,-0.859092,0.583332,-0.00013\C,0,0.502351,0.258224,0.000025\C,0,0.
 818987,-1.120415,0.000169\N,0,1.293025,1.395362,-0.000018\C,0,0.430884
 ,2.385528,-0.000191\N,0,-0.88463,1.960299,-0.000268\H,0,-2.247335,-2.3
 17004,0.000055\N,0,2.078153,-1.590279,0.000313\H,0,2.839337,-0.928535,

 Normal termination of Gaussian 16 at Tue Apr  8 19:28:47 2025.
