 Gaussian 16, Revision C.01,

 ----------------------------------------------------------------------
 #t hf aug-cc-pvdz symm=none int=(grid=ultrafine) guess=(read,tcheck) s
 table=(opt,rrhf)
 ----------------------------------------------------------------------
 -----
 title
 -----
 Symbolic Z-matrix:
 Charge =  0 Multiplicity = 1

 SCF Done:  E(RHF) =  -857.251278231     A.U. after   16 cycles
 Normal termination of Gaussian 16 at Tue Apr  8 19:28:02 2025.
 Gaussian 16:  ES64L-G16RevC.01  3-Jul-2019

 ----------------------------------------------------------------------
 #t hf aug-cc-pvdz iop(5/13=1,5/36=2,99/5=2) pseudo=read geom=check gue
 ss=(read,tcheck) scf=(maxcycle=1)
 ----------------------------------------------------------------------
 -----
 title
 -----
 Structure from the checkpoint file:  "ACHC_9_dimer_mol1.chk"
 Charge =  0 Multiplicity = 1

                         Standard orientation:
 ---------------------------------------------------------------------
 Center     Atomic      Atomic             Coordinates (Angstroms)
 Number     Number       Type             X           Y           Z
 ---------------------------------------------------------------------
      1          7           0       -1.478451    2.003234    0.418440
      2          6           0       -1.419734    2.000274   -0.928575
      3          7           0       -1.427936    0.945672   -1.744837
      4          6           0       -1.505844   -0.205326   -1.056263
      5          6           0       -1.572779   -0.355948    0.333721
      6          6           0       -1.556569    0.835390    1.096186
      7          7           0       -1.644012   -1.691364    0.694052
      8          6           0       -1.620761   -2.334131   -0.450512
      9          7           0       -1.538041   -1.492719   -1.544395
     10          1           0       -1.358700    2.989969   -1.384297
     11          7           0       -1.614363    0.855311    2.438771
     12          1           0       -1.672334   -0.022790    2.931604
     13          1           0       -1.599533    1.744705    2.947635
     14          1           0       -1.660558   -3.412713   -0.565753
     15          1           0       -1.506426   -1.755874   -2.519414
     16          7           0        1.803606   -1.613078   -0.176728
     17          6           0        1.780842   -0.886987    1.030522
     18          7           0        1.840465    0.467171    0.951341
     19          6           0        1.918171    1.086387   -0.236772
     20          6           0        1.941933    0.347328   -1.479154
     21          6           0        1.882070   -1.007136   -1.394753
     22          1           0        1.757981   -2.619677   -0.087937
     23          8           0        1.708120   -1.518066    2.093345
     24          7           0        1.973534    2.422136   -0.236155
     25          1           0        1.956367    2.954884    0.659832
     26          1           0        2.032489    2.920952   -1.110169
     27          1           0        2.004884    0.850092   -2.440503
     28          1           0        1.893279   -1.658666   -2.267576
 ---------------------------------------------------------------------

 SCF Done:  E(RHF) =  -858.100994459     A.U. after    2 cycles

 The electronic state is 1-A.
 Alpha  occ. eigenvalues --  -20.47445 -15.57231 -15.55492 -15.54211 -15.52331
 Alpha  occ. eigenvalues --  -15.50735 -15.49640 -15.48528 -15.47131 -11.36340
 Alpha  occ. eigenvalues --  -11.35498 -11.33977 -11.33197 -11.32630 -11.31861
 Alpha  occ. eigenvalues --  -11.31653 -11.25360 -11.24990  -1.42377  -1.36011
 Alpha  occ. eigenvalues --   -1.30217  -1.29114  -1.26150  -1.24270  -1.18987
 Alpha  occ. eigenvalues --   -1.17277  -1.15364  -1.06754  -1.04315  -0.91977
 Alpha  occ. eigenvalues --   -0.91920  -0.90504  -0.90359  -0.87396  -0.81458
 Alpha  occ. eigenvalues --   -0.79246  -0.78793  -0.77475  -0.75812  -0.72916
 Alpha  occ. eigenvalues --   -0.71581  -0.70350  -0.66911  -0.66876  -0.64004
 Alpha  occ. eigenvalues --   -0.63695  -0.63275  -0.62659  -0.62455  -0.59262
 Alpha  occ. eigenvalues --   -0.58957  -0.56682  -0.53519  -0.53133  -0.49191
 Alpha  occ. eigenvalues --   -0.48817  -0.46286  -0.46131  -0.44889  -0.41615
 Alpha  occ. eigenvalues --   -0.41288  -0.40498  -0.34937  -0.32880
 Alpha virt. eigenvalues --    0.01702   0.02699   0.02912   0.03685   0.04611
 Alpha virt. eigenvalues --    0.04750   0.05164   0.06795   0.07143   0.07608
 Alpha virt. eigenvalues --    0.08005   0.08267   0.08625   0.09087   0.10092

 Mulliken charges:
               1
     1  N    1.862818
     2  C   -1.421048
     3  N    1.893278
     4  C   -1.922891
     5  C    0.416965
     6  C   -3.499560
     7  N    1.330165
     8  C   -1.268393
     9  N    1.455149
    10  H   -0.271852
    11  N    1.350255
    12  H    0.196408
    13  H    0.008646
    14  H   -0.215949
    15  H   -0.070335
    16  N    1.430623
    17  C   -0.220210
    18  N    1.671473
    19  C   -2.945906
    20  C    1.369250
    21  C   -0.657804
    22  H   -0.001362
    23  O   -1.419832
    24  N    1.435609
    25  H   -0.013568
    26  H    0.118607
    27  H   -0.292221
    28  H   -0.318313
 Sum of Mulliken charges =  -0.00000

 Dipole moment (field-independent basis, Debye):
    X=              0.1622    Y=             -0.1502    Z=             -6.6788  Tot=              6.6825

 Test job not archived.
 1\1\GINC-SE081\SP\RHF\Aug-CC-pVDZ\C9H10N8O1\OHZDE\08-Apr-2025\0\\#t hf
  aug-cc-pvdz iop(5/13=1,5/36=2,99/5=2) pseudo=read geom=check guess=(r
 ead,tcheck) scf=(maxcycle=1)\\title\\0,1\N,0,-0.214386,-1.993021,0.000
 158\C,0,-1.483458,-1.537649,0.000039\N,0,-1.896987,-0.269765,-0.000126
 \C,0,-0.859092,0.583332,-0.00013\C,0,0.502351,0.258224,0.000025\C,0,0.
 818987,-1.120415,0.000169\N,0,1.293025,1.395362,-0.000018\C,0,0.430884
 ,2.385528,-0.000191\N,0,-0.88463,1.960299,-0.000268\H,0,-2.247335,-2.3
 17004,0.000055\N,0,2.078153,-1.590279,0.000313\H,0,2.839337,-0.928535,

 Normal termination of Gaussian 16 at Tue Apr  8 19:28:46 2025.
