 Gaussian 16, Revision C.01,

 ----------------------------------------------------------------------
 #t hf aug-cc-pvdz symm=none int=(grid=ultrafine) guess=(read,tcheck) s
 table=(opt,rrhf)
 ----------------------------------------------------------------------
 -----
 title
 -----
 Symbolic Z-matrix:
 Charge =  0 Multiplicity = 1

 SCF Done:  E(RHF) =  -857.250249449     A.U. after   16 cycles
 Normal termination of Gaussian 16 at Tue Apr  8 19:28:04 2025.
 Gaussian 16:  ES64L-G16RevC.01  3-Jul-2019

 ----------------------------------------------------------------------
 #t hf aug-cc-pvdz iop(5/13=1,5/36=2,99/5=2) pseudo=read geom=check gue
 ss=(read,tcheck) scf=(maxcycle=1)
 ----------------------------------------------------------------------
 -----
 title
 -----
 Structure from the checkpoint file:  "ACHC_21_dimer_mol1.chk"
 Charge =  0 Multiplicity = 1

                         Standard orientation:
 ---------------------------------------------------------------------
 Center     Atomic      Atomic             Coordinates (Angstroms)
 Number     Number       Type             X           Y           Z
 ---------------------------------------------------------------------
      1          7           0        2.539897    0.505740   -1.141114
      2          6           0        2.276482    1.658619   -0.493510
      3          7           0        1.609720    1.819849    0.650155
      4          6           0        1.189178    0.642242    1.141464
      5          6           0        1.386932   -0.625847    0.582834
      6          6           0        2.109120   -0.671184   -0.632605
      7          7           0        0.813709   -1.616283    1.363026
      8          6           0        0.281488   -0.963486    2.370157
      9          7           0        0.474086    0.403446    2.293987
     10          1           0        2.664608    2.554339   -0.981308
     11          7           0        2.379824   -1.811605   -1.290200
     12          1           0        2.052633   -2.682161   -0.899837
     13          1           0        2.907158   -1.793713   -2.168712
     14          1           0       -0.260500   -1.415264    3.194990
     15          1           0        0.157712    1.104707    2.949008
     16          7           0       -2.410550   -1.122240    0.190308
     17          6           0       -1.684027   -1.079339   -1.016134
     18          7           0       -1.283751    0.137444   -1.466452
     19          6           0       -1.572546    1.255671   -0.782899
     20          6           0       -2.317599    1.218623    0.455570
     21          6           0       -2.715837   -0.000973    0.901973
     22          1           0       -2.695835   -2.041321    0.501932
     23          8           0       -1.450334   -2.146781   -1.598456
     24          7           0       -1.145464    2.417517   -1.287882
     25          1           0       -0.608205    2.444014   -2.180944
     26          1           0       -1.344071    3.277794   -0.801391
     27          1           0       -2.550725    2.124932    1.008003
     28          1           0       -3.281548   -0.142116    1.822019
 ---------------------------------------------------------------------

 SCF Done:  E(RHF) =  -858.100061283     A.U. after    2 cycles

 The electronic state is 1-A.
 Alpha  occ. eigenvalues --  -20.47689 -15.56904 -15.55704 -15.54243 -15.51946
 Alpha  occ. eigenvalues --  -15.50681 -15.49238 -15.48144 -15.47244 -11.36548
 Alpha  occ. eigenvalues --  -11.35718 -11.33696 -11.33574 -11.32577 -11.31528
 Alpha  occ. eigenvalues --  -11.31246 -11.25451 -11.25042  -1.42597  -1.35767
 Alpha  occ. eigenvalues --   -1.30440  -1.28693  -1.26331  -1.23894  -1.18772
 Alpha  occ. eigenvalues --   -1.17409  -1.14970  -1.07165  -1.04020  -0.92175
 Alpha  occ. eigenvalues --   -0.91667  -0.90709  -0.90037  -0.87161  -0.81144
 Alpha  occ. eigenvalues --   -0.79425  -0.79085  -0.77136  -0.75990  -0.72687
 Alpha  occ. eigenvalues --   -0.71243  -0.70545  -0.66743  -0.66619  -0.63831
 Alpha  occ. eigenvalues --   -0.63743  -0.63646  -0.63061  -0.62168  -0.59261
 Alpha  occ. eigenvalues --   -0.58620  -0.57176  -0.53320  -0.52503  -0.49534
 Alpha  occ. eigenvalues --   -0.48607  -0.46421  -0.46064  -0.44534  -0.41528
 Alpha  occ. eigenvalues --   -0.41421  -0.40352  -0.35355  -0.32478
 Alpha virt. eigenvalues --    0.01543   0.02335   0.03149   0.03311   0.04807
 Alpha virt. eigenvalues --    0.05227   0.05594   0.06114   0.06712   0.07420
 Alpha virt. eigenvalues --    0.07890   0.08283   0.08778   0.09086   0.10217

 Mulliken charges:
               1
     1  N    1.764529
     2  C   -1.244383
     3  N    1.897483
     4  C   -2.365059
     5  C    0.513739
     6  C   -3.400396
     7  N    1.314544
     8  C   -1.246762
     9  N    1.865617
    10  H   -0.244496
    11  N    1.316196
    12  H    0.198210
    13  H    0.009759
    14  H   -0.264272
    15  H   -0.152471
    16  N    1.318451
    17  C   -0.195361
    18  N    1.742302
    19  C   -3.198245
    20  C    1.460915
    21  C   -0.664905
    22  H   -0.002614
    23  O   -1.410119
    24  N    1.452015
    25  H    0.009832
    26  H    0.111655
    27  H   -0.296233
    28  H   -0.289930
 Sum of Mulliken charges =   0.00000

 Dipole moment (field-independent basis, Debye):
    X=             -3.2582    Y=              3.8036    Z=              6.0135  Tot=              7.8259

 Test job not archived.
 1\1\GINC-SE096\SP\RHF\Aug-CC-pVDZ\C9H10N8O1\OHZDE\08-Apr-2025\0\\#t hf
  aug-cc-pvdz iop(5/13=1,5/36=2,99/5=2) pseudo=read geom=check guess=(r
 ead,tcheck) scf=(maxcycle=1)\\title\\0,1\N,0,-0.214386,-1.993021,0.000
 158\C,0,-1.483458,-1.537649,0.000039\N,0,-1.896987,-0.269765,-0.000126
 \C,0,-0.859092,0.583332,-0.00013\C,0,0.502351,0.258224,0.000025\C,0,0.
 818987,-1.120415,0.000169\N,0,1.293025,1.395362,-0.000018\C,0,0.430884
 ,2.385528,-0.000191\N,0,-0.88463,1.960299,-0.000268\H,0,-2.247335,-2.3
 17004,0.000055\N,0,2.078153,-1.590279,0.000313\H,0,2.839337,-0.928535,

 Normal termination of Gaussian 16 at Tue Apr  8 19:28:49 2025.
