 Gaussian 16, Revision C.01,

 ----------------------------------------------------------------------
 #t hf aug-cc-pvdz symm=none int=(grid=ultrafine) guess=(read,tcheck) s
 table=(opt,rrhf)
 ----------------------------------------------------------------------
 -----
 title
 -----
 Symbolic Z-matrix:
 Charge =  0 Multiplicity = 1

 SCF Done:  E(RHF) =  -857.257053475     A.U. after   16 cycles
 Normal termination of Gaussian 16 at Tue Apr  8 19:25:32 2025.
 Gaussian 16:  ES64L-G16RevC.01  3-Jul-2019

 ----------------------------------------------------------------------
 #t hf aug-cc-pvdz iop(5/13=1,5/36=2,99/5=2) pseudo=read geom=check gue
 ss=(read,tcheck) scf=(maxcycle=1)
 ----------------------------------------------------------------------
 -----
 title
 -----
 Structure from the checkpoint file:  "ACHC_8_dimer_mol1.chk"
 Charge =  0 Multiplicity = 1

                         Standard orientation:
 ---------------------------------------------------------------------
 Center     Atomic      Atomic             Coordinates (Angstroms)
 Number     Number       Type             X           Y           Z
 ---------------------------------------------------------------------
      1          7           0       -2.272941    1.616470    1.185473
      2          6           0       -2.246965    2.152051   -0.051615
      3          7           0       -2.232161    1.509785   -1.220294
      4          6           0       -2.246427    0.177629   -1.046629
      5          6           0       -2.273322   -0.516158    0.168755
      6          6           0       -2.286995    0.273173    1.342498
      7          7           0       -2.281416   -1.886494   -0.032148
      8          6           0       -2.259929   -2.019367   -1.338134
      9          7           0       -2.238139   -0.809541   -2.006898
     10          1           0       -2.237327    3.243024   -0.075836
     11          7           0       -2.312846   -0.245061    2.582271
     12          1           0       -2.323057   -1.248385    2.684957
     13          1           0       -2.321798    0.368338    3.403152
     14          1           0       -2.258641   -2.963797   -1.873159
     15          1           0       -2.219600   -0.661563   -3.006232
     16          7           0        2.722198   -1.576254   -0.031192
     17          6           0        2.709887   -0.718218    1.086307
     18          7           0        2.725201    0.619222    0.852669
     19          6           0        2.751113    1.100913   -0.399682
     20          6           0        2.763864    0.226024   -1.550633
     21          6           0        2.748462   -1.111134   -1.311770
     22          1           0        2.710329   -2.567051    0.172246
     23          8           0        2.685899   -1.225831    2.215420
     24          7           0        2.764924    2.429048   -0.551858
     25          1           0        2.755706    3.059757    0.278222
     26          1           0        2.784430    2.826448   -1.478080
     27          1           0        2.784852    0.617501   -2.564157
     28          1           0        2.756053   -1.857329   -2.105225
 ---------------------------------------------------------------------

 SCF Done:  E(RHF) =  -858.108577808     A.U. after    2 cycles

 The electronic state is 1-A.
 Alpha  occ. eigenvalues --  -20.47746 -15.57204 -15.55845 -15.54669 -15.52629
 Alpha  occ. eigenvalues --  -15.50998 -15.49513 -15.48476 -15.47445 -11.36677
 Alpha  occ. eigenvalues --  -11.35931 -11.34053 -11.33732 -11.32938 -11.31924
 Alpha  occ. eigenvalues --  -11.31474 -11.25518 -11.25483  -1.42646  -1.36039
 Alpha  occ. eigenvalues --   -1.30550  -1.29069  -1.26567  -1.24381  -1.19172
 Alpha  occ. eigenvalues --   -1.17645  -1.15384  -1.07236  -1.04409  -0.92352
 Alpha  occ. eigenvalues --   -0.92043  -0.90897  -0.90404  -0.87494  -0.81554
 Alpha  occ. eigenvalues --   -0.79662  -0.79232  -0.77638  -0.76233  -0.73041
 Alpha  occ. eigenvalues --   -0.71776  -0.70773  -0.66961  -0.66364  -0.64603
 Alpha  occ. eigenvalues --   -0.64153  -0.63758  -0.63128  -0.62400  -0.59323
 Alpha  occ. eigenvalues --   -0.58766  -0.57361  -0.53613  -0.53117  -0.49532
 Alpha  occ. eigenvalues --   -0.48943  -0.46573  -0.46459  -0.44853  -0.41598
 Alpha  occ. eigenvalues --   -0.41521  -0.40731  -0.35418  -0.33039
 Alpha virt. eigenvalues --    0.01715   0.02397   0.03071   0.03261   0.04678
 Alpha virt. eigenvalues --    0.04982   0.05630   0.05760   0.06840   0.07312
 Alpha virt. eigenvalues --    0.07496   0.08151   0.08802   0.09173   0.09797

 Mulliken charges:
               1
     1  N    1.345108
     2  C   -0.776663
     3  N    1.465693
     4  C   -1.724424
     5  C   -0.128117
     6  C   -2.519500
     7  N    1.170142
     8  C   -0.917975
     9  N    1.127259
    10  H   -0.159238
    11  N    1.125734
    12  H    0.188364
    13  H    0.010924
    14  H   -0.147894
    15  H   -0.067290
    16  N    1.009578
    17  C   -0.131644
    18  N    1.371050
    19  C   -2.652626
    20  C    1.474660
    21  C   -0.522659
    22  H    0.051427
    23  O   -1.371270
    24  N    1.232376
    25  H   -0.013876
    26  H    0.106437
    27  H   -0.298750
    28  H   -0.246825
 Sum of Mulliken charges =  -0.00000

 Dipole moment (field-independent basis, Debye):
    X=              0.1225    Y=             -0.8908    Z=             -8.1995  Tot=              8.2487

 Test job not archived.
 1\1\GINC-SE078\SP\RHF\Aug-CC-pVDZ\C9H10N8O1\OHZDE\08-Apr-2025\0\\#t hf
  aug-cc-pvdz iop(5/13=1,5/36=2,99/5=2) pseudo=read geom=check guess=(r
 ead,tcheck) scf=(maxcycle=1)\\title\\0,1\N,0,-0.214386,-1.993021,0.000
 158\C,0,-1.483458,-1.537649,0.000039\N,0,-1.896987,-0.269765,-0.000126
 \C,0,-0.859092,0.583332,-0.00013\C,0,0.502351,0.258224,0.000025\C,0,0.
 818987,-1.120415,0.000169\N,0,1.293025,1.395362,-0.000018\C,0,0.430884
 ,2.385528,-0.000191\N,0,-0.88463,1.960299,-0.000268\H,0,-2.247335,-2.3
 17004,0.000055\N,0,2.078153,-1.590279,0.000313\H,0,2.839337,-0.928535,

 Normal termination of Gaussian 16 at Tue Apr  8 19:26:10 2025.
