 Gaussian 16, Revision C.01,

 ----------------------------------------------------------------------
 #t hf aug-cc-pvdz symm=none int=(grid=ultrafine) guess=(read,tcheck) s
 table=(opt,rrhf)
 ----------------------------------------------------------------------
 -----
 title
 -----
 Symbolic Z-matrix:
 Charge =  0 Multiplicity = 1

 SCF Done:  E(RHF) =  -857.254245211     A.U. after   16 cycles
 Normal termination of Gaussian 16 at Tue Apr  8 19:27:38 2025.
 Gaussian 16:  ES64L-G16RevC.01  3-Jul-2019

 ----------------------------------------------------------------------
 #t hf aug-cc-pvdz iop(5/13=1,5/36=2,99/5=2) pseudo=read geom=check gue
 ss=(read,tcheck) scf=(maxcycle=1)
 ----------------------------------------------------------------------
 -----
 title
 -----
 Structure from the checkpoint file:  "ACHC_52_dimer_mol1.chk"
 Charge =  0 Multiplicity = 1

                         Standard orientation:
 ---------------------------------------------------------------------
 Center     Atomic      Atomic             Coordinates (Angstroms)
 Number     Number       Type             X           Y           Z
 ---------------------------------------------------------------------
      1          7           0       -1.833075    1.222639    1.365066
      2          6           0       -1.757991    2.012600    0.275006
      3          7           0       -1.614138    1.638827   -0.997054
      4          6           0       -1.544816    0.301813   -1.109248
      5          6           0       -1.607894   -0.637776   -0.073672
      6          6           0       -1.761561   -0.121645    1.234341
      7          7           0       -1.503109   -1.931032   -0.558189
      8          6           0       -1.379513   -1.778220   -1.856299
      9          7           0       -1.397421   -0.453468   -2.251402
     10          1           0       -1.825169    3.082034    0.481645
     11          7           0       -1.837960   -0.895264    2.330675
     12          1           0       -1.783224   -1.896165    2.218841
     13          1           0       -1.949237   -0.474433    3.258416
     14          1           0       -1.272328   -2.583770   -2.575885
     15          1           0       -1.318720   -0.093013   -3.192035
     16          7           0        2.305471   -1.387742   -0.161900
     17          6           0        1.868110   -0.822052    1.052139
     18          7           0        1.636975    0.515705    1.075571
     19          6           0        1.820177    1.267164   -0.021164
     20          6           0        2.268749    0.693017   -1.269932
     21          6           0        2.498632   -0.645675   -1.288369
     22          1           0        2.469781   -2.385780   -0.150541
     23          8           0        1.718520   -1.569949    2.027544
     24          7           0        1.572439    2.577186    0.077633
     25          1           0        1.248962    2.991002    0.978204
     26          1           0        1.699178    3.172451   -0.725978
     27          1           0        2.416667    1.302751   -2.157216
     28          1           0        2.838298   -1.178806   -2.175406
 ---------------------------------------------------------------------

 SCF Done:  E(RHF) =  -858.104753148     A.U. after    2 cycles

 The electronic state is 1-A.
 Alpha  occ. eigenvalues --  -20.47653 -15.56901 -15.55650 -15.54201 -15.51741
 Alpha  occ. eigenvalues --  -15.50673 -15.49131 -15.47976 -15.47170 -11.36520
 Alpha  occ. eigenvalues --  -11.35638 -11.33533 -11.33464 -11.32538 -11.31531
 Alpha  occ. eigenvalues --  -11.31189 -11.25329 -11.24993  -1.42587  -1.35719
 Alpha  occ. eigenvalues --   -1.30347  -1.28579  -1.26244  -1.23772  -1.18702
 Alpha  occ. eigenvalues --   -1.17350  -1.14839  -1.07012  -1.03960  -0.92072
 Alpha  occ. eigenvalues --   -0.91550  -0.90630  -0.89968  -0.87122  -0.81024
 Alpha  occ. eigenvalues --   -0.79362  -0.78987  -0.76992  -0.75914  -0.72629
 Alpha  occ. eigenvalues --   -0.71096  -0.70456  -0.66535  -0.66334  -0.64075
 Alpha  occ. eigenvalues --   -0.63613  -0.63542  -0.62915  -0.62104  -0.59235
 Alpha  occ. eigenvalues --   -0.58429  -0.57023  -0.53277  -0.52488  -0.49320
 Alpha  occ. eigenvalues --   -0.48540  -0.46339  -0.45970  -0.44412  -0.41506
 Alpha  occ. eigenvalues --   -0.41377  -0.40276  -0.35260  -0.32481
 Alpha virt. eigenvalues --    0.01736   0.02472   0.03122   0.03264   0.04800
 Alpha virt. eigenvalues --    0.05395   0.05677   0.06124   0.06941   0.07528
 Alpha virt. eigenvalues --    0.07989   0.08420   0.08764   0.09107   0.10043

 Mulliken charges:
               1
     1  N    1.725053
     2  C   -1.301848
     3  N    1.846073
     4  C   -2.191845
     5  C    0.603745
     6  C   -3.458724
     7  N    1.240567
     8  C   -1.082524
     9  N    1.490259
    10  H   -0.245760
    11  N    1.370951
    12  H    0.197496
    13  H    0.004034
    14  H   -0.189555
    15  H   -0.104999
    16  N    1.111272
    17  C   -0.049840
    18  N    1.741372
    19  C   -3.286529
    20  C    1.558966
    21  C   -0.598860
    22  H    0.018278
    23  O   -1.432386
    24  N    1.472556
    25  H    0.009930
    26  H    0.098653
    27  H   -0.286398
    28  H   -0.259937
 Sum of Mulliken charges =  -0.00000

 Dipole moment (field-independent basis, Debye):
    X=              1.6517    Y=              0.8917    Z=             -7.6540  Tot=              7.8808

 Test job not archived.
 1\1\GINC-SE364\SP\RHF\Aug-CC-pVDZ\C9H10N8O1\OHZDE\08-Apr-2025\0\\#t hf
  aug-cc-pvdz iop(5/13=1,5/36=2,99/5=2) pseudo=read geom=check guess=(r
 ead,tcheck) scf=(maxcycle=1)\\title\\0,1\N,0,-0.214386,-1.993021,0.000
 158\C,0,-1.483458,-1.537649,0.000039\N,0,-1.896987,-0.269765,-0.000126
 \C,0,-0.859092,0.583332,-0.00013\C,0,0.502351,0.258224,0.000025\C,0,0.
 818987,-1.120415,0.000169\N,0,1.293025,1.395362,-0.000018\C,0,0.430884
 ,2.385528,-0.000191\N,0,-0.88463,1.960299,-0.000268\H,0,-2.247335,-2.3
 17004,0.000055\N,0,2.078153,-1.590279,0.000313\H,0,2.839337,-0.928535,

 Normal termination of Gaussian 16 at Tue Apr  8 19:28:21 2025.
