 Gaussian 16, Revision C.01,

 ----------------------------------------------------------------------
 #t hf aug-cc-pvdz symm=none int=(grid=ultrafine) guess=(read,tcheck) s
 table=(opt,rrhf)
 ----------------------------------------------------------------------
 -----
 title
 -----
 Symbolic Z-matrix:
 Charge =  0 Multiplicity = 1

 SCF Done:  E(RHF) =  -857.235087269     A.U. after   16 cycles
 Normal termination of Gaussian 16 at Tue Apr  8 19:28:32 2025.
 Gaussian 16:  ES64L-G16RevC.01  3-Jul-2019

 ----------------------------------------------------------------------
 #t hf aug-cc-pvdz iop(5/13=1,5/36=2,99/5=2) pseudo=read geom=check gue
 ss=(read,tcheck) scf=(maxcycle=1)
 ----------------------------------------------------------------------
 -----
 title
 -----
 Structure from the checkpoint file:  "ACHC_1_dimer_mol1.chk"
 Charge =  0 Multiplicity = 1

                         Standard orientation:
 ---------------------------------------------------------------------
 Center     Atomic      Atomic             Coordinates (Angstroms)
 Number     Number       Type             X           Y           Z
 ---------------------------------------------------------------------
      1          7           0       -1.358009    1.764235    0.971079
      2          6           0       -1.127246    2.248642   -0.265855
      3          7           0       -1.022088    1.563915   -1.405428
      4          6           0       -1.177977    0.245382   -1.200076
      5          6           0       -1.421117   -0.397274    0.019390
      6          6           0       -1.512580    0.433964    1.160259
      7          7           0       -1.526819   -1.768457   -0.144726
      8          6           0       -1.351844   -1.951774   -1.432940
      9          7           0       -1.136705   -0.774324   -2.124839
     10          1           0       -1.016572    3.333079   -0.317329
     11          7           0       -1.742001   -0.033082    2.399414
     12          1           0       -1.855315   -1.027250    2.526281
     13          1           0       -1.799847    0.609304    3.195767
     14          1           0       -1.367597   -2.912312   -1.938233
     15          1           0       -0.978299   -0.666223   -3.116874
     16          7           0        1.474342   -1.701727    0.202662
     17          6           0        1.397538   -0.804321    1.286149
     18          7           0        1.562546    0.517125    1.021349
     19          6           0        1.790338    0.947310   -0.229304
     20          6           0        1.870305    0.031827   -1.345449
     21          6           0        1.704573   -1.289134   -1.075488
     22          1           0        1.347732   -2.679487    0.428850
     23          8           0        1.184952   -1.265120    2.415580
     24          7           0        1.942690    2.262689   -0.413309
     25          1           0        1.884970    2.922677    0.391672
     26          1           0        2.115199    2.621785   -1.339314
     27          1           0        2.054822    0.381611   -2.357640
     28          1           0        1.745656   -2.062582   -1.841338
 ---------------------------------------------------------------------

 SCF Done:  E(RHF) =  -858.082279401     A.U. after    2 cycles

 The electronic state is 1-A.
 Alpha  occ. eigenvalues --  -20.47526 -15.57200 -15.55229 -15.53925 -15.51753
 Alpha  occ. eigenvalues --  -15.51093 -15.49308 -15.48098 -15.46896 -11.36283
 Alpha  occ. eigenvalues --  -11.35310 -11.33656 -11.33127 -11.32827 -11.31881
 Alpha  occ. eigenvalues --  -11.31463 -11.25196 -11.24855  -1.42495  -1.36094
 Alpha  occ. eigenvalues --   -1.30100  -1.28881  -1.25996  -1.23990  -1.19064
 Alpha  occ. eigenvalues --   -1.17169  -1.15042  -1.06767  -1.04339  -0.91898
 Alpha  occ. eigenvalues --   -0.91746  -0.90422  -0.90220  -0.87494  -0.81243
 Alpha  occ. eigenvalues --   -0.79071  -0.78648  -0.77146  -0.75695  -0.72937
 Alpha  occ. eigenvalues --   -0.71216  -0.70232  -0.67914  -0.66833  -0.63857
 Alpha  occ. eigenvalues --   -0.63328  -0.62934  -0.62595  -0.62326  -0.59361
 Alpha  occ. eigenvalues --   -0.59058  -0.57184  -0.53621  -0.52065  -0.48814
 Alpha  occ. eigenvalues --   -0.48785  -0.46601  -0.46129  -0.44592  -0.41528
 Alpha  occ. eigenvalues --   -0.41315  -0.40592  -0.34717  -0.32687
 Alpha virt. eigenvalues --    0.01610   0.02468   0.03130   0.03279   0.04718
 Alpha virt. eigenvalues --    0.05387   0.05605   0.06190   0.07115   0.07642
 Alpha virt. eigenvalues --    0.07966   0.08161   0.08754   0.09206   0.10095

 Mulliken charges:
               1
     1  N    1.798024
     2  C   -1.315273
     3  N    2.053697
     4  C   -2.445547
     5  C    0.519794
     6  C   -3.865100
     7  N    1.374903
     8  C   -1.241731
     9  N    1.746382
    10  H   -0.277988
    11  N    1.445925
    12  H    0.243793
    13  H    0.021490
    14  H   -0.256055
    15  H   -0.080427
    16  N    1.536073
    17  C   -0.156558
    18  N    1.883103
    19  C   -3.523083
    20  C    1.489711
    21  C   -0.611776
    22  H    0.041584
    23  O   -1.522620
    24  N    1.531480
    25  H    0.056857
    26  H    0.141855
    27  H   -0.298293
    28  H   -0.290220
 Sum of Mulliken charges =  -0.00000

 Dipole moment (field-independent basis, Debye):
    X=              0.9297    Y=             -1.0301    Z=             -7.5352  Tot=              7.6619

 Test job not archived.
 1\1\GINC-SE225\SP\RHF\Aug-CC-pVDZ\C9H10N8O1\OHZDE\08-Apr-2025\0\\#t hf
  aug-cc-pvdz iop(5/13=1,5/36=2,99/5=2) pseudo=read geom=check guess=(r
 ead,tcheck) scf=(maxcycle=1)\\title\\0,1\N,0,-0.214386,-1.993021,0.000
 158\C,0,-1.483458,-1.537649,0.000039\N,0,-1.896987,-0.269765,-0.000126
 \C,0,-0.859092,0.583332,-0.00013\C,0,0.502351,0.258224,0.000025\C,0,0.
 818987,-1.120415,0.000169\N,0,1.293025,1.395362,-0.000018\C,0,0.430884
 ,2.385528,-0.000191\N,0,-0.88463,1.960299,-0.000268\H,0,-2.247335,-2.3
 17004,0.000055\N,0,2.078153,-1.590279,0.000313\H,0,2.839337,-0.928535,

 Normal termination of Gaussian 16 at Tue Apr  8 19:29:18 2025.
