 Gaussian 16, Revision C.01,

 ----------------------------------------------------------------------
 #t hf aug-cc-pvdz symm=none int=(grid=ultrafine) guess=(read,tcheck) s
 table=(opt,rrhf)
 ----------------------------------------------------------------------
 -----
 title
 -----
 Symbolic Z-matrix:
 Charge =  0 Multiplicity = 1

 SCF Done:  E(RHF) =  -464.584520054     A.U. after   15 cycles
 Normal termination of Gaussian 16 at Tue Apr  8 19:14:56 2025.
 Gaussian 16:  ES64L-G16RevC.01  3-Jul-2019

 ----------------------------------------------------------------------
 #t hf aug-cc-pvdz iop(5/13=1,5/36=2,99/5=2) pseudo=read geom=check gue
 ss=(read,tcheck) scf=(maxcycle=1)
 ----------------------------------------------------------------------
 -----
 title
 -----
 Structure from the checkpoint file:  "ACHC_13_dimer_mol2.chk"
 Charge =  0 Multiplicity = 1

                         Standard orientation:
 ---------------------------------------------------------------------
 Center     Atomic      Atomic             Coordinates (Angstroms)
 Number     Number       Type             X           Y           Z
 ---------------------------------------------------------------------
      1          7           0       -1.934417    0.534298    0.000156
      2          6           0       -1.287433    1.717227    0.000037
      3          7           0        0.029298    1.928781   -0.000128
      4          6           0        0.710811    0.770964   -0.000132
      5          6           0        0.178162   -0.523449    0.000023
      6          6           0       -1.232929   -0.622082    0.000167
      7          7           0        1.178672   -1.481170   -0.000020
      8          6           0        2.290744   -0.783308   -0.000193
      9          7           0        2.075030    0.582293   -0.000270
     10          1           0       -1.938666    2.592897    0.000053
     11          7           0       -1.892689   -1.792974    0.000311
     12          1           0       -1.357221   -2.647714    0.000352
     13          1           0       -2.917268   -1.813536    0.000505
     14          1           0        3.293182   -1.199625   -0.000274
     15          1           0        2.772586    1.313270   -0.000410
 ---------------------------------------------------------------------

 SCF Done:  E(RHF) =  -465.046676487     A.U. after    2 cycles

 The electronic state is 1-A.
 Alpha  occ. eigenvalues --  -15.57179 -15.53299 -15.51044 -15.49644 -15.48803
 Alpha  occ. eigenvalues --  -11.34404 -11.33035 -11.32071 -11.31619 -11.25699
 Alpha  occ. eigenvalues --   -1.36090  -1.29393  -1.24781  -1.19339  -1.15697
 Alpha  occ. eigenvalues --   -1.04613  -0.92310  -0.90604  -0.87548  -0.81845
 Alpha  occ. eigenvalues --   -0.78062  -0.73199  -0.72210  -0.67120  -0.66429
 Alpha  occ. eigenvalues --   -0.64424  -0.62520  -0.59160  -0.53734  -0.53414
 Alpha  occ. eigenvalues --   -0.49141  -0.46711  -0.45089  -0.41012  -0.33271
 Alpha virt. eigenvalues --    0.02716   0.03888   0.04616   0.05193   0.06176
 Alpha virt. eigenvalues --    0.07558   0.08905   0.09955   0.09988   0.10835
 Alpha virt. eigenvalues --    0.11157   0.12138   0.12228   0.13081   0.13295

 Mulliken charges:
               1
     1  N    0.877490
     2  C   -0.162242
     3  N    1.071123
     4  C   -1.424639
     5  C   -0.532083
     6  C   -1.986746
     7  N    1.046372
     8  C   -0.752055
     9  N    0.819872
    10  H   -0.047818
    11  N    0.917913
    12  H    0.203492
    13  H    0.047962
    14  H   -0.073360
    15  H   -0.005280
 Sum of Mulliken charges =   0.00000

 Dipole moment (field-independent basis, Debye):
    X=              2.2607    Y=             -1.1706    Z=              0.0000  Tot=              2.5458

 Test job not archived.
 1\1\GINC-SE214\SP\RHF\Aug-CC-pVDZ\C5H5N5\OHZDE\08-Apr-2025\0\\#t hf au
 g-cc-pvdz iop(5/13=1,5/36=2,99/5=2) pseudo=read geom=check guess=(read
 ,tcheck) scf=(maxcycle=1)\\title\\0,1\N,0,-0.214386,-1.993021,0.000158
 \C,0,-1.483458,-1.537649,0.000039\N,0,-1.896987,-0.269765,-0.000126\C,
 0,-0.859092,0.583332,-0.00013\C,0,0.502351,0.258224,0.000025\C,0,0.818
 987,-1.120415,0.000169\N,0,1.293025,1.395362,-0.000018\C,0,0.430884,2.
 385528,-0.000191\N,0,-0.88463,1.960299,-0.000268\H,0,-2.247335,-2.3170
 04,0.000055\N,0,2.078153,-1.590279,0.000313\H,0,2.839337,-0.928535,0.0

 Normal termination of Gaussian 16 at Tue Apr  8 19:15:05 2025.
