 Gaussian 16, Revision C.01,

 ----------------------------------------------------------------------
 #t hf aug-cc-pvdz symm=none int=(grid=ultrafine) guess=(read,tcheck) s
 table=(opt,rrhf)
 ----------------------------------------------------------------------
 -----
 title
 -----
 Symbolic Z-matrix:
 Charge =  0 Multiplicity = 1

 SCF Done:  E(RHF) =  -193.142099189     A.U. after   12 cycles
 Normal termination of Gaussian 16 at Tue Apr  8 22:18:14 2025.
 Gaussian 16:  ES64L-G16RevC.01  3-Jul-2019

 ----------------------------------------------------------------------
 #t hf aug-cc-pvdz iop(5/13=1,5/36=2,99/5=2) pseudo=read geom=check gue
 ss=(read,tcheck) scf=(maxcycle=1)
 ----------------------------------------------------------------------
 -----
 title
 -----
 Structure from the checkpoint file:  "AlcoholCONF_4_5_mol1.chk"
 Charge =  0 Multiplicity = 1

                         Standard orientation:
 ---------------------------------------------------------------------
 Center     Atomic      Atomic             Coordinates (Angstroms)
 Number     Number       Type             X           Y           Z
 ---------------------------------------------------------------------
      1          6           0        1.876286   -0.122943    0.000022
      2          1           0        2.009869   -0.749081    0.879675
      3          1           0        2.664550    0.624919   -0.000246
      4          6           0        0.500330    0.524499   -0.000035
      5          1           0        0.388467    1.161140    0.879129
      6          6           0       -0.603344   -0.510092   -0.000006
      7          1           0       -0.510346   -1.147097    0.880824
      8          8           0       -1.907937    0.060319   -0.000005
      9          1           0       -1.816490    1.014371    0.000203
     10          1           0       -0.510382   -1.147106   -0.880825
     11          1           0        0.388488    1.161053   -0.879270
     12          1           0        2.009712   -0.749531   -0.879332
 ---------------------------------------------------------------------

 SCF Done:  E(RHF) =  -193.353038742     A.U. after    2 cycles

 The electronic state is 1-A.
 Alpha  occ. eigenvalues --  -20.54090 -11.27760 -11.23588 -11.23086  -1.44173
 Alpha  occ. eigenvalues --   -1.06635  -0.92216  -0.82945  -0.66810  -0.66678
 Alpha  occ. eigenvalues --   -0.60583  -0.58288  -0.57182  -0.51307  -0.50094
 Alpha  occ. eigenvalues --   -0.47447  -0.43462
 Alpha virt. eigenvalues --    0.03616   0.03827   0.04251   0.04701   0.07159
 Alpha virt. eigenvalues --    0.07201   0.07534   0.08190   0.11328   0.13911
 Alpha virt. eigenvalues --    0.14614   0.15377   0.15702   0.16835   0.16889

 Mulliken charges:
               1
     1  C   -0.314997
     2  H    0.172804
     3  H    0.115674
     4  C   -0.539958
     5  H    0.099638
     6  C    0.901673
     7  H    0.093432
     8  O   -1.240625
     9  H    0.346450
    10  H    0.093396
    11  H    0.099658
    12  H    0.172855
 Sum of Mulliken charges =  -0.00000

 Dipole moment (field-independent basis, Debye):
    X=              1.8257    Y=              0.9377    Z=              0.0003  Tot=              2.0524

 Test job not archived.
 1\1\GINC-SE250\SP\RHF\Aug-CC-pVDZ\C3H8O1\OHZDE\08-Apr-2025\0\\#t hf au
 g-cc-pvdz iop(5/13=1,5/36=2,99/5=2) pseudo=read geom=check guess=(read
 ,tcheck) scf=(maxcycle=1)\\title\\0,1\C,0,-0.78198,-1.60898,0.79148\H,
 0,-1.40156,-1.14165,1.55398\H,0,-0.34965,-2.50975,1.21852\C,0,0.2977,-
 0.65256,0.30983\H,0,0.94836,-0.37654,1.14122\C,0,-0.29587,0.60454,-0.2
 867\H,0,-0.91173,1.11004,0.4586\O,0,0.687,1.52508,-0.7492\H,0,1.55181,
 1.14725,-0.58209\H,0,-0.94043,0.34386,-1.12745\H,0,0.91962,-1.14133,-0
 .44189\H,0,-1.43059,-1.90644,-0.0298\\Version=ES64L-G16RevC.01\State=1

 Normal termination of Gaussian 16 at Tue Apr  8 22:18:17 2025.
