 Gaussian 16, Revision C.01,

 ----------------------------------------------------------------------
 #t hf aug-cc-pvdz symm=none int=(grid=ultrafine) guess=(read,tcheck) s
 table=(opt,rrhf)
 ----------------------------------------------------------------------
 -----
 title
 -----
 Symbolic Z-matrix:
 Charge =  0 Multiplicity = 1

 SCF Done:  E(RHF) =  -115.061684158     A.U. after   11 cycles
 Normal termination of Gaussian 16 at Tue Apr  8 22:18:08 2025.
 Gaussian 16:  ES64L-G16RevC.01  3-Jul-2019

 ----------------------------------------------------------------------
 #t hf aug-cc-pvdz iop(5/13=1,5/36=2,99/5=2) pseudo=read geom=check gue
 ss=(read,tcheck) scf=(maxcycle=1)
 ----------------------------------------------------------------------
 -----
 title
 -----
 Structure from the checkpoint file:  "AlcoholCONF_1_2_mol2.chk"
 Charge =  0 Multiplicity = 1

                         Standard orientation:
 ---------------------------------------------------------------------
 Center     Atomic      Atomic             Coordinates (Angstroms)
 Number     Number       Type             X           Y           Z
 ---------------------------------------------------------------------
      1          6           0        0.664999   -0.020037    0.000001
      2          1           0        1.021604   -0.541567   -0.887450
      3          8           0       -0.746793    0.121822   -0.000002
      4          1           0       -1.135835   -0.753747    0.000014
      5          1           0        1.076978    0.982502   -0.000006
      6          1           0        1.021604   -0.541543    0.887454
 ---------------------------------------------------------------------

 SCF Done:  E(RHF) =  -115.184298103     A.U. after    2 cycles

 The electronic state is 1-A.
 Alpha  occ. eigenvalues --  -20.54779 -11.28072  -1.44581  -0.93126  -0.69264
 Alpha  occ. eigenvalues --   -0.62454  -0.59585  -0.50488  -0.44513
 Alpha virt. eigenvalues --    0.03590   0.04919   0.05539   0.06366   0.11625
 Alpha virt. eigenvalues --    0.14085   0.15393   0.16917   0.20728   0.22178
 Alpha virt. eigenvalues --    0.24311   0.27928   0.28153   0.32584   0.33805

 Mulliken charges:
               1
     1  C    0.486460
     2  H    0.076322
     3  O   -0.990735
     4  H    0.322967
     5  H    0.028687
     6  H    0.076299
 Sum of Mulliken charges =  -0.00000

 Dipole moment (field-independent basis, Debye):
    X=              0.8870    Y=             -1.5059    Z=              0.0000  Tot=              1.7477

 Test job not archived.
 1\1\GINC-SE058\SP\RHF\Aug-CC-pVDZ\C1H4O1\OHZDE\08-Apr-2025\0\\#t hf au
 g-cc-pvdz iop(5/13=1,5/36=2,99/5=2) pseudo=read geom=check guess=(read
 ,tcheck) scf=(maxcycle=1)\\title\\0,1\C,0,-0.72722,-0.02974,0.00436\H,
 0,-1.09164,-0.51041,0.91149\O,0,0.68743,0.07952,-0.00599\H,0,1.05636,-
 0.80419,0.02439\H,0,-1.11618,0.98135,-0.03056\H,0,-1.09965,-0.57474,-0
 .86223\\Version=ES64L-G16RevC.01\State=1-A\HF=-115.1842981\RMSD=7.723e
 -03\Dipole=-0.3624187,-0.5839061,0.022807\Quadrupole=-0.1182111,0.7071
 937,-0.5889826,-1.6643619,0.058236,-0.0395343\PG=C01 [X(C1H4O1)]\\@

 Normal termination of Gaussian 16 at Tue Apr  8 22:18:10 2025.
