 Gaussian 16, Revision C.01,

 ----------------------------------------------------------------------
 #t hf aug-cc-pvdz symm=none int=(grid=ultrafine) guess=(read,tcheck) s
 table=(opt,rrhf)
 ----------------------------------------------------------------------
 -----
 title
 -----
 Symbolic Z-matrix:
 Charge =  0 Multiplicity = 1

 SCF Done:  E(RHF) =  -193.144327222     A.U. after   12 cycles
 Normal termination of Gaussian 16 at Tue Apr  8 22:18:13 2025.
 Gaussian 16:  ES64L-G16RevC.01  3-Jul-2019

 ----------------------------------------------------------------------
 #t hf aug-cc-pvdz iop(5/13=1,5/36=2,99/5=2) pseudo=read geom=check gue
 ss=(read,tcheck) scf=(maxcycle=1)
 ----------------------------------------------------------------------
 -----
 title
 -----
 Structure from the checkpoint file:  "AlcoholCONF_4_15_mol1.chk"
 Charge =  0 Multiplicity = 1

                         Standard orientation:
 ---------------------------------------------------------------------
 Center     Atomic      Atomic             Coordinates (Angstroms)
 Number     Number       Type             X           Y           Z
 ---------------------------------------------------------------------
      1          6           0        1.879589   -0.129098    0.018361
      2          1           0        1.998977   -0.692381    0.941991
      3          1           0        2.677834    0.606758   -0.027899
      4          6           0        0.511605    0.532100   -0.045664
      5          1           0        0.400588    1.236943    0.780591
      6          6           0       -0.602494   -0.491662    0.024317
      7          1           0       -0.514711   -1.074619    0.945477
      8          8           0       -1.897217    0.083210   -0.085066
      9          1           0       -2.012421    0.692663    0.647255
     10          1           0       -0.523197   -1.185302   -0.810069
     11          1           0        0.403427    1.102058   -0.967235
     12          1           0        2.015036   -0.819847   -0.811662
 ---------------------------------------------------------------------

 SCF Done:  E(RHF) =  -193.355217676     A.U. after    2 cycles

 The electronic state is 1-A.
 Alpha  occ. eigenvalues --  -20.54349 -11.27793 -11.22900 -11.22738  -1.44386
 Alpha  occ. eigenvalues --   -1.06242  -0.92089  -0.82182  -0.69501  -0.64120
 Alpha  occ. eigenvalues --   -0.60260  -0.59318  -0.55105  -0.51029  -0.50408
 Alpha  occ. eigenvalues --   -0.47678  -0.43410
 Alpha virt. eigenvalues --    0.03642   0.03895   0.04188   0.04772   0.07057
 Alpha virt. eigenvalues --    0.07184   0.07473   0.08355   0.11565   0.13992
 Alpha virt. eigenvalues --    0.15056   0.15639   0.15672   0.16741   0.17058

 Mulliken charges:
               1
     1  C   -0.309566
     2  H    0.163027
     3  H    0.107262
     4  C   -0.515235
     5  H    0.110387
     6  C    0.826036
     7  H    0.107043
     8  O   -1.159854
     9  H    0.286485
    10  H    0.048516
    11  H    0.168622
    12  H    0.167279
 Sum of Mulliken charges =  -0.00000

 Dipole moment (field-independent basis, Debye):
    X=              1.3564    Y=              0.4122    Z=              1.1481  Tot=              1.8243

 Test job not archived.
 1\1\GINC-SE362\SP\RHF\Aug-CC-pVDZ\C3H8O1\OHZDE\08-Apr-2025\0\\#t hf au
 g-cc-pvdz iop(5/13=1,5/36=2,99/5=2) pseudo=read geom=check guess=(read
 ,tcheck) scf=(maxcycle=1)\\title\\0,1\C,0,-1.95289,0.13356,0.01479\H,0
 ,-2.07752,0.71653,0.92542\H,0,-2.75155,-0.60244,-0.02078\C,0,-0.58518,
 -0.53001,-0.0265\H,0,-0.48004,-1.21715,0.81529\C,0,0.52946,0.49407,0.0
 2863\H,0,0.43647,1.09663,0.93657\O,0,1.82428,-0.0841,-0.06031\H,0,1.93
 429,-0.67788,0.68556\H,0,0.45608,1.16981,-0.82085\H,0,-0.47178,-1.1196
 ,-0.935\H,0,-2.08245,0.80655,-0.83062\\Version=ES64L-G16RevC.01\State=

 Normal termination of Gaussian 16 at Tue Apr  8 22:18:15 2025.
