 Gaussian 16, Revision C.01,

 ----------------------------------------------------------------------
 #t hf aug-cc-pvdz symm=none int=(grid=ultrafine) guess=(read,tcheck) s
 table=(opt,rrhf)
 ----------------------------------------------------------------------
 -----
 title
 -----
 Symbolic Z-matrix:
 Charge =  0 Multiplicity = 1

 SCF Done:  E(RHF) =  -193.149201423     A.U. after   12 cycles
 Normal termination of Gaussian 16 at Tue Apr  8 22:18:14 2025.
 Gaussian 16:  ES64L-G16RevC.01  3-Jul-2019

 ----------------------------------------------------------------------
 #t hf aug-cc-pvdz iop(5/13=1,5/36=2,99/5=2) pseudo=read geom=check gue
 ss=(read,tcheck) scf=(maxcycle=1)
 ----------------------------------------------------------------------
 -----
 title
 -----
 Structure from the checkpoint file:  "AlcoholCONF_3_4_mol2.chk"
 Charge =  0 Multiplicity = 1

                         Standard orientation:
 ---------------------------------------------------------------------
 Center     Atomic      Atomic             Coordinates (Angstroms)
 Number     Number       Type             X           Y           Z
 ---------------------------------------------------------------------
      1          6           0        0.001017    0.039104    0.368927
      2          1           0       -0.007490    0.088802    1.462038
      3          6           0        1.315098   -0.546095   -0.090146
      4          1           0        1.445373   -1.549649    0.307759
      5          1           0        2.142690    0.073678    0.243188
      6          1           0        1.335241   -0.594109   -1.176809
      7          6           0       -1.183039   -0.779901   -0.103750
      8          1           0       -1.140690   -1.788120    0.303744
      9          1           0       -2.122094   -0.329372    0.214654
     10          1           0       -1.179940   -0.839892   -1.190000
     11          8           0       -0.047738    1.363272   -0.162407
     12          1           0       -0.889645    1.753835    0.084497
 ---------------------------------------------------------------------

 SCF Done:  E(RHF) =  -193.359959354     A.U. after    2 cycles

 The electronic state is 1-A.
 Alpha  occ. eigenvalues --  -20.54116 -11.28308 -11.22520 -11.21765  -1.44341
 Alpha  occ. eigenvalues --   -1.05208  -0.94368  -0.80344  -0.69918  -0.63603
 Alpha  occ. eigenvalues --   -0.61269  -0.55331  -0.53915  -0.53014  -0.51414
 Alpha  occ. eigenvalues --   -0.47972  -0.43438
 Alpha virt. eigenvalues --    0.03572   0.04291   0.04334   0.04775   0.06995
 Alpha virt. eigenvalues --    0.07185   0.07712   0.07966   0.12278   0.13561
 Alpha virt. eigenvalues --    0.14723   0.15531   0.16573   0.16810   0.17166

 Mulliken charges:
               1
     1  C    0.452013
     2  H    0.115499
     3  C   -0.277591
     4  H    0.187662
     5  H    0.131699
     6  H    0.186573
     7  C   -0.273758
     8  H    0.176122
     9  H    0.073363
    10  H    0.214537
    11  O   -1.277098
    12  H    0.290980
 Sum of Mulliken charges =  -0.00000

 Dipole moment (field-independent basis, Debye):
    X=             -1.1703    Y=             -0.8559    Z=              0.8886  Tot=              1.7005

 Test job not archived.
 1\1\GINC-SE226\SP\RHF\Aug-CC-pVDZ\C3H8O1\OHZDE\08-Apr-2025\0\\#t hf au
 g-cc-pvdz iop(5/13=1,5/36=2,99/5=2) pseudo=read geom=check guess=(read
 ,tcheck) scf=(maxcycle=1)\\title\\0,1\C,0,0.01073,0.01815,0.37272\H,0,
 0.02207,-0.01574,1.46641\C,0,-1.22068,0.76124,-0.08713\H,0,-1.21692,1.
 7791,0.29545\H,0,-2.11848,0.25869,0.26149\H,0,-1.24372,0.79506,-1.1742
 7\C,0,1.28653,0.67008,-0.12074\H,0,1.37816,1.68135,0.27078\H,0,2.16225
 ,0.10685,0.19874\H,0,1.28194,0.71358,-1.20777\O,0,-0.11639,-1.30908,-0
 .13759\H,0,0.67013,-1.80138,0.11007\\Version=ES64L-G16RevC.01\State=1-

 Normal termination of Gaussian 16 at Tue Apr  8 22:18:17 2025.
