 Gaussian 16, Revision C.01,

 ----------------------------------------------------------------------
 #t hf aug-cc-pvdz symm=none int=(grid=ultrafine) guess=(read,tcheck) s
 table=(opt,rrhf)
 ----------------------------------------------------------------------
 -----
 title
 -----
 Symbolic Z-matrix:
 Charge =  0 Multiplicity = 1

 SCF Done:  E(RHF) =  -193.138527668     A.U. after   12 cycles
 Normal termination of Gaussian 16 at Tue Apr  8 22:18:13 2025.
 Gaussian 16:  ES64L-G16RevC.01  3-Jul-2019

 ----------------------------------------------------------------------
 #t hf aug-cc-pvdz iop(5/13=1,5/36=2,99/5=2) pseudo=read geom=check gue
 ss=(read,tcheck) scf=(maxcycle=1)
 ----------------------------------------------------------------------
 -----
 title
 -----
 Structure from the checkpoint file:  "AlcoholCONF_4_20_mol1.chk"
 Charge =  0 Multiplicity = 1

                         Standard orientation:
 ---------------------------------------------------------------------
 Center     Atomic      Atomic             Coordinates (Angstroms)
 Number     Number       Type             X           Y           Z
 ---------------------------------------------------------------------
      1          6           0        1.539620   -0.487328    0.108571
      2          1           0        1.929217   -1.019417   -0.754132
      3          6           0        0.604601    0.662019   -0.292479
      4          1           0        0.493844    0.707389   -1.374085
      5          1           0        1.024157    1.616907    0.022441
      6          6           0       -0.779342    0.532530    0.311551
      7          8           0       -1.494783   -0.586607   -0.195526
      8          1           0       -1.002297   -1.380195    0.025799
      9          1           0       -1.387124    1.397431    0.059442
     10          1           0       -0.708275    0.478538    1.401739
     11          1           0        2.389656   -0.130638    0.683125
     12          1           0        1.029809   -1.220496    0.734021
 ---------------------------------------------------------------------

 SCF Done:  E(RHF) =  -193.349026886     A.U. after    2 cycles

 The electronic state is 1-A.
 Alpha  occ. eigenvalues --  -20.54251 -11.27812 -11.23000 -11.22905  -1.44341
 Alpha  occ. eigenvalues --   -1.05762  -0.93092  -0.81481  -0.69656  -0.64546
 Alpha  occ. eigenvalues --   -0.60475  -0.59268  -0.54639  -0.51821  -0.49761
 Alpha  occ. eigenvalues --   -0.47675  -0.43398
 Alpha virt. eigenvalues --    0.03692   0.03959   0.04323   0.04822   0.06909
 Alpha virt. eigenvalues --    0.07274   0.07434   0.08083   0.12131   0.14295
 Alpha virt. eigenvalues --    0.14585   0.15301   0.15697   0.16567   0.16964

 Mulliken charges:
               1
     1  C   -0.247617
     2  H    0.159703
     3  C   -0.476037
     4  H    0.137808
     5  H    0.177744
     6  C    0.712871
     7  O   -1.118246
     8  H    0.343661
     9  H    0.025794
    10  H    0.142975
    11  H    0.132229
    12  H    0.009115
 Sum of Mulliken charges =  -0.00000

 Dipole moment (field-independent basis, Debye):
    X=              1.6973    Y=              0.1065    Z=              0.7428  Tot=              1.8558

 Test job not archived.
 1\1\GINC-SE398\SP\RHF\Aug-CC-pVDZ\C3H8O1\OHZDE\08-Apr-2025\0\\#t hf au
 g-cc-pvdz iop(5/13=1,5/36=2,99/5=2) pseudo=read geom=check guess=(read
 ,tcheck) scf=(maxcycle=1)\\title\\0,1\C,0,-1.57452,-0.56012,-0.13399\H
 ,0,-1.94197,-1.115,0.72406\C,0,-0.70161,0.63348,0.27765\H,0,-0.60006,0
 .67977,1.36012\H,0,-1.16715,1.56718,-0.03618\C,0,0.69087,0.57701,-0.31
 794\O,0,1.45905,-0.50653,0.1893\H,0,1.0089,-1.32314,-0.03835\H,0,1.252
 35,1.47056,-0.05848\H,0,0.62945,0.52416,-1.40877\H,0,-2.43797,-0.24458
 ,-0.7126\H,0,-1.02423,-1.26377,-0.75904\\Version=ES64L-G16RevC.01\Stat

 Normal termination of Gaussian 16 at Tue Apr  8 22:18:16 2025.
