 Gaussian 16, Revision C.01,

 ----------------------------------------------------------------------
 #t hf aug-cc-pvdz symm=none int=(grid=ultrafine) guess=(read,tcheck) s
 table=(opt,rrhf)
 ----------------------------------------------------------------------
 -----
 title
 -----
 Symbolic Z-matrix:
 Charge =  0 Multiplicity = 1

 SCF Done:  E(RHF) =  -115.059868479     A.U. after   11 cycles
 Normal termination of Gaussian 16 at Tue Apr  8 22:17:33 2025.
 Gaussian 16:  ES64L-G16RevC.01  3-Jul-2019

 ----------------------------------------------------------------------
 #t hf aug-cc-pvdz iop(5/13=1,5/36=2,99/5=2) pseudo=read geom=check gue
 ss=(read,tcheck) scf=(maxcycle=1)
 ----------------------------------------------------------------------
 -----
 title
 -----
 Structure from the checkpoint file:  "AlcoholCONF_1_2_mol1.chk"
 Charge =  0 Multiplicity = 1

                         Standard orientation:
 ---------------------------------------------------------------------
 Center     Atomic      Atomic             Coordinates (Angstroms)
 Number     Number       Type             X           Y           Z
 ---------------------------------------------------------------------
      1          6           0        0.666866    0.018356   -0.000001
      2          1           0        1.078602   -0.461984   -0.883947
      3          8           0       -0.748412   -0.124226   -0.000002
      4          1           0       -1.144013    0.746055    0.000002
      5          1           0        0.972933    1.061606    0.000013
      6          1           0        1.078576   -0.462000    0.883954
 ---------------------------------------------------------------------

 SCF Done:  E(RHF) =  -115.182522198     A.U. after    2 cycles

 The electronic state is 1-A.
 Alpha  occ. eigenvalues --  -20.54620 -11.28108  -1.44425  -0.93167  -0.69300
 Alpha  occ. eigenvalues --   -0.62300  -0.59739  -0.50436  -0.44328
 Alpha virt. eigenvalues --    0.03520   0.04951   0.05906   0.06043   0.11664
 Alpha virt. eigenvalues --    0.14473   0.15008   0.16813   0.21314   0.22435
 Alpha virt. eigenvalues --    0.23702   0.26575   0.29278   0.32513   0.35870

 Mulliken charges:
               1
     1  C    0.487193
     2  H    0.078108
     3  O   -0.987129
     4  H    0.312531
     5  H    0.031180
     6  H    0.078115
 Sum of Mulliken charges =   0.00000

 Dipole moment (field-independent basis, Debye):
    X=              0.8903    Y=              1.5800    Z=              0.0000  Tot=              1.8136

 Test job not archived.
 1\1\GINC-SE334\SP\RHF\Aug-CC-pVDZ\C1H4O1\OHZDE\08-Apr-2025\0\\#t hf au
 g-cc-pvdz iop(5/13=1,5/36=2,99/5=2) pseudo=read geom=check guess=(read
 ,tcheck) scf=(maxcycle=1)\\title\\0,1\C,0,-0.7295,0.01696,0.00455\H,0,
 -1.11588,-0.45765,0.90292\O,0,0.69028,-0.06969,-0.003\H,0,1.05111,0.81
 525,-0.02693\H,0,-1.07662,1.04703,-0.0181\H,0,-1.12787,-0.50055,-0.864
 42\\Version=ES64L-G16RevC.01\State=1-A\HF=-115.1825222\RMSD=7.458e-03\
 Dipole=-0.3746078,0.6071533,-0.0121878\Quadrupole=-0.1583384,0.7217367
 ,-0.5633982,1.58769,-0.0413159,-0.0420172\PG=C01 [X(C1H4O1)]\\@

 Normal termination of Gaussian 16 at Tue Apr  8 22:17:34 2025.
