 Gaussian 16, Revision C.01,

 ----------------------------------------------------------------------
 #t hf aug-cc-pvdz symm=none int=(grid=ultrafine) guess=(read,tcheck) s
 table=(opt,rrhf)
 ----------------------------------------------------------------------
 -----
 title
 -----
 Symbolic Z-matrix:
 Charge =  0 Multiplicity = 1

 SCF Done:  E(RHF) =  -193.143011922     A.U. after   12 cycles
 Normal termination of Gaussian 16 at Tue Apr  8 22:18:13 2025.
 Gaussian 16:  ES64L-G16RevC.01  3-Jul-2019

 ----------------------------------------------------------------------
 #t hf aug-cc-pvdz iop(5/13=1,5/36=2,99/5=2) pseudo=read geom=check gue
 ss=(read,tcheck) scf=(maxcycle=1)
 ----------------------------------------------------------------------
 -----
 title
 -----
 Structure from the checkpoint file:  "AlcoholCONF_3_5_mol1.chk"
 Charge =  0 Multiplicity = 1

                         Standard orientation:
 ---------------------------------------------------------------------
 Center     Atomic      Atomic             Coordinates (Angstroms)
 Number     Number       Type             X           Y           Z
 ---------------------------------------------------------------------
      1          6           0        0.005506    0.042692    0.365402
      2          8           0        0.099686    1.364532   -0.170817
      3          1           0       -0.668071    1.861254    0.121872
      4          6           0        1.256846   -0.671459   -0.087390
      5          1           0        1.271386   -0.726214   -1.174014
      6          1           0        2.143047   -0.139140    0.246369
      7          1           0        1.279653   -1.682494    0.312664
      8          6           0       -1.270397   -0.670750   -0.098009
      9          1           0       -1.841099   -0.015335   -0.751402
     10          1           0       -1.039194   -1.570872   -0.662726
     11          1           0       -1.905521   -0.953718    0.737562
     12          1           0        0.010576    0.107360    1.456189
 ---------------------------------------------------------------------

 SCF Done:  E(RHF) =  -193.353425044     A.U. after    2 cycles

 The electronic state is 1-A.
 Alpha  occ. eigenvalues --  -20.54060 -11.28390 -11.22339 -11.21771  -1.44248
 Alpha  occ. eigenvalues --   -1.04866  -0.94236  -0.80440  -0.69774  -0.63429
 Alpha  occ. eigenvalues --   -0.60927  -0.55570  -0.54123  -0.53202  -0.50681
 Alpha  occ. eigenvalues --   -0.47591  -0.43363
 Alpha virt. eigenvalues --    0.03634   0.04295   0.04393   0.04812   0.06870
 Alpha virt. eigenvalues --    0.07222   0.07649   0.08092   0.12610   0.13455
 Alpha virt. eigenvalues --    0.15150   0.15297   0.16598   0.16823   0.17075

 Mulliken charges:
               1
     1  C    0.626972
     2  O   -1.271083
     3  H    0.284901
     4  C   -0.360349
     5  H    0.200805
     6  H    0.118038
     7  H    0.187170
     8  C   -0.304521
     9  H    0.164964
    10  H    0.094706
    11  H    0.173620
    12  H    0.084777
 Sum of Mulliken charges =   0.00000

 Dipole moment (field-independent basis, Debye):
    X=             -1.2360    Y=             -0.6681    Z=              0.9517  Tot=              1.6970

 Test job not archived.
 1\1\GINC-SE329\SP\RHF\Aug-CC-pVDZ\C3H8O1\OHZDE\08-Apr-2025\0\\#t hf au
 g-cc-pvdz iop(5/13=1,5/36=2,99/5=2) pseudo=read geom=check guess=(read
 ,tcheck) scf=(maxcycle=1)\\title\\0,1\C,0,0.00335,0.01592,-0.36993\O,0
 ,-0.55278,-1.19737,0.14223\H,0,-1.46034,-1.26293,-0.16418\C,0,1.43731,
 0.03927,0.10346\H,0,1.46093,0.0658,1.19098\H,0,1.96627,-0.84722,-0.234
 84\H,0,1.94585,0.92183,-0.27763\C,0,-0.78327,1.24595,0.09904\H,0,-1.60
 684,0.93412,0.73676\H,0,-0.15822,1.91854,0.68172\H,0,-1.19429,1.80919,
 -0.7349\H,0,-0.00772,-0.02863,-1.46168\\Version=ES64L-G16RevC.01\State

 Normal termination of Gaussian 16 at Tue Apr  8 22:18:16 2025.
