 Gaussian 16, Revision C.01,

 ----------------------------------------------------------------------
 #t hf aug-cc-pvdz symm=none int=(grid=ultrafine) guess=(read,tcheck) s
 table=(opt,rrhf)
 ----------------------------------------------------------------------
 -----
 title
 -----
 Symbolic Z-matrix:
 Charge =  0 Multiplicity = 1

 SCF Done:  E(RHF) =  -193.135272969     A.U. after   12 cycles
 Normal termination of Gaussian 16 at Tue Apr  8 22:18:13 2025.
 Gaussian 16:  ES64L-G16RevC.01  3-Jul-2019

 ----------------------------------------------------------------------
 #t hf aug-cc-pvdz iop(5/13=1,5/36=2,99/5=2) pseudo=read geom=check gue
 ss=(read,tcheck) scf=(maxcycle=1)
 ----------------------------------------------------------------------
 -----
 title
 -----
 Structure from the checkpoint file:  "AlcoholCONF_4_13_mol1.chk"
 Charge =  0 Multiplicity = 1

                         Standard orientation:
 ---------------------------------------------------------------------
 Center     Atomic      Atomic             Coordinates (Angstroms)
 Number     Number       Type             X           Y           Z
 ---------------------------------------------------------------------
      1          6           0       -1.427534   -0.573867   -0.024281
      2          1           0       -1.159262   -1.146247   -0.906839
      3          1           0       -2.500178   -0.396824   -0.040685
      4          6           0       -0.681381    0.752110    0.024661
      5          1           0       -0.995744    1.360537   -0.821379
      6          6           0        0.856942    0.617655    0.002109
      7          1           0        1.262551    1.112866   -0.874639
      8          8           0        1.337893   -0.717366   -0.091575
      9          1           0        1.110507   -1.178119    0.717975
     10          1           0        1.287822    1.105862    0.877257
     11          1           0       -0.981622    1.296077    0.919030
     12          1           0       -1.215380   -1.190607    0.846950
 ---------------------------------------------------------------------

 SCF Done:  E(RHF) =  -193.345707038     A.U. after    2 cycles

 The electronic state is 1-A.
 Alpha  occ. eigenvalues --  -20.54239 -11.27841 -11.22812 -11.22257  -1.44338
 Alpha  occ. eigenvalues --   -1.05087  -0.92933  -0.80839  -0.69070  -0.63746
 Alpha  occ. eigenvalues --   -0.62616  -0.58059  -0.53266  -0.51675  -0.50399
 Alpha  occ. eigenvalues --   -0.46378  -0.43356
 Alpha virt. eigenvalues --    0.03609   0.04121   0.04288   0.04797   0.06821
 Alpha virt. eigenvalues --    0.07170   0.07788   0.08221   0.11621   0.14135
 Alpha virt. eigenvalues --    0.14913   0.15286   0.15987   0.16529   0.17142

 Mulliken charges:
               1
     1  C   -0.195891
     2  H    0.173662
     3  H    0.078288
     4  C   -0.479290
     5  H    0.154951
     6  C    0.686850
     7  H    0.010434
     8  O   -1.101486
     9  H    0.315141
    10  H    0.109441
    11  H    0.122573
    12  H    0.125326
 Sum of Mulliken charges =  -0.00000

 Dipole moment (field-independent basis, Debye):
    X=             -0.9746    Y=              0.6791    Z=              1.1995  Tot=              1.6881

 Test job not archived.
 1\1\GINC-SE334\SP\RHF\Aug-CC-pVDZ\C3H8O1\OHZDE\08-Apr-2025\0\\#t hf au
 g-cc-pvdz iop(5/13=1,5/36=2,99/5=2) pseudo=read geom=check guess=(read
 ,tcheck) scf=(maxcycle=1)\\title\\0,1\C,0,-1.4743,0.57323,0.0138\H,0,-
 1.19627,1.15082,0.88992\H,0,-2.54861,0.40734,0.0365\C,0,-0.74194,-0.76
 071,-0.0263\H,0,-1.05872,-1.35818,0.82662\C,0,0.79776,-0.64182,-0.0116
 9\H,0,1.2022,-1.13318,0.86776\O,0,1.29272,0.689,0.06771\H,0,1.06644,1.
 14469,-0.74501\H,0,1.21973,-1.14234,-0.88422\H,0,-1.0517,-1.30967,-0.9
 1435\H,0,-1.25975,1.17983,-0.86394\\Version=ES64L-G16RevC.01\State=1-A

 Normal termination of Gaussian 16 at Tue Apr  8 22:18:16 2025.
