 Gaussian 16, Revision C.01,

 ----------------------------------------------------------------------
 #t hf aug-cc-pvdz symm=none int=(grid=ultrafine) guess=(read,tcheck) s
 table=(opt,rrhf)
 ----------------------------------------------------------------------
 -----
 title
 -----
 Symbolic Z-matrix:
 Charge =  0 Multiplicity = 1

 SCF Done:  E(RHF) =  -193.147162491     A.U. after   12 cycles
 Normal termination of Gaussian 16 at Tue Apr  8 22:18:14 2025.
 Gaussian 16:  ES64L-G16RevC.01  3-Jul-2019

 ----------------------------------------------------------------------
 #t hf aug-cc-pvdz iop(5/13=1,5/36=2,99/5=2) pseudo=read geom=check gue
 ss=(read,tcheck) scf=(maxcycle=1)
 ----------------------------------------------------------------------
 -----
 title
 -----
 Structure from the checkpoint file:  "AlcoholCONF_3_4_mol1.chk"
 Charge =  0 Multiplicity = 1

                         Standard orientation:
 ---------------------------------------------------------------------
 Center     Atomic      Atomic             Coordinates (Angstroms)
 Number     Number       Type             X           Y           Z
 ---------------------------------------------------------------------
      1          6           0        0.000002    0.047012    0.357671
      2          8           0       -0.000006    1.354757   -0.230637
      3          1           0       -0.000010    2.008559    0.468780
      4          6           0       -1.253842   -0.677558   -0.083820
      5          1           0       -1.273772   -0.735390   -1.170150
      6          1           0       -2.141902   -0.145612    0.246598
      7          1           0       -1.279574   -1.688201    0.318793
      8          6           0        1.253848   -0.677547   -0.083822
      9          1           0        1.273795   -0.735363   -1.170147
     10          1           0        2.141893   -0.145606    0.246622
     11          1           0        1.279579   -1.688193    0.318782
     12          1           0       -0.000007    0.140314    1.445642
 ---------------------------------------------------------------------

 SCF Done:  E(RHF) =  -193.357848818     A.U. after    2 cycles

 The electronic state is 1-A.
 Alpha  occ. eigenvalues --  -20.53961 -11.28406 -11.21814 -11.21791  -1.44086
 Alpha  occ. eigenvalues --   -1.05109  -0.93866  -0.80028  -0.71294  -0.61785
 Alpha  occ. eigenvalues --   -0.60269  -0.56350  -0.54509  -0.52470  -0.51125
 Alpha  occ. eigenvalues --   -0.47295  -0.43428
 Alpha virt. eigenvalues --    0.03409   0.04336   0.04407   0.04809   0.06941
 Alpha virt. eigenvalues --    0.07378   0.07404   0.08086   0.12412   0.13475
 Alpha virt. eigenvalues --    0.14635   0.15886   0.16147   0.17054   0.17477

 Mulliken charges:
               1
     1  C    0.316857
     2  O   -1.195868
     3  H    0.246604
     4  C   -0.239809
     5  H    0.191206
     6  H    0.113106
     7  H    0.189660
     8  C   -0.239781
     9  H    0.191201
    10  H    0.113093
    11  H    0.189666
    12  H    0.124065
 Sum of Mulliken charges =   0.00000

 Dipole moment (field-independent basis, Debye):
    X=              0.0000    Y=             -0.3558    Z=              1.6830  Tot=              1.7202

 Test job not archived.
 1\1\GINC-SE097\SP\RHF\Aug-CC-pVDZ\C3H8O1\OHZDE\08-Apr-2025\0\\#t hf au
 g-cc-pvdz iop(5/13=1,5/36=2,99/5=2) pseudo=read geom=check guess=(read
 ,tcheck) scf=(maxcycle=1)\\title\\0,1\C,0,-0.00065,0.00746,-0.36923\O,
 0,0.03982,-1.30784,0.20055\H,0,0.05848,-1.95143,-0.50803\C,0,-1.27513,
 0.68747,0.0839\H,0,-1.29508,0.72937,1.17096\H,0,-2.14722,0.1336,-0.252
 97\H,0,-1.33205,1.70244,-0.30437\C,0,1.23141,0.76334,0.081\H,0,1.25132
 ,0.80643,1.16801\H,0,2.13461,0.26322,-0.25795\H,0,1.22593,1.77987,-0.3
 0732\H,0,0.00044,-0.07047,-1.45841\\Version=ES64L-G16RevC.01\State=1-A

 Normal termination of Gaussian 16 at Tue Apr  8 22:18:17 2025.
