 Gaussian 16, Revision C.01,

 ----------------------------------------------------------------------
 #t hf aug-cc-pvdz symm=none int=(grid=ultrafine) guess=(read,tcheck) s
 table=(opt,rrhf)
 ----------------------------------------------------------------------
 -----
 title
 -----
 Symbolic Z-matrix:
 Charge =  0 Multiplicity = 1

 SCF Done:  E(RHF) =  -274.428249510     A.U. after   12 cycles
 Normal termination of Gaussian 16 at Tue Apr  8 22:19:25 2025.
 Gaussian 16:  ES64L-G16RevC.01  3-Jul-2019

 ----------------------------------------------------------------------
 #t hf aug-cc-pvdz iop(5/13=1,5/36=2,99/5=2) pseudo=read geom=check gue
 ss=(read,tcheck) scf=(maxcycle=1)
 ----------------------------------------------------------------------
 -----
 title
 -----
 Structure from the checkpoint file:  "AlkAtom19_16_mol1.chk"
 Charge =  0 Multiplicity = 1

                         Standard orientation:
 ---------------------------------------------------------------------
 Center     Atomic      Atomic             Coordinates (Angstroms)
 Number     Number       Type             X           Y           Z
 ---------------------------------------------------------------------
      1          6           0        1.382083    1.004589    0.000000
      2          1           0        1.838156    0.534367    0.874097
      3          1           0        1.838156    0.534367   -0.874097
      4          6           0       -0.128744    0.758657    0.000000
      5          1           0       -0.560865    1.258825   -0.873638
      6          1           0       -0.560865    1.258825    0.873638
      7          6           0       -0.616963   -0.709861    0.000000
      8          6           0       -0.128744   -1.449918   -1.255413
      9          1           0       -0.536699   -2.462012   -1.288109
     10          1           0        0.957932   -1.533995   -1.280986
     11          1           0       -0.446893   -0.934416   -2.164084
     12          6           0       -2.154131   -0.696002    0.000000
     13          1           0       -2.542626   -0.183102    0.882098
     14          1           0       -2.554912   -1.711469    0.000000
     15          1           0       -2.542626   -0.183102   -0.882098
     16          6           0       -0.128744   -1.449918    1.255413
     17          1           0       -0.536699   -2.462012    1.288109
     18          1           0       -0.446893   -0.934416    2.164084
     19          1           0        0.957932   -1.533995    1.280986
     20          6           0        1.725331    2.494198    0.000000
     21          1           0        1.316043    2.993582    0.880457
     22          1           0        2.804289    2.654502    0.000000
     23          1           0        1.316043    2.993582   -0.880457
 ---------------------------------------------------------------------

 SCF Done:  E(RHF) =  -274.739762602     A.U. after    2 cycles

 The electronic state is 1-A'.
 Alpha  occ. eigenvalues --  -11.23442 -11.22141 -11.21879 -11.21827 -11.21540
 Alpha  occ. eigenvalues --  -11.21540 -11.21504  -1.11205  -1.03679  -0.92980
 Alpha  occ. eigenvalues --   -0.92945  -0.91866  -0.81298  -0.73184  -0.64163
 Alpha  occ. eigenvalues --   -0.62992  -0.60520  -0.60175  -0.56742  -0.54939
 Alpha  occ. eigenvalues --   -0.54635  -0.51743  -0.51729  -0.51461  -0.49246
 Alpha  occ. eigenvalues --   -0.47754  -0.45517  -0.44973  -0.44342
 Alpha virt. eigenvalues --    0.03420   0.03559   0.03628   0.04059   0.05634
 Alpha virt. eigenvalues --    0.05747   0.05884   0.06386   0.06422   0.08454
 Alpha virt. eigenvalues --    0.08945   0.09045   0.09585   0.09979   0.11293

 Mulliken charges:
               1
     1  C   -0.254506
     2  H    0.128889
     3  H    0.128889
     4  C    0.270112
     5  H    0.103932
     6  H    0.103932
     7  C   -3.011309
     8  C    0.191390
     9  H    0.175259
    10  H    0.184638
    11  H    0.193513
    12  C    0.412076
    13  H    0.208167
    14  H    0.171509
    15  H    0.208167
    16  C    0.191390
    17  H    0.175259
    18  H    0.193513
    19  H    0.184638
    20  C   -0.401291
    21  H    0.165828
    22  H    0.110174
    23  H    0.165828
 Sum of Mulliken charges =  -0.00000

 Dipole moment (field-independent basis, Debye):
    X=              0.0629    Y=             -0.0255    Z=              0.0000  Tot=              0.0679

 Test job not archived.
 1\1\GINC-SE457\SP\RHF\Aug-CC-pVDZ\C7H16\OHZDE\08-Apr-2025\0\\#t hf aug
 -cc-pvdz iop(5/13=1,5/36=2,99/5=2) pseudo=read geom=check guess=(read,
 tcheck) scf=(maxcycle=1)\\title\\0,1\C,0,1.382083,1.004589,0.\H,0,1.83
 8156,0.534367,0.874097\H,0,1.838156,0.534367,-0.874097\C,0,-0.128744,0
 .758657,0.\H,0,-0.560865,1.258825,-0.873638\H,0,-0.560865,1.258825,0.8
 73638\C,0,-0.616963,-0.709861,0.\C,0,-0.128744,-1.449918,-1.255413\H,0
 ,-0.536699,-2.462012,-1.288109\H,0,0.957932,-1.533995,-1.280986\H,0,-0
 .446893,-0.934416,-2.164084\C,0,-2.154131,-0.696002,0.\H,0,-2.542626,-

 Normal termination of Gaussian 16 at Tue Apr  8 22:19:31 2025.
