 Gaussian 16, Revision C.01,

 ----------------------------------------------------------------------
 #t hf aug-cc-pvdz symm=none int=(grid=ultrafine) guess=(read,tcheck) s
 table=(opt,rrhf)
 ----------------------------------------------------------------------
 -----
 title
 -----
 Symbolic Z-matrix:
 Charge =  0 Multiplicity = 1

 SCF Done:  E(RHF) =  -274.430229954     A.U. after   11 cycles
 Normal termination of Gaussian 16 at Tue Apr  8 22:19:21 2025.
 Gaussian 16:  ES64L-G16RevC.01  3-Jul-2019

 ----------------------------------------------------------------------
 #t hf aug-cc-pvdz iop(5/13=1,5/36=2,99/5=2) pseudo=read geom=check gue
 ss=(read,tcheck) scf=(maxcycle=1)
 ----------------------------------------------------------------------
 -----
 title
 -----
 Structure from the checkpoint file:  "AlkAtom19_12_mol1.chk"
 Charge =  0 Multiplicity = 1

                         Standard orientation:
 ---------------------------------------------------------------------
 Center     Atomic      Atomic             Coordinates (Angstroms)
 Number     Number       Type             X           Y           Z
 ---------------------------------------------------------------------
      1          6           0       -2.223705   -0.502453    0.272279
      2          1           0       -2.190337   -0.604336    1.361136
      3          1           0       -2.255742   -1.521228   -0.125243
      4          6           0       -0.943981    0.184455   -0.207392
      5          1           0       -0.975338    0.278518   -1.298374
      6          1           0       -0.923943    1.204745    0.184773
      7          6           0        0.329089   -0.560430    0.197503
      8          1           0        0.387904   -0.611004    1.290959
      9          1           0        0.249780   -1.596374   -0.147579
     10          6           0        1.640954    0.031158   -0.341575
     11          1           0        1.542887    0.113641   -1.430328
     12          6           0        2.814476   -0.908266   -0.049403
     13          1           0        3.747342   -0.516604   -0.458362
     14          1           0        2.952773   -1.034196    1.027404
     15          1           0        2.649082   -1.897312   -0.479868
     16          6           0        1.924764    1.431454    0.210945
     17          1           0        1.137158    2.140379   -0.043141
     18          1           0        2.012998    1.406435    1.300317
     19          1           0        2.861787    1.825040   -0.186558
     20          6           0       -3.495641    0.241443   -0.130289
     21          1           0       -4.389290   -0.273924    0.224158
     22          1           0       -3.509538    1.251503    0.284060
     23          1           0       -3.573259    0.330556   -1.215766
 ---------------------------------------------------------------------

 SCF Done:  E(RHF) =  -274.742810380     A.U. after    2 cycles

 The electronic state is 1-A.
 Alpha  occ. eigenvalues --  -11.22758 -11.22226 -11.21930 -11.21865 -11.21855
 Alpha  occ. eigenvalues --  -11.21656 -11.21617  -1.09955  -1.05100  -0.96657
 Alpha  occ. eigenvalues --   -0.92732  -0.86833  -0.79559  -0.76572  -0.65369
 Alpha  occ. eigenvalues --   -0.62370  -0.60607  -0.59824  -0.57112  -0.55034
 Alpha  occ. eigenvalues --   -0.53898  -0.53446  -0.50575  -0.50285  -0.48384
 Alpha  occ. eigenvalues --   -0.47028  -0.45934  -0.45590  -0.44466
 Alpha virt. eigenvalues --    0.03335   0.03406   0.03577   0.04178   0.05238
 Alpha virt. eigenvalues --    0.05632   0.05917   0.06328   0.07127   0.07927
 Alpha virt. eigenvalues --    0.08350   0.08792   0.09293   0.10968   0.11417

 Mulliken charges:
               1
     1  C   -0.202361
     2  H    0.119319
     3  H    0.103245
     4  C   -0.281786
     5  H    0.094856
     6  H    0.073758
     7  C    0.077859
     8  H    0.116867
     9  H    0.114986
    10  C   -1.330159
    11  H    0.130868
    12  C   -0.047287
    13  H    0.143305
    14  H    0.226971
    15  H    0.139534
    16  C   -0.013529
    17  H    0.153062
    18  H    0.202984
    19  H    0.133420
    20  C   -0.387304
    21  H    0.111206
    22  H    0.157160
    23  H    0.163026
 Sum of Mulliken charges =  -0.00000

 Dipole moment (field-independent basis, Debye):
    X=             -0.0279    Y=             -0.0313    Z=             -0.0823  Tot=              0.0923

 Test job not archived.
 1\1\GINC-SE455\SP\RHF\Aug-CC-pVDZ\C7H16\OHZDE\08-Apr-2025\0\\#t hf aug
 -cc-pvdz iop(5/13=1,5/36=2,99/5=2) pseudo=read geom=check guess=(read,
 tcheck) scf=(maxcycle=1)\\title\\0,1\C,0,-2.223705,-0.502453,0.272279\
 H,0,-2.190337,-0.604336,1.361136\H,0,-2.255742,-1.521228,-0.125243\C,0
 ,-0.943981,0.184455,-0.207392\H,0,-0.975338,0.278518,-1.298374\H,0,-0.
 923943,1.204745,0.184773\C,0,0.329089,-0.56043,0.197503\H,0,0.387904,-
 0.611004,1.290959\H,0,0.24978,-1.596374,-0.147579\C,0,1.640954,0.03115
 8,-0.341575\H,0,1.542887,0.113641,-1.430328\C,0,2.814476,-0.908266,-0.

 Normal termination of Gaussian 16 at Tue Apr  8 22:19:32 2025.
