 Gaussian 16, Revision C.01,

 ----------------------------------------------------------------------
 #t hf aug-cc-pvdz symm=none int=(grid=ultrafine) guess=(read,tcheck) s
 table=(opt,rrhf)
 ----------------------------------------------------------------------
 -----
 title
 -----
 Symbolic Z-matrix:
 Charge =  0 Multiplicity = 1

 SCF Done:  E(RHF) =  -313.470418977     A.U. after   11 cycles
 Normal termination of Gaussian 16 at Tue Apr  8 22:20:19 2025.
 Gaussian 16:  ES64L-G16RevC.01  3-Jul-2019

 ----------------------------------------------------------------------
 #t hf aug-cc-pvdz iop(5/13=1,5/36=2,99/5=2) pseudo=read geom=check gue
 ss=(read,tcheck) scf=(maxcycle=1)
 ----------------------------------------------------------------------
 -----
 title
 -----
 Structure from the checkpoint file:  "AlkIsod14_6_mol2.chk"
 Charge =  0 Multiplicity = 1

                         Standard orientation:
 ---------------------------------------------------------------------
 Center     Atomic      Atomic             Coordinates (Angstroms)
 Number     Number       Type             X           Y           Z
 ---------------------------------------------------------------------
      1          6           0       -0.162804    1.957862    0.000000
      2          1           0       -0.816690    2.044788    0.874380
      3          1           0       -0.816690    2.044788   -0.874380
      4          6           0        0.498460    0.579577    0.000000
      5          1           0        1.151912    0.493203   -0.874479
      6          1           0        1.151912    0.493203    0.874479
      7          6           0       -0.498460   -0.579577    0.000000
      8          1           0       -1.151912   -0.493203   -0.874479
      9          1           0       -1.151912   -0.493203    0.874479
     10          6           0        0.162804   -1.957862    0.000000
     11          1           0        0.816690   -2.044788    0.874380
     12          1           0        0.816690   -2.044788   -0.874380
     13          6           0       -0.832656   -3.117803    0.000000
     14          1           0       -1.485721   -3.031747   -0.873746
     15          1           0       -1.485721   -3.031747    0.873746
     16          6           0       -0.162804   -4.490823    0.000000
     17          1           0        0.469428   -4.621287    0.880573
     18          1           0       -0.900043   -5.294738    0.000000
     19          1           0        0.469428   -4.621287   -0.880573
     20          6           0        0.832656    3.117803    0.000000
     21          1           0        1.485721    3.031747   -0.873746
     22          1           0        1.485721    3.031747    0.873746
     23          6           0        0.162804    4.490823    0.000000
     24          1           0       -0.469428    4.621287    0.880573
     25          1           0        0.900043    5.294738    0.000000
     26          1           0       -0.469428    4.621287   -0.880573
 ---------------------------------------------------------------------

 SCF Done:  E(RHF) =  -313.827196306     A.U. after    2 cycles

 The electronic state is 1-AG.
 Alpha  occ. eigenvalues --  -11.22200 -11.22198 -11.21962 -11.21956 -11.21943
 Alpha  occ. eigenvalues --  -11.21920 -11.21845 -11.21844  -1.09537  -1.06282
 Alpha  occ. eigenvalues --   -1.01275  -0.95018  -0.88047  -0.81638  -0.78913
 Alpha  occ. eigenvalues --   -0.78629  -0.66241  -0.63582  -0.60480  -0.59637
 Alpha  occ. eigenvalues --   -0.58231  -0.57703  -0.55164  -0.54134  -0.50981
 Alpha  occ. eigenvalues --   -0.50653  -0.50089  -0.47919  -0.47381  -0.46420
 Alpha  occ. eigenvalues --   -0.46335  -0.46157  -0.44083
 Alpha virt. eigenvalues --    0.03318   0.03395   0.03498   0.04232   0.04624
 Alpha virt. eigenvalues --    0.05022   0.05223   0.06384   0.06812   0.07493
 Alpha virt. eigenvalues --    0.07781   0.08381   0.09375   0.10451   0.10541

 Mulliken charges:
               1
     1  C   -0.288726
     2  H    0.102851
     3  H    0.102851
     4  C   -0.201911
     5  H    0.107842
     6  H    0.107842
     7  C   -0.201911
     8  H    0.107842
     9  H    0.107842
    10  C   -0.288726
    11  H    0.102851
    12  H    0.102851
    13  C   -0.188574
    14  H    0.111244
    15  H    0.111244
    16  C   -0.390059
    17  H    0.157925
    18  H    0.109546
    19  H    0.157925
    20  C   -0.188574
    21  H    0.111244
    22  H    0.111244
    23  C   -0.390059
    24  H    0.157925
    25  H    0.109546
    26  H    0.157925
 Sum of Mulliken charges =  -0.00000

 Dipole moment (field-independent basis, Debye):
    X=              0.0000    Y=             -0.0000    Z=             -0.0000  Tot=              0.0000

 Test job not archived.
 1\1\GINC-SE090\SP\RHF\Aug-CC-pVDZ\C8H18\OHZDE\08-Apr-2025\0\\#t hf aug
 -cc-pvdz iop(5/13=1,5/36=2,99/5=2) pseudo=read geom=check guess=(read,
 tcheck) scf=(maxcycle=1)\\title\\0,1\C,0,-0.162804,1.957862,0.\H,0,-0.
 81669,2.044788,0.87438\H,0,-0.81669,2.044788,-0.87438\C,0,0.49846,0.57
 9577,0.\H,0,1.151912,0.493203,-0.874479\H,0,1.151912,0.493203,0.874479
 \C,0,-0.49846,-0.579577,0.\H,0,-1.151912,-0.493203,-0.874479\H,0,-1.15
 1912,-0.493203,0.874479\C,0,0.162804,-1.957862,0.\H,0,0.81669,-2.04478
 8,0.87438\H,0,0.81669,-2.044788,-0.87438\C,0,-0.832656,-3.117803,0.\H,

 Normal termination of Gaussian 16 at Tue Apr  8 22:20:30 2025.
