 Gaussian 16, Revision C.01,

 ----------------------------------------------------------------------
 #t hf aug-cc-pvdz symm=none int=(grid=ultrafine) guess=(read,tcheck) s
 table=(opt,rrhf)
 ----------------------------------------------------------------------
 -----
 title
 -----
 Symbolic Z-matrix:
 Charge =  0 Multiplicity = 1

 SCF Done:  E(RHF) =  -196.352767030     A.U. after   11 cycles
 Normal termination of Gaussian 16 at Tue Apr  8 22:18:57 2025.
 Gaussian 16:  ES64L-G16RevC.01  3-Jul-2019

 ----------------------------------------------------------------------
 #t hf aug-cc-pvdz iop(5/13=1,5/36=2,99/5=2) pseudo=read geom=check gue
 ss=(read,tcheck) scf=(maxcycle=1)
 ----------------------------------------------------------------------
 -----
 title
 -----
 Structure from the checkpoint file:  "AlkIsomer11_2_mol1.chk"
 Charge =  0 Multiplicity = 1

                         Standard orientation:
 ---------------------------------------------------------------------
 Center     Atomic      Atomic             Coordinates (Angstroms)
 Number     Number       Type             X           Y           Z
 ---------------------------------------------------------------------
      1          6           0       -1.732520   -0.825958   -0.014263
      2          1           0       -1.632654   -1.853327   -0.368339
      3          1           0       -1.914580   -0.862324    1.062815
      4          1           0       -2.618015   -0.394676   -0.483962
      5          6           0       -0.479826   -0.002843   -0.326868
      6          1           0       -0.341364   -0.003790   -1.414473
      7          6           0        0.764362   -0.654721    0.296340
      8          1           0        0.771229   -1.713876    0.023800
      9          1           0        0.668545   -0.624776    1.387049
     10          6           0        2.097043   -0.031778   -0.117649
     11          1           0        2.187352    1.002398    0.215260
     12          1           0        2.934810   -0.584672    0.309156
     13          1           0        2.214892   -0.041761   -1.203393
     14          6           0       -0.666711    1.449732    0.121089
     15          1           0       -0.787728    1.506790    1.206063
     16          1           0        0.181157    2.077458   -0.152585
     17          1           0       -1.557733    1.885958   -0.333288
 ---------------------------------------------------------------------

 SCF Done:  E(RHF) =  -196.578233429     A.U. after    2 cycles

 The electronic state is 1-A.
 Alpha  occ. eigenvalues --  -11.22759 -11.22126 -11.21843 -11.21678 -11.21643
 Alpha  occ. eigenvalues --   -1.09167  -0.99226  -0.92770  -0.85522  -0.76450
 Alpha  occ. eigenvalues --   -0.64051  -0.61289  -0.59560  -0.57231  -0.54050
 Alpha  occ. eigenvalues --   -0.53608  -0.51103  -0.49792  -0.46392  -0.46166
 Alpha  occ. eigenvalues --   -0.45377
 Alpha virt. eigenvalues --    0.03719   0.03910   0.03952   0.04206   0.06270
 Alpha virt. eigenvalues --    0.06355   0.06735   0.06869   0.07411   0.09406
 Alpha virt. eigenvalues --    0.09861   0.10165   0.13752   0.14458   0.14867

 Mulliken charges:
               1
     1  C   -0.047751
     2  H    0.133535
     3  H    0.231603
     4  H    0.136273
     5  C   -1.349264
     6  H    0.141670
     7  C   -0.002706
     8  H    0.115335
     9  H    0.134006
    10  C   -0.351876
    11  H    0.151919
    12  H    0.111609
    13  H    0.162832
    14  C   -0.046100
    15  H    0.207184
    16  H    0.128913
    17  H    0.142820
 Sum of Mulliken charges =  -0.00000

 Dipole moment (field-independent basis, Debye):
    X=              0.0311    Y=             -0.0422    Z=             -0.0798  Tot=              0.0955

 Test job not archived.
 1\1\GINC-SE110\SP\RHF\Aug-CC-pVDZ\C5H12\OHZDE\08-Apr-2025\0\\#t hf aug
 -cc-pvdz iop(5/13=1,5/36=2,99/5=2) pseudo=read geom=check guess=(read,
 tcheck) scf=(maxcycle=1)\\title\\0,1\C,0,-1.732561,-0.825763,-0.019573
 \H,0,-1.634022,-1.847963,-0.388664\H,0,-1.910585,-0.877524,1.057549\H,
 0,-2.619809,-0.387861,-0.479742\C,0,-0.481047,0.001802,-0.325076\H,0,-
 0.34666,0.016402,-1.413094\C,0,0.765467,-0.658847,0.28409\H,0,0.771313
 ,-1.714,-0.003579\H,0,0.673736,-0.644495,1.375467\C,0,2.096588,-0.0299
 81,-0.125945\H,0,2.188143,0.999337,0.221366\H,0,2.935948,-0.588872,0.2

 Normal termination of Gaussian 16 at Tue Apr  8 22:19:02 2025.
