 Gaussian 16, Revision C.01,

 ----------------------------------------------------------------------
 #t hf aug-cc-pvdz symm=none int=(grid=ultrafine) guess=(read,tcheck) s
 table=(opt,rrhf)
 ----------------------------------------------------------------------
 -----
 title
 -----
 Symbolic Z-matrix:
 Charge =  0 Multiplicity = 1

 SCF Done:  E(RHF) =  -235.389323177     A.U. after   11 cycles
 Normal termination of Gaussian 16 at Tue Apr  8 22:19:53 2025.
 Gaussian 16:  ES64L-G16RevC.01  3-Jul-2019

 ----------------------------------------------------------------------
 #t hf aug-cc-pvdz iop(5/13=1,5/36=2,99/5=2) pseudo=read geom=check gue
 ss=(read,tcheck) scf=(maxcycle=1)
 ----------------------------------------------------------------------
 -----
 title
 -----
 Structure from the checkpoint file:  "AlkIsomer11_7_mol1.chk"
 Charge =  0 Multiplicity = 1

                         Standard orientation:
 ---------------------------------------------------------------------
 Center     Atomic      Atomic             Coordinates (Angstroms)
 Number     Number       Type             X           Y           Z
 ---------------------------------------------------------------------
      1          6           0       -0.332728   -0.121350    2.575521
      2          1           0       -1.063912   -0.932242    2.551099
      3          1           0        0.640901   -0.559786    2.794486
      4          1           0       -0.590828    0.528927    3.412444
      5          6           0       -0.332728    0.658684    1.260911
      6          1           0       -1.299837    1.157066    1.150568
      7          1           0        0.414324    1.458052    1.310992
      8          6           0       -0.075942   -0.183404    0.000000
      9          1           0       -0.804036   -1.004805   -0.000000
     10          6           0       -0.332728    0.658684   -1.260911
     11          1           0        0.414324    1.458052   -1.310992
     12          1           0       -1.299837    1.157066   -1.150568
     13          6           0       -0.332728   -0.121350   -2.575521
     14          1           0       -0.590828    0.528927   -3.412444
     15          1           0        0.640901   -0.559786   -2.794486
     16          1           0       -1.063912   -0.932242   -2.551099
     17          6           0        1.327529   -0.797769    0.000000
     18          1           0        2.089957   -0.013988    0.000000
     19          1           0        1.494365   -1.423101    0.876573
     20          1           0        1.494365   -1.423101   -0.876573
 ---------------------------------------------------------------------

 SCF Done:  E(RHF) =  -235.658166197     A.U. after    2 cycles

 The electronic state is 1-A'.
 Alpha  occ. eigenvalues --  -11.22560 -11.22091 -11.22066 -11.21817 -11.21812
 Alpha  occ. eigenvalues --  -11.21544  -1.09833  -1.01473  -0.96327  -0.89050
 Alpha  occ. eigenvalues --   -0.82218  -0.76255  -0.64378  -0.62659  -0.59770
 Alpha  occ. eigenvalues --   -0.58172  -0.55632  -0.54730  -0.52974  -0.51419
 Alpha  occ. eigenvalues --   -0.49960  -0.48213  -0.45906  -0.45265  -0.44834
 Alpha virt. eigenvalues --    0.03544   0.03634   0.03799   0.04207   0.05793
 Alpha virt. eigenvalues --    0.05851   0.06352   0.06520   0.07224   0.08943
 Alpha virt. eigenvalues --    0.09095   0.09589   0.09845   0.11911   0.14063

 Mulliken charges:
               1
     1  C   -0.396657
     2  H    0.165726
     3  H    0.149065
     4  H    0.114822
     5  C    0.058259
     6  H    0.099307
     7  H    0.142485
     8  C   -1.078185
     9  H    0.078241
    10  C    0.058259
    11  H    0.142485
    12  H    0.099307
    13  C   -0.396657
    14  H    0.114822
    15  H    0.149065
    16  H    0.165726
    17  C   -0.129895
    18  H    0.187401
    19  H    0.138214
    20  H    0.138214
 Sum of Mulliken charges =  -0.00000

 Dipole moment (field-independent basis, Debye):
    X=             -0.0868    Y=              0.0368    Z=             -0.0000  Tot=              0.0942

 Test job not archived.
 1\1\GINC-SE105\SP\RHF\Aug-CC-pVDZ\C6H14\OHZDE\08-Apr-2025\0\\#t hf aug
 -cc-pvdz iop(5/13=1,5/36=2,99/5=2) pseudo=read geom=check guess=(read,
 tcheck) scf=(maxcycle=1)\\title\\0,1\C,0,-0.332728,-0.12135,2.575521\H
 ,0,-1.063912,-0.932242,2.551099\H,0,0.640901,-0.559786,2.794486\H,0,-0
 .590828,0.528927,3.412444\C,0,-0.332728,0.658684,1.260911\H,0,-1.29983
 7,1.157066,1.150568\H,0,0.414324,1.458052,1.310992\C,0,-0.075942,-0.18
 3404,0.\H,0,-0.804036,-1.004805,0.\C,0,-0.332728,0.658684,-1.260911\H,
 0,0.414324,1.458052,-1.310992\H,0,-1.299837,1.157066,-1.150568\C,0,-0.

 Normal termination of Gaussian 16 at Tue Apr  8 22:19:58 2025.
