 Gaussian 16, Revision C.01,

 ----------------------------------------------------------------------
 #t hf aug-cc-pvdz symm=none int=(grid=ultrafine) guess=(read,tcheck) s
 table=(opt,rrhf)
 ----------------------------------------------------------------------
 -----
 title
 -----
 Symbolic Z-matrix:
 Charge =  0 Multiplicity = 1

 SCF Done:  E(RHF) =  -196.355002143     A.U. after   10 cycles
 Normal termination of Gaussian 16 at Tue Apr  8 22:19:01 2025.
 Gaussian 16:  ES64L-G16RevC.01  3-Jul-2019

 ----------------------------------------------------------------------
 #t hf aug-cc-pvdz iop(5/13=1,5/36=2,99/5=2) pseudo=read geom=check gue
 ss=(read,tcheck) scf=(maxcycle=1)
 ----------------------------------------------------------------------
 -----
 title
 -----
 Structure from the checkpoint file:  "AlkIsomer11_3_mol1.chk"
 Charge =  0 Multiplicity = 1

                         Standard orientation:
 ---------------------------------------------------------------------
 Center     Atomic      Atomic             Coordinates (Angstroms)
 Number     Number       Type             X           Y           Z
 ---------------------------------------------------------------------
      1          6           0        0.000000    0.000000    0.000000
      2          6           0        0.886824    0.886824    0.886824
      3          6           0       -0.886824   -0.886824    0.886824
      4          6           0       -0.886824    0.886824   -0.886824
      5          6           0        0.886824   -0.886824   -0.886824
      6          1           0        1.529595    1.529595    0.281953
      7          1           0        0.281953    1.529595    1.529595
      8          1           0        1.529595    0.281953    1.529595
      9          1           0       -1.529595   -1.529595    0.281953
     10          1           0       -0.281953   -1.529595    1.529595
     11          1           0       -1.529595   -0.281953    1.529595
     12          1           0       -1.529595    0.281953   -1.529595
     13          1           0       -1.529595    1.529595   -0.281953
     14          1           0       -0.281953    1.529595   -1.529595
     15          1           0        0.281953   -1.529595   -1.529595
     16          1           0        1.529595   -0.281953   -1.529595
     17          1           0        1.529595   -1.529595   -0.281953
 ---------------------------------------------------------------------

 SCF Done:  E(RHF) =  -196.579816216     A.U. after    2 cycles

 The electronic state is 1-A1.
 Alpha  occ. eigenvalues --  -11.23563 -11.21643 -11.21643 -11.21643 -11.21596
 Alpha  occ. eigenvalues --   -1.10406  -0.92987  -0.92987  -0.92987  -0.73687
 Alpha  occ. eigenvalues --   -0.61744  -0.61744  -0.61744  -0.55849  -0.55849
 Alpha  occ. eigenvalues --   -0.51611  -0.51611  -0.51611  -0.46127  -0.46127
 Alpha  occ. eigenvalues --   -0.46127
 Alpha virt. eigenvalues --    0.03979   0.04018   0.04018   0.04018   0.06629
 Alpha virt. eigenvalues --    0.06629   0.06629   0.06962   0.06962   0.09822
 Alpha virt. eigenvalues --    0.09822   0.09822   0.12184   0.14528   0.14528

 Mulliken charges:
               1
     1  C   -3.612476
     2  C    0.347351
     3  C    0.347351
     4  C    0.347351
     5  C    0.347351
     6  H    0.185256
     7  H    0.185256
     8  H    0.185256
     9  H    0.185256
    10  H    0.185256
    11  H    0.185256
    12  H    0.185256
    13  H    0.185256
    14  H    0.185256
    15  H    0.185256
    16  H    0.185256
    17  H    0.185256
 Sum of Mulliken charges =  -0.00000

 Dipole moment (field-independent basis, Debye):
    X=              0.0000    Y=              0.0000    Z=              0.0000  Tot=              0.0000

 Test job not archived.
 1\1\GINC-SE226\SP\RHF\Aug-CC-pVDZ\C5H12\OHZDE\08-Apr-2025\0\\#t hf aug
 -cc-pvdz iop(5/13=1,5/36=2,99/5=2) pseudo=read geom=check guess=(read,
 tcheck) scf=(maxcycle=1)\\title\\0,1\C,0,0.,0.,0.\C,0,0.886824,0.88682
 4,0.886824\C,0,-0.886824,-0.886824,0.886824\C,0,-0.886824,0.886824,-0.
 886824\C,0,0.886824,-0.886824,-0.886824\H,0,1.529595,1.529595,0.281953
 \H,0,0.281953,1.529595,1.529595\H,0,1.529595,0.281953,1.529595\H,0,-1.
 529595,-1.529595,0.281953\H,0,-0.281953,-1.529595,1.529595\H,0,-1.5295
 95,-0.281953,1.529595\H,0,-1.529595,0.281953,-1.529595\H,0,-1.529595,1

 Normal termination of Gaussian 16 at Tue Apr  8 22:19:05 2025.
