 Gaussian 16, Revision C.01,

 ----------------------------------------------------------------------
 #t hf aug-cc-pvdz symm=none int=(grid=ultrafine) guess=(read,tcheck) s
 table=(opt,rrhf)
 ----------------------------------------------------------------------
 -----
 title
 -----
 Symbolic Z-matrix:
 Charge =  0 Multiplicity = 1

 SCF Done:  E(RHF) =  -235.388223870     A.U. after   11 cycles
 Normal termination of Gaussian 16 at Tue Apr  8 22:19:55 2025.
 Gaussian 16:  ES64L-G16RevC.01  3-Jul-2019

 ----------------------------------------------------------------------
 #t hf aug-cc-pvdz iop(5/13=1,5/36=2,99/5=2) pseudo=read geom=check gue
 ss=(read,tcheck) scf=(maxcycle=1)
 ----------------------------------------------------------------------
 -----
 title
 -----
 Structure from the checkpoint file:  "AlkIsomer11_6_mol1.chk"
 Charge =  0 Multiplicity = 1

                         Standard orientation:
 ---------------------------------------------------------------------
 Center     Atomic      Atomic             Coordinates (Angstroms)
 Number     Number       Type             X           Y           Z
 ---------------------------------------------------------------------
      1          6           0       -0.231425    0.739197   -0.000000
      2          1           0       -1.328653    0.732002   -0.000000
      3          6           0        0.231425   -0.739197   -0.000000
      4          1           0        1.328653   -0.732002   -0.000000
      5          6           0       -0.231425   -1.496131    1.250811
      6          1           0        0.179825   -1.077166    2.167609
      7          1           0       -1.321376   -1.479009    1.333715
      8          1           0        0.077206   -2.541463    1.202345
      9          6           0       -0.231425   -1.496131   -1.250811
     10          1           0        0.179825   -1.077166   -2.167609
     11          1           0        0.077206   -2.541463   -1.202345
     12          1           0       -1.321376   -1.479009   -1.333715
     13          6           0        0.231425    1.496131   -1.250811
     14          1           0        1.321376    1.479009   -1.333715
     15          1           0       -0.179825    1.077166   -2.167609
     16          1           0       -0.077206    2.541463   -1.202345
     17          6           0        0.231425    1.496131    1.250811
     18          1           0       -0.179825    1.077166    2.167609
     19          1           0        1.321376    1.479009    1.333715
     20          1           0       -0.077206    2.541463    1.202345
 ---------------------------------------------------------------------

 SCF Done:  E(RHF) =  -235.656478652     A.U. after    2 cycles

 The electronic state is 1-AG.
 Alpha  occ. eigenvalues --  -11.22780 -11.22756 -11.21605 -11.21599 -11.21585
 Alpha  occ. eigenvalues --  -11.21580  -1.10357  -1.01236  -0.94042  -0.91042
 Alpha  occ. eigenvalues --   -0.83456  -0.75446  -0.63296  -0.62757  -0.59696
 Alpha  occ. eigenvalues --   -0.58671  -0.55086  -0.54425  -0.53313  -0.51625
 Alpha  occ. eigenvalues --   -0.50682  -0.48728  -0.45954  -0.45355  -0.44417
 Alpha virt. eigenvalues --    0.03507   0.03728   0.03804   0.04227   0.05947
 Alpha virt. eigenvalues --    0.06055   0.06547   0.06563   0.06688   0.08834
 Alpha virt. eigenvalues --    0.09565   0.09663   0.09717   0.12105   0.13421

 Mulliken charges:
               1
     1  C   -1.036290
     2  H    0.116638
     3  C   -1.036290
     4  H    0.116638
     5  C   -0.047710
     6  H    0.147878
     7  H    0.223801
     8  H    0.135857
     9  C   -0.047710
    10  H    0.147878
    11  H    0.135857
    12  H    0.223801
    13  C   -0.047710
    14  H    0.223801
    15  H    0.147878
    16  H    0.135857
    17  C   -0.047710
    18  H    0.147878
    19  H    0.223801
    20  H    0.135857
 Sum of Mulliken charges =   0.00000

 Dipole moment (field-independent basis, Debye):
    X=              0.0000    Y=              0.0000    Z=              0.0000  Tot=              0.0000

 Test job not archived.
 1\1\GINC-SE043\SP\RHF\Aug-CC-pVDZ\C6H14\OHZDE\08-Apr-2025\0\\#t hf aug
 -cc-pvdz iop(5/13=1,5/36=2,99/5=2) pseudo=read geom=check guess=(read,
 tcheck) scf=(maxcycle=1)\\title\\0,1\C,0,0.341702,-0.695133,0.\H,0,1.4
 24935,-0.520295,0.\C,0,-0.341702,0.695133,0.\H,0,-1.424935,0.520295,0.
 \C,0,0.,1.513924,1.250811\H,0,-0.342372,1.037017,2.167609\H,0,1.079758
 ,1.663618,1.333715\H,0,-0.464798,2.499792,1.202345\C,0,0.,1.513924,-1.
 250811\H,0,-0.342372,1.037017,-2.167609\H,0,-0.464798,2.499792,-1.2023
 45\H,0,1.079758,1.663618,-1.333715\C,0,0.,-1.513924,-1.250811\H,0,-1.0

 Normal termination of Gaussian 16 at Tue Apr  8 22:20:01 2025.
