 Gaussian 16, Revision C.01,

 ----------------------------------------------------------------------
 #t hf aug-cc-pvdz symm=none int=(grid=ultrafine) guess=(read,tcheck) s
 table=(opt,rrhf)
 ----------------------------------------------------------------------
 -----
 title
 -----
 Symbolic Z-matrix:
 Charge =  0 Multiplicity = 1

 SCF Done:  E(RHF) =  -635.465836727     A.U. after   17 cycles

 1\1\GINC-SE342\Stability\RHF\Aug-CC-pVDZ\C8H10N6\OHZDE\08-Apr-2025\0\\
 #t hf aug-cc-pvdz symm=none int=(grid=ultrafine) guess=(read,tcheck) s
 table=(opt,rrhf)\\title\\0,1\C,0,1.36958,-0.750453,-0.0165764\C,0,-1.0
 8897,-0.714763,0.0418545\C,0,-2.30686,-1.3759,-0.00798286\C,0,-3.51666
 ,-0.68538,-0.0171052\C,0,-3.49009,0.716359,-0.0147688\C,0,-2.28024,1.3
 8083,-0.00110659\C,0,-1.07172,0.683935,0.0123089\C,0,1.38552,0.745912,
 -0.00283216\H,0,3.17623,3.20266,0.296301\H,0,2.10227,3.13714,-0.878633
 \H,0,0.186042,2.33735,0.1457\H,0,-2.23208,2.47759,0.0167319\H,0,-4.398

 Normal termination of Gaussian 16 at Tue Apr  8 19:59:43 2025.
 Gaussian 16:  ES64L-G16RevC.01  3-Jul-2019

 ----------------------------------------------------------------------
 #t hf aug-cc-pvdz iop(5/13=1,5/36=2,99/5=2) pseudo=read geom=check gue
 ss=(read,tcheck) scf=(maxcycle=1)
 ----------------------------------------------------------------------
 -----
 title
 -----
 Structure from the checkpoint file:  "ANI1ccx_1548_conf11_mol2.chk"
 Charge =  0 Multiplicity = 1

                         Standard orientation:
 ---------------------------------------------------------------------
 Center     Atomic      Atomic             Coordinates (Angstroms)
 Number     Number       Type             X           Y           Z
 ---------------------------------------------------------------------
      1          6           0        1.369580   -0.750454   -0.016576
      2          6           0       -1.088970   -0.714763    0.041854
      3          6           0       -2.306860   -1.375899   -0.007983
      4          6           0       -3.516660   -0.685379   -0.017105
      5          6           0       -3.490089    0.716360   -0.014769
      6          6           0       -2.280239    1.380831   -0.001107
      7          6           0       -1.071719    0.683935    0.012309
      8          6           0        1.385521    0.745911   -0.002832
      9          1           0        3.176232    3.202658    0.296301
     10          1           0        2.102272    3.137139   -0.878633
     11          1           0        0.186044    2.337350    0.145700
     12          1           0       -2.232078    2.477591    0.016732
     13          1           0       -4.398489    1.332782   -0.009456
     14          1           0       -2.286600   -2.447809   -0.037232
     15          1           0        0.204582   -2.364370   -0.134870
     16          1           0        3.180939   -3.231932   -0.240564
     17          1           0        2.044839   -3.048561    0.904011
     18          1           0       -4.465040   -1.224458   -0.012370
     19          7           0        2.498951    1.390319    0.056706
     20          7           0        2.260329   -2.804931   -0.057772
     21          7           0        2.475720   -1.383881   -0.119402
     22          7           0        0.143491   -1.376020    0.096180
     23          7           0        0.144381    1.352480   -0.063019
     24          7           0        2.260542    2.797229    0.085540
 ---------------------------------------------------------------------

 SCF Done:  E(RHF) =  -636.112174014     A.U. after    2 cycles

 The electronic state is 1-A.
 Alpha  occ. eigenvalues --  -15.54498 -15.54316 -15.52792 -15.52688 -15.51276
 Alpha  occ. eigenvalues --  -15.51176 -11.33032 -11.32794 -11.29602 -11.29541
 Alpha  occ. eigenvalues --  -11.25164 -11.25108 -11.25050 -11.24924  -1.34256
 Alpha  occ. eigenvalues --   -1.30208  -1.26225  -1.22626  -1.16073  -1.11025
 Alpha  occ. eigenvalues --   -1.07553  -1.02435  -1.01477  -0.92518  -0.88135
 Alpha  occ. eigenvalues --   -0.86320  -0.79200  -0.76382  -0.76208  -0.75642
 Alpha  occ. eigenvalues --   -0.71195  -0.70687  -0.68298  -0.65682  -0.65143
 Alpha  occ. eigenvalues --   -0.64620  -0.62004  -0.60576  -0.59696  -0.58726
 Alpha  occ. eigenvalues --   -0.55095  -0.55004  -0.52436  -0.51797  -0.47333
 Alpha  occ. eigenvalues --   -0.46413  -0.42268  -0.38888  -0.34249  -0.31001
 Alpha virt. eigenvalues --    0.02956   0.03248   0.03441   0.04445   0.05705
 Alpha virt. eigenvalues --    0.05807   0.06255   0.07231   0.07974   0.08076
 Alpha virt. eigenvalues --    0.09126   0.09874   0.10313   0.10767   0.10786

 Mulliken charges:
               1
     1  C   -2.180451
     2  C   -1.656422
     3  C    1.764137
     4  C    0.129766
     5  C    0.207571
     6  C    1.086745
     7  C   -1.451250
     8  C   -2.058631
     9  H    0.089305
    10  H    0.188251
    11  H    0.191577
    12  H   -0.339315
    13  H   -0.211881
    14  H   -0.391318
    15  H    0.205178
    16  H    0.095979
    17  H    0.177408
    18  H   -0.207122
    19  N    0.714171
    20  N    0.214295
    21  N    0.759784
    22  N    1.218271
    23  N    1.267371
    24  N    0.186582
 Sum of Mulliken charges =  -0.00000

 Dipole moment (field-independent basis, Debye):
    X=             -3.0225    Y=              0.0536    Z=              0.0883  Tot=              3.0243

 Test job not archived.
 1\1\GINC-SE342\SP\RHF\Aug-CC-pVDZ\C8H10N6\OHZDE\08-Apr-2025\0\\#t hf a
 ug-cc-pvdz iop(5/13=1,5/36=2,99/5=2) pseudo=read geom=check guess=(rea
 d,tcheck) scf=(maxcycle=1)\\title\\0,1\C,0,1.36958,-0.750453,-0.016576
 4\C,0,-1.08897,-0.714763,0.0418545\C,0,-2.30686,-1.3759,-0.00798286\C,
 0,-3.51666,-0.68538,-0.0171052\C,0,-3.49009,0.716359,-0.0147688\C,0,-2
 .28024,1.38083,-0.00110659\C,0,-1.07172,0.683935,0.0123089\C,0,1.38552
 ,0.745912,-0.00283216\H,0,3.17623,3.20266,0.296301\H,0,2.10227,3.13714
 ,-0.878633\H,0,0.186042,2.33735,0.1457\H,0,-2.23208,2.47759,0.0167319\

 Normal termination of Gaussian 16 at Tue Apr  8 20:00:05 2025.
