 Gaussian 16, Revision C.01,

 ----------------------------------------------------------------------
 #t hf aug-cc-pvdz symm=none int=(grid=ultrafine) guess=(read,tcheck) s
 table=(opt,rrhf)
 ----------------------------------------------------------------------
 -----
 title
 -----
 Symbolic Z-matrix:
 Charge =  0 Multiplicity = 1

 SCF Done:  E(RHF) =  -962.233610813     A.U. after   15 cycles
 Normal termination of Gaussian 16 at Tue Apr  8 21:04:21 2025.
 Gaussian 16:  ES64L-G16RevC.01  3-Jul-2019

 ----------------------------------------------------------------------
 #t hf aug-cc-pvdz iop(5/13=1,5/36=2,99/5=2) pseudo=read geom=check gue
 ss=(read,tcheck) scf=(maxcycle=1)
 ----------------------------------------------------------------------
 -----
 title
 -----
 Structure from the checkpoint file:  "ANI1ccx_1756_conf17_mol1.chk"
 Charge =  0 Multiplicity = 1

                         Standard orientation:
 ---------------------------------------------------------------------
 Center     Atomic      Atomic             Coordinates (Angstroms)
 Number     Number       Type             X           Y           Z
 ---------------------------------------------------------------------
      1          6           0        1.317910    1.807591   -0.436442
      2          6           0        0.307640    0.568267   -0.643495
      3          6           0        2.054690    1.797201    0.857641
      4          6           0        2.250850    0.300256    1.196020
      5          6           0        3.111600   -0.351834    0.214195
      6          6           0       -2.025480    0.015829   -0.292270
      7          6           0       -3.296870    0.696683    0.146436
      8          6           0       -1.909690   -1.307069    0.593547
      9          6           0       -0.769972   -2.157659    0.247730
     10          1           0       -5.186200    0.492345   -0.093624
     11          1           0       -0.189513   -3.257549   -1.286220
     12          1           0       -2.791180   -1.897019    0.535601
     13          1           0       -1.846340   -0.978091    1.603150
     14          1           0       -2.176170   -0.315240   -1.375380
     15          1           0       -1.147690    1.834491    0.106522
     16          1           0        2.008160   -2.047389   -0.036760
     17          1           0        3.704890   -2.156438   -0.500347
     18          1           0        2.668200    0.186543    2.222580
     19          1           0        1.247990   -0.084274    1.217590
     20          1           0        1.442340    2.199891    1.703250
     21          1           0        2.988500    2.378912    0.799268
     22          1           0        2.082100    1.532491   -1.229910
     23          1           0        0.358464    3.163451   -1.641670
     24          1           0        1.190109    3.742661   -0.354748
     25          7           0        0.575849    3.015641   -0.638318
     26          7           0        2.952740   -1.687378   -0.011853
     27          7           0       -0.902132    0.845516   -0.116830
     28          8           0        0.775999   -0.425979   -1.118810
     29          8           0        4.086950    0.148583   -0.395097
     30          8           0       -3.404120    1.697161    0.851363
     31          8           0        0.175258   -2.318979    1.005730
     32          8           0       -0.923723   -2.671899   -0.947688
     33          8           0       -4.333230    0.042759   -0.345554
 ---------------------------------------------------------------------

 SCF Done:  E(RHF) =  -963.194196904     A.U. after    2 cycles

 The electronic state is 1-A.
 Alpha  occ. eigenvalues --  -20.63646 -20.61840 -20.56879 -20.54334 -20.52870
 Alpha  occ. eigenvalues --  -20.47976 -15.54897 -15.50591 -15.47945 -11.42866
 Alpha  occ. eigenvalues --  -11.40865 -11.36690 -11.33299 -11.33237 -11.27246
 Alpha  occ. eigenvalues --  -11.27171 -11.24037 -11.23567  -1.58372  -1.56511
 Alpha  occ. eigenvalues --   -1.49523  -1.47304  -1.46093  -1.41248  -1.28884
 Alpha  occ. eigenvalues --   -1.21570  -1.17751  -1.10593  -1.07836  -1.01285
 Alpha  occ. eigenvalues --   -0.95275  -0.89912  -0.86420  -0.84546  -0.82968
 Alpha  occ. eigenvalues --   -0.78229  -0.75599  -0.74095  -0.73359  -0.72154
 Alpha  occ. eigenvalues --   -0.71322  -0.70861  -0.70466  -0.69723  -0.68184
 Alpha  occ. eigenvalues --   -0.67235  -0.65640  -0.64857  -0.63354  -0.61523
 Alpha  occ. eigenvalues --   -0.60410  -0.59933  -0.58075  -0.57842  -0.56684
 Alpha  occ. eigenvalues --   -0.55047  -0.54378  -0.52328  -0.50748  -0.49985
 Alpha  occ. eigenvalues --   -0.48913  -0.48467  -0.48073  -0.45862  -0.45587
 Alpha  occ. eigenvalues --   -0.43697  -0.41328  -0.40192  -0.38884
 Alpha virt. eigenvalues --    0.02376   0.03189   0.03297   0.03994   0.04321
 Alpha virt. eigenvalues --    0.04825   0.05150   0.06057   0.06538   0.07353
 Alpha virt. eigenvalues --    0.07757   0.08342   0.09105   0.09229   0.10033

 Mulliken charges:
               1
     1  C   -1.355464
     2  C    0.283484
     3  C   -0.210652
     4  C   -0.249950
     5  C    0.455200
     6  C   -1.808375
     7  C    3.299780
     8  C   -0.697503
     9  C    3.261342
    10  H    0.497546
    11  H    0.445756
    12  H    0.207816
    13  H    0.073813
    14  H    0.153135
    15  H    0.439719
    16  H    0.073473
    17  H    0.197359
    18  H    0.124156
    19  H    0.362345
    20  H    0.220550
    21  H    0.080575
    22  H    0.244664
    23  H    0.286360
    24  H    0.234855
    25  N    0.540732
    26  N    0.687127
    27  N    1.344918
    28  O   -1.612342
    29  O   -1.530059
    30  O   -1.428972
    31  O   -1.507314
    32  O   -1.618749
    33  O   -1.495322
 Sum of Mulliken charges =  -0.00000

 Dipole moment (field-independent basis, Debye):
    X=             -6.1520    Y=             -0.2163    Z=             -1.4690  Tot=              6.3287

 Test job not archived.
 1\1\GINC-SE036\SP\RHF\Aug-CC-pVDZ\C9H15N3O6\OHZDE\08-Apr-2025\0\\#t hf
  aug-cc-pvdz iop(5/13=1,5/36=2,99/5=2) pseudo=read geom=check guess=(r
 ead,tcheck) scf=(maxcycle=1)\\title\\0,1\C,0,1.31791,1.80759,-0.436442
 \C,0,0.30764,0.568266,-0.643495\C,0,2.05469,1.7972,0.857641\C,0,2.2508
 5,0.300255,1.19602\C,0,3.1116,-0.351836,0.214195\C,0,-2.02548,0.015828
 2,-0.29227\C,0,-3.29687,0.696682,0.146436\C,0,-1.90969,-1.30707,0.5935
 47\C,0,-0.769972,-2.15766,0.24773\H,0,-5.1862,0.492345,-0.0936239\H,0,
 -0.189513,-3.25755,-1.28622\H,0,-2.79118,-1.89702,0.535601\H,0,-1.8463

 Normal termination of Gaussian 16 at Tue Apr  8 21:05:18 2025.
