 Gaussian 16, Revision C.01,

 ----------------------------------------------------------------------
 #t hf aug-cc-pvdz symm=none int=(grid=ultrafine) guess=(read,tcheck) s
 table=(opt,rrhf)
 ----------------------------------------------------------------------
 -----
 title
 -----
 Symbolic Z-matrix:
 Charge =  0 Multiplicity = 1

 SCF Done:  E(RHF) =  -1001.31985573     A.U. after   14 cycles
 Normal termination of Gaussian 16 at Tue Apr  8 22:15:58 2025.
 Gaussian 16:  ES64L-G16RevC.01  3-Jul-2019

 ----------------------------------------------------------------------
 #t hf aug-cc-pvdz iop(5/13=1,5/36=2,99/5=2) pseudo=read geom=check gue
 ss=(read,tcheck) scf=(maxcycle=1)
 ----------------------------------------------------------------------
 -----
 title
 -----
 Structure from the checkpoint file:  "ANI1ccx_64_conf18_mol2.chk"
 Charge =  0 Multiplicity = 1

                         Standard orientation:
 ---------------------------------------------------------------------
 Center     Atomic      Atomic             Coordinates (Angstroms)
 Number     Number       Type             X           Y           Z
 ---------------------------------------------------------------------
      1          6           0       -2.591430   -0.725492   -0.751664
      2          6           0        3.024590    0.896062   -0.806881
      3          6           0        2.223040   -1.498600   -0.934784
      4          6           0        1.530240   -0.768041    1.426120
      5          6           0        1.073350   -1.470020    0.125039
      6          6           0        2.490260   -0.206671   -1.672520
      7          6           0       -2.634760    1.128551    1.017410
      8          6           0       -3.441830    0.054296    0.304221
      9          6           0       -1.378160   -1.458159   -0.094932
     10          6           0       -1.997020    2.151941    0.103314
     11          1           0        0.787502   -2.496740    0.425230
     12          1           0        1.046650    0.517462    2.701260
     13          1           0        4.639900    1.501099   -0.029298
     14          1           0        1.586660    0.134682   -2.202570
     15          1           0        3.243370   -0.360221   -2.471800
     16          1           0        1.900919   -2.262320   -1.673060
     17          1           0        3.107919   -1.860060   -0.392182
     18          1           0       -0.046042    0.087621   -0.674201
     19          1           0       -0.177325    2.748080   -0.574062
     20          1           0       -1.799480    0.661037    1.575680
     21          1           0       -3.314310    1.619531    1.736290
     22          1           0       -4.252180    0.557898   -0.249515
     23          1           0       -3.867020   -0.656343    1.044070
     24          1           0       -2.368920   -0.030194   -1.584130
     25          1           0       -3.739761   -2.400779   -0.664046
     26          1           0       -2.932361   -2.290819   -2.055320
     27          1           0       -0.089319    1.664010    0.708676
     28          7           0       -3.436181   -1.741349   -1.370390
     29          7           0       -0.670729    2.064940   -0.000093
     30          7           0       -0.153360   -0.921703   -0.458308
     31          8           0        2.387220    1.736100   -0.219635
     32          8           0        2.541870   -0.994832    2.021820
     33          8           0        4.357170    0.801828   -0.645239
     34          8           0       -1.530411   -2.426859    0.643111
     35          8           0       -2.674410    2.968171   -0.518717
     36          8           0        0.706813    0.219298    1.829730
 ---------------------------------------------------------------------

 SCF Done:  E(RHF) =  -1002.32275256     A.U. after    2 cycles

 The electronic state is 1-A.
 Alpha  occ. eigenvalues --  -20.62753 -20.62284 -20.56704 -20.56278 -20.53433
 Alpha  occ. eigenvalues --  -20.50297 -15.54567 -15.52523 -15.48902 -11.42310
 Alpha  occ. eigenvalues --  -11.41844 -11.37558 -11.35359 -11.32008 -11.28683
 Alpha  occ. eigenvalues --  -11.28581 -11.28393 -11.24994 -11.24787  -1.58120
 Alpha  occ. eigenvalues --   -1.57614  -1.48042  -1.47839  -1.47288  -1.44559
 Alpha  occ. eigenvalues --   -1.26110  -1.23524  -1.19672  -1.12048  -1.07164
 Alpha  occ. eigenvalues --   -1.03412  -0.95644  -0.92946  -0.89106  -0.85508
 Alpha  occ. eigenvalues --   -0.83930  -0.82282  -0.81583  -0.75829  -0.75234
 Alpha  occ. eigenvalues --   -0.73954  -0.73266  -0.72706  -0.71720  -0.68979
 Alpha  occ. eigenvalues --   -0.68698  -0.68064  -0.66053  -0.65604  -0.64685
 Alpha  occ. eigenvalues --   -0.63819  -0.62854  -0.61823  -0.61182  -0.60842
 Alpha  occ. eigenvalues --   -0.58865  -0.57717  -0.57433  -0.55395  -0.55291
 Alpha  occ. eigenvalues --   -0.53904  -0.52989  -0.51384  -0.50129  -0.49969
 Alpha  occ. eigenvalues --   -0.49561  -0.48443  -0.47177  -0.46804  -0.43770
 Alpha  occ. eigenvalues --   -0.42785  -0.41880  -0.41384
 Alpha virt. eigenvalues --    0.02346   0.02780   0.03291   0.03616   0.03983
 Alpha virt. eigenvalues --    0.04595   0.05217   0.05450   0.06098   0.06554
 Alpha virt. eigenvalues --    0.07479   0.07600   0.08675   0.08732   0.09535

 Mulliken charges:
               1
     1  C   -2.143440
     2  C    2.721421
     3  C   -0.289192
     4  C    3.013535
     5  C   -2.206276
     6  C   -0.500541
     7  C   -0.056800
     8  C   -0.024427
     9  C    1.014765
    10  C    0.311253
    11  H    0.217278
    12  H    0.561779
    13  H    0.370079
    14  H    0.289994
    15  H    0.155759
    16  H    0.219946
    17  H    0.151700
    18  H    0.364331
    19  H    0.173774
    20  H    0.233756
    21  H    0.134303
    22  H    0.234114
    23  H    0.176643
    24  H    0.045436
    25  H    0.222831
    26  H    0.133181
    27  H   -0.064159
    28  N    0.842880
    29  N    0.942173
    30  N    1.875445
    31  O   -1.445883
    32  O   -1.553050
    33  O   -1.391730
    34  O   -1.473955
    35  O   -1.462995
    36  O   -1.793929
 Sum of Mulliken charges =  -0.00000

 Dipole moment (field-independent basis, Debye):
    X=              4.7577    Y=             -0.8609    Z=             -0.1383  Tot=              4.8369

 Test job not archived.
 1\1\GINC-SE096\SP\RHF\Aug-CC-pVDZ\C10H17N3O6\OHZDE\08-Apr-2025\0\\#t h
 f aug-cc-pvdz iop(5/13=1,5/36=2,99/5=2) pseudo=read geom=check guess=(
 read,tcheck) scf=(maxcycle=1)\\title\\0,1\C,0,-2.59143,-0.725493,-0.75
 1664\C,0,3.02459,0.896062,-0.806881\C,0,2.22304,-1.4986,-0.934784\C,0,
 1.53024,-0.768041,1.42612\C,0,1.07335,-1.47002,0.125039\C,0,2.49026,-0
 .206671,-1.67252\C,0,-2.63476,1.12855,1.01741\C,0,-3.44183,0.0542948,0
 .304221\C,0,-1.37816,-1.45816,-0.0949317\C,0,-1.99702,2.15194,0.103314
 \H,0,0.787503,-2.49674,0.42523\H,0,1.04665,0.517462,2.70126\H,0,4.6399

 Normal termination of Gaussian 16 at Tue Apr  8 22:17:10 2025.
