 Gaussian 16, Revision C.01,

 ----------------------------------------------------------------------
 #t hf aug-cc-pvdz symm=none int=(grid=ultrafine) guess=(read,tcheck) s
 table=(opt,rrhf)
 ----------------------------------------------------------------------
 -----
 title
 -----
 Symbolic Z-matrix:
 Charge =  0 Multiplicity = 1

 SCF Done:  E(RHF) =  -505.033098251     A.U. after   15 cycles
 Normal termination of Gaussian 16 at Tue Apr  8 21:40:49 2025.
 Gaussian 16:  ES64L-G16RevC.01  3-Jul-2019

 ----------------------------------------------------------------------
 #t hf aug-cc-pvdz iop(5/13=1,5/36=2,99/5=2) pseudo=read geom=check gue
 ss=(read,tcheck) scf=(maxcycle=1)
 ----------------------------------------------------------------------
 -----
 title
 -----
 Structure from the checkpoint file:  "ANI1ccx_471_conf12_mol1.chk"
 Charge =  0 Multiplicity = 1

                         Standard orientation:
 ---------------------------------------------------------------------
 Center     Atomic      Atomic             Coordinates (Angstroms)
 Number     Number       Type             X           Y           Z
 ---------------------------------------------------------------------
      1          6           0        1.400140   -0.079984    0.003999
      2          6           0       -0.673353    0.783107    0.140392
      3          1           0       -2.041641   -0.503022   -0.726125
      4          7           0       -0.785412   -0.572498    0.521980
      5          8           0       -1.699501   -1.270499   -0.244249
      6          8           0        0.529391   -1.061421    0.078783
      7          8           0        2.557680   -0.085458   -0.237926
      8          8           0        0.683490    1.139469    0.115912
      9          8           0       -1.673709    1.314381   -0.186781
 ---------------------------------------------------------------------

 SCF Done:  E(RHF) =  -505.514186761     A.U. after    2 cycles

 The electronic state is 1-A.
 Alpha  occ. eigenvalues --  -20.69309 -20.68903 -20.66407 -20.63114 -20.59629
 Alpha  occ. eigenvalues --  -15.71381 -11.50744 -11.50394  -1.70027  -1.61042
 Alpha  occ. eigenvalues --   -1.59524  -1.53491  -1.53117  -1.20774  -0.96339
 Alpha  occ. eigenvalues --   -0.93262  -0.82731  -0.80414  -0.78376  -0.75360
 Alpha  occ. eigenvalues --   -0.71993  -0.69075  -0.67554  -0.64024  -0.63243
 Alpha  occ. eigenvalues --   -0.56782  -0.55973  -0.54399  -0.52092  -0.49553
 Alpha virt. eigenvalues --    0.03890   0.06891   0.07520   0.08050   0.08736
 Alpha virt. eigenvalues --    0.09520   0.10516   0.11095   0.11274   0.14417
 Alpha virt. eigenvalues --    0.14762   0.16218   0.16912   0.18399   0.19661

 Mulliken charges:
               1
     1  C    2.084634
     2  C    1.442957
     3  H    0.300286
     4  N    1.594474
     5  O   -1.053031
     6  O   -1.044535
     7  O   -1.040860
     8  O   -1.178723
     9  O   -1.105202
 Sum of Mulliken charges =  -0.00000

 Dipole moment (field-independent basis, Debye):
    X=             -1.7227    Y=              0.3665    Z=             -0.2599  Tot=              1.7803

 Test job not archived.
 1\1\GINC-SE343\SP\RHF\Aug-CC-pVDZ\C2H1N1O5\OHZDE\08-Apr-2025\0\\#t hf
 aug-cc-pvdz iop(5/13=1,5/36=2,99/5=2) pseudo=read geom=check guess=(re
 ad,tcheck) scf=(maxcycle=1)\\title\\0,1\C,0,1.40014,-0.0799824,0.00399
 853\C,0,-0.673353,0.783107,0.140392\H,0,-2.04164,-0.503023,-0.726125\N
 ,0,-0.785411,-0.572498,0.52198\O,0,-1.6995,-1.2705,-0.244249\O,0,0.529
 392,-1.06142,0.078783\O,0,2.55768,-0.0854556,-0.237926\O,0,0.683489,1.
 13947,0.115912\O,0,-1.67371,1.31438,-0.186781\\Version=ES64L-G16RevC.0
 1\State=1-A\HF=-505.5141868\RMSD=1.226e-02\Dipole=-0.6777592,0.1441904

 Normal termination of Gaussian 16 at Tue Apr  8 21:40:53 2025.
