 Gaussian 16, Revision C.01,

 ----------------------------------------------------------------------
 #t hf aug-cc-pvdz symm=none int=(grid=ultrafine) guess=(read,tcheck) s
 table=(opt,rrhf)
 ----------------------------------------------------------------------
 -----
 title
 -----
 Symbolic Z-matrix:
 Charge =  0 Multiplicity = 1

 SCF Done:  E(RHF) =  -528.734217804     A.U. after   14 cycles
 Normal termination of Gaussian 16 at Tue Apr  8 22:18:56 2025.
 Gaussian 16:  ES64L-G16RevC.01  3-Jul-2019

 ----------------------------------------------------------------------
 #t hf aug-cc-pvdz iop(5/13=1,5/36=2,99/5=2) pseudo=read geom=check gue
 ss=(read,tcheck) scf=(maxcycle=1)
 ----------------------------------------------------------------------
 -----
 title
 -----
 Structure from the checkpoint file:  "ANI1ccx_998_conf9_mol1.chk"
 Charge =  0 Multiplicity = 1

                         Standard orientation:
 ---------------------------------------------------------------------
 Center     Atomic      Atomic             Coordinates (Angstroms)
 Number     Number       Type             X           Y           Z
 ---------------------------------------------------------------------
      1          6           0        0.933949    0.044313    0.382503
      2          6           0        2.410671   -0.270809   -0.091200
      3          6           0       -0.113575   -0.984996   -0.008143
      4          6           0       -1.450149   -0.786933    0.805858
      5          6           0       -2.583849   -0.047421    0.030575
      6          1           0        2.979960    1.131831    1.172180
      7          1           0       -2.863240    1.654340   -1.045110
      8          1           0       -1.743019   -1.755269    1.169410
      9          1           0       -1.330909   -0.149132    1.695310
     10          1           0       -1.508650    1.686711   -0.023367
     11          1           0        1.410320    1.992601   -0.110101
     12          1           0        0.429309    1.216181   -1.252510
     13          1           0        0.986644    0.235870    1.475330
     14          1           0       -0.236656   -1.044589   -1.086050
     15          1           0        0.312722   -2.026909    0.192859
     16          7           0        0.639931    1.347911   -0.248181
     17          7           0       -2.394270    1.272451   -0.222842
     18          8           0       -3.650339   -0.586744   -0.277077
     19          8           0        2.715671   -1.164649   -0.842265
     20          8           0        3.267370    0.625256    0.418297
 ---------------------------------------------------------------------

 SCF Done:  E(RHF) =  -529.269189388     A.U. after    2 cycles

 The electronic state is 1-A.
 Alpha  occ. eigenvalues --  -20.62254 -20.55601 -20.50436 -15.53293 -15.51761
 Alpha  occ. eigenvalues --  -11.41298 -11.36015 -11.31957 -11.27377 -11.26630
 Alpha  occ. eigenvalues --   -1.56774  -1.47531  -1.44187  -1.23375  -1.21689
 Alpha  occ. eigenvalues --   -1.07575  -0.98316  -0.90465  -0.85909  -0.82042
 Alpha  occ. eigenvalues --   -0.76533  -0.75445  -0.73246  -0.69049  -0.67895
 Alpha  occ. eigenvalues --   -0.66619  -0.64006  -0.61919  -0.60844  -0.59488
 Alpha  occ. eigenvalues --   -0.56637  -0.53981  -0.53351  -0.52067  -0.51672
 Alpha  occ. eigenvalues --   -0.49414  -0.43578  -0.42777  -0.40820
 Alpha virt. eigenvalues --    0.01568   0.02991   0.03751   0.04620   0.05087
 Alpha virt. eigenvalues --    0.05758   0.06110   0.06617   0.07920   0.08896
 Alpha virt. eigenvalues --    0.10300   0.10483   0.11609   0.12235   0.12657

 Mulliken charges:
               1
     1  C   -0.831518
     2  C    2.207760
     3  C    0.015470
     4  C   -0.387118
     5  C    0.469087
     6  H    0.427267
     7  H    0.164553
     8  H    0.016824
     9  H    0.291094
    10  H    0.033425
    11  H    0.187207
    12  H    0.307412
    13  H    0.043570
    14  H    0.139043
    15  H    0.175547
    16  N   -0.157245
    17  N    0.761230
    18  O   -1.340617
    19  O   -1.264514
    20  O   -1.258478
 Sum of Mulliken charges =  -0.00000

 Dipole moment (field-independent basis, Debye):
    X=              2.8813    Y=              3.6062    Z=              2.2775  Tot=              5.1472

 Test job not archived.
 1\1\GINC-SE029\SP\RHF\Aug-CC-pVDZ\C5H10N2O3\OHZDE\08-Apr-2025\0\\#t hf
  aug-cc-pvdz iop(5/13=1,5/36=2,99/5=2) pseudo=read geom=check guess=(r
 ead,tcheck) scf=(maxcycle=1)\\title\\0,1\C,0,0.933948,0.0443115,0.3825
 03\C,0,2.41067,-0.27081,-0.0911997\C,0,-0.113576,-0.984997,-0.00814358
 \C,0,-1.45015,-0.786934,0.805858\C,0,-2.58385,-0.0474218,0.030575\H,0,
 2.97996,1.13183,1.17218\H,0,-2.86324,1.65434,-1.04511\H,0,-1.74302,-1.
 75527,1.16941\H,0,-1.33091,-0.149133,1.69531\H,0,-1.50865,1.68671,-0.0
 233667\H,0,1.41032,1.9926,-0.110101\H,0,0.429309,1.21618,-1.25251\H,0,

 Normal termination of Gaussian 16 at Tue Apr  8 22:19:07 2025.
