 Gaussian 16, Revision C.01,

 ----------------------------------------------------------------------
 #t hf aug-cc-pvdz symm=none int=(grid=ultrafine) guess=(read,tcheck) s
 table=(opt,rrhf)
 ----------------------------------------------------------------------
 -----
 title
 -----
 Symbolic Z-matrix:
 Charge =  0 Multiplicity = 1

 SCF Done:  E(RHF) =  -541.252672830     A.U. after   15 cycles
 Normal termination of Gaussian 16 at Tue Apr  8 21:59:38 2025.
 Gaussian 16:  ES64L-G16RevC.01  3-Jul-2019

 ----------------------------------------------------------------------
 #t hf aug-cc-pvdz iop(5/13=1,5/36=2,99/5=2) pseudo=read geom=check gue
 ss=(read,tcheck) scf=(maxcycle=1)
 ----------------------------------------------------------------------
 -----
 title
 -----
 Structure from the checkpoint file:  "ANI1ccx_869_conf7_mol1.chk"
 Charge =  0 Multiplicity = 1

                         Standard orientation:
 ---------------------------------------------------------------------
 Center     Atomic      Atomic             Coordinates (Angstroms)
 Number     Number       Type             X           Y           Z
 ---------------------------------------------------------------------
      1          6           0       -1.270260    0.070718    0.005948
      2          6           0       -0.423846    1.306781   -0.045977
      3          6           0        1.709040   -0.086743   -0.016281
      4          6           0       -0.488227   -1.219229   -0.016863
      5          1           0       -2.898460   -0.831388    0.106119
      6          1           0        1.468361    1.810219    0.124937
      7          1           0        1.273079   -2.119470   -0.089011
      8          7           0       -2.494450    0.165082    0.108274
      9          7           0        0.915210    1.030420   -0.060017
     10          7           0        0.885602   -1.220600   -0.001483
     11          8           0       -0.835188    2.446141   -0.034309
     12          8           0        2.941750   -0.061945    0.080316
     13          8           0       -1.125031   -2.273299   -0.049810
 ---------------------------------------------------------------------

 SCF Done:  E(RHF) =  -541.780430452     A.U. after    2 cycles

 The electronic state is 1-A.
 Alpha  occ. eigenvalues --  -20.58139 -20.57900 -20.57187 -15.60763 -15.59240
 Alpha  occ. eigenvalues --  -15.57681 -11.46798 -11.43302 -11.42019 -11.34784
 Alpha  occ. eigenvalues --   -1.52879  -1.51696  -1.50911  -1.36052  -1.30062
 Alpha  occ. eigenvalues --   -1.29053  -1.05540  -0.98312  -0.95710  -0.86481
 Alpha  occ. eigenvalues --   -0.83279  -0.76999  -0.73466  -0.72359  -0.71301
 Alpha  occ. eigenvalues --   -0.68201  -0.66800  -0.64220  -0.61385  -0.55646
 Alpha  occ. eigenvalues --   -0.52249  -0.51748  -0.51572  -0.49350  -0.47526
 Alpha  occ. eigenvalues --   -0.46351
 Alpha virt. eigenvalues --   -0.01207   0.02852   0.04473   0.04886   0.07458
 Alpha virt. eigenvalues --    0.07854   0.08727   0.09169   0.10000   0.10882
 Alpha virt. eigenvalues --    0.11931   0.12389   0.12669   0.12853   0.13117

 Mulliken charges:
               1
     1  C   -1.891286
     2  C    1.188501
     3  C    0.366039
     4  C    1.381441
     5  H    0.250197
     6  H    0.311154
     7  H    0.216582
     8  N    1.101202
     9  N    0.593988
    10  N    0.518245
    11  O   -1.416145
    12  O   -1.208993
    13  O   -1.410927
 Sum of Mulliken charges =  -0.00000

 Dipole moment (field-independent basis, Debye):
    X=              0.8481    Y=             -1.8885    Z=             -0.0901  Tot=              2.0721

 Test job not archived.
 1\1\GINC-SE331\SP\RHF\Aug-CC-pVDZ\C4H3N3O3\OHZDE\08-Apr-2025\0\\#t hf
 aug-cc-pvdz iop(5/13=1,5/36=2,99/5=2) pseudo=read geom=check guess=(re
 ad,tcheck) scf=(maxcycle=1)\\title\\0,1\C,0,-1.27026,0.0707168,0.00594
 765\C,0,-0.423847,1.30678,-0.045977\C,0,1.70904,-0.0867427,-0.0162812\
 C,0,-0.488226,-1.21923,-0.0168631\H,0,-2.89846,-0.83139,0.106119\H,0,1
 .46836,1.81022,0.124937\H,0,1.27308,-2.11947,-0.0890113\N,0,-2.49445,0
 .16508,0.108274\N,0,0.915209,1.03042,-0.0600167\N,0,0.885603,-1.2206,-
 0.00148256\O,0,-0.83519,2.44614,-0.0343093\O,0,2.94175,-0.0619437,0.08

 Normal termination of Gaussian 16 at Tue Apr  8 21:59:44 2025.
