 Gaussian 16, Revision C.01,

 ----------------------------------------------------------------------
 #t hf aug-cc-pvdz symm=none int=(grid=ultrafine) guess=(read,tcheck) s
 table=(opt,rrhf)
 ----------------------------------------------------------------------
 -----
 title
 -----
 Symbolic Z-matrix:
 Charge =  0 Multiplicity = 1

 SCF Done:  E(RHF) =  -471.591344420     A.U. after   13 cycles
 Normal termination of Gaussian 16 at Tue Apr  8 21:53:28 2025.
 Gaussian 16:  ES64L-G16RevC.01  3-Jul-2019

 ----------------------------------------------------------------------
 #t hf aug-cc-pvdz iop(5/13=1,5/36=2,99/5=2) pseudo=read geom=check gue
 ss=(read,tcheck) scf=(maxcycle=1)
 ----------------------------------------------------------------------
 -----
 title
 -----
 Structure from the checkpoint file:  "ANI1ccx_745_conf1_mol1.chk"
 Charge =  0 Multiplicity = 1

                         Standard orientation:
 ---------------------------------------------------------------------
 Center     Atomic      Atomic             Coordinates (Angstroms)
 Number     Number       Type             X           Y           Z
 ---------------------------------------------------------------------
      1          6           0        2.182070   -0.539420   -0.349336
      2          6           0        1.129110   -0.959173    0.684320
      3          6           0       -0.677051    0.401153    0.242291
      4          1           0        1.604441    1.207210   -0.032339
      5          1           0        2.122910   -1.231021   -1.192950
      6          1           0        3.160460   -0.707552    0.088848
      7          1           0        1.258230   -0.358378    1.598670
      8          1           0        1.201530   -2.018190    1.028530
      9          1           0       -2.454159    1.345441    0.042417
     10          1           0       -2.638090   -0.993567   -1.183640
     11          7           0       -1.943019    0.504550   -0.291675
     12          8           0        2.160191    0.831020   -0.725215
     13          8           0       -0.197500   -0.836003    0.122571
     14          8           0       -0.095860    1.380740    0.672649
     15          8           0       -2.674200   -0.649653   -0.291438
 ---------------------------------------------------------------------

 SCF Done:  E(RHF) =  -472.063524733     A.U. after    2 cycles

 The electronic state is 1-A.
 Alpha  occ. eigenvalues --  -20.61435 -20.61392 -20.54273 -20.53455 -15.59476
 Alpha  occ. eigenvalues --  -11.43238 -11.31812 -11.28912  -1.58147  -1.53532
 Alpha  occ. eigenvalues --   -1.47443  -1.43940  -1.18544  -1.03177  -0.90478
 Alpha  occ. eigenvalues --   -0.82956  -0.79152  -0.76465  -0.73777  -0.69875
 Alpha  occ. eigenvalues --   -0.68626  -0.63908  -0.62601  -0.61225  -0.57902
 Alpha  occ. eigenvalues --   -0.54736  -0.53670  -0.52832  -0.47997  -0.46909
 Alpha  occ. eigenvalues --   -0.45147  -0.42930
 Alpha virt. eigenvalues --    0.03203   0.03767   0.04476   0.05225   0.05667
 Alpha virt. eigenvalues --    0.06916   0.08173   0.10622   0.11228   0.12373
 Alpha virt. eigenvalues --    0.13362   0.14088   0.14797   0.15208   0.16099

 Mulliken charges:
               1
     1  C    0.719106
     2  C    0.194813
     3  C    1.082631
     4  H    0.471856
     5  H    0.148181
     6  H    0.044522
     7  H    0.216112
     8  H    0.023175
     9  H    0.234190
    10  H    0.295323
    11  N    1.216869
    12  O   -1.196898
    13  O   -1.213971
    14  O   -1.141174
    15  O   -1.094736
 Sum of Mulliken charges =  -0.00000

 Dipole moment (field-independent basis, Debye):
    X=             -1.5581    Y=             -2.5440    Z=              0.5036  Tot=              3.0254

 Test job not archived.
 1\1\GINC-SE229\SP\RHF\Aug-CC-pVDZ\C3H7N1O4\OHZDE\08-Apr-2025\0\\#t hf
 aug-cc-pvdz iop(5/13=1,5/36=2,99/5=2) pseudo=read geom=check guess=(re
 ad,tcheck) scf=(maxcycle=1)\\title\\0,1\C,0,2.18207,-0.539419,-0.34933
 6\C,0,1.12911,-0.959173,0.68432\C,0,-0.677052,0.401152,0.242291\H,0,1.
 60444,1.20721,-0.0323389\H,0,2.12291,-1.23102,-1.19295\H,0,3.16046,-0.
 707551,0.0888482\H,0,1.25823,-0.358378,1.59867\H,0,1.20153,-2.01819,1.
 02853\H,0,-2.45416,1.34544,0.0424166\H,0,-2.63809,-0.993568,-1.18364\N
 ,0,-1.94302,0.504549,-0.291675\O,0,2.16019,0.831021,-0.725215\O,0,-0.1

 Normal termination of Gaussian 16 at Tue Apr  8 21:53:34 2025.
