 Gaussian 16, Revision C.01,

 ----------------------------------------------------------------------
 #t hf aug-cc-pvdz symm=none int=(grid=ultrafine) guess=(read,tcheck) s
 table=(opt,rrhf)
 ----------------------------------------------------------------------
 -----
 title
 -----
 Symbolic Z-matrix:
 Charge =  0 Multiplicity = 1

 SCF Done:  E(RHF) =  -406.420060462     A.U. after   16 cycles
 Normal termination of Gaussian 16 at Tue Apr  8 21:32:40 2025.
 Gaussian 16:  ES64L-G16RevC.01  3-Jul-2019

 ----------------------------------------------------------------------
 #t hf aug-cc-pvdz iop(5/13=1,5/36=2,99/5=2) pseudo=read geom=check gue
 ss=(read,tcheck) scf=(maxcycle=1)
 ----------------------------------------------------------------------
 -----
 title
 -----
 Structure from the checkpoint file:  "ANI1ccx_379_conf13_mol1.chk"
 Charge =  0 Multiplicity = 1

                         Standard orientation:
 ---------------------------------------------------------------------
 Center     Atomic      Atomic             Coordinates (Angstroms)
 Number     Number       Type             X           Y           Z
 ---------------------------------------------------------------------
      1          6           0        0.126091    0.758156   -0.003640
      2          1           0        1.838831   -0.514997    1.117340
      3          1           0        2.118171   -0.575427   -0.429567
      4          7           0        1.648071   -1.131839    0.176248
      5          7           0        0.294068   -0.619502   -0.194473
      6          7           0       -0.785285   -1.275430   -0.217989
      7          7           0       -1.611769   -0.368771    0.107464
      8          8           0       -1.130500    0.865115    0.180073
      9          8           0        0.939358    1.673670   -0.150658
 ---------------------------------------------------------------------

 SCF Done:  E(RHF) =  -406.825070688     A.U. after    2 cycles

 The electronic state is 1-A.
 Alpha  occ. eigenvalues --  -20.70360 -20.56441 -15.66870 -15.65207 -15.64521
 Alpha  occ. eigenvalues --  -15.60954 -11.45893  -1.73222  -1.50433  -1.48970
 Alpha  occ. eigenvalues --   -1.31535  -1.18812  -1.03210  -0.99144  -0.83849
 Alpha  occ. eigenvalues --   -0.82487  -0.73995  -0.72299  -0.68716  -0.66431
 Alpha  occ. eigenvalues --   -0.62977  -0.60044  -0.58400  -0.55801  -0.49424
 Alpha  occ. eigenvalues --   -0.44343
 Alpha virt. eigenvalues --    0.02447   0.04041   0.05731   0.08397   0.08948
 Alpha virt. eigenvalues --    0.09476   0.10140   0.11342   0.12289   0.12906
 Alpha virt. eigenvalues --    0.15175   0.16972   0.17593   0.18154   0.19145

 Mulliken charges:
               1
     1  C    1.427831
     2  H    0.346226
     3  H    0.150227
     4  N    0.038220
     5  N   -0.273660
     6  N   -0.486459
     7  N    1.128604
     8  O   -1.255829
     9  O   -1.075159
 Sum of Mulliken charges =  -0.00000

 Dipole moment (field-independent basis, Debye):
    X=              1.5819    Y=             -0.3101    Z=              0.8630  Tot=              1.8285

 Test job not archived.
 1\1\GINC-SE365\SP\RHF\Aug-CC-pVDZ\C1H2N4O2\OHZDE\08-Apr-2025\0\\#t hf
 aug-cc-pvdz iop(5/13=1,5/36=2,99/5=2) pseudo=read geom=check guess=(re
 ad,tcheck) scf=(maxcycle=1)\\title\\0,1\C,0,0.126091,0.758156,-0.00363
 95\H,0,1.83883,-0.514998,1.11734\H,0,2.11817,-0.575428,-0.429567\N,0,1
 .64807,-1.13184,0.176248\N,0,0.294067,-0.619502,-0.194473\N,0,-0.78528
 6,-1.27543,-0.217989\N,0,-1.61177,-0.36877,0.107464\O,0,-1.1305,0.8651
 15,0.180073\O,0,0.939358,1.67367,-0.150658\\Version=ES64L-G16RevC.01\S
 tate=1-A\HF=-406.8250707\RMSD=4.222e-02\Dipole=0.6223755,-0.1220022,0.

 Normal termination of Gaussian 16 at Tue Apr  8 21:32:42 2025.
