 Gaussian 16, Revision C.01,

 ----------------------------------------------------------------------
 #t hf aug-cc-pvdz symm=none int=(grid=ultrafine) guess=(read,tcheck) s
 table=(opt,rrhf)
 ----------------------------------------------------------------------
 -----
 title
 -----
 Symbolic Z-matrix:
 Charge =  0 Multiplicity = 1

 SCF Done:  E(RHF) =  -963.574784737     A.U. after   15 cycles
 Normal termination of Gaussian 16 at Tue Apr  8 21:44:44 2025.
 Gaussian 16:  ES64L-G16RevC.01  3-Jul-2019

 ----------------------------------------------------------------------
 #t hf aug-cc-pvdz iop(5/13=1,5/36=2,99/5=2) pseudo=read geom=check gue
 ss=(read,tcheck) scf=(maxcycle=1)
 ----------------------------------------------------------------------
 -----
 title
 -----
 Structure from the checkpoint file:  "ANI1ccx_272_conf9_mol1.chk"
 Charge =  0 Multiplicity = 1

                         Standard orientation:
 ---------------------------------------------------------------------
 Center     Atomic      Atomic             Coordinates (Angstroms)
 Number     Number       Type             X           Y           Z
 ---------------------------------------------------------------------
      1          6           0        1.607370    1.555381   -0.663024
      2          6           0       -4.830010   -1.388609   -0.075068
      3          6           0       -2.425780   -1.668499   -0.970720
      4          6           0       -1.540150   -1.154779    0.146763
      5          6           0       -1.904160    1.368391    0.052057
      6          6           0       -0.966628    0.211712   -0.057775
      7          6           0       -3.769980   -0.970160   -1.108460
      8          6           0        4.287720   -0.773087   -0.611675
      9          6           0        2.907380   -0.712195   -0.611695
     10          6           0        2.062600    0.263531   -1.395000
     11          6           0        1.156010    1.216601    0.807422
     12          6           0        3.506750   -2.319230    0.784751
     13          1           0       -2.646790   -2.739739   -0.814409
     14          1           0       -2.812890    2.636921   -0.768502
     15          1           0       -4.490310    0.175125    1.096460
     16          1           0       -5.291260   -1.130589    1.863050
     17          1           0       -5.845660   -1.179439   -0.503572
     18          1           0       -4.812220   -2.458839   -0.120096
     19          1           0       -4.159340   -1.109489   -2.181350
     20          1           0       -3.606510    0.077721   -1.105310
     21          1           0       -1.917620   -1.610899   -1.939040
     22          1           0       -0.672741   -1.849199    0.182509
     23          1           0       -0.306999    0.524356    1.975320
     24          1           0       -0.600358    0.345081   -1.027810
     25          1           0        3.086290    2.504410    0.368143
     26          1           0       -2.036720   -1.166519    1.086890
     27          1           0        0.734243    1.945041   -1.201100
     28          1           0        2.565330    0.516802   -2.321160
     29          1           0        2.219720    3.425170   -0.639116
     30          1           0        4.987020   -0.177593   -1.252600
     31          1           0        3.349770   -3.135080    1.446360
     32          1           0        5.611970   -2.037410    0.436964
     33          1           0        1.192970   -0.352935   -1.598270
     34          7           0        2.656430    2.510650   -0.547144
     35          7           0        2.464430   -1.717980    0.239756
     36          7           0        4.642700   -1.739290    0.311810
     37          7           0       -0.008084    0.529975    1.005920
     38          7           0       -4.587770   -0.835308    1.180230
     39          8           0       -2.537760    1.574451    1.065700
     40          8           0        1.919840    1.548630    1.739650
     41          8           0       -2.040650    2.100221   -1.068210
 ---------------------------------------------------------------------

 SCF Done:  E(RHF) =  -964.561121121     A.U. after    2 cycles

 The electronic state is 1-A.
 Alpha  occ. eigenvalues --  -20.62774 -20.54732 -20.50028 -15.56107 -15.52783
 Alpha  occ. eigenvalues --  -15.47757 -15.47671 -15.46970 -11.40223 -11.35099
 Alpha  occ. eigenvalues --  -11.29754 -11.29189 -11.27779 -11.26132 -11.24926
 Alpha  occ. eigenvalues --  -11.24892 -11.24010 -11.23234 -11.23021 -11.22898
 Alpha  occ. eigenvalues --   -1.57273  -1.46614  -1.43121  -1.32906  -1.25057
 Alpha  occ. eigenvalues --   -1.19568  -1.19130  -1.16067  -1.09901  -1.04952
 Alpha  occ. eigenvalues --   -1.03164  -0.98550  -0.95591  -0.90007  -0.87665
 Alpha  occ. eigenvalues --   -0.84921  -0.82753  -0.80837  -0.79391  -0.79239
 Alpha  occ. eigenvalues --   -0.75877  -0.73944  -0.72641  -0.71803  -0.70491
 Alpha  occ. eigenvalues --   -0.69721  -0.66769  -0.65743  -0.64750  -0.64339
 Alpha  occ. eigenvalues --   -0.63812  -0.63673  -0.62362  -0.62044  -0.61146
 Alpha  occ. eigenvalues --   -0.59544  -0.58620  -0.57966  -0.57391  -0.55378
 Alpha  occ. eigenvalues --   -0.54026  -0.53111  -0.52368  -0.51617  -0.49598
 Alpha  occ. eigenvalues --   -0.48775  -0.47901  -0.47264  -0.45886  -0.45535
 Alpha  occ. eigenvalues --   -0.43797  -0.42489  -0.41084  -0.40265  -0.40136
 Alpha  occ. eigenvalues --   -0.32191
 Alpha virt. eigenvalues --    0.02796   0.03021   0.03246   0.03513   0.04169
 Alpha virt. eigenvalues --    0.04386   0.04929   0.05459   0.05592   0.06368
 Alpha virt. eigenvalues --    0.06496   0.07006   0.07696   0.08089   0.08291

 Mulliken charges:
               1
     1  C   -2.196088
     2  C   -0.584263
     3  C   -0.115752
     4  C   -0.310383
     5  C    2.698938
     6  C    0.131233
     7  C   -0.091920
     8  C   -0.685553
     9  C   -0.758785
    10  C    0.120545
    11  C    0.858559
    12  C   -0.509042
    13  H    0.157058
    14  H    0.364576
    15  H    0.233692
    16  H    0.207590
    17  H    0.042319
    18  H    0.051127
    19  H    0.177091
    20  H   -0.094662
    21  H    0.154067
    22  H    0.222026
    23  H    0.219281
    24  H   -0.290084
    25  H    0.204364
    26  H    0.233661
    27  H    0.114991
    28  H    0.084647
    29  H    0.259236
    30  H   -0.159223
    31  H   -0.157645
    32  H   -0.015858
    33  H    0.358252
    34  N    0.941402
    35  N    1.240078
    36  N    0.899916
    37  N    0.501693
    38  N    0.222381
    39  O   -1.627954
    40  O   -1.592187
    41  O   -1.509322
 Sum of Mulliken charges =  -0.00000

 Dipole moment (field-independent basis, Debye):
    X=             -0.6914    Y=             -1.4970    Z=             -2.8636  Tot=              3.3044

 Test job not archived.
 1\1\GINC-SE036\SP\RHF\Aug-CC-pVDZ\C12H21N5O3\OHZDE\08-Apr-2025\0\\#t h
 f aug-cc-pvdz iop(5/13=1,5/36=2,99/5=2) pseudo=read geom=check guess=(
 read,tcheck) scf=(maxcycle=1)\\title\\0,1\C,0,1.60737,1.55538,-0.66302
 4\C,0,-4.83001,-1.38861,-0.0750688\C,0,-2.42578,-1.6685,-0.97072\C,0,-
 1.54015,-1.15478,0.146763\C,0,-1.90416,1.36839,0.052057\C,0,-0.966628,
 0.211711,-0.0577759\C,0,-3.76998,-0.970161,-1.10846\C,0,4.28772,-0.773
 087,-0.611675\C,0,2.90738,-0.712195,-0.611695\C,0,2.0626,0.263531,-1.3
 95\C,0,1.15601,1.2166,0.807422\C,0,3.50675,-2.31923,0.784751\H,0,-2.64

 Normal termination of Gaussian 16 at Tue Apr  8 21:46:15 2025.
