 Gaussian 16, Revision C.01,

 ----------------------------------------------------------------------
 #t hf aug-cc-pvdz symm=none int=(grid=ultrafine) guess=(read,tcheck) s
 table=(opt,rrhf)
 ----------------------------------------------------------------------
 -----
 title
 -----
 Symbolic Z-matrix:
 Charge =  0 Multiplicity = 1

 SCF Done:  E(RHF) =  -241.010599069     A.U. after   14 cycles
 Normal termination of Gaussian 16 at Tue Apr  8 21:12:20 2025.
 Gaussian 16:  ES64L-G16RevC.01  3-Jul-2019

 ----------------------------------------------------------------------
 #t hf aug-cc-pvdz iop(5/13=1,5/36=2,99/5=2) pseudo=read geom=check gue
 ss=(read,tcheck) scf=(maxcycle=1)
 ----------------------------------------------------------------------
 -----
 title
 -----
 Structure from the checkpoint file:  "ANI1ccx_1892_conf13_mol1.chk"
 Charge =  0 Multiplicity = 1

                         Standard orientation:
 ---------------------------------------------------------------------
 Center     Atomic      Atomic             Coordinates (Angstroms)
 Number     Number       Type             X           Y           Z
 ---------------------------------------------------------------------
      1          1           0        1.666288   -0.962948    0.831836
      2          1           0        3.083458    0.675181    0.590814
      3          1           0        3.154128   -0.361557   -0.703212
      4          1           0       -1.886812    1.291979   -0.253158
      5          1           0       -1.308512   -0.857794   -0.503872
      6          7           0        2.590308    0.344861   -0.228927
      7          7           0       -2.566992    0.580677    0.129889
      8          7           0       -2.293702   -0.577203   -0.129107
      9          8           0        1.398018   -0.277902    0.204326
 ---------------------------------------------------------------------

 SCF Done:  E(RHF) =  -241.256075270     A.U. after    2 cycles

 The electronic state is 1-A.
 Alpha  occ. eigenvalues --  -20.59732 -15.56591 -15.56239 -15.56133  -1.50092
 Alpha  occ. eigenvalues --   -1.35686  -1.10969  -0.93001  -0.78678  -0.74893
 Alpha  occ. eigenvalues --   -0.74291  -0.62103  -0.61360  -0.56438  -0.50134
 Alpha  occ. eigenvalues --   -0.47958  -0.42024
 Alpha virt. eigenvalues --    0.02345   0.04848   0.05203   0.05379   0.07150
 Alpha virt. eigenvalues --    0.08061   0.13932   0.14522   0.16426   0.17422
 Alpha virt. eigenvalues --    0.17808   0.18133   0.18789   0.19654   0.20607

 Mulliken charges:
               1
     1  H    0.274874
     2  H    0.064934
     3  H    0.087542
     4  H    0.116730
     5  H    0.108648
     6  N    0.490286
     7  N   -0.104939
     8  N   -0.099786
     9  O   -0.938289
 Sum of Mulliken charges =  -0.00000

 Dipole moment (field-independent basis, Debye):
    X=              5.2082    Y=             -0.9499    Z=              0.3396  Tot=              5.3050

 Test job not archived.
 1\1\GINC-SE398\SP\RHF\Aug-CC-pVDZ\H5N3O1\OHZDE\08-Apr-2025\0\\#t hf au
 g-cc-pvdz iop(5/13=1,5/36=2,99/5=2) pseudo=read geom=check guess=(read
 ,tcheck) scf=(maxcycle=1)\\title\\0,1\H,0,1.66629,-0.962948,0.831836\H
 ,0,3.08346,0.67518,0.590814\H,0,3.15413,-0.361558,-0.703212\H,0,-1.886
 81,1.29198,-0.253158\H,0,-1.30851,-0.857794,-0.503872\N,0,2.59031,0.34
 4861,-0.228927\N,0,-2.56699,0.580678,0.129889\N,0,-2.2937,-0.577202,-0
 .129107\O,0,1.39802,-0.277902,0.204326\\Version=ES64L-G16RevC.01\State
 =1-A\HF=-241.2560753\RMSD=2.685e-02\Dipole=2.0490632,-0.3737214,0.1336

 Normal termination of Gaussian 16 at Tue Apr  8 21:12:22 2025.
