 Gaussian 16, Revision C.01,

 ----------------------------------------------------------------------
 #t hf aug-cc-pvdz symm=none int=(grid=ultrafine) guess=(read,tcheck) s
 table=(opt,rrhf)
 ----------------------------------------------------------------------
 -----
 title
 -----
 Symbolic Z-matrix:
 Charge =  0 Multiplicity = 1

 SCF Done:  E(RHF) =  -456.266790540     A.U. after   11 cycles
 Normal termination of Gaussian 16 at Tue Apr  8 21:06:45 2025.
 Gaussian 16:  ES64L-G16RevC.01  3-Jul-2019

 ----------------------------------------------------------------------
 #t hf aug-cc-pvdz iop(5/13=1,5/36=2,99/5=2) pseudo=read geom=check gue
 ss=(read,tcheck) scf=(maxcycle=1)
 ----------------------------------------------------------------------
 -----
 title
 -----
 Structure from the checkpoint file:  "ANI1ccx_1844_conf114_mol1.chk"
 Charge =  0 Multiplicity = 1

                         Standard orientation:
 ---------------------------------------------------------------------
 Center     Atomic      Atomic             Coordinates (Angstroms)
 Number     Number       Type             X           Y           Z
 ---------------------------------------------------------------------
      1          1           0       -2.331711   -0.616366   -0.674423
      2          1           0        1.921472    1.965017   -1.332420
      3          1           0        2.356460    0.507589   -0.685266
      4          1           0       -2.468809    1.627313   -1.196200
      5          1           0       -1.763859    1.394222    0.090081
      6          1           0       -0.021097    2.022420    1.671450
      7          1           0       -2.922173   -1.892137    0.012503
      8          1           0        0.713017    1.557199    0.339570
      9          1           0        0.015845   -0.524076    1.114570
     10          1           0       -0.574829   -1.742420    0.326834
     11          1           0        1.602188   -1.354922   -0.063258
     12          1           0        3.106458   -1.416224    0.342631
     13          8           0       -2.589519    1.159533   -0.371624
     14          8           0        0.219891   -1.482061    0.827474
     15          8           0        2.133541    1.476197   -0.473407
     16          8           0       -0.105839    1.441070    0.933367
     17          8           0       -2.112712   -1.555998   -0.453762
     18          8           0        2.500518   -1.229693   -0.455307
 ---------------------------------------------------------------------

 SCF Done:  E(RHF) =  -456.739734804     A.U. after    2 cycles

 The electronic state is 1-A.
 Alpha  occ. eigenvalues --  -20.56985 -20.56387 -20.56335 -20.55169 -20.54052
 Alpha  occ. eigenvalues --  -20.52829  -1.45903  -1.44861  -1.42967  -1.42656
 Alpha  occ. eigenvalues --   -1.41270  -1.39210  -0.73502  -0.71764  -0.71325
 Alpha  occ. eigenvalues --   -0.69902  -0.69104  -0.67656  -0.62914  -0.60116
 Alpha  occ. eigenvalues --   -0.58949  -0.57356  -0.56324  -0.53541  -0.50664
 Alpha  occ. eigenvalues --   -0.50207  -0.50025  -0.48365  -0.47851  -0.46590
 Alpha virt. eigenvalues --    0.02643   0.04290   0.04477   0.05282   0.06195
 Alpha virt. eigenvalues --    0.07793   0.08290   0.08814   0.09007   0.10093
 Alpha virt. eigenvalues --    0.10685   0.12466   0.16031   0.19207   0.19622

 Mulliken charges:
               1
     1  H    0.650442
     2  H    0.386998
     3  H    0.642890
     4  H    0.340586
     5  H    0.727782
     6  H    0.396934
     7  H    0.388757
     8  H    0.984410
     9  H    0.663273
    10  H    0.701961
    11  H    0.827562
    12  H    0.370271
    13  O   -0.978412
    14  O   -1.367258
    15  O   -1.063354
    16  O   -1.487504
    17  O   -1.040677
    18  O   -1.144661
 Sum of Mulliken charges =  -0.00000

 Dipole moment (field-independent basis, Debye):
    X=             -0.8435    Y=              3.3102    Z=             -0.1606  Tot=              3.4198

 Test job not archived.
 1\1\GINC-SE044\SP\RHF\Aug-CC-pVDZ\H12O6\OHZDE\08-Apr-2025\0\\#t hf aug
 -cc-pvdz iop(5/13=1,5/36=2,99/5=2) pseudo=read geom=check guess=(read,
 tcheck) scf=(maxcycle=1)\\title\\0,1\H,0,-2.33171,-0.616368,-0.674423\
 H,0,1.92147,1.96502,-1.33242\H,0,2.35646,0.507592,-0.685266\H,0,-2.468
 81,1.62731,-1.1962\H,0,-1.76386,1.39422,0.0900811\H,0,-0.0210985,2.022
 42,1.67145\H,0,-2.92217,-1.89214,0.0125029\H,0,0.713016,1.5572,0.33957
 \H,0,0.0158463,-0.524076,1.11457\H,0,-0.574826,-1.74242,0.326834\H,0,1
 .60219,-1.35492,-0.0632578\H,0,3.10646,-1.41622,0.342631\O,0,-2.58952,

 Normal termination of Gaussian 16 at Tue Apr  8 21:06:50 2025.
