 Gaussian 16, Revision C.01,

 ----------------------------------------------------------------------
 #t hf aug-cc-pvdz symm=none int=(grid=ultrafine) guess=(read,tcheck) s
 table=(opt,rrhf)
 ----------------------------------------------------------------------
 -----
 title
 -----
 Symbolic Z-matrix:
 Charge =  0 Multiplicity = 1

 SCF Done:  E(RHF) =  -453.325356917     A.U. after   15 cycles
 Normal termination of Gaussian 16 at Tue Apr  8 22:04:52 2025.
 Gaussian 16:  ES64L-G16RevC.01  3-Jul-2019

 ----------------------------------------------------------------------
 #t hf aug-cc-pvdz iop(5/13=1,5/36=2,99/5=2) pseudo=read geom=check gue
 ss=(read,tcheck) scf=(maxcycle=1)
 ----------------------------------------------------------------------
 -----
 title
 -----
 Structure from the checkpoint file:  "ANI1ccx_892_conf4_mol2.chk"
 Charge =  0 Multiplicity = 1

                         Standard orientation:
 ---------------------------------------------------------------------
 Center     Atomic      Atomic             Coordinates (Angstroms)
 Number     Number       Type             X           Y           Z
 ---------------------------------------------------------------------
      1          6           0       -1.758690    0.015084   -0.007493
      2          6           0       -0.661189   -1.072920    0.076395
      3          6           0        0.667445   -1.110110    0.017911
      4          6           0        1.717320   -0.083311   -0.022202
      5          1           0       -0.471561    1.443640    0.039326
      6          1           0       -1.141100   -2.041210    0.111243
      7          1           0        1.107980   -2.105960    0.024607
      8          1           0        2.013440    1.800780   -0.030753
      9          8           0       -1.433830    1.307760    0.084140
     10          8           0       -2.897130   -0.379609   -0.098182
     11          8           0        1.261430    1.202950   -0.035779
     12          8           0        2.907270   -0.329816   -0.016691
 ---------------------------------------------------------------------

 SCF Done:  E(RHF) =  -453.767477992     A.U. after    2 cycles

 The electronic state is 1-A.
 Alpha  occ. eigenvalues --  -20.64899 -20.60659 -20.57989 -20.55172 -11.44250
 Alpha  occ. eigenvalues --  -11.42093 -11.31575 -11.30506  -1.59286  -1.55417
 Alpha  occ. eigenvalues --   -1.49043  -1.46758  -1.13093  -0.97265  -0.88448
 Alpha  occ. eigenvalues --   -0.84095  -0.78953  -0.75484  -0.69805  -0.67499
 Alpha  occ. eigenvalues --   -0.66074  -0.64846  -0.64307  -0.63238  -0.55198
 Alpha  occ. eigenvalues --   -0.52576  -0.49251  -0.48569  -0.46343  -0.43837
 Alpha virt. eigenvalues --    0.02522   0.02612   0.03421   0.05252   0.06554
 Alpha virt. eigenvalues --    0.08311   0.09703   0.10211   0.11459   0.12494
 Alpha virt. eigenvalues --    0.12562   0.12987   0.13904   0.14608   0.15524

 Mulliken charges:
               1
     1  C    1.655447
     2  C    0.450230
     3  C    0.562728
     4  C    1.831320
     5  H    0.597290
     6  H   -0.249288
     7  H   -0.232289
     8  H    0.441970
     9  O   -1.282971
    10  O   -1.163165
    11  O   -1.406113
    12  O   -1.205158
 Sum of Mulliken charges =   0.00000

 Dipole moment (field-independent basis, Debye):
    X=              2.9980    Y=              0.4195    Z=              0.1275  Tot=              3.0299

 Test job not archived.
 1\1\GINC-SE038\SP\RHF\Aug-CC-pVDZ\C4H4O4\OHZDE\08-Apr-2025\0\\#t hf au
 g-cc-pvdz iop(5/13=1,5/36=2,99/5=2) pseudo=read geom=check guess=(read
 ,tcheck) scf=(maxcycle=1)\\title\\0,1\C,0,-1.75869,0.0150837,-0.007493
 43\C,0,-0.661189,-1.07292,0.0763954\C,0,0.667445,-1.11011,0.0179106\C,
 0,1.71732,-0.0833116,-0.0222016\H,0,-0.471561,1.44364,0.0393265\H,0,-1
 .1411,-2.04121,0.111243\H,0,1.10798,-2.10596,0.0246067\H,0,2.01344,1.8
 0078,-0.030753\O,0,-1.43383,1.30776,0.08414\O,0,-2.89713,-0.379609,-0.
 0981819\O,0,1.26143,1.20295,-0.0357785\O,0,2.90727,-0.329816,-0.016690

 Normal termination of Gaussian 16 at Tue Apr  8 22:04:57 2025.
