 Gaussian 16, Revision C.01,

 ----------------------------------------------------------------------
 #t hf aug-cc-pvdz symm=none int=(grid=ultrafine) guess=(read,tcheck) s
 table=(opt,rrhf)
 ----------------------------------------------------------------------
 -----
 title
 -----
 Symbolic Z-matrix:
 Charge =  0 Multiplicity = 1

 SCF Done:  E(RHF) =  -636.063606140     A.U. after   16 cycles
 Normal termination of Gaussian 16 at Tue Apr  8 19:49:47 2025.
 Gaussian 16:  ES64L-G16RevC.01  3-Jul-2019

 ----------------------------------------------------------------------
 #t hf aug-cc-pvdz iop(5/13=1,5/36=2,99/5=2) pseudo=read geom=check gue
 ss=(read,tcheck) scf=(maxcycle=1)
 ----------------------------------------------------------------------
 -----
 title
 -----
 Structure from the checkpoint file:  "ANI1ccx_1499_conf7_mol1.chk"
 Charge =  0 Multiplicity = 1

                         Standard orientation:
 ---------------------------------------------------------------------
 Center     Atomic      Atomic             Coordinates (Angstroms)
 Number     Number       Type             X           Y           Z
 ---------------------------------------------------------------------
      1          6           0        0.637006    1.538870   -0.006422
      2          6           0       -1.899651   -0.079040    1.063880
      3          6           0       -2.053361   -0.077145   -1.058250
      4          6           0        1.246599    0.182307    0.028786
      5          6           0        2.669379    0.013046   -0.033171
      6          6           0        2.904119   -1.367010   -0.050077
      7          6           0        0.696940   -1.062270    0.029100
      8          1           0       -0.279083   -1.469170    0.060160
      9          1           0        3.789269   -1.969190   -0.048370
     10          1           0        3.372599    0.841954   -0.111118
     11          1           0       -1.863461    0.157217   -2.065370
     12          1           0       -1.691121    0.127831    2.110330
     13          1           0       -1.077061    2.644170   -0.275901
     14          7           0       -0.716336    1.711230    0.021276
     15          7           0       -1.566841    0.620467   -0.022504
     16          7           0       -2.584521   -1.120240    0.710353
     17          7           0       -2.615481   -1.132600   -0.681405
     18          8           0        1.400909    2.522360    0.035605
     19          8           0        1.714709   -1.994530    0.001039
 ---------------------------------------------------------------------

 SCF Done:  E(RHF) =  -636.697763635     A.U. after    2 cycles

 The electronic state is 1-A.
 Alpha  occ. eigenvalues --  -20.63508 -20.54064 -15.63485 -15.61751 -15.54186
 Alpha  occ. eigenvalues --  -15.53781 -11.40433 -11.33327 -11.33145 -11.32596
 Alpha  occ. eigenvalues --  -11.32114 -11.27355 -11.26053  -1.56704  -1.48095
 Alpha  occ. eigenvalues --   -1.45607  -1.34737  -1.19557  -1.16192  -1.12380
 Alpha  occ. eigenvalues --   -1.03480  -0.95435  -0.93867  -0.90632  -0.86199
 Alpha  occ. eigenvalues --   -0.83817  -0.81781  -0.77969  -0.72878  -0.71248
 Alpha  occ. eigenvalues --   -0.69230  -0.67611  -0.65876  -0.64130  -0.62810
 Alpha  occ. eigenvalues --   -0.62149  -0.58755  -0.56675  -0.55403  -0.51898
 Alpha  occ. eigenvalues --   -0.51376  -0.47481  -0.45789  -0.44154  -0.41569
 Alpha  occ. eigenvalues --   -0.34762
 Alpha virt. eigenvalues --    0.02493   0.03428   0.03869   0.04683   0.04925
 Alpha virt. eigenvalues --    0.06929   0.07145   0.07462   0.08209   0.08456
 Alpha virt. eigenvalues --    0.09673   0.10682   0.10875   0.11003   0.11314

 Mulliken charges:
               1
     1  C    0.047623
     2  C   -0.531292
     3  C   -0.378213
     4  C    1.422310
     5  C   -0.236145
     6  C    0.903458
     7  C    0.721825
     8  H   -0.089139
     9  H   -0.158917
    10  H   -0.249930
    11  H   -0.305343
    12  H   -0.173320
    13  H    0.169736
    14  N   -0.319603
    15  N    1.350267
    16  N    0.356504
    17  N    0.352573
    18  O   -1.400744
    19  O   -1.481649
 Sum of Mulliken charges =  -0.00000

 Dipole moment (field-independent basis, Debye):
    X=              1.2018    Y=              2.2391    Z=             -0.6327  Tot=              2.6188

 Test job not archived.
 1\1\GINC-SE462\SP\RHF\Aug-CC-pVDZ\C7H6N4O2\OHZDE\08-Apr-2025\0\\#t hf
 aug-cc-pvdz iop(5/13=1,5/36=2,99/5=2) pseudo=read geom=check guess=(re
 ad,tcheck) scf=(maxcycle=1)\\title\\0,1\C,0,0.637007,1.53887,-0.006422
 09\C,0,-1.89965,-0.0790399,1.06388\C,0,-2.05336,-0.0771446,-1.05825\C,
 0,1.2466,0.182307,0.0287856\C,0,2.66938,0.0130453,-0.0331715\C,0,2.904
 12,-1.36701,-0.0500767\C,0,0.696941,-1.06227,0.0290995\H,0,-0.279082,-
 1.46917,0.06016\H,0,3.78927,-1.96919,-0.0483703\H,0,3.3726,0.841954,-0
 .111118\H,0,-1.86346,0.157217,-2.06537\H,0,-1.69112,0.127831,2.11033\H

 Normal termination of Gaussian 16 at Tue Apr  8 19:50:02 2025.
