 Gaussian 16, Revision C.01,

 ----------------------------------------------------------------------
 #t hf aug-cc-pvdz symm=none int=(grid=ultrafine) guess=(read,tcheck) s
 table=(opt,rrhf)
 ----------------------------------------------------------------------
 -----
 title
 -----
 Symbolic Z-matrix:
 Charge =  0 Multiplicity = 1

 SCF Done:  E(RHF) =  -377.583897863     A.U. after   13 cycles
 Normal termination of Gaussian 16 at Tue Apr  8 21:45:51 2025.
 Gaussian 16:  ES64L-G16RevC.01  3-Jul-2019

 ----------------------------------------------------------------------
 #t hf aug-cc-pvdz iop(5/13=1,5/36=2,99/5=2) pseudo=read geom=check gue
 ss=(read,tcheck) scf=(maxcycle=1)
 ----------------------------------------------------------------------
 -----
 title
 -----
 Structure from the checkpoint file:  "ANI1ccx_529_conf1_mol2.chk"
 Charge =  0 Multiplicity = 1

                         Standard orientation:
 ---------------------------------------------------------------------
 Center     Atomic      Atomic             Coordinates (Angstroms)
 Number     Number       Type             X           Y           Z
 ---------------------------------------------------------------------
      1          6           0        1.789850    0.108902    0.197547
      2          6           0       -1.746630    0.140216    0.268030
      3          1           0        3.480001    0.810569   -0.341403
      4          1           0        1.609001    1.144930    0.521728
      5          1           0       -2.642830   -1.538369    0.010681
      6          1           0       -1.217280   -0.377561    1.090990
      7          8           0        2.983780   -0.025441   -0.379193
      8          8           0        0.985082   -0.772703    0.320022
      9          8           0       -2.585560   -0.666803   -0.402088
     10          8           0       -1.569329    1.273161   -0.048174
 ---------------------------------------------------------------------

 SCF Done:  E(RHF) =  -377.951606351     A.U. after    2 cycles

 The electronic state is 1-A.
 Alpha  occ. eigenvalues --  -20.62710 -20.60031 -20.55846 -20.53491 -11.41546
 Alpha  occ. eigenvalues --  -11.38870  -1.56795  -1.54397  -1.47941  -1.45719
 Alpha  occ. eigenvalues --   -0.88803  -0.86120  -0.80735  -0.78137  -0.68705
 Alpha  occ. eigenvalues --   -0.66166  -0.64470  -0.62073  -0.60184  -0.57716
 Alpha  occ. eigenvalues --   -0.49597  -0.47553  -0.46711  -0.44172
 Alpha virt. eigenvalues --    0.02425   0.03678   0.05202   0.06834   0.08809
 Alpha virt. eigenvalues --    0.09903   0.10604   0.13324   0.13569   0.14355
 Alpha virt. eigenvalues --    0.15257   0.16052   0.17567   0.18370   0.20404

 Mulliken charges:
               1
     1  C    1.522546
     2  C    1.506664
     3  H    0.420067
     4  H    0.110710
     5  H    0.405909
     6  H    0.131172
     7  O   -1.022344
     8  O   -1.023595
     9  O   -1.025993
    10  O   -1.025135
 Sum of Mulliken charges =   0.00000

 Dipole moment (field-independent basis, Debye):
    X=              2.5634    Y=             -0.1247    Z=              2.0141  Tot=              3.2624

 Test job not archived.
 1\1\GINC-SE179\SP\RHF\Aug-CC-pVDZ\C2H4O4\OHZDE\08-Apr-2025\0\\#t hf au
 g-cc-pvdz iop(5/13=1,5/36=2,99/5=2) pseudo=read geom=check guess=(read
 ,tcheck) scf=(maxcycle=1)\\title\\0,1\C,0,1.78985,0.108902,0.197547\C,
 0,-1.74663,0.140215,0.26803\H,0,3.48,0.810569,-0.341403\H,0,1.609,1.14
 493,0.521728\H,0,-2.64283,-1.53837,0.0106808\H,0,-1.21728,-0.377562,1.
 09099\O,0,2.98378,-0.0254407,-0.379193\O,0,0.985082,-0.772703,0.320022
 \O,0,-2.58556,-0.666804,-0.402088\O,0,-1.56933,1.27316,-0.0481736\\Ver
 sion=ES64L-G16RevC.01\State=1-A\HF=-377.9516064\RMSD=7.506e-03\Dipole=

 Normal termination of Gaussian 16 at Tue Apr  8 21:45:54 2025.
