 Gaussian 16, Revision C.01,

 ----------------------------------------------------------------------
 #t hf aug-cc-pvdz symm=none int=(grid=ultrafine) guess=(read,tcheck) s
 table=(opt,rrhf)
 ----------------------------------------------------------------------
 -----
 title
 -----
 Symbolic Z-matrix:
 Charge =  0 Multiplicity = 1

 SCF Done:  E(RHF) =  -509.502785686     A.U. after   14 cycles
 Normal termination of Gaussian 16 at Tue Apr  8 22:10:57 2025.
 Gaussian 16:  ES64L-G16RevC.01  3-Jul-2019

 ----------------------------------------------------------------------
 #t hf aug-cc-pvdz iop(5/13=1,5/36=2,99/5=2) pseudo=read geom=check gue
 ss=(read,tcheck) scf=(maxcycle=1)
 ----------------------------------------------------------------------
 -----
 title
 -----
 Structure from the checkpoint file:  "ANI1ccx_939_conf143_mol1.chk"
 Charge =  0 Multiplicity = 1

                         Standard orientation:
 ---------------------------------------------------------------------
 Center     Atomic      Atomic             Coordinates (Angstroms)
 Number     Number       Type             X           Y           Z
 ---------------------------------------------------------------------
      1          6           0        0.413380    0.139528    0.514977
      2          6           0        2.012429   -0.177187    0.200260
      3          6           0       -0.629571   -0.739678   -0.173823
      4          6           0       -2.020731   -0.230656   -0.019943
      5          1           0        0.984650    1.885281   -0.462743
      6          1           0        0.423316    2.125461    0.902947
      7          1           0        0.422268   -0.013357    1.624260
      8          1           0       -0.338749   -0.837388   -1.254740
      9          1           0       -0.629678   -1.742909    0.224220
     10          1           0       -1.297931    1.433061   -0.383181
     11          1           0        1.471539   -1.949059   -0.340586
     12          7           0        0.243241    1.592461    0.042320
     13          8           0        2.757439    0.676110   -0.160777
     14          8           0       -2.947041   -0.984355    0.210358
     15          8           0       -2.204151    1.022500   -0.342451
     16          8           0        2.219859   -1.464299   -0.174035
 ---------------------------------------------------------------------

 SCF Done:  E(RHF) =  -510.012472929     A.U. after    2 cycles

 The electronic state is 1-A.
 Alpha  occ. eigenvalues --  -20.62122 -20.58181 -20.57687 -20.52581 -15.54729
 Alpha  occ. eigenvalues --  -11.43843 -11.39185 -11.35607 -11.29474  -1.58588
 Alpha  occ. eigenvalues --   -1.54469  -1.50325  -1.44209  -1.25039  -1.09640
 Alpha  occ. eigenvalues --   -0.95781  -0.87998  -0.83206  -0.79863  -0.74863
 Alpha  occ. eigenvalues --   -0.74012  -0.71247  -0.68776  -0.66632  -0.65906
 Alpha  occ. eigenvalues --   -0.63877  -0.61148  -0.59123  -0.57354  -0.55581
 Alpha  occ. eigenvalues --   -0.51055  -0.50562  -0.47292  -0.45431  -0.43550
 Alpha virt. eigenvalues --    0.02269   0.03161   0.03557   0.05392   0.05836
 Alpha virt. eigenvalues --    0.05923   0.07282   0.08820   0.09331   0.10109
 Alpha virt. eigenvalues --    0.11511   0.11709   0.12434   0.13178   0.13298

 Mulliken charges:
               1
     1  C   -1.336991
     2  C    2.411100
     3  C   -0.290634
     4  C    2.234245
     5  H    0.169544
     6  H    0.333358
     7  H    0.254576
     8  H    0.299986
     9  H    0.048279
    10  H    0.712027
    11  H    0.415333
    12  N   -0.040569
    13  O   -1.190845
    14  O   -1.287681
    15  O   -1.450329
    16  O   -1.281400
 Sum of Mulliken charges =  -0.00000

 Dipole moment (field-independent basis, Debye):
    X=              3.2527    Y=              0.1473    Z=              1.0589  Tot=              3.4239

 Test job not archived.
 1\1\GINC-SE424\SP\RHF\Aug-CC-pVDZ\C4H7N1O4\OHZDE\08-Apr-2025\0\\#t hf
 aug-cc-pvdz iop(5/13=1,5/36=2,99/5=2) pseudo=read geom=check guess=(re
 ad,tcheck) scf=(maxcycle=1)\\title\\0,1\C,0,0.413381,0.139527,0.514977
 \C,0,2.01243,-0.177188,0.20026\C,0,-0.62957,-0.739679,-0.173823\C,0,-2
 .02073,-0.230656,-0.0199431\H,0,0.984651,1.88528,-0.462743\H,0,0.42331
 7,2.12546,0.902947\H,0,0.422269,-0.0133581,1.62426\H,0,-0.338748,-0.83
 7389,-1.25474\H,0,-0.629677,-1.74291,0.22422\H,0,-1.29793,1.43306,-0.3
 83181\H,0,1.47154,-1.94906,-0.340586\N,0,0.243242,1.59246,0.0423202\O,

 Normal termination of Gaussian 16 at Tue Apr  8 22:11:04 2025.
