 Gaussian 16, Revision C.01,

 ----------------------------------------------------------------------
 #t hf aug-cc-pvdz symm=none int=(grid=ultrafine) guess=(read,tcheck) s
 table=(opt,rrhf)
 ----------------------------------------------------------------------
 -----
 title
 -----
 Symbolic Z-matrix:
 Charge =  0 Multiplicity = 1

 SCF Done:  E(RHF) =  -445.282402589     A.U. after   15 cycles
 Normal termination of Gaussian 16 at Tue Apr  8 21:57:09 2025.
 Gaussian 16:  ES64L-G16RevC.01  3-Jul-2019

 ----------------------------------------------------------------------
 #t hf aug-cc-pvdz iop(5/13=1,5/36=2,99/5=2) pseudo=read geom=check gue
 ss=(read,tcheck) scf=(maxcycle=1)
 ----------------------------------------------------------------------
 -----
 title
 -----
 Structure from the checkpoint file:  "ANI1ccx_856_conf2_mol2.chk"
 Charge =  0 Multiplicity = 1

                         Standard orientation:
 ---------------------------------------------------------------------
 Center     Atomic      Atomic             Coordinates (Angstroms)
 Number     Number       Type             X           Y           Z
 ---------------------------------------------------------------------
      1          6           0       -1.387950   -0.408338    0.031283
      2          6           0       -1.478831    1.119378   -0.015031
      3          6           0        0.593321    0.769572    0.017450
      4          6           0        1.114291   -1.314420   -0.003584
      5          1           0       -2.406262    1.655997   -0.063924
      6          1           0        1.074512   -2.404450   -0.113919
      7          7           0       -0.365060    1.748799   -0.009488
      8          7           0        1.873099    0.753021   -0.013243
      9          7           0        2.196800   -0.583197   -0.015536
     10          7           0        0.024527   -0.492034    0.065732
     11          8           0       -2.227349   -1.279353   -0.024390
 ---------------------------------------------------------------------

 SCF Done:  E(RHF) =  -445.719914578     A.U. after    2 cycles

 The electronic state is 1-A.
 Alpha  occ. eigenvalues --  -20.61465 -15.60454 -15.58356 -15.56073 -15.55160
 Alpha  occ. eigenvalues --  -11.45060 -11.36470 -11.36018 -11.35400  -1.54354
 Alpha  occ. eigenvalues --   -1.45384  -1.35287  -1.26791  -1.14467  -1.04531
 Alpha  occ. eigenvalues --   -0.94681  -0.89642  -0.87647  -0.76380  -0.74584
 Alpha  occ. eigenvalues --   -0.74151  -0.71352  -0.67759  -0.61321  -0.59509
 Alpha  occ. eigenvalues --   -0.58235  -0.57161  -0.51564  -0.50200  -0.49335
 Alpha  occ. eigenvalues --   -0.41155
 Alpha virt. eigenvalues --   -0.02809   0.02743   0.03824   0.06812   0.06972
 Alpha virt. eigenvalues --    0.07218   0.08979   0.09184   0.10657   0.11545
 Alpha virt. eigenvalues --    0.12181   0.12284   0.12942   0.13318   0.14235

 Mulliken charges:
               1
     1  C    0.919363
     2  C   -0.224129
     3  C   -1.417595
     4  C   -0.323939
     5  H   -0.002807
     6  H   -0.022836
     7  N    0.952119
     8  N    0.482059
     9  N    0.180474
    10  N    0.632676
    11  O   -1.175384
 Sum of Mulliken charges =  -0.00000

 Dipole moment (field-independent basis, Debye):
    X=             -4.6315    Y=             -1.3295    Z=              0.0109  Tot=              4.8185

 Test job not archived.
 1\1\GINC-SE365\SP\RHF\Aug-CC-pVDZ\C4H2N4O1\OHZDE\08-Apr-2025\0\\#t hf
 aug-cc-pvdz iop(5/13=1,5/36=2,99/5=2) pseudo=read geom=check guess=(re
 ad,tcheck) scf=(maxcycle=1)\\title\\0,1\C,0,-1.38795,-0.408336,0.03128
 28\C,0,-1.47883,1.11938,-0.0150306\C,0,0.593322,0.769572,0.01745\C,0,1
 .11429,-1.31442,-0.00358398\H,0,-2.40626,1.656,-0.0639244\H,0,1.07451,
 -2.40445,-0.113919\N,0,-0.365058,1.7488,-0.00948798\N,0,1.8731,0.75302
 ,-0.0132431\N,0,2.1968,-0.583198,-0.0155362\N,0,0.024527,-0.492033,0.0
 657318\O,0,-2.22735,-1.27935,-0.0243897\\Version=ES64L-G16RevC.01\Stat

 Normal termination of Gaussian 16 at Tue Apr  8 21:57:14 2025.
