 Gaussian 16, Revision C.01,

 ----------------------------------------------------------------------
 #t hf aug-cc-pvdz symm=none int=(grid=ultrafine) guess=(read,tcheck) s
 table=(opt,rrhf)
 ----------------------------------------------------------------------
 -----
 title
 -----
 Symbolic Z-matrix:
 Charge =  0 Multiplicity = 1

 SCF Done:  E(RHF) =  -294.641981132     A.U. after   15 cycles
 Normal termination of Gaussian 16 at Tue Apr  8 21:42:45 2025.
 Gaussian 16:  ES64L-G16RevC.01  3-Jul-2019

 ----------------------------------------------------------------------
 #t hf aug-cc-pvdz iop(5/13=1,5/36=2,99/5=2) pseudo=read geom=check gue
 ss=(read,tcheck) scf=(maxcycle=1)
 ----------------------------------------------------------------------
 -----
 title
 -----
 Structure from the checkpoint file:  "ANI1ccx_486_conf4_mol1.chk"
 Charge =  0 Multiplicity = 1

                         Standard orientation:
 ---------------------------------------------------------------------
 Center     Atomic      Atomic             Coordinates (Angstroms)
 Number     Number       Type             X           Y           Z
 ---------------------------------------------------------------------
      1          6           0        1.096898    0.560278   -0.008873
      2          6           0       -1.044494    0.657252   -0.014130
      3          1           0        2.076069    0.978955    0.030068
      4          1           0       -2.041523    1.059477    0.083724
      5          7           0        0.037595    1.400491   -0.009149
      6          7           0       -1.159956   -0.671396    0.014855
      7          7           0       -0.044278   -1.338250   -0.026937
      8          7           0        1.116785   -0.725646    0.024692
 ---------------------------------------------------------------------

 SCF Done:  E(RHF) =  -294.935691637     A.U. after    2 cycles

 The electronic state is 1-A.
 Alpha  occ. eigenvalues --  -15.63684 -15.57911 -15.57157 -15.56890 -11.36012
 Alpha  occ. eigenvalues --  -11.35826  -1.46116  -1.30164  -1.27634  -1.06350
 Alpha  occ. eigenvalues --   -1.00542  -0.85864  -0.80055  -0.70037  -0.66406
 Alpha  occ. eigenvalues --   -0.65979  -0.61291  -0.53340  -0.52137  -0.50613
 Alpha  occ. eigenvalues --   -0.49109
 Alpha virt. eigenvalues --   -0.00210   0.03080   0.04657   0.04747   0.08117
 Alpha virt. eigenvalues --    0.08344   0.09210   0.09895   0.11359   0.14025
 Alpha virt. eigenvalues --    0.14808   0.14978   0.17581   0.17725   0.19432

 Mulliken charges:
               1
     1  C   -0.370397
     2  C   -0.484130
     3  H   -0.011591
     4  H    0.026963
     5  N    0.497415
     6  N    0.384834
     7  N   -0.473474
     8  N    0.430379
 Sum of Mulliken charges =  -0.00000

 Dipole moment (field-independent basis, Debye):
    X=              0.0357    Y=              2.7065    Z=             -0.0015  Tot=              2.7067

 Test job not archived.
 1\1\GINC-SE247\SP\RHF\Aug-CC-pVDZ\C2H2N4\OHZDE\08-Apr-2025\0\\#t hf au
 g-cc-pvdz iop(5/13=1,5/36=2,99/5=2) pseudo=read geom=check guess=(read
 ,tcheck) scf=(maxcycle=1)\\title\\0,1\C,0,1.09691,0.560254,-0.00887336
 \C,0,-1.04448,0.657274,-0.0141299\H,0,2.07609,0.97891,0.0300679\H,0,-2
 .0415,1.05952,0.0837236\N,0,0.0376255,1.40049,-0.00914871\N,0,-1.15997
 ,-0.671372,0.0148553\N,0,-0.0443064,-1.33825,-0.0269372\N,0,1.11677,-0
 .725671,0.0246917\\Version=ES64L-G16RevC.01\State=1-A\HF=-294.9356916\
 RMSD=3.954e-02\Dipole=0.0140674,1.0648194,-0.0005727\Quadrupole=3.1142

 Normal termination of Gaussian 16 at Tue Apr  8 21:42:47 2025.
