 Gaussian 16, Revision C.01,

 ----------------------------------------------------------------------
 #t hf aug-cc-pvdz symm=none int=(grid=ultrafine) guess=(read,tcheck) s
 table=(opt,rrhf)
 ----------------------------------------------------------------------
 -----
 title
 -----
 Symbolic Z-matrix:
 Charge =  0 Multiplicity = 1

 SCF Done:  E(RHF) =  -370.772534740     A.U. after   14 cycles
 Normal termination of Gaussian 16 at Tue Apr  8 21:44:55 2025.
 Gaussian 16:  ES64L-G16RevC.01  3-Jul-2019

 ----------------------------------------------------------------------
 #t hf aug-cc-pvdz iop(5/13=1,5/36=2,99/5=2) pseudo=read geom=check gue
 ss=(read,tcheck) scf=(maxcycle=1)
 ----------------------------------------------------------------------
 -----
 title
 -----
 Structure from the checkpoint file:  "ANI1ccx_520_conf1_mol2.chk"
 Charge =  0 Multiplicity = 1

                         Standard orientation:
 ---------------------------------------------------------------------
 Center     Atomic      Atomic             Coordinates (Angstroms)
 Number     Number       Type             X           Y           Z
 ---------------------------------------------------------------------
      1          6           0        1.143320   -0.196706   -0.025596
      2          6           0       -1.187140   -0.188430    0.028782
      3          1           0        2.945010    0.184607   -0.056936
      4          1           0        1.115489    1.726230    0.622240
      5          1           0       -1.156071    1.708509   -0.599261
      6          1           0       -0.037957   -1.987000   -0.080554
      7          7           0        2.346050   -0.623187    0.017577
      8          7           0        0.703858    1.130880   -0.109473
      9          7           0       -0.707380    1.132589    0.097928
     10          7           0       -0.032555   -0.965751    0.001156
     11          8           0       -2.346670   -0.505406    0.005635
 ---------------------------------------------------------------------

 SCF Done:  E(RHF) =  -371.144804252     A.U. after    2 cycles

 The electronic state is 1-A.
 Alpha  occ. eigenvalues --  -20.54395 -15.58554 -15.57787 -15.57536 -15.49293
 Alpha  occ. eigenvalues --  -11.42056 -11.38817  -1.50430  -1.40128  -1.26281
 Alpha  occ. eigenvalues --   -1.22848  -1.12837  -0.92393  -0.90830  -0.78771
 Alpha  occ. eigenvalues --   -0.77779  -0.73270  -0.70868  -0.67711  -0.66040
 Alpha  occ. eigenvalues --   -0.59081  -0.57338  -0.51300  -0.47443  -0.45941
 Alpha  occ. eigenvalues --   -0.43061
 Alpha virt. eigenvalues --    0.02369   0.04671   0.05218   0.05518   0.09353
 Alpha virt. eigenvalues --    0.09453   0.10089   0.10431   0.11146   0.12772
 Alpha virt. eigenvalues --    0.13724   0.14374   0.14982   0.15924   0.16913

 Mulliken charges:
               1
     1  C   -1.626895
     2  C    0.650396
     3  H    0.220433
     4  H    0.252813
     5  H    0.227883
     6  H    0.141428
     7  N    0.791491
     8  N    0.041104
     9  N    0.132589
    10  N    0.311718
    11  O   -1.142958
 Sum of Mulliken charges =  -0.00000

 Dipole moment (field-independent basis, Debye):
    X=              1.0630    Y=              2.3383    Z=             -0.2493  Tot=              2.5806

 Test job not archived.
 1\1\GINC-SE339\SP\RHF\Aug-CC-pVDZ\C2H4N4O1\OHZDE\08-Apr-2025\0\\#t hf
 aug-cc-pvdz iop(5/13=1,5/36=2,99/5=2) pseudo=read geom=check guess=(re
 ad,tcheck) scf=(maxcycle=1)\\title\\0,1\C,0,1.14332,-0.196706,-0.02559
 64\C,0,-1.18714,-0.188429,0.0287825\H,0,2.94501,0.184606,-0.0569359\H,
 0,1.11549,1.72623,0.62224\H,0,-1.15607,1.70851,-0.599261\H,0,-0.037957
 8,-1.987,-0.0805541\N,0,2.34605,-0.623188,0.0175773\N,0,0.703859,1.130
 88,-0.109473\N,0,-0.707379,1.13259,0.0979277\N,0,-0.0325555,-0.965751,
 0.00115635\O,0,-2.34667,-0.505404,0.00563482\\Version=ES64L-G16RevC.01

 Normal termination of Gaussian 16 at Tue Apr  8 21:44:59 2025.
