 Gaussian 16, Revision C.01,

 ----------------------------------------------------------------------
 #t hf aug-cc-pvdz symm=none int=(grid=ultrafine) guess=(read,tcheck) s
 table=(opt,rrhf)
 ----------------------------------------------------------------------
 -----
 title
 -----
 Symbolic Z-matrix:
 Charge =  0 Multiplicity = 1

 SCF Done:  E(RHF) =  -436.944569875     A.U. after   13 cycles
 Normal termination of Gaussian 16 at Tue Apr  8 21:56:55 2025.
 Gaussian 16:  ES64L-G16RevC.01  3-Jul-2019

 ----------------------------------------------------------------------
 #t hf aug-cc-pvdz iop(5/13=1,5/36=2,99/5=2) pseudo=read geom=check gue
 ss=(read,tcheck) scf=(maxcycle=1)
 ----------------------------------------------------------------------
 -----
 title
 -----
 Structure from the checkpoint file:  "ANI1ccx_818_conf1_mol1.chk"
 Charge =  0 Multiplicity = 1

                         Standard orientation:
 ---------------------------------------------------------------------
 Center     Atomic      Atomic             Coordinates (Angstroms)
 Number     Number       Type             X           Y           Z
 ---------------------------------------------------------------------
      1          6           0       -0.173613   -0.204068    0.024377
      2          6           0       -1.526151   -0.606397   -0.522122
      3          6           0        0.862426   -1.157471   -0.531840
      4          6           0        0.122303    1.177549   -0.522542
      5          1           0        1.351890    1.503959    0.927397
      6          1           0       -0.714048    1.859490   -0.364882
      7          1           0        0.287390    1.080099   -1.588739
      8          1           0        2.353699   -0.014381   -0.190920
      9          1           0        0.580826   -2.168461   -0.225236
     10          1           0        1.002459   -1.140191   -1.606399
     11          1           0       -2.570420    0.393811    0.887813
     12          1           0       -1.745332   -1.616989   -0.201768
     13          1           0       -1.578561   -0.589049   -1.613549
     14          1           0       -0.826022   -0.964617    1.693061
     15          1           0        0.710000   -0.419453    1.778421
     16          7           0       -0.242467   -0.190694    1.459891
     17          8           0       -2.597530    0.244667   -0.060096
     18          8           0        2.144979   -0.941265    0.024044
     19          8           0        1.344501    1.715719   -0.014155
 ---------------------------------------------------------------------

 SCF Done:  E(RHF) =  -437.399655968     A.U. after    2 cycles

 The electronic state is 1-A.
 Alpha  occ. eigenvalues --  -20.56161 -20.55280 -20.54897 -15.50986 -11.29957
 Alpha  occ. eigenvalues --  -11.28912 -11.28362 -11.27368  -1.47044  -1.44936
 Alpha  occ. eigenvalues --   -1.44780  -1.23119  -1.06008  -0.93932  -0.92856
 Alpha  occ. eigenvalues --   -0.81555  -0.75597  -0.72793  -0.70378  -0.67329
 Alpha  occ. eigenvalues --   -0.65594  -0.63048  -0.62362  -0.60063  -0.58723
 Alpha  occ. eigenvalues --   -0.58022  -0.54681  -0.51546  -0.50443  -0.48013
 Alpha  occ. eigenvalues --   -0.46567  -0.44322  -0.42092
 Alpha virt. eigenvalues --    0.03231   0.03635   0.04376   0.04596   0.05895
 Alpha virt. eigenvalues --    0.06118   0.06247   0.06493   0.07523   0.09719
 Alpha virt. eigenvalues --    0.09945   0.12669   0.12982   0.13716   0.14048

 Mulliken charges:
               1
     1  C   -4.282171
     2  C    1.553831
     3  C    1.526981
     4  C    1.557897
     5  H    0.402098
     6  H    0.185154
     7  H    0.190949
     8  H    0.433969
     9  H    0.103868
    10  H    0.083659
    11  H    0.348275
    12  H    0.082566
    13  H    0.185289
    14  H    0.211576
    15  H    0.247068
    16  N    0.960948
    17  O   -1.215724
    18  O   -1.302474
    19  O   -1.273757
 Sum of Mulliken charges =  -0.00000

 Dipole moment (field-independent basis, Debye):
    X=             -0.5956    Y=             -1.5753    Z=              0.4159  Tot=              1.7347

 Test job not archived.
 1\1\GINC-SE393\SP\RHF\Aug-CC-pVDZ\C4H11N1O3\OHZDE\08-Apr-2025\0\\#t hf
  aug-cc-pvdz iop(5/13=1,5/36=2,99/5=2) pseudo=read geom=check guess=(r
 ead,tcheck) scf=(maxcycle=1)\\title\\0,1\C,0,-0.173612,-0.204068,0.024
 3763\C,0,-1.52615,-0.606398,-0.522123\C,0,0.862427,-1.15747,-0.531841\
 C,0,0.122303,1.17755,-0.522543\H,0,1.35189,1.50396,0.927396\H,0,-0.714
 049,1.85949,-0.364883\H,0,0.28739,1.0801,-1.58874\H,0,2.3537,-0.014378
 9,-0.190921\H,0,0.580828,-2.16846,-0.225237\H,0,1.00246,-1.14019,-1.60
 64\H,0,-2.57042,0.39381,0.887812\H,0,-1.74533,-1.61699,-0.201769\H,0,-

 Normal termination of Gaussian 16 at Tue Apr  8 21:57:03 2025.
