 Gaussian 16, Revision C.01,

 ----------------------------------------------------------------------
 #t hf aug-cc-pvdz symm=none int=(grid=ultrafine) guess=(read,tcheck) s
 table=(opt,rrhf)
 ----------------------------------------------------------------------
 -----
 title
 -----
 Symbolic Z-matrix:
 Charge =  0 Multiplicity = 1

 SCF Done:  E(RHF) =  -504.974028729     A.U. after   15 cycles
 Normal termination of Gaussian 16 at Tue Apr  8 21:40:50 2025.
 Gaussian 16:  ES64L-G16RevC.01  3-Jul-2019

 ----------------------------------------------------------------------
 #t hf aug-cc-pvdz iop(5/13=1,5/36=2,99/5=2) pseudo=read geom=check gue
 ss=(read,tcheck) scf=(maxcycle=1)
 ----------------------------------------------------------------------
 -----
 title
 -----
 Structure from the checkpoint file:  "ANI1ccx_471_conf39_mol1.chk"
 Charge =  0 Multiplicity = 1

                         Standard orientation:
 ---------------------------------------------------------------------
 Center     Atomic      Atomic             Coordinates (Angstroms)
 Number     Number       Type             X           Y           Z
 ---------------------------------------------------------------------
      1          6           0       -1.379409   -0.110982    0.045302
      2          6           0        0.854825   -0.719837   -0.047515
      3          1           0        1.104419    1.766652    1.415750
      4          7           0        0.760637    0.626776   -0.472478
      5          8           0        1.543829    1.457032    0.283903
      6          8           0       -0.667936    1.014600   -0.378336
      7          8           0       -2.523609    0.018929    0.254544
      8          8           0       -0.577068   -1.231890   -0.002581
      9          8           0        1.814612   -1.404818    0.080579
 ---------------------------------------------------------------------

 SCF Done:  E(RHF) =  -505.452387917     A.U. after    2 cycles

 The electronic state is 1-A.
 Alpha  occ. eigenvalues --  -20.68657 -20.68261 -20.67668 -20.62911 -20.59220
 Alpha  occ. eigenvalues --  -15.71349 -11.50347 -11.49703  -1.65854  -1.58004
 Alpha  occ. eigenvalues --   -1.56974  -1.52851  -1.49538  -1.18892  -0.92840
 Alpha  occ. eigenvalues --   -0.90605  -0.80552  -0.78187  -0.75527  -0.73251
 Alpha  occ. eigenvalues --   -0.71830  -0.67960  -0.65158  -0.62593  -0.58071
 Alpha  occ. eigenvalues --   -0.57287  -0.54034  -0.53440  -0.51492  -0.48512
 Alpha virt. eigenvalues --    0.00762   0.07210   0.07609   0.07784   0.08210
 Alpha virt. eigenvalues --    0.09822   0.10395   0.10889   0.11182   0.12349
 Alpha virt. eigenvalues --    0.14977   0.15338   0.16118   0.18349   0.18983

 Mulliken charges:
               1
     1  C    2.148053
     2  C    1.356475
     3  H    0.483462
     4  N    1.615840
     5  O   -1.274613
     6  O   -1.121556
     7  O   -1.030793
     8  O   -1.175700
     9  O   -1.001168
 Sum of Mulliken charges =  -0.00000

 Dipole moment (field-independent basis, Debye):
    X=              0.9275    Y=              1.4095    Z=              1.9636  Tot=              2.5889

 Test job not archived.
 1\1\GINC-SE334\SP\RHF\Aug-CC-pVDZ\C2H1N1O5\OHZDE\08-Apr-2025\0\\#t hf
 aug-cc-pvdz iop(5/13=1,5/36=2,99/5=2) pseudo=read geom=check guess=(re
 ad,tcheck) scf=(maxcycle=1)\\title\\0,1\C,0,-1.37941,-0.110982,0.04530
 17\C,0,0.854824,-0.719839,-0.047515\H,0,1.10442,1.76665,1.41575\N,0,0.
 760637,0.626775,-0.472478\O,0,1.54383,1.45703,0.283903\O,0,-0.667936,1
 .0146,-0.378336\O,0,-2.52361,0.0189302,0.254544\O,0,-0.57707,-1.23189,
 -0.00258098\O,0,1.81461,-1.40482,0.0805786\\Version=ES64L-G16RevC.01\S
 tate=1-A\HF=-505.4523879\RMSD=1.155e-02\Dipole=0.3649169,0.5545262,0.7

 Normal termination of Gaussian 16 at Tue Apr  8 21:40:53 2025.
