 Gaussian 16, Revision C.01,

 ----------------------------------------------------------------------
 #t hf aug-cc-pvdz symm=none int=(grid=ultrafine) guess=(read,tcheck) s
 table=(opt,rrhf)
 ----------------------------------------------------------------------
 -----
 title
 -----
 Symbolic Z-matrix:
 Charge =  0 Multiplicity = 1

 SCF Done:  E(RHF) =  -537.773889688     A.U. after   16 cycles
 Normal termination of Gaussian 16 at Tue Apr  8 22:17:21 2025.
 Gaussian 16:  ES64L-G16RevC.01  3-Jul-2019

 ----------------------------------------------------------------------
 #t hf aug-cc-pvdz iop(5/13=1,5/36=2,99/5=2) pseudo=read geom=check gue
 ss=(read,tcheck) scf=(maxcycle=1)
 ----------------------------------------------------------------------
 -----
 title
 -----
 Structure from the checkpoint file:  "ANI1ccx_988_conf14_mol1.chk"
 Charge =  0 Multiplicity = 1

                         Standard orientation:
 ---------------------------------------------------------------------
 Center     Atomic      Atomic             Coordinates (Angstroms)
 Number     Number       Type             X           Y           Z
 ---------------------------------------------------------------------
      1          6           0       -2.175110   -0.493722   -0.080997
      2          6           0       -0.793313    1.707650   -0.683506
      3          6           0        0.616849    1.725191   -0.017515
      4          6           0        1.387230    0.458164    0.118690
      5          1           0        0.017067   -1.046650   -0.677302
      6          1           0        0.754096    2.191281    0.885885
      7          1           0        1.063719    2.308921   -0.882483
      8          1           0       -1.298012    2.642690   -0.764574
      9          1           0       -0.730891    1.034450   -1.590810
     10          1           0       -2.204759   -2.269231   -0.740915
     11          1           0       -3.255979   -1.590381    1.291060
     12          1           0       -3.443760    0.094257    1.541630
     13          1           0       -1.583891    1.030850    1.178140
     14          7           0        2.204180   -1.522369   -0.225819
     15          7           0       -2.899310   -0.721012    1.084290
     16          7           0       -1.775590   -1.302741   -0.998811
     17          7           0       -1.883621    0.965182    0.056739
     18          7           0        2.608709    0.533886    0.594851
     19          7           0        3.050850   -0.716981    0.387314
     20          7           0        1.047420   -0.775949   -0.364370
 ---------------------------------------------------------------------

 SCF Done:  E(RHF) =  -538.309266125     A.U. after    2 cycles

 The electronic state is 1-A.
 Alpha  occ. eigenvalues --  -15.58741 -15.57956 -15.56489 -15.55300 -15.55125
 Alpha  occ. eigenvalues --  -15.52382 -15.52083 -11.40170 -11.32128 -11.30483
 Alpha  occ. eigenvalues --  -11.27127  -1.43994  -1.31150  -1.23901  -1.19566
 Alpha  occ. eigenvalues --   -1.19153  -1.17644  -1.05097  -0.94909  -0.91037
 Alpha  occ. eigenvalues --   -0.86338  -0.82927  -0.77973  -0.76409  -0.75629
 Alpha  occ. eigenvalues --   -0.70217  -0.67824  -0.67153  -0.66154  -0.62763
 Alpha  occ. eigenvalues --   -0.60049  -0.58227  -0.55325  -0.53694  -0.52369
 Alpha  occ. eigenvalues --   -0.52080  -0.49983  -0.48349  -0.46981  -0.45409
 Alpha  occ. eigenvalues --   -0.41680
 Alpha virt. eigenvalues --    0.01468   0.03191   0.03580   0.04152   0.04925
 Alpha virt. eigenvalues --    0.05274   0.06279   0.07577   0.07977   0.09080
 Alpha virt. eigenvalues --    0.09946   0.10949   0.11633   0.12087   0.12898

 Mulliken charges:
               1
     1  C   -2.113367
     2  C   -0.630549
     3  C    0.156085
     4  C   -1.439527
     5  H    0.296005
     6  H    0.052215
     7  H    0.467854
     8  H   -0.023662
     9  H    0.255728
    10  H    0.228775
    11  H   -0.032780
    12  H    0.178956
    13  H    0.411096
    14  N   -0.025228
    15  N    0.639517
    16  N    0.658874
    17  N    0.161473
    18  N    0.446542
    19  N   -0.406438
    20  N    0.718429
 Sum of Mulliken charges =  -0.00000

 Dipole moment (field-independent basis, Debye):
    X=             -8.4252    Y=              2.2704    Z=              1.6754  Tot=              8.8851

 Test job not archived.
 1\1\GINC-SE460\SP\RHF\Aug-CC-pVDZ\C4H9N7\OHZDE\08-Apr-2025\0\\#t hf au
 g-cc-pvdz iop(5/13=1,5/36=2,99/5=2) pseudo=read geom=check guess=(read
 ,tcheck) scf=(maxcycle=1)\\title\\0,1\C,0,-2.17511,-0.493721,-0.080996
 3\C,0,-0.793312,1.70765,-0.683506\C,0,0.61685,1.72519,-0.0175141\C,0,1
 .38723,0.458163,0.11869\H,0,0.0170666,-1.04665,-0.677302\H,0,0.754097,
 2.19128,0.885885\H,0,1.06372,2.30892,-0.882483\H,0,-1.29801,2.64269,-0
 .764574\H,0,-0.73089,1.03445,-1.59081\H,0,-2.20476,-2.26923,-0.740915\
 H,0,-3.25598,-1.59038,1.29106\H,0,-3.44376,0.0942584,1.54163\H,0,-1.58

 Normal termination of Gaussian 16 at Tue Apr  8 22:17:33 2025.
