 Gaussian 16, Revision C.01,

 ----------------------------------------------------------------------
 #t hf aug-cc-pvdz symm=none int=(grid=ultrafine) guess=(read,tcheck) s
 table=(opt,rrhf)
 ----------------------------------------------------------------------
 -----
 title
 -----
 Symbolic Z-matrix:
 Charge =  0 Multiplicity = 1

 SCF Done:  E(RHF) =  -585.784884155     A.U. after   14 cycles
 Normal termination of Gaussian 16 at Tue Apr  8 19:41:38 2025.
 Gaussian 16:  ES64L-G16RevC.01  3-Jul-2019

 ----------------------------------------------------------------------
 #t hf aug-cc-pvdz iop(5/13=1,5/36=2,99/5=2) pseudo=read geom=check gue
 ss=(read,tcheck) scf=(maxcycle=1)
 ----------------------------------------------------------------------
 -----
 title
 -----
 Structure from the checkpoint file:  "ANI1ccx_1424_conf1_mol2.chk"
 Charge =  0 Multiplicity = 1

                         Standard orientation:
 ---------------------------------------------------------------------
 Center     Atomic      Atomic             Coordinates (Angstroms)
 Number     Number       Type             X           Y           Z
 ---------------------------------------------------------------------
      1          6           0        1.015807    1.504062    0.040158
      2          6           0        2.280971   -0.609719   -0.243120
      3          6           0        1.726944   -2.086457   -0.335570
      4          6           0        0.768412   -2.107899    0.782692
      5          6           0        0.040851   -0.793076    0.600421
      6          6           0       -1.124549   -0.900915   -0.435639
      7          6           0       -2.412800   -0.080470   -0.228361
      8          1           0       -1.510583    1.315167    0.741881
      9          1           0       -0.742115   -0.586684   -1.474670
     10          1           0       -1.469897   -1.874703   -0.610837
     11          1           0       -0.349701   -0.317306    1.553220
     12          1           0        0.050756   -2.897810    0.772823
     13          1           0        1.328693   -1.946578    1.742250
     14          1           0        1.176344   -2.327478   -1.248240
     15          1           0        3.037821   -0.625447    0.581482
     16          1           0        2.818520   -0.299784   -1.156320
     17          1           0       -0.329858    2.982159    0.209708
     18          1           0        2.644976    1.876775   -1.239040
     19          1           0        1.862554    3.097833   -0.691299
     20          1           0        2.517435   -2.812805   -0.234013
     21          7           0        2.142365    2.189654   -0.402348
     22          7           0       -0.045479    2.049920    0.504553
     23          7           0        1.080609    0.150310    0.045504
     24          8           0       -2.427962    1.054825    0.516174
     25          8           0       -3.453439   -0.538036   -0.649221
 ---------------------------------------------------------------------

 SCF Done:  E(RHF) =  -586.386440825     A.U. after    2 cycles

 The electronic state is 1-A.
 Alpha  occ. eigenvalues --  -20.54407 -20.49823 -15.54627 -15.53587 -15.46733
 Alpha  occ. eigenvalues --  -11.37833 -11.36641 -11.30268 -11.29863 -11.25513
 Alpha  occ. eigenvalues --  -11.25381 -11.25306  -1.49491  -1.40994  -1.33136
 Alpha  occ. eigenvalues --   -1.23992  -1.17488  -1.10777  -1.04969  -0.96553
 Alpha  occ. eigenvalues --   -0.91754  -0.84314  -0.80694  -0.79446  -0.77910
 Alpha  occ. eigenvalues --   -0.74662  -0.73161  -0.69478  -0.67249  -0.66065
 Alpha  occ. eigenvalues --   -0.63043  -0.61925  -0.60910  -0.59691  -0.58011
 Alpha  occ. eigenvalues --   -0.56861  -0.54595  -0.53407  -0.51998  -0.51950
 Alpha  occ. eigenvalues --   -0.49193  -0.47199  -0.46273  -0.42934  -0.41417
 Alpha  occ. eigenvalues --   -0.39326
 Alpha virt. eigenvalues --    0.01745   0.02706   0.02995   0.03696   0.04515
 Alpha virt. eigenvalues --    0.04702   0.05597   0.06205   0.07078   0.08214
 Alpha virt. eigenvalues --    0.08730   0.09181   0.10511   0.10978   0.11708

 Mulliken charges:
               1
     1  C   -2.271644
     2  C   -0.306464
     3  C   -0.054297
     4  C   -0.294080
     5  C   -0.966455
     6  C    0.007937
     7  C    1.969855
     8  H    0.712883
     9  H    0.414572
    10  H   -0.101405
    11  H   -0.032085
    12  H    0.074994
    13  H    0.273379
    14  H    0.028684
    15  H    0.119037
    16  H   -0.031539
    17  H    0.094290
    18  H    0.114601
    19  H    0.269327
    20  H    0.072410
    21  N    0.683435
    22  N    0.944019
    23  N    1.165800
    24  O   -1.551952
    25  O   -1.335305
 Sum of Mulliken charges =  -0.00000

 Dipole moment (field-independent basis, Debye):
    X=              8.3119    Y=             -0.5030    Z=             -1.6832  Tot=              8.4955

 Test job not archived.
 1\1\GINC-SE335\SP\RHF\Aug-CC-pVDZ\C7H13N3O2\OHZDE\08-Apr-2025\0\\#t hf
  aug-cc-pvdz iop(5/13=1,5/36=2,99/5=2) pseudo=read geom=check guess=(r
 ead,tcheck) scf=(maxcycle=1)\\title\\0,1\C,0,1.01581,1.50406,0.0401583
 \C,0,2.28097,-0.609723,-0.24312\C,0,1.72694,-2.08646,-0.33557\C,0,0.76
 8408,-2.1079,0.782692\C,0,0.0408499,-0.793076,0.600421\C,0,-1.12455,-0
 .900913,-0.435639\C,0,-2.4128,-0.0804652,-0.228361\H,0,-1.51058,1.3151
 7,0.741881\H,0,-0.742116,-0.586682,-1.47467\H,0,-1.4699,-1.8747,-0.610
 837\H,0,-0.349701,-0.317305,1.55322\H,0,0.0507509,-2.89781,0.772823\H,

 Normal termination of Gaussian 16 at Tue Apr  8 19:41:57 2025.
