 Gaussian 16, Revision C.01,

 ----------------------------------------------------------------------
 #t hf aug-cc-pvdz symm=none int=(grid=ultrafine) guess=(read,tcheck) s
 table=(opt,rrhf)
 ----------------------------------------------------------------------
 -----
 title
 -----
 Symbolic Z-matrix:
 Charge =  0 Multiplicity = 1

 SCF Done:  E(RHF) =  -645.329538174     A.U. after   17 cycles
 Normal termination of Gaussian 16 at Tue Apr  8 21:22:41 2025.
 Gaussian 16:  ES64L-G16RevC.01  3-Jul-2019

 ----------------------------------------------------------------------
 #t hf aug-cc-pvdz iop(5/13=1,5/36=2,99/5=2) pseudo=read geom=check gue
 ss=(read,tcheck) scf=(maxcycle=1)
 ----------------------------------------------------------------------
 -----
 title
 -----
 Structure from the checkpoint file:  "ANI1ccx_33_conf1_mol1.chk"
 Charge =  0 Multiplicity = 1

                         Standard orientation:
 ---------------------------------------------------------------------
 Center     Atomic      Atomic             Coordinates (Angstroms)
 Number     Number       Type             X           Y           Z
 ---------------------------------------------------------------------
      1          6           0       -5.006330    0.905029   -0.113798
      2          6           0        4.133180    0.783062    0.124020
      3          6           0        1.144620   -0.667178    0.912318
      4          6           0        1.616590    0.504460    0.298623
      5          6           0        0.632866    1.389709   -0.283572
      6          6           0       -0.211628   -0.995196    0.908921
      7          6           0       -1.134610   -0.085399    0.244560
      8          6           0       -3.288860   -0.713537   -0.607874
      9          6           0       -4.761240   -0.557269   -0.252687
     10          6           0       -0.656688    1.042440   -0.477602
     11          1           0        1.060321    2.325109   -0.545063
     12          1           0        4.268830   -1.860841   -1.339810
     13          1           0        5.445920   -0.316397   -0.866376
     14          1           0        4.819010    1.602258    0.506704
     15          1           0       -0.690922   -1.838830    1.396860
     16          1           0        1.896700   -1.107091    1.491850
     17          1           0       -1.320290    1.764090   -0.982864
     18          1           0       -4.830790   -1.100229    0.692402
     19          1           0       -2.986100   -0.217852   -1.469650
     20          1           0       -5.427760   -1.196189   -0.841172
     21          1           0       -4.302530    1.370620    0.504561
     22          1           0       -5.926040    1.202921    0.351498
     23          1           0       -4.952200    1.130971   -1.147270
     24          1           0       -3.050270   -1.804620   -0.717476
     25          7           0        2.872690    1.027759    0.575769
     26          7           0        4.498990   -0.278960   -0.507849
     27          8           0       -2.472090   -0.413138    0.504956
     28          8           0        3.670460   -1.440891   -0.758341
 ---------------------------------------------------------------------

 SCF Done:  E(RHF) =  -645.987281854     A.U. after    2 cycles

 The electronic state is 1-A.
 Alpha  occ. eigenvalues --  -20.64482 -20.53787 -15.60827 -15.46528 -11.35358
 Alpha  occ. eigenvalues --  -11.28511 -11.26685 -11.25213 -11.22791 -11.22545
 Alpha  occ. eigenvalues --  -11.21701 -11.21549 -11.21249 -11.20039  -1.53890
 Alpha  occ. eigenvalues --   -1.45874  -1.26847  -1.16905  -1.10399  -1.06284
 Alpha  occ. eigenvalues --   -1.00314  -0.97673  -0.92097  -0.87630  -0.83091
 Alpha  occ. eigenvalues --   -0.82676  -0.80584  -0.78781  -0.73288  -0.70318
 Alpha  occ. eigenvalues --   -0.68231  -0.66475  -0.65684  -0.63658  -0.62036
 Alpha  occ. eigenvalues --   -0.61449  -0.59914  -0.58239  -0.57737  -0.57125
 Alpha  occ. eigenvalues --   -0.53438  -0.52484  -0.51345  -0.49719  -0.48735
 Alpha  occ. eigenvalues --   -0.46991  -0.46244  -0.43988  -0.40678  -0.38169
 Alpha  occ. eigenvalues --   -0.33132  -0.27027
 Alpha virt. eigenvalues --    0.01330   0.03864   0.04248   0.04295   0.04329
 Alpha virt. eigenvalues --    0.04978   0.05698   0.06005   0.06525   0.07542
 Alpha virt. eigenvalues --    0.07868   0.07962   0.08856   0.09779   0.09899

 Mulliken charges:
               1
     1  C   -0.065126
     2  C   -0.612669
     3  C    2.251423
     4  C   -2.977185
     5  C    1.305891
     6  C   -0.354231
     7  C    1.512798
     8  C    0.224261
     9  C   -0.570873
    10  C   -0.130238
    11  H   -0.333210
    12  H    0.283794
    13  H    0.126027
    14  H    0.054857
    15  H   -0.309104
    16  H   -0.358882
    17  H   -0.265696
    18  H    0.167531
    19  H    0.079053
    20  H    0.037186
    21  H    0.161943
    22  H    0.043685
    23  H    0.236315
    24  H    0.107702
    25  N    1.026309
    26  N    1.233667
    27  O   -1.903708
    28  O   -0.971521
 Sum of Mulliken charges =  -0.00000

 Dipole moment (field-independent basis, Debye):
    X=              5.4252    Y=             -1.8089    Z=             -3.5360  Tot=              6.7237

 Test job not archived.
 1\1\GINC-SE249\SP\RHF\Aug-CC-pVDZ\C10H14N2O2\OHZDE\08-Apr-2025\0\\#t h
 f aug-cc-pvdz iop(5/13=1,5/36=2,99/5=2) pseudo=read geom=check guess=(
 read,tcheck) scf=(maxcycle=1)\\title\\0,1\C,0,-5.00633,0.905028,-0.113
 798\C,0,4.13318,0.783063,0.12402\C,0,1.14462,-0.667177,0.912318\C,0,1.
 61659,0.504461,0.298623\C,0,0.632866,1.38971,-0.283572\C,0,-0.211628,-
 0.995196,0.908921\C,0,-1.13461,-0.0853983,0.24456\C,0,-3.28886,-0.7135
 37,-0.607874\C,0,-4.76124,-0.55727,-0.252687\C,0,-0.656688,1.04244,-0.
 477602\H,0,1.06032,2.32511,-0.545063\H,0,4.26883,-1.86084,-1.33981\H,0

 Normal termination of Gaussian 16 at Tue Apr  8 21:23:07 2025.
