 Gaussian 16, Revision C.01,

 ----------------------------------------------------------------------
 #t hf aug-cc-pvdz symm=none int=(grid=ultrafine) guess=(read,tcheck) s
 table=(opt,rrhf)
 ----------------------------------------------------------------------
 -----
 title
 -----
 Symbolic Z-matrix:
 Charge =  0 Multiplicity = 1

 SCF Done:  E(RHF) =  -501.254710623     A.U. after   17 cycles
 Normal termination of Gaussian 16 at Tue Apr  8 19:26:16 2025.
 Gaussian 16:  ES64L-G16RevC.01  3-Jul-2019

 ----------------------------------------------------------------------
 #t hf aug-cc-pvdz iop(5/13=1,5/36=2,99/5=2) pseudo=read geom=check gue
 ss=(read,tcheck) scf=(maxcycle=1)
 ----------------------------------------------------------------------
 -----
 title
 -----
 Structure from the checkpoint file:  "ANI1ccx_1284_conf4_mol2.chk"
 Charge =  0 Multiplicity = 1

                         Standard orientation:
 ---------------------------------------------------------------------
 Center     Atomic      Atomic             Coordinates (Angstroms)
 Number     Number       Type             X           Y           Z
 ---------------------------------------------------------------------
      1          6           0       -2.361790   -0.535482   -0.014560
      2          6           0       -1.132811    0.198824    0.019640
      3          6           0       -0.023476    2.225199   -0.018201
      4          6           0        1.230169    0.406416    0.023143
      5          6           0        1.781380   -1.722680   -0.020028
      6          6           0        0.118125   -0.455929    0.012415
      7          1           0       -0.147524    3.313169   -0.021916
      8          1           0        3.288559   -0.148204    0.065498
      9          1           0        2.400811   -2.600090   -0.038180
     10          7           0       -3.283790   -1.222303    0.010263
     11          7           0       -1.180801    1.529928    0.007638
     12          7           0        1.217009    1.742539   -0.022526
     13          7           0        2.310880   -0.452206    0.024710
     14          7           0        0.477928   -1.778381   -0.022923
 ---------------------------------------------------------------------

 SCF Done:  E(RHF) =  -501.745204401     A.U. after    2 cycles

 The electronic state is 1-A.
 Alpha  occ. eigenvalues --  -15.60319 -15.54952 -15.53946 -15.53435 -15.53270
 Alpha  occ. eigenvalues --  -11.36188 -11.35807 -11.35773 -11.34561 -11.30608
 Alpha  occ. eigenvalues --  -11.29231  -1.39779  -1.32767  -1.25971  -1.24093
 Alpha  occ. eigenvalues --   -1.21235  -1.09605  -0.99263  -0.94019  -0.91224
 Alpha  occ. eigenvalues --   -0.86298  -0.80860  -0.77029  -0.70307  -0.69642
 Alpha  occ. eigenvalues --   -0.69249  -0.65760  -0.61951  -0.61037  -0.57379
 Alpha  occ. eigenvalues --   -0.55500  -0.53191  -0.51943  -0.50792  -0.48835
 Alpha  occ. eigenvalues --   -0.45262  -0.37641
 Alpha virt. eigenvalues --    0.00976   0.01686   0.03781   0.03979   0.06989
 Alpha virt. eigenvalues --    0.07114   0.07625   0.08205   0.08622   0.09833
 Alpha virt. eigenvalues --    0.10557   0.10879   0.11511   0.11671   0.12399

 Mulliken charges:
               1
     1  C   -2.831741
     2  C    0.709549
     3  C   -0.399365
     4  C   -1.243292
     5  C   -0.554534
     6  C   -1.049405
     7  H   -0.049726
     8  H    0.031516
     9  H   -0.084673
    10  N    1.261929
    11  N    1.133383
    12  N    1.189931
    13  N    0.735905
    14  N    1.150523
 Sum of Mulliken charges =  -0.00000

 Dipole moment (field-independent basis, Debye):
    X=              7.7631    Y=              0.8329    Z=              0.0808  Tot=              7.8081

 Test job not archived.
 1\1\GINC-SE046\SP\RHF\Aug-CC-pVDZ\C6H3N5\OHZDE\08-Apr-2025\0\\#t hf au
 g-cc-pvdz iop(5/13=1,5/36=2,99/5=2) pseudo=read geom=check guess=(read
 ,tcheck) scf=(maxcycle=1)\\title\\0,1\C,0,-2.36179,-0.53548,-0.0145604
 \C,0,-1.13281,0.198826,0.0196402\C,0,-0.0234749,2.2252,-0.0182014\C,0,
 1.23017,0.406417,0.0231435\C,0,1.78138,-1.72268,-0.0200276\C,0,0.11812
 5,-0.455928,0.0124155\H,0,-0.147522,3.31317,-0.0219162\H,0,3.28856,-0.
 148204,0.0654978\H,0,2.40081,-2.60009,-0.0381804\N,0,-3.28379,-1.2223,
 0.0102634\N,0,-1.1808,1.52993,0.00763811\N,0,1.21701,1.74254,-0.022525

 Normal termination of Gaussian 16 at Tue Apr  8 19:26:23 2025.
