 Gaussian 16, Revision C.01,

 ----------------------------------------------------------------------
 #t hf aug-cc-pvdz symm=none int=(grid=ultrafine) guess=(read,tcheck) s
 table=(opt,rrhf)
 ----------------------------------------------------------------------
 -----
 title
 -----
 Symbolic Z-matrix:
 Charge =  0 Multiplicity = 1

 SCF Done:  E(RHF) =  -356.588135663     A.U. after   15 cycles
 Normal termination of Gaussian 16 at Tue Apr  8 21:43:36 2025.
 Gaussian 16:  ES64L-G16RevC.01  3-Jul-2019

 ----------------------------------------------------------------------
 #t hf aug-cc-pvdz iop(5/13=1,5/36=2,99/5=2) pseudo=read geom=check gue
 ss=(read,tcheck) scf=(maxcycle=1)
 ----------------------------------------------------------------------
 -----
 title
 -----
 Structure from the checkpoint file:  "ANI1ccx_498_conf1_mol2.chk"
 Charge =  0 Multiplicity = 1

                         Standard orientation:
 ---------------------------------------------------------------------
 Center     Atomic      Atomic             Coordinates (Angstroms)
 Number     Number       Type             X           Y           Z
 ---------------------------------------------------------------------
      1          6           0        0.750777   -0.143186   -0.000992
      2          6           0       -0.747326   -0.144692   -0.004959
      3          1           0        2.386287    0.995909    0.202848
      4          1           0        0.908485    1.963644    0.434699
      5          1           0       -2.228962    1.072505   -0.173744
      6          7           0        1.365557    1.040231    0.087027
      7          8           0        1.309762   -1.222809   -0.156156
      8          8           0       -1.245602    1.146708   -0.154141
      9          8           0       -1.394837   -1.122201    0.180636
 ---------------------------------------------------------------------

 SCF Done:  E(RHF) =  -356.934142949     A.U. after    2 cycles

 The electronic state is 1-A.
 Alpha  occ. eigenvalues --  -20.62790 -20.57510 -20.53595 -15.56346 -11.42197
 Alpha  occ. eigenvalues --  -11.38892  -1.56494  -1.48866  -1.47186  -1.24863
 Alpha  occ. eigenvalues --   -0.97988  -0.83216  -0.77668  -0.75365  -0.71131
 Alpha  occ. eigenvalues --   -0.66530  -0.64537  -0.62452  -0.59573  -0.50904
 Alpha  occ. eigenvalues --   -0.48991  -0.45595  -0.44552
 Alpha virt. eigenvalues --    0.02334   0.03587   0.05663   0.07476   0.09650
 Alpha virt. eigenvalues --    0.09884   0.10905   0.11775   0.12110   0.13924
 Alpha virt. eigenvalues --    0.14351   0.16355   0.17063   0.18662   0.19517

 Mulliken charges:
               1
     1  C    0.218371
     2  C    2.054937
     3  H    0.170100
     4  H    0.159198
     5  H    0.397441
     6  N    0.492244
     7  O   -1.198738
     8  O   -1.223396
     9  O   -1.070157
 Sum of Mulliken charges =  -0.00000

 Dipole moment (field-independent basis, Debye):
    X=             -0.4460    Y=              5.0129    Z=              0.7646  Tot=              5.0904

 Test job not archived.
 1\1\GINC-SE083\SP\RHF\Aug-CC-pVDZ\C2H3N1O3\OHZDE\08-Apr-2025\0\\#t hf
 aug-cc-pvdz iop(5/13=1,5/36=2,99/5=2) pseudo=read geom=check guess=(re
 ad,tcheck) scf=(maxcycle=1)\\title\\0,1\C,0,0.750777,-0.143181,-0.0009
 9211\C,0,-0.747326,-0.144697,-0.00495901\H,0,2.38628,0.995925,0.202848
 \H,0,0.908472,1.96365,0.434699\H,0,-2.22897,1.07249,-0.173744\N,0,1.36
 555,1.04024,0.0870271\O,0,1.30977,-1.2228,-0.156156\O,0,-1.24561,1.146
 7,-0.154141\O,0,-1.39483,-1.12221,0.180636\\Version=ES64L-G16RevC.01\S
 tate=1-A\HF=-356.9341429\RMSD=1.846e-02\Dipole=-0.1754869,1.9722068,0.

 Normal termination of Gaussian 16 at Tue Apr  8 21:43:39 2025.
