 Gaussian 16, Revision C.01,

 ----------------------------------------------------------------------
 #t hf aug-cc-pvdz symm=none int=(grid=ultrafine) guess=(read,tcheck) s
 table=(opt,rrhf)
 ----------------------------------------------------------------------
 -----
 title
 -----
 Symbolic Z-matrix:
 Charge =  0 Multiplicity = 1

 SCF Done:  E(RHF) =  -218.963129367     A.U. after   14 cycles
 Normal termination of Gaussian 16 at Tue Apr  8 21:10:16 2025.
 Gaussian 16:  ES64L-G16RevC.01  3-Jul-2019

 ----------------------------------------------------------------------
 #t hf aug-cc-pvdz iop(5/13=1,5/36=2,99/5=2) pseudo=read geom=check gue
 ss=(read,tcheck) scf=(maxcycle=1)
 ----------------------------------------------------------------------
 -----
 title
 -----
 Structure from the checkpoint file:  "ANI1ccx_1861_conf13_mol1.chk"
 Charge =  0 Multiplicity = 1

                         Standard orientation:
 ---------------------------------------------------------------------
 Center     Atomic      Atomic             Coordinates (Angstroms)
 Number     Number       Type             X           Y           Z
 ---------------------------------------------------------------------
      1          1           0       -0.782560    1.063300    0.498485
      2          1           0       -0.996555   -0.886037    0.812022
      3          7           0       -1.522072    0.650368   -0.121912
      4          7           0       -1.564733   -0.588027   -0.015730
      5          7           0        1.450487   -0.518789   -0.124720
      6          7           0        1.890477    0.431124    0.075147
 ---------------------------------------------------------------------

 SCF Done:  E(RHF) =  -219.172885962     A.U. after    2 cycles

 The electronic state is 1-A.
 Alpha  occ. eigenvalues --  -15.62811 -15.62486 -15.58389 -15.57918  -1.54196
 Alpha  occ. eigenvalues --   -1.36653  -0.95207  -0.82952  -0.80385  -0.70841
 Alpha  occ. eigenvalues --   -0.70601  -0.70447  -0.63161  -0.57091  -0.45893
 Alpha virt. eigenvalues --    0.03604   0.05393   0.06182   0.09110   0.09641
 Alpha virt. eigenvalues --    0.11828   0.13408   0.13734   0.15658   0.16640
 Alpha virt. eigenvalues --    0.17475   0.17897   0.19140   0.19739   0.20871

 Mulliken charges:
               1
     1  H    0.132135
     2  H    0.137391
     3  N   -0.078256
     4  N   -0.164889
     5  N   -0.011623
     6  N   -0.014757
 Sum of Mulliken charges =  -0.00000

 Dipole moment (field-independent basis, Debye):
    X=              2.2148    Y=              0.1136    Z=              2.2498  Tot=              3.1591

 Test job not archived.
 1\1\GINC-SE454\SP\RHF\Aug-CC-pVDZ\H2N4\OHZDE\08-Apr-2025\0\\#t hf aug-
 cc-pvdz iop(5/13=1,5/36=2,99/5=2) pseudo=read geom=check guess=(read,t
 check) scf=(maxcycle=1)\\title\\0,1\H,0,-0.782558,1.0633,0.498485\H,0,
 -0.996552,-0.886037,0.812022\N,0,-1.52207,0.650368,-0.121912\N,0,-1.56
 473,-0.588027,-0.0157302\N,0,1.45049,-0.518789,-0.12472\N,0,1.89048,0.
 431125,0.0751466\\Version=ES64L-G16RevC.01\State=1-A\HF=-219.172886\RM
 SD=5.648e-02\Dipole=0.8713888,0.0446831,0.8851304\Quadrupole=-2.886123
 2,1.0325971,1.8535262,-0.1841257,-2.2642295,-0.1168407\PG=C01 [X(H2N4)

 Normal termination of Gaussian 16 at Tue Apr  8 21:10:18 2025.
