 Gaussian 16, Revision C.01,

 ----------------------------------------------------------------------
 #t hf aug-cc-pvdz symm=none int=(grid=ultrafine) guess=(read,tcheck) s
 table=(opt,rrhf)
 ----------------------------------------------------------------------
 -----
 title
 -----
 Symbolic Z-matrix:
 Charge =  0 Multiplicity = 1

 SCF Done:  E(RHF) =  -509.533097661     A.U. after   14 cycles
 Normal termination of Gaussian 16 at Tue Apr  8 22:11:59 2025.
 Gaussian 16:  ES64L-G16RevC.01  3-Jul-2019

 ----------------------------------------------------------------------
 #t hf aug-cc-pvdz iop(5/13=1,5/36=2,99/5=2) pseudo=read geom=check gue
 ss=(read,tcheck) scf=(maxcycle=1)
 ----------------------------------------------------------------------
 -----
 title
 -----
 Structure from the checkpoint file:  "ANI1ccx_939_conf55_mol1.chk"
 Charge =  0 Multiplicity = 1

                         Standard orientation:
 ---------------------------------------------------------------------
 Center     Atomic      Atomic             Coordinates (Angstroms)
 Number     Number       Type             X           Y           Z
 ---------------------------------------------------------------------
      1          6           0       -0.716314    0.721858   -0.758021
      2          6           0       -1.332820   -0.289942    0.278693
      3          6           0        0.587037    0.060972   -1.222410
      4          6           0        1.500850   -0.369760   -0.115950
      5          1           0       -1.201560    1.936041    0.733843
      6          1           0        0.341660    2.113951    0.228707
      7          1           0       -1.435980    0.882632   -1.633820
      8          1           0        0.487095   -0.818954   -1.877660
      9          1           0        1.224100    0.850844   -1.732320
     10          1           0        2.282650    0.577707    1.501830
     11          1           0       -2.269669   -1.850479    0.184214
     12          7           0       -0.608140    1.949061   -0.100103
     13          8           0       -1.254930   -0.247431    1.499200
     14          8           0        1.858020   -1.504188    0.082903
     15          8           0        1.822610    0.723467    0.648386
     16          8           0       -1.851180   -1.231089   -0.455236
 ---------------------------------------------------------------------

 SCF Done:  E(RHF) =  -510.041291206     A.U. after    2 cycles

 The electronic state is 1-A.
 Alpha  occ. eigenvalues --  -20.62525 -20.60874 -20.55545 -20.55266 -15.48287
 Alpha  occ. eigenvalues --  -11.40954 -11.40414 -11.30390 -11.27859  -1.58055
 Alpha  occ. eigenvalues --   -1.54465  -1.46620  -1.46476  -1.22129  -1.06761
 Alpha  occ. eigenvalues --   -0.95438  -0.85510  -0.81725  -0.74563  -0.73240
 Alpha  occ. eigenvalues --   -0.72253  -0.70390  -0.67832  -0.65243  -0.63778
 Alpha  occ. eigenvalues --   -0.62349  -0.60788  -0.57658  -0.56355  -0.53677
 Alpha  occ. eigenvalues --   -0.49294  -0.48830  -0.46423  -0.45715  -0.42276
 Alpha virt. eigenvalues --    0.03421   0.03734   0.04333   0.05025   0.05648
 Alpha virt. eigenvalues --    0.06392   0.07524   0.09570   0.10586   0.11365
 Alpha virt. eigenvalues --    0.12474   0.13086   0.14108   0.14264   0.14377

 Mulliken charges:
               1
     1  C   -1.721110
     2  C    2.547518
     3  C   -0.672914
     4  C    2.573709
     5  H    0.220610
     6  H    0.302598
     7  H    0.156566
     8  H    0.088547
     9  H    0.392448
    10  H    0.438788
    11  H    0.363865
    12  N    0.658124
    13  O   -1.283619
    14  O   -1.309795
    15  O   -1.465357
    16  O   -1.289980
 Sum of Mulliken charges =  -0.00000

 Dipole moment (field-independent basis, Debye):
    X=             -0.4134    Y=              0.3589    Z=             -0.6515  Tot=              0.8510

 Test job not archived.
 1\1\GINC-SE071\SP\RHF\Aug-CC-pVDZ\C4H7N1O4\OHZDE\08-Apr-2025\0\\#t hf
 aug-cc-pvdz iop(5/13=1,5/36=2,99/5=2) pseudo=read geom=check guess=(re
 ad,tcheck) scf=(maxcycle=1)\\title\\0,1\C,0,-0.716314,0.721857,-0.7580
 21\C,0,-1.33282,-0.289943,0.278693\C,0,0.587037,0.0609702,-1.22241\C,0
 ,1.50085,-0.369762,-0.11595\H,0,-1.20156,1.93604,0.733843\H,0,0.34166,
 2.11395,0.228707\H,0,-1.43598,0.882631,-1.63382\H,0,0.487095,-0.818955
 ,-1.87766\H,0,1.2241,0.850842,-1.73232\H,0,2.28265,0.577705,1.50183\H,
 0,-2.26967,-1.85048,0.184214\N,0,-0.60814,1.94906,-0.100103\O,0,-1.254

 Normal termination of Gaussian 16 at Tue Apr  8 22:12:06 2025.
