 Gaussian 16, Revision C.01,

 ----------------------------------------------------------------------
 #t hf aug-cc-pvdz symm=none int=(grid=ultrafine) guess=(read,tcheck) s
 table=(opt,rrhf)
 ----------------------------------------------------------------------
 -----
 title
 -----
 Symbolic Z-matrix:
 Charge =  0 Multiplicity = 1

 SCF Done:  E(RHF) =  -548.555164375     A.U. after   14 cycles
 Normal termination of Gaussian 16 at Tue Apr  8 19:19:22 2025.
 Gaussian 16:  ES64L-G16RevC.01  3-Jul-2019

 ----------------------------------------------------------------------
 #t hf aug-cc-pvdz iop(5/13=1,5/36=2,99/5=2) pseudo=read geom=check gue
 ss=(read,tcheck) scf=(maxcycle=1)
 ----------------------------------------------------------------------
 -----
 title
 -----
 Structure from the checkpoint file:  "ANI1ccx_1168_conf70_mol1.chk"
 Charge =  0 Multiplicity = 1

                         Standard orientation:
 ---------------------------------------------------------------------
 Center     Atomic      Atomic             Coordinates (Angstroms)
 Number     Number       Type             X           Y           Z
 ---------------------------------------------------------------------
      1          6           0       -1.271842    0.677939   -0.191860
      2          6           0       -1.204081   -0.807467   -0.006130
      3          6           0       -0.072102    1.486130    0.285825
      4          6           0        1.121288    1.085401   -0.509778
      5          6           0        2.096359    0.023448   -0.071089
      6          1           0       -1.935180   -2.408061   -0.762550
      7          1           0        1.073859   -0.284835    1.394980
      8          1           0        0.984971    0.874762   -1.581320
      9          1           0        1.798198    1.988171   -0.565766
     10          1           0       -0.382004    2.494850    0.138188
     11          1           0        0.246242    1.342680    1.361310
     12          1           0       -1.258262    0.688946   -1.289710
     13          1           0       -2.698022    0.723736    1.215190
     14          1           0       -3.207502    1.169169   -0.429902
     15          7           0       -2.510612    1.296859    0.314023
     16          8           0       -0.444627   -1.468480    0.703266
     17          8           0        2.986909   -0.305677   -0.821174
     18          8           0        1.934909   -0.576929    1.077430
     19          8           0       -2.110411   -1.456431   -0.799570
 ---------------------------------------------------------------------

 SCF Done:  E(RHF) =  -549.103949158     A.U. after    2 cycles

 The electronic state is 1-A.
 Alpha  occ. eigenvalues --  -20.62398 -20.58667 -20.57220 -20.50642 -15.53913
 Alpha  occ. eigenvalues --  -11.42686 -11.37840 -11.31425 -11.27206 -11.26276
 Alpha  occ. eigenvalues --   -1.56732  -1.54945  -1.46949  -1.43360  -1.23030
 Alpha  occ. eigenvalues --   -1.10729  -1.00546  -0.93054  -0.82498  -0.81857
 Alpha  occ. eigenvalues --   -0.76830  -0.73619  -0.72597  -0.71843  -0.67761
 Alpha  occ. eigenvalues --   -0.65447  -0.64380  -0.62856  -0.61336  -0.60008
 Alpha  occ. eigenvalues --   -0.57693  -0.55594  -0.53680  -0.52159  -0.50086
 Alpha  occ. eigenvalues --   -0.49412  -0.46459  -0.43742  -0.42415
 Alpha virt. eigenvalues --    0.02242   0.03321   0.03740   0.04167   0.05378
 Alpha virt. eigenvalues --    0.05764   0.06497   0.07697   0.08411   0.09820
 Alpha virt. eigenvalues --    0.10613   0.11405   0.12364   0.12685   0.12788

 Mulliken charges:
               1
     1  C   -1.979870
     2  C    2.444744
     3  C    0.274932
     4  C   -0.428773
     5  C    1.993417
     6  H    0.366655
     7  H    0.642510
     8  H    0.135287
     9  H    0.299877
    10  H    0.064651
    11  H    0.282451
    12  H    0.138872
    13  H    0.300370
    14  H    0.275613
    15  N    0.578179
    16  O   -1.312517
    17  O   -1.383258
    18  O   -1.341466
    19  O   -1.351673
 Sum of Mulliken charges =  -0.00000

 Dipole moment (field-independent basis, Debye):
    X=             -5.8188    Y=              1.7004    Z=             -0.0106  Tot=              6.0622

 Test job not archived.
 1\1\GINC-SE402\SP\RHF\Aug-CC-pVDZ\C5H9N1O4\OHZDE\08-Apr-2025\0\\#t hf
 aug-cc-pvdz iop(5/13=1,5/36=2,99/5=2) pseudo=read geom=check guess=(re
 ad,tcheck) scf=(maxcycle=1)\\title\\0,1\C,0,-1.27184,0.677939,-0.19186
 \C,0,-1.20408,-0.807467,-0.00613013\C,0,-0.0720998,1.48613,0.285825\C,
 0,1.12129,1.0854,-0.509778\C,0,2.09636,0.023447,-0.0710891\H,0,-1.9351
 8,-2.40806,-0.76255\H,0,1.07386,-0.284836,1.39498\H,0,0.984973,0.87476
 1,-1.58132\H,0,1.7982,1.98817,-0.565766\H,0,-0.382002,2.49485,0.138188
 \H,0,0.246244,1.34268,1.36131\H,0,-1.25826,0.688946,-1.28971\H,0,-2.69

 Normal termination of Gaussian 16 at Tue Apr  8 19:19:32 2025.
