 Gaussian 16, Revision C.01,

 ----------------------------------------------------------------------
 #t hf aug-cc-pvdz symm=none int=(grid=ultrafine) guess=(read,tcheck) s
 table=(opt,rrhf)
 ----------------------------------------------------------------------
 -----
 title
 -----
 Symbolic Z-matrix:
 Charge =  0 Multiplicity = 1

 SCF Done:  E(RHF) =  -637.015139195     A.U. after   17 cycles
 Normal termination of Gaussian 16 at Tue Apr  8 21:03:37 2025.
 Gaussian 16:  ES64L-G16RevC.01  3-Jul-2019

 ----------------------------------------------------------------------
 #t hf aug-cc-pvdz iop(5/13=1,5/36=2,99/5=2) pseudo=read geom=check gue
 ss=(read,tcheck) scf=(maxcycle=1)
 ----------------------------------------------------------------------
 -----
 title
 -----
 Structure from the checkpoint file:  "ANI1ccx_1814_conf1_mol1.chk"
 Charge =  0 Multiplicity = 1

                         Standard orientation:
 ---------------------------------------------------------------------
 Center     Atomic      Atomic             Coordinates (Angstroms)
 Number     Number       Type             X           Y           Z
 ---------------------------------------------------------------------
      1          6           0        1.612680    1.215749    0.074859
      2          6           0        2.956540    0.623243   -0.233053
      3          6           0        0.817514   -1.142681    0.099546
      4          6           0       -1.281011   -0.999456    0.159445
      5          6           0       -2.618691   -1.236849    0.058907
      6          6           0       -3.428450   -0.129530   -0.107492
      7          6           0       -2.984130    1.187651   -0.191555
      8          6           0       -1.621480    1.417690   -0.172760
      9          6           0       -0.820818    0.312275    0.033058
     10          1           0       -1.164969    2.397630   -0.237816
     11          1           0       -3.687909    1.986961   -0.353633
     12          1           0       -4.511240   -0.370881   -0.132691
     13          1           0        3.796240    1.222688   -0.537562
     14          1           0        2.389838   -2.468992   -0.125837
     15          1           0       -2.981411   -2.289159    0.010582
     16          7           0        0.580691    0.246810   -0.052576
     17          7           0        3.127989   -0.648469   -0.299662
     18          7           0        2.144899   -1.516242    0.005916
     19          7           0       -0.238008   -1.842670    0.244679
     20          8           0        1.382191    2.294649    0.470341
 ---------------------------------------------------------------------

 SCF Done:  E(RHF) =  -637.648872830     A.U. after    2 cycles

 The electronic state is 1-A.
 Alpha  occ. eigenvalues --  -20.56428 -15.61105 -15.60525 -15.58436 -15.50092
 Alpha  occ. eigenvalues --  -11.40916 -11.38590 -11.31902 -11.28114 -11.27080
 Alpha  occ. eigenvalues --  -11.24993 -11.24576 -11.24302 -11.24230  -1.53650
 Alpha  occ. eigenvalues --   -1.41644  -1.35462  -1.24206  -1.19353  -1.15689
 Alpha  occ. eigenvalues --   -1.04885  -1.03352  -0.96177  -0.94875  -0.88699
 Alpha  occ. eigenvalues --   -0.86803  -0.82253  -0.79964  -0.76565  -0.72587
 Alpha  occ. eigenvalues --   -0.72298  -0.69423  -0.69057  -0.65887  -0.63982
 Alpha  occ. eigenvalues --   -0.63186  -0.61969  -0.60013  -0.57678  -0.54687
 Alpha  occ. eigenvalues --   -0.53417  -0.50449  -0.49041  -0.48957  -0.46831
 Alpha  occ. eigenvalues --   -0.43632  -0.34342  -0.32305
 Alpha virt. eigenvalues --    0.02835   0.03704   0.03785   0.03938   0.04671
 Alpha virt. eigenvalues --    0.05377   0.06976   0.08023   0.08740   0.09035
 Alpha virt. eigenvalues --    0.09274   0.09870   0.10479   0.11153   0.11525

 Mulliken charges:
               1
     1  C    1.091458
     2  C   -0.387676
     3  C   -2.263400
     4  C   -1.676692
     5  C    1.130457
     6  C    0.322564
     7  C    0.194363
     8  C    1.075897
     9  C   -0.550380
    10  H   -0.296493
    11  H   -0.223774
    12  H   -0.201222
    13  H   -0.018006
    14  H    0.128193
    15  H   -0.168980
    16  N    0.877769
    17  N    0.441392
    18  N    0.424828
    19  N    1.361345
    20  O   -1.261645
 Sum of Mulliken charges =   0.00000

 Dipole moment (field-independent basis, Debye):
    X=              1.0418    Y=              0.0282    Z=             -1.2763  Tot=              1.6478

 Test job not archived.
 1\1\GINC-SE030\SP\RHF\Aug-CC-pVDZ\C9H6N4O1\OHZDE\08-Apr-2025\0\\#t hf
 aug-cc-pvdz iop(5/13=1,5/36=2,99/5=2) pseudo=read geom=check guess=(re
 ad,tcheck) scf=(maxcycle=1)\\title\\0,1\C,0,1.61268,1.21575,0.0748588\
 C,0,2.95654,0.623245,-0.233053\C,0,0.817515,-1.14268,0.0995458\C,0,-1.
 28101,-0.999456,0.159445\C,0,-2.61869,-1.23685,0.0589075\C,0,-3.42845,
 -0.129531,-0.107492\C,0,-2.98413,1.18765,-0.191555\C,0,-1.62148,1.4176
 9,-0.17276\C,0,-0.820818,0.312275,0.0330584\H,0,-1.16497,2.39763,-0.23
 7816\H,0,-3.68791,1.98696,-0.353633\H,0,-4.51124,-0.370883,-0.132691\H

 Normal termination of Gaussian 16 at Tue Apr  8 21:03:54 2025.
