 Gaussian 16, Revision C.01,

 ----------------------------------------------------------------------
 #t hf aug-cc-pvdz symm=none int=(grid=ultrafine) guess=(read,tcheck) s
 table=(opt,rrhf)
 ----------------------------------------------------------------------
 -----
 title
 -----
 Symbolic Z-matrix:
 Charge =  0 Multiplicity = 1

 SCF Done:  E(RHF) =  -414.372109554     A.U. after   14 cycles
 Normal termination of Gaussian 16 at Tue Apr  8 21:37:36 2025.
 Gaussian 16:  ES64L-G16RevC.01  3-Jul-2019

 ----------------------------------------------------------------------
 #t hf aug-cc-pvdz iop(5/13=1,5/36=2,99/5=2) pseudo=read geom=check gue
 ss=(read,tcheck) scf=(maxcycle=1)
 ----------------------------------------------------------------------
 -----
 title
 -----
 Structure from the checkpoint file:  "ANI1ccx_410_conf4_mol1.chk"
 Charge =  0 Multiplicity = 1

                         Standard orientation:
 ---------------------------------------------------------------------
 Center     Atomic      Atomic             Coordinates (Angstroms)
 Number     Number       Type             X           Y           Z
 ---------------------------------------------------------------------
      1          6           0        2.177940   -0.022187    0.259286
      2          1           0        3.403700   -1.475600    0.050712
      3          1           0        1.731900   -0.677966    1.038010
      4          1           0       -3.655870    0.692967    0.182069
      5          1           0       -0.776490    0.018989   -0.755976
      6          8           0        3.249530   -0.590973   -0.327370
      7          8           0        1.826160    1.080240    0.019055
      8          8           0       -3.368900   -0.065724   -0.349476
      9          8           0       -2.242380   -0.555365    0.317286
     10          8           0       -1.185770    0.328665    0.081689
 ---------------------------------------------------------------------

 SCF Done:  E(RHF) =  -414.774236584     A.U. after    2 cycles

 The electronic state is 1-A.
 Alpha  occ. eigenvalues --  -20.68335 -20.63117 -20.62945 -20.61943 -20.55568
 Alpha  occ. eigenvalues --  -11.40896  -1.68812  -1.56214  -1.47918  -1.46080
 Alpha  occ. eigenvalues --   -1.19084  -0.87670  -0.79929  -0.78209  -0.69324
 Alpha  occ. eigenvalues --   -0.68245  -0.68000  -0.64585  -0.63949  -0.59915
 Alpha  occ. eigenvalues --   -0.50592  -0.50328  -0.49174  -0.47906  -0.46271
 Alpha virt. eigenvalues --    0.02411   0.04729   0.05513   0.06105   0.08879
 Alpha virt. eigenvalues --    0.11608   0.12724   0.13786   0.15090   0.15516
 Alpha virt. eigenvalues --    0.17153   0.19153   0.19697   0.20579   0.21100

 Mulliken charges:
               1
     1  C    1.414225
     2  H    0.404032
     3  H    0.145352
     4  H    0.450645
     5  H    0.462726
     6  O   -0.993686
     7  O   -0.974985
     8  O   -0.490110
     9  O    0.118917
    10  O   -0.537116
 Sum of Mulliken charges =  -0.00000

 Dipole moment (field-independent basis, Debye):
    X=              0.7370    Y=             -2.7116    Z=              1.0605  Tot=              3.0034

 Test job not archived.
 1\1\GINC-SE048\SP\RHF\Aug-CC-pVDZ\C1H4O5\OHZDE\08-Apr-2025\0\\#t hf au
 g-cc-pvdz iop(5/13=1,5/36=2,99/5=2) pseudo=read geom=check guess=(read
 ,tcheck) scf=(maxcycle=1)\\title\\0,1\C,0,2.17794,-0.0221868,0.259286\
 H,0,3.4037,-1.4756,0.0507119\H,0,1.7319,-0.677966,1.03801\H,0,-3.65587
 ,0.692967,0.182069\H,0,-0.77649,0.0189887,-0.755976\O,0,3.24953,-0.590
 973,-0.32737\O,0,1.82616,1.08024,0.0190547\O,0,-3.3689,-0.0657243,-0.3
 49476\O,0,-2.24238,-0.555365,0.317286\O,0,-1.18577,0.328665,0.0816894\
 \Version=ES64L-G16RevC.01\State=1-A\HF=-414.7742366\RMSD=7.630e-03\Dip

 Normal termination of Gaussian 16 at Tue Apr  8 21:37:39 2025.
