 Gaussian 16, Revision C.01,

 ----------------------------------------------------------------------
 #t hf aug-cc-pvdz symm=none int=(grid=ultrafine) guess=(read,tcheck) s
 table=(opt,rrhf)
 ----------------------------------------------------------------------
 -----
 title
 -----
 Symbolic Z-matrix:
 Charge =  0 Multiplicity = 1

 SCF Done:  E(RHF) =  -239.964487391     A.U. after   14 cycles
 Normal termination of Gaussian 16 at Tue Apr  8 21:11:18 2025.
 Gaussian 16:  ES64L-G16RevC.01  3-Jul-2019

 ----------------------------------------------------------------------
 #t hf aug-cc-pvdz iop(5/13=1,5/36=2,99/5=2) pseudo=read geom=check gue
 ss=(read,tcheck) scf=(maxcycle=1)
 ----------------------------------------------------------------------
 -----
 title
 -----
 Structure from the checkpoint file:  "ANI1ccx_1874_conf7_mol1.chk"
 Charge =  0 Multiplicity = 1

                         Standard orientation:
 ---------------------------------------------------------------------
 Center     Atomic      Atomic             Coordinates (Angstroms)
 Number     Number       Type             X           Y           Z
 ---------------------------------------------------------------------
      1          1           0       -2.932701   -0.024398   -0.142388
      2          1           0       -1.311491    1.315680   -0.482581
      3          1           0       -1.187591    0.776194    1.071950
      4          7           0        1.959939   -0.611112    0.125186
      5          7           0        2.305089    0.397816   -0.160784
      6          7           0       -1.103331    0.485082    0.099648
      7          8           0       -2.087511   -0.496247   -0.111916
 ---------------------------------------------------------------------

 SCF Done:  E(RHF) =  -240.200407591     A.U. after    2 cycles

 The electronic state is 1-A.
 Alpha  occ. eigenvalues --  -20.58321 -15.60841 -15.60604 -15.55191  -1.48991
 Alpha  occ. eigenvalues --   -1.47352  -1.09449  -0.80661  -0.74132  -0.71997
 Alpha  occ. eigenvalues --   -0.67089  -0.65287  -0.65232  -0.59925  -0.49618
 Alpha  occ. eigenvalues --   -0.45796
 Alpha virt. eigenvalues --    0.03158   0.05376   0.05824   0.10303   0.10729
 Alpha virt. eigenvalues --    0.12157   0.12962   0.15901   0.16537   0.17953
 Alpha virt. eigenvalues --    0.18148   0.19974   0.21210   0.21599   0.22338

 Mulliken charges:
               1
     1  H    0.265230
     2  H    0.103613
     3  H    0.114493
     4  N   -0.028908
     5  N    0.012235
     6  N    0.495588
     7  O   -0.962251
 Sum of Mulliken charges =  -0.00000

 Dipole moment (field-independent basis, Debye):
    X=             -2.0101    Y=              2.4658    Z=              0.5365  Tot=              3.2262

 Test job not archived.
 1\1\GINC-SE338\SP\RHF\Aug-CC-pVDZ\H3N3O1\OHZDE\08-Apr-2025\0\\#t hf au
 g-cc-pvdz iop(5/13=1,5/36=2,99/5=2) pseudo=read geom=check guess=(read
 ,tcheck) scf=(maxcycle=1)\\title\\0,1\H,0,-2.9327,-0.0243973,-0.142388
 \H,0,-1.31149,1.31568,-0.482581\H,0,-1.18759,0.776194,1.07195\N,0,1.95
 994,-0.611112,0.125186\N,0,2.30509,0.397816,-0.160784\N,0,-1.10333,0.4
 85082,0.0996481\O,0,-2.08751,-0.496247,-0.111916\\Version=ES64L-G16Rev
 C.01\State=1-A\HF=-240.2004076\RMSD=3.519e-02\Dipole=-0.7908366,0.9701
 282,0.2110825\Quadrupole=2.6622187,-1.583865,-1.0783537,-3.5295028,-0.

 Normal termination of Gaussian 16 at Tue Apr  8 21:11:20 2025.
