 Gaussian 16, Revision C.01,

 ----------------------------------------------------------------------
 #t hf aug-cc-pvdz symm=none int=(grid=ultrafine) guess=(read,tcheck) s
 table=(opt,rrhf)
 ----------------------------------------------------------------------
 -----
 title
 -----
 Symbolic Z-matrix:
 Charge =  0 Multiplicity = 1

 SCF Done:  E(RHF) =  -981.473070943     A.U. after   14 cycles
 Normal termination of Gaussian 16 at Tue Apr  8 22:21:04 2025.
 Gaussian 16:  ES64L-G16RevC.01  3-Jul-2019

 ----------------------------------------------------------------------
 #t hf aug-cc-pvdz iop(5/13=1,5/36=2,99/5=2) pseudo=read geom=check gue
 ss=(read,tcheck) scf=(maxcycle=1)
 ----------------------------------------------------------------------
 -----
 title
 -----
 Structure from the checkpoint file:  "ANI1ccx_69_conf1_mol1.chk"
 Charge =  0 Multiplicity = 1

                         Standard orientation:
 ---------------------------------------------------------------------
 Center     Atomic      Atomic             Coordinates (Angstroms)
 Number     Number       Type             X           Y           Z
 ---------------------------------------------------------------------
      1          6           0        1.969810    0.158364    0.972403
      2          6           0       -2.809200   -1.302909    0.114843
      3          6           0       -1.996840   -0.707594   -1.064240
      4          6           0       -2.334050    1.707391   -0.172333
      5          6           0       -1.328790    0.667636   -0.774821
      6          6           0       -4.271980   -1.013319    0.066014
      7          6           0        3.876650   -1.172020   -0.225534
      8          6           0        3.033840   -0.957771    1.037740
      9          6           0        0.934417   -0.058966   -0.201940
     10          6           0        4.940430   -0.067025   -0.322362
     11          1           0       -1.003980    1.014630   -1.748170
     12          1           0       -3.881290    1.007371   -1.048410
     13          1           0       -6.027290   -1.540239    0.935546
     14          1           0       -4.654530   -2.373869    1.554890
     15          1           0       -2.770350   -2.404069   -0.036759
     16          1           0       -2.305320   -1.117749    1.032510
     17          1           0       -1.183680   -1.364140   -1.380860
     18          1           0       -2.611570   -0.651560   -1.961570
     19          1           0       -0.305308    0.991299    1.020820
     20          1           0        6.358590    0.654726   -1.574620
     21          1           0        5.355610   -0.543465   -2.350840
     22          1           0        3.252310   -1.093860   -1.144490
     23          1           0        4.369470   -2.183480   -0.185848
     24          1           0        3.691420   -0.720665    1.811910
     25          1           0        2.567830   -1.879640    1.367590
     26          1           0        2.503340    1.069500    0.708695
     27          1           0        1.857460    0.946014    2.856530
     28          1           0        1.264390   -0.524158    2.732590
     29          7           0       -5.046310   -1.599579    1.037570
     30          7           0       -0.212348    0.516197    0.133129
     31          7           0        1.269700    0.388000    2.251270
     32          7           0        5.597670   -0.014169   -1.550480
     33          8           0       -4.730750   -0.335042   -0.831758
     34          8           0        1.179890   -0.562762   -1.316530
     35          8           0        5.236370    0.678599    0.617506
     36          8           0       -1.911050    2.373380    0.763402
     37          8           0       -3.502440    1.865511   -0.766190
 ---------------------------------------------------------------------

 SCF Done:  E(RHF) =  -982.464551818     A.U. after    2 cycles

 The electronic state is 1-A.
 Alpha  occ. eigenvalues --  -20.57624 -20.55054 -20.52861 -20.51296 -20.50757
 Alpha  occ. eigenvalues --  -15.55680 -15.52384 -15.51877 -15.50878 -11.39794
 Alpha  occ. eigenvalues --  -11.39102 -11.36409 -11.35572 -11.29418 -11.28219
 Alpha  occ. eigenvalues --  -11.27199 -11.25251 -11.24733 -11.23265  -1.53551
 Alpha  occ. eigenvalues --   -1.50847  -1.44749  -1.44490  -1.43838  -1.25933
 Alpha  occ. eigenvalues --   -1.25458  -1.21008  -1.19955  -1.09909  -1.06477
 Alpha  occ. eigenvalues --   -1.02044  -0.95515  -0.91471  -0.87896  -0.84759
 Alpha  occ. eigenvalues --   -0.83015  -0.81083  -0.80688  -0.77979  -0.76110
 Alpha  occ. eigenvalues --   -0.74422  -0.73444  -0.71641  -0.69788  -0.68433
 Alpha  occ. eigenvalues --   -0.67801  -0.67368  -0.65775  -0.64539  -0.63960
 Alpha  occ. eigenvalues --   -0.62572  -0.61086  -0.61002  -0.59686  -0.58895
 Alpha  occ. eigenvalues --   -0.57276  -0.56814  -0.54765  -0.53982  -0.53254
 Alpha  occ. eigenvalues --   -0.52881  -0.51989  -0.51261  -0.49436  -0.48400
 Alpha  occ. eigenvalues --   -0.46783  -0.46425  -0.45371  -0.43438  -0.42869
 Alpha  occ. eigenvalues --   -0.42419  -0.41365  -0.40236
 Alpha virt. eigenvalues --    0.01402   0.02916   0.03057   0.03405   0.04235
 Alpha virt. eigenvalues --    0.04578   0.05318   0.05729   0.05926   0.06421
 Alpha virt. eigenvalues --    0.07075   0.07254   0.08028   0.08210   0.08751

 Mulliken charges:
               1
     1  C   -1.586969
     2  C   -0.371586
     3  C    0.069139
     4  C    2.794251
     5  C   -1.246573
     6  C    0.302692
     7  C   -0.415234
     8  C    0.430188
     9  C    0.096497
    10  C    0.155393
    11  H    0.046111
    12  H    0.686040
    13  H    0.094957
    14  H    0.080454
    15  H    0.346843
    16  H    0.127260
    17  H   -0.010293
    18  H    0.103962
    19  H    0.419447
    20  H    0.079318
    21  H   -0.015213
    22  H    0.267442
    23  H    0.265508
    24  H    0.086671
    25  H    0.042924
    26  H    0.198639
    27  H    0.326026
    28  H    0.311783
    29  N    0.757968
    30  N    1.564028
    31  N    0.275059
    32  N    0.904801
    33  O   -1.452003
    34  O   -1.554103
    35  O   -1.318357
    36  O   -1.370276
    37  O   -1.492792
 Sum of Mulliken charges =  -0.00000

 Dipole moment (field-independent basis, Debye):
    X=             -0.9216    Y=             -7.5323    Z=              0.5549  Tot=              7.6087

 Test job not archived.
 1\1\GINC-SE404\SP\RHF\Aug-CC-pVDZ\C10H18N4O5\OHZDE\08-Apr-2025\0\\#t h
 f aug-cc-pvdz iop(5/13=1,5/36=2,99/5=2) pseudo=read geom=check guess=(
 read,tcheck) scf=(maxcycle=1)\\title\\0,1\C,0,1.96981,0.158364,0.97240
 3\C,0,-2.8092,-1.30291,0.114843\C,0,-1.99684,-0.707594,-1.06424\C,0,-2
 .33405,1.70739,-0.172333\C,0,-1.32879,0.667636,-0.774821\C,0,-4.27198,
 -1.01332,0.0660137\C,0,3.87665,-1.17202,-0.225534\C,0,3.03384,-0.95777
 1,1.03774\C,0,0.934417,-0.0589658,-0.20194\C,0,4.94043,-0.0670249,-0.3
 22362\H,0,-1.00398,1.01463,-1.74817\H,0,-3.88129,1.00737,-1.04841\H,0,

 Normal termination of Gaussian 16 at Tue Apr  8 22:22:08 2025.
