 Gaussian 16, Revision C.01,

 ----------------------------------------------------------------------
 #t hf aug-cc-pvdz symm=none int=(grid=ultrafine) guess=(read,tcheck) s
 table=(opt,rrhf)
 ----------------------------------------------------------------------
 -----
 title
 -----
 Symbolic Z-matrix:
 Charge =  0 Multiplicity = 1

 SCF Done:  E(RHF) =  -596.173480502     A.U. after   18 cycles
 Normal termination of Gaussian 16 at Tue Apr  8 22:02:12 2025.
 Gaussian 16:  ES64L-G16RevC.01  3-Jul-2019

 ----------------------------------------------------------------------
 #t hf aug-cc-pvdz iop(5/13=1,5/36=2,99/5=2) pseudo=read geom=check gue
 ss=(read,tcheck) scf=(maxcycle=1)
 ----------------------------------------------------------------------
 -----
 title
 -----
 Structure from the checkpoint file:  "ANI1ccx_883_conf5_mol1.chk"
 Charge =  0 Multiplicity = 1

                         Standard orientation:
 ---------------------------------------------------------------------
 Center     Atomic      Atomic             Coordinates (Angstroms)
 Number     Number       Type             X           Y           Z
 ---------------------------------------------------------------------
      1          6           0       -1.764731   -0.105534    0.073129
      2          6           0        0.259934   -1.140010    0.044333
      3          6           0        0.843825    0.213578   -0.073631
      4          6           0       -0.046991    1.313110    0.037284
      5          1           0       -3.328370   -1.536681   -0.311336
      6          1           0       -3.826021    0.149395    0.129948
      7          1           0        0.622006   -3.109810    0.299066
      8          1           0       -0.354612    3.119690    0.107525
      9          7           0       -3.051600   -0.521762   -0.239859
     10          7           0       -1.054900   -1.214500   -0.041510
     11          7           0        2.216599    0.596475   -0.117949
     12          7           0       -1.411771    1.161850    0.293069
     13          8           0        0.991470   -2.224360    0.102370
     14          8           0        2.954809   -0.362297   -0.040597
     15          8           0        0.334531    2.528670   -0.057791
 ---------------------------------------------------------------------

 SCF Done:  E(RHF) =  -596.752375144     A.U. after    2 cycles

 The electronic state is 1-A.
 Alpha  occ. eigenvalues --  -20.62016 -20.61971 -20.57790 -15.63106 -15.54148
 Alpha  occ. eigenvalues --  -15.51776 -15.50096 -11.40861 -11.40116 -11.38457
 Alpha  occ. eigenvalues --  -11.27575  -1.58732  -1.56676  -1.54878  -1.33900
 Alpha  occ. eigenvalues --   -1.21543  -1.20108  -1.12098  -0.97781  -0.94511
 Alpha  occ. eigenvalues --   -0.88931  -0.84258  -0.83805  -0.74266  -0.73363
 Alpha  occ. eigenvalues --   -0.72644  -0.69012  -0.67589  -0.64188  -0.63560
 Alpha  occ. eigenvalues --   -0.61164  -0.60806  -0.59154  -0.58138  -0.55243
 Alpha  occ. eigenvalues --   -0.49218  -0.47232  -0.44891  -0.40251  -0.36321
 Alpha virt. eigenvalues --    0.02499   0.03689   0.04354   0.05322   0.05527
 Alpha virt. eigenvalues --    0.08429   0.09242   0.09681   0.09993   0.10998
 Alpha virt. eigenvalues --    0.11508   0.12257   0.12875   0.13212   0.13778

 Mulliken charges:
               1
     1  C   -1.584443
     2  C    0.988049
     3  C   -0.795651
     4  C    1.173931
     5  H    0.142561
     6  H    0.203310
     7  H    0.452296
     8  H    0.388534
     9  N    0.498898
    10  N    0.643515
    11  N    1.685291
    12  N    0.605782
    13  O   -1.618128
    14  O   -1.256238
    15  O   -1.527708
 Sum of Mulliken charges =  -0.00000

 Dipole moment (field-independent basis, Debye):
    X=             -4.4507    Y=             -1.6556    Z=              1.0075  Tot=              4.8543

 Test job not archived.
 1\1\GINC-SE453\SP\RHF\Aug-CC-pVDZ\C4H4N4O3\OHZDE\08-Apr-2025\0\\#t hf
 aug-cc-pvdz iop(5/13=1,5/36=2,99/5=2) pseudo=read geom=check guess=(re
 ad,tcheck) scf=(maxcycle=1)\\title\\0,1\C,0,-1.76473,-0.105534,0.07312
 9\C,0,0.259934,-1.14001,0.0443326\C,0,0.843826,0.213578,-0.073631\C,0,
 -0.0469906,1.31311,0.037284\H,0,-3.32837,-1.53668,-0.311336\H,0,-3.826
 02,0.149396,0.129948\H,0,0.622006,-3.10981,0.299066\H,0,-0.354611,3.11
 969,0.107525\N,0,-3.0516,-0.521761,-0.239859\N,0,-1.0549,-1.2145,-0.04
 15103\N,0,2.2166,0.596475,-0.117949\N,0,-1.41177,1.16185,0.293069\O,0,

 Normal termination of Gaussian 16 at Tue Apr  8 22:02:20 2025.
