 Gaussian 16, Revision C.01,

 ----------------------------------------------------------------------
 #t hf aug-cc-pvdz symm=none int=(grid=ultrafine) guess=(read,tcheck) s
 table=(opt,rrhf)
 ----------------------------------------------------------------------
 -----
 title
 -----
 Symbolic Z-matrix:
 Charge =  0 Multiplicity = 1

 SCF Done:  E(RHF) =  -540.246480442     A.U. after   14 cycles
 Normal termination of Gaussian 16 at Tue Apr  8 21:44:02 2025.
 Gaussian 16:  ES64L-G16RevC.01  3-Jul-2019

 ----------------------------------------------------------------------
 #t hf aug-cc-pvdz iop(5/13=1,5/36=2,99/5=2) pseudo=read geom=check gue
 ss=(read,tcheck) scf=(maxcycle=1)
 ----------------------------------------------------------------------
 -----
 title
 -----
 Structure from the checkpoint file:  "ANI1ccx_504_conf3_mol2.chk"
 Charge =  0 Multiplicity = 1

                         Standard orientation:
 ---------------------------------------------------------------------
 Center     Atomic      Atomic             Coordinates (Angstroms)
 Number     Number       Type             X           Y           Z
 ---------------------------------------------------------------------
      1          6           0        1.158501   -0.690812    0.079277
      2          6           0       -1.137069   -0.689389   -0.075763
      3          1           0       -1.566139    2.223051   -0.363279
      4          1           0        1.679901    2.137441    0.424232
      5          1           0        0.114365   -2.448299    0.128995
      6          7           0       -0.657921    0.629049   -0.253724
      7          7           0        0.669101    0.621960    0.319497
      8          7           0        0.025265   -1.457289   -0.069689
      9          8           0       -1.471699    1.537031    0.303976
     10          8           0        1.370271    1.637311   -0.337527
     11          8           0        2.301921   -1.074879    0.067020
     12          8           0       -2.276969   -1.122839   -0.056422
 ---------------------------------------------------------------------

 SCF Done:  E(RHF) =  -540.772529227     A.U. after    2 cycles

 The electronic state is 1-A.
 Alpha  occ. eigenvalues --  -20.63798 -20.63586 -20.56394 -20.56306 -15.65501
 Alpha  occ. eigenvalues --  -15.65055 -15.59007 -11.43905 -11.43532  -1.60368
 Alpha  occ. eigenvalues --   -1.55693  -1.51263  -1.49900  -1.37363  -1.24064
 Alpha  occ. eigenvalues --   -1.12211  -0.94341  -0.91596  -0.83608  -0.81292
 Alpha  occ. eigenvalues --   -0.75793  -0.74249  -0.72247  -0.69619  -0.68075
 Alpha  occ. eigenvalues --   -0.66384  -0.58926  -0.57206  -0.56151  -0.54857
 Alpha  occ. eigenvalues --   -0.49953  -0.47743  -0.47514  -0.45799
 Alpha virt. eigenvalues --    0.02712   0.04440   0.04611   0.08850   0.09040
 Alpha virt. eigenvalues --    0.09399   0.10216   0.10515   0.11198   0.11882
 Alpha virt. eigenvalues --    0.12955   0.13938   0.14036   0.16386   0.16665

 Mulliken charges:
               1
     1  C    0.779879
     2  C    0.761681
     3  H    0.298301
     4  H    0.315899
     5  H    0.132203
     6  N    1.071210
     7  N    0.925125
     8  N    0.514086
     9  O   -1.274835
    10  O   -1.170182
    11  O   -1.176011
    12  O   -1.177357
 Sum of Mulliken charges =  -0.00000

 Dipole moment (field-independent basis, Debye):
    X=              0.3313    Y=              2.0775    Z=              0.4032  Tot=              2.1421

 Test job not archived.
 1\1\GINC-SE340\SP\RHF\Aug-CC-pVDZ\C2H3N3O4\OHZDE\08-Apr-2025\0\\#t hf
 aug-cc-pvdz iop(5/13=1,5/36=2,99/5=2) pseudo=read geom=check guess=(re
 ad,tcheck) scf=(maxcycle=1)\\title\\0,1\C,0,1.1585,-0.690813,0.0792774
 \C,0,-1.13707,-0.68939,-0.0757627\H,0,-1.56614,2.22305,-0.363279\H,0,1
 .6799,2.13744,0.424232\H,0,0.114364,-2.4483,0.128995\N,0,-0.657922,0.6
 29048,-0.253724\N,0,0.6691,0.621959,0.319497\N,0,0.0252646,-1.45729,-0
 .069689\O,0,-1.4717,1.53703,0.303976\O,0,1.37027,1.63731,-0.337527\O,0
 ,2.30192,-1.07488,0.0670202\O,0,-2.27697,-1.12284,-0.0564224\\Version=

 Normal termination of Gaussian 16 at Tue Apr  8 21:44:08 2025.
