 Gaussian 16, Revision C.01,

 ----------------------------------------------------------------------
 #t hf aug-cc-pvdz symm=none int=(grid=ultrafine) guess=(read,tcheck) s
 table=(opt,rrhf)
 ----------------------------------------------------------------------
 -----
 title
 -----
 Symbolic Z-matrix:
 Charge =  0 Multiplicity = 1

 SCF Done:  E(RHF) =  -428.572608388     A.U. after   14 cycles
 Normal termination of Gaussian 16 at Tue Apr  8 21:38:43 2025.
 Gaussian 16:  ES64L-G16RevC.01  3-Jul-2019

 ----------------------------------------------------------------------
 #t hf aug-cc-pvdz iop(5/13=1,5/36=2,99/5=2) pseudo=read geom=check gue
 ss=(read,tcheck) scf=(maxcycle=1)
 ----------------------------------------------------------------------
 -----
 title
 -----
 Structure from the checkpoint file:  "ANI1ccx_419_conf7_mol1.chk"
 Charge =  0 Multiplicity = 1

                         Standard orientation:
 ---------------------------------------------------------------------
 Center     Atomic      Atomic             Coordinates (Angstroms)
 Number     Number       Type             X           Y           Z
 ---------------------------------------------------------------------
      1          6           0       -0.122107   -0.348985    0.045576
      2          1           0        1.788311    1.527950   -0.112381
      3          1           0       -0.788223    1.475771   -0.185676
      4          1           0       -1.499780   -1.638119    0.187433
      5          1           0       -2.889269    0.513029    0.304389
      6          1           0        2.643820   -1.490420   -0.013691
      7          7           0        0.013684    0.935074   -0.349251
      8          7           0       -1.422060   -0.673107    0.436343
      9          7           0        0.852233   -1.194240    0.130449
     10          8           0        0.972697    1.722850    0.342207
     11          8           0       -2.355280    0.015006   -0.337442
     12          8           0        2.053930   -0.708905   -0.251804
 ---------------------------------------------------------------------

 SCF Done:  E(RHF) =  -429.005140322     A.U. after    2 cycles

 The electronic state is 1-A.
 Alpha  occ. eigenvalues --  -20.61733 -20.59424 -20.58864 -15.58722 -15.56230
 Alpha  occ. eigenvalues --  -15.53942 -11.34595  -1.54194  -1.52251  -1.49652
 Alpha  occ. eigenvalues --   -1.26441  -1.14712  -1.10990  -0.85921  -0.80781
 Alpha  occ. eigenvalues --   -0.76617  -0.73482  -0.70404  -0.68991  -0.67405
 Alpha  occ. eigenvalues --   -0.64258  -0.62904  -0.54713  -0.53394  -0.51559
 Alpha  occ. eigenvalues --   -0.47620  -0.45514  -0.37377
 Alpha virt. eigenvalues --    0.03167   0.04799   0.05384   0.05830   0.06847
 Alpha virt. eigenvalues --    0.11006   0.11790   0.12989   0.13322   0.14469
 Alpha virt. eigenvalues --    0.14794   0.16522   0.17066   0.17843   0.19388

 Mulliken charges:
               1
     1  C   -1.526016
     2  H    0.334043
     3  H    0.174842
     4  H    0.245875
     5  H    0.341481
     6  H    0.350432
     7  N    1.130550
     8  N    1.097829
     9  N    1.398755
    10  O   -1.141301
    11  O   -1.151020
    12  O   -1.255470
 Sum of Mulliken charges =  -0.00000

 Dipole moment (field-independent basis, Debye):
    X=             -1.1132    Y=              0.1608    Z=              0.3162  Tot=              1.1683

 Test job not archived.
 1\1\GINC-SE041\SP\RHF\Aug-CC-pVDZ\C1H5N3O3\OHZDE\08-Apr-2025\0\\#t hf
 aug-cc-pvdz iop(5/13=1,5/36=2,99/5=2) pseudo=read geom=check guess=(re
 ad,tcheck) scf=(maxcycle=1)\\title\\0,1\C,0,-0.122107,-0.348985,0.0455
 761\H,0,1.78831,1.52795,-0.112381\H,0,-0.788224,1.47577,-0.185676\H,0,
 -1.49978,-1.63812,0.187433\H,0,-2.88927,0.513028,0.304389\H,0,2.64382,
 -1.49042,-0.0136909\N,0,0.0136835,0.935074,-0.349251\N,0,-1.42206,-0.6
 73108,0.436343\N,0,0.852233,-1.19424,0.130449\O,0,0.972696,1.72285,0.3
 42207\O,0,-2.35528,0.015005,-0.337442\O,0,2.05393,-0.708905,-0.251804\

 Normal termination of Gaussian 16 at Tue Apr  8 21:38:48 2025.
