 Gaussian 16, Revision C.01,

 ----------------------------------------------------------------------
 #t hf aug-cc-pvdz symm=none int=(grid=ultrafine) guess=(read,tcheck) s
 table=(opt,rrhf)
 ----------------------------------------------------------------------
 -----
 title
 -----
 Symbolic Z-matrix:
 Charge =  0 Multiplicity = 1

 SCF Done:  E(RHF) =  -368.301817199     A.U. after   17 cycles
 Normal termination of Gaussian 16 at Tue Apr  8 21:47:51 2025.
 Gaussian 16:  ES64L-G16RevC.01  3-Jul-2019

 ----------------------------------------------------------------------
 #t hf aug-cc-pvdz iop(5/13=1,5/36=2,99/5=2) pseudo=read geom=check gue
 ss=(read,tcheck) scf=(maxcycle=1)
 ----------------------------------------------------------------------
 -----
 title
 -----
 Structure from the checkpoint file:  "ANI1ccx_608_conf3_mol2.chk"
 Charge =  0 Multiplicity = 1

                         Standard orientation:
 ---------------------------------------------------------------------
 Center     Atomic      Atomic             Coordinates (Angstroms)
 Number     Number       Type             X           Y           Z
 ---------------------------------------------------------------------
      1          6           0       -1.658920    0.081654   -0.048213
      2          6           0       -0.265086    0.137157   -0.053020
      3          7           0       -2.839540   -0.055118    0.064130
      4          7           0        0.522180    1.140220   -0.003361
      5          7           0        1.769160    0.587977    0.015470
      6          7           0        1.757830   -0.676722    0.052308
      7          8           0        0.384577   -1.035920   -0.036554
 ---------------------------------------------------------------------

 SCF Done:  E(RHF) =  -368.649774414     A.U. after    2 cycles

 The electronic state is 1-A.
 Alpha  occ. eigenvalues --  -20.71373 -15.69713 -15.65959 -15.61263 -15.60726
 Alpha  occ. eigenvalues --  -11.44763 -11.36003  -1.67464  -1.43366  -1.31547
 Alpha  occ. eigenvalues --   -1.27421  -1.05241  -1.00360  -0.88220  -0.78504
 Alpha  occ. eigenvalues --   -0.76766  -0.68142  -0.66776  -0.60595  -0.60032
 Alpha  occ. eigenvalues --   -0.59700  -0.57809  -0.55206  -0.51258
 Alpha virt. eigenvalues --   -0.01621   0.04895   0.05751   0.06845   0.07217
 Alpha virt. eigenvalues --    0.09633   0.09717   0.11087   0.12159   0.12832
 Alpha virt. eigenvalues --    0.14219   0.15335   0.16203   0.16625   0.18869

 Mulliken charges:
               1
     1  C   -1.433862
     2  C    1.118171
     3  N    0.807805
     4  N    0.434885
     5  N   -0.795308
     6  N    1.170401
     7  O   -1.302092
 Sum of Mulliken charges =   0.00000

 Dipole moment (field-independent basis, Debye):
    X=              0.3580    Y=             -0.7906    Z=             -0.3182  Tot=              0.9244

 Test job not archived.
 1\1\GINC-SE329\SP\RHF\Aug-CC-pVDZ\C2N4O1\OHZDE\08-Apr-2025\0\\#t hf au
 g-cc-pvdz iop(5/13=1,5/36=2,99/5=2) pseudo=read geom=check guess=(read
 ,tcheck) scf=(maxcycle=1)\\title\\0,1\C,0,-1.65892,0.0816534,-0.048213
 1\C,0,-0.265086,0.137157,-0.0530204\N,0,-2.83954,-0.055119,0.0641302\N
 ,0,0.52218,1.14022,-0.00336107\N,0,1.76916,0.587977,0.0154704\N,0,1.75
 783,-0.676722,0.0523081\O,0,0.384577,-1.03592,-0.036554\\Version=ES64L
 -G16RevC.01\State=1-A\HF=-368.6497744\RMSD=6.001e-02\Dipole=0.1408605,
 -0.3110307,-0.1252083\Quadrupole=-5.7505402,1.2259353,4.5246049,-0.884

 Normal termination of Gaussian 16 at Tue Apr  8 21:47:53 2025.
