 Gaussian 16, Revision C.01,

 ----------------------------------------------------------------------
 #t hf aug-cc-pvdz symm=none int=(grid=ultrafine) guess=(read,tcheck) s
 table=(opt,rrhf)
 ----------------------------------------------------------------------
 -----
 title
 -----
 Symbolic Z-matrix:
 Charge =  0 Multiplicity = 1

 SCF Done:  E(RHF) =  -528.736581913     A.U. after   14 cycles
 Normal termination of Gaussian 16 at Tue Apr  8 22:18:21 2025.
 Gaussian 16:  ES64L-G16RevC.01  3-Jul-2019

 ----------------------------------------------------------------------
 #t hf aug-cc-pvdz iop(5/13=1,5/36=2,99/5=2) pseudo=read geom=check gue
 ss=(read,tcheck) scf=(maxcycle=1)
 ----------------------------------------------------------------------
 -----
 title
 -----
 Structure from the checkpoint file:  "ANI1ccx_998_conf3_mol1.chk"
 Charge =  0 Multiplicity = 1

                         Standard orientation:
 ---------------------------------------------------------------------
 Center     Atomic      Atomic             Coordinates (Angstroms)
 Number     Number       Type             X           Y           Z
 ---------------------------------------------------------------------
      1          6           0        0.920029    0.109761    0.366080
      2          6           0        2.321420   -0.247920   -0.072568
      3          6           0       -0.096618   -0.997719    0.126670
      4          6           0       -1.421100   -0.745339    0.885825
      5          6           0       -2.456600   -0.047399    0.059751
      6          1           0        2.763769    1.296411    0.817788
      7          1           0       -3.127251    1.694229   -0.598124
      8          1           0       -1.882950   -1.704160    1.175630
      9          1           0       -1.197190   -0.162632    1.790670
     10          1           0       -1.432281    1.748380   -0.241366
     11          1           0        1.199789    2.040840   -0.127565
     12          1           0        0.469690    1.116050   -1.342680
     13          1           0        0.974601    0.280219    1.457870
     14          1           0       -0.211014   -1.156550   -0.948716
     15          1           0        0.340385   -1.973800    0.378555
     16          7           0        0.513840    1.325710   -0.339139
     17          7           0       -2.341201    1.309609   -0.100904
     18          8           0       -3.376500   -0.673372   -0.471025
     19          8           0        2.502860   -1.126789   -0.868746
     20          8           0        3.285040    0.543346    0.405233
 ---------------------------------------------------------------------

 SCF Done:  E(RHF) =  -529.272449198     A.U. after    2 cycles

 The electronic state is 1-A.
 Alpha  occ. eigenvalues --  -20.63506 -20.55047 -20.50638 -15.54719 -15.50718
 Alpha  occ. eigenvalues --  -11.40379 -11.35350 -11.31359 -11.26211 -11.25590
 Alpha  occ. eigenvalues --   -1.57178  -1.47742  -1.44493  -1.25274  -1.20576
 Alpha  occ. eigenvalues --   -1.08732  -0.99899  -0.90242  -0.83716  -0.80695
 Alpha  occ. eigenvalues --   -0.77687  -0.76745  -0.73881  -0.70054  -0.68627
 Alpha  occ. eigenvalues --   -0.67517  -0.63245  -0.62719  -0.61036  -0.59407
 Alpha  occ. eigenvalues --   -0.58431  -0.53434  -0.52980  -0.51751  -0.51533
 Alpha  occ. eigenvalues --   -0.49215  -0.44434  -0.42913  -0.41392
 Alpha virt. eigenvalues --    0.01481   0.03111   0.03813   0.04702   0.05374
 Alpha virt. eigenvalues --    0.05575   0.06524   0.06572   0.07968   0.08995
 Alpha virt. eigenvalues --    0.10017   0.10503   0.11499   0.12280   0.12898

 Mulliken charges:
               1
     1  C   -1.209721
     2  C    2.380113
     3  C    0.046717
     4  C   -0.323000
     5  C    0.502398
     6  H    0.444125
     7  H    0.128903
     8  H    0.109265
     9  H    0.234040
    10  H    0.142186
    11  H    0.223379
    12  H    0.354058
    13  H    0.111160
    14  H    0.196028
    15  H    0.028580
    16  N   -0.094991
    17  N    0.662846
    18  O   -1.359598
    19  O   -1.265304
    20  O   -1.311183
 Sum of Mulliken charges =  -0.00000

 Dipole moment (field-independent basis, Debye):
    X=              2.3470    Y=              4.1867    Z=              2.3210  Tot=              5.3314

 Test job not archived.
 1\1\GINC-SE105\SP\RHF\Aug-CC-pVDZ\C5H10N2O3\OHZDE\08-Apr-2025\0\\#t hf
  aug-cc-pvdz iop(5/13=1,5/36=2,99/5=2) pseudo=read geom=check guess=(r
 ead,tcheck) scf=(maxcycle=1)\\title\\0,1\C,0,0.920029,0.109761,0.36608
 \C,0,2.32142,-0.247921,-0.0725674\C,0,-0.096618,-0.997719,0.12667\C,0,
 -1.4211,-0.745339,0.885825\C,0,-2.4566,-0.0473987,0.0597514\H,0,2.7637
 7,1.29641,0.817788\H,0,-3.12725,1.69423,-0.598124\H,0,-1.88295,-1.7041
 6,1.17563\H,0,-1.19719,-0.162632,1.79067\H,0,-1.43228,1.74838,-0.24136
 6\H,0,1.19979,2.04084,-0.127565\H,0,0.469691,1.11605,-1.34268\H,0,0.97

 Normal termination of Gaussian 16 at Tue Apr  8 22:18:33 2025.
