 Gaussian 16, Revision C.01,

 ----------------------------------------------------------------------
 #t hf aug-cc-pvdz symm=none int=(grid=ultrafine) guess=(read,tcheck) s
 table=(opt,rrhf)
 ----------------------------------------------------------------------
 -----
 title
 -----
 Symbolic Z-matrix:
 Charge =  0 Multiplicity = 1

 SCF Done:  E(RHF) =  -256.793898663     A.U. after   15 cycles
 Normal termination of Gaussian 16 at Tue Apr  8 21:30:30 2025.
 Gaussian 16:  ES64L-G16RevC.01  3-Jul-2019

 ----------------------------------------------------------------------
 #t hf aug-cc-pvdz iop(5/13=1,5/36=2,99/5=2) pseudo=read geom=check gue
 ss=(read,tcheck) scf=(maxcycle=1)
 ----------------------------------------------------------------------
 -----
 title
 -----
 Structure from the checkpoint file:  "ANI1ccx_377_conf38_mol1.chk"
 Charge =  0 Multiplicity = 1

                         Standard orientation:
 ---------------------------------------------------------------------
 Center     Atomic      Atomic             Coordinates (Angstroms)
 Number     Number       Type             X           Y           Z
 ---------------------------------------------------------------------
      1          6           0       -1.047581   -0.264291   -0.026496
      2          1           0       -2.101832   -0.532347   -0.028969
      3          1           0        1.829167   -0.794344    0.057945
      4          7           0       -0.610075    0.992243    0.031230
      5          7           0        0.683296    0.915193   -0.016382
      6          7           0        0.958938   -0.333605   -0.016154
      7          7           0       -0.095281   -1.157768    0.019878
 ---------------------------------------------------------------------

 SCF Done:  E(RHF) =  -257.056518111     A.U. after    2 cycles

 The electronic state is 1-A.
 Alpha  occ. eigenvalues --  -15.64803 -15.61686 -15.56864 -15.54955 -11.30998
 Alpha  occ. eigenvalues --   -1.52301  -1.29171  -1.22852  -0.98751  -0.94268
 Alpha  occ. eigenvalues --   -0.84721  -0.74850  -0.68104  -0.62974  -0.56764
 Alpha  occ. eigenvalues --   -0.53483  -0.50204  -0.47066
 Alpha virt. eigenvalues --    0.02811   0.05235   0.06725   0.08416   0.09309
 Alpha virt. eigenvalues --    0.10005   0.11758   0.14511   0.15191   0.15715
 Alpha virt. eigenvalues --    0.16771   0.17158   0.17832   0.19979   0.21442

 Mulliken charges:
               1
     1  C   -0.198573
     2  H    0.002049
     3  H    0.075028
     4  N    0.262724
     5  N   -0.357299
     6  N    0.012307
     7  N    0.203765
 Sum of Mulliken charges =  -0.00000

 Dipole moment (field-independent basis, Debye):
    X=              0.7240    Y=             -2.0043    Z=              0.0037  Tot=              2.1310

 Test job not archived.
 1\1\GINC-SE041\SP\RHF\Aug-CC-pVDZ\C1H2N4\OHZDE\08-Apr-2025\0\\#t hf au
 g-cc-pvdz iop(5/13=1,5/36=2,99/5=2) pseudo=read geom=check guess=(read
 ,tcheck) scf=(maxcycle=1)\\title\\0,1\C,0,-1.04758,-0.264296,-0.026495
 6\H,0,-2.10183,-0.532356,-0.0289694\H,0,1.82917,-0.794338,0.0579447\N,
 0,-0.610079,0.992239,0.0312297\N,0,0.683292,0.915194,-0.0163821\N,0,0.
 958939,-0.333602,-0.0161541\N,0,-0.0952772,-1.15777,0.0198777\\Version
 =ES64L-G16RevC.01\State=1-A\HF=-257.0565181\RMSD=5.453e-02\Dipole=0.28
 48654,-0.7885353,0.001437\Quadrupole=5.6270424,-4.6972851,-0.9297573,-

 Normal termination of Gaussian 16 at Tue Apr  8 21:30:32 2025.
