 Gaussian 16, Revision C.01,

 ----------------------------------------------------------------------
 #t hf aug-cc-pvdz symm=none int=(grid=ultrafine) guess=(read,tcheck) s
 table=(opt,rrhf)
 ----------------------------------------------------------------------
 -----
 title
 -----
 Symbolic Z-matrix:
 Charge =  0 Multiplicity = 1

 SCF Done:  E(RHF) =  -809.797731327     A.U. after   14 cycles
 Normal termination of Gaussian 16 at Tue Apr  8 20:39:13 2025.
 Gaussian 16:  ES64L-G16RevC.01  3-Jul-2019

 ----------------------------------------------------------------------
 #t hf aug-cc-pvdz iop(5/13=1,5/36=2,99/5=2) pseudo=read geom=check gue
 ss=(read,tcheck) scf=(maxcycle=1)
 ----------------------------------------------------------------------
 -----
 title
 -----
 Structure from the checkpoint file:  "ANI1ccx_1634_conf9_mol1.chk"
 Charge =  0 Multiplicity = 1

                         Standard orientation:
 ---------------------------------------------------------------------
 Center     Atomic      Atomic             Coordinates (Angstroms)
 Number     Number       Type             X           Y           Z
 ---------------------------------------------------------------------
      1          6           0       -3.417370    0.005056    0.523167
      2          6           0       -2.210751   -0.760142   -0.013905
      3          6           0       -0.556742    1.093971    0.506166
      4          6           0       -0.165531    1.792781   -0.892446
      5          6           0        0.480448    1.238190    1.676751
      6          6           0        1.542330    0.142107    1.884011
      7          6           0        2.852740    0.231895    1.137581
      8          6           0        2.183259   -1.249061   -0.665317
      9          1           0        1.269551    2.733090   -1.687689
     10          1           0        3.936468   -2.123652    0.029359
     11          1           0        2.817658   -3.198901   -0.712253
     12          1           0        1.101768   -2.225460   -1.836679
     13          1           0        2.272190    0.785488   -0.725686
     14          1           0        3.266821    1.226178    1.219931
     15          1           0        3.523289   -0.523836    1.590331
     16          1           0        1.791100    0.251556    2.952661
     17          1           0        1.155169   -0.885177    1.712591
     18          1           0       -0.093743    1.326410    2.597401
     19          1           0        1.000401    2.192840    1.535451
     20          1           0       -1.442289    1.684431    0.794689
     21          1           0       -0.265824   -0.847102   -0.284129
     22          1           0       -3.238810    0.477792    1.511751
     23          1           0       -3.623880    0.858869   -0.114780
     24          1           0       -4.900221   -0.970420   -0.464578
     25          1           0       -4.506061   -1.667967    0.945669
     26          7           0       -4.615241   -0.771820    0.489899
     27          7           0       -0.939370   -0.246439    0.181565
     28          7           0        2.670080   -0.024245   -0.248759
     29          7           0        1.203459   -1.256860   -1.484099
     30          7           0        2.950578   -2.332781   -0.208684
     31          8           0       -2.327291   -1.891498   -0.448805
     32          8           0       -0.911033    1.908781   -1.810789
     33          8           0        1.088271    2.277980   -0.879093
 ---------------------------------------------------------------------

 SCF Done:  E(RHF) =  -810.624037356     A.U. after    2 cycles

 The electronic state is 1-A.
 Alpha  occ. eigenvalues --  -20.61695 -20.54698 -20.49585 -15.53388 -15.50235
 Alpha  occ. eigenvalues --  -15.50212 -15.47183 -15.47023 -11.40170 -11.35680
 Alpha  occ. eigenvalues --  -11.34188 -11.31038 -11.27248 -11.26372 -11.25454
 Alpha  occ. eigenvalues --  -11.24044  -1.57238  -1.47423  -1.44653  -1.30699
 Alpha  occ. eigenvalues --   -1.23103  -1.20053  -1.17880  -1.16205  -1.07621
 Alpha  occ. eigenvalues --   -1.00986  -0.94994  -0.93000  -0.87159  -0.85374
 Alpha  occ. eigenvalues --   -0.82158  -0.79237  -0.75643  -0.73408  -0.72844
 Alpha  occ. eigenvalues --   -0.71988  -0.70487  -0.69815  -0.69501  -0.66538
 Alpha  occ. eigenvalues --   -0.65686  -0.64459  -0.63208  -0.62546  -0.61770
 Alpha  occ. eigenvalues --   -0.60395  -0.58679  -0.57577  -0.56358  -0.56119
 Alpha  occ. eigenvalues --   -0.53622  -0.51531  -0.50528  -0.50309  -0.48800
 Alpha  occ. eigenvalues --   -0.48208  -0.45651  -0.44655  -0.43836  -0.41462
 Alpha  occ. eigenvalues --   -0.40094  -0.39337
 Alpha virt. eigenvalues --    0.02598   0.02932   0.02992   0.03567   0.04389
 Alpha virt. eigenvalues --    0.04891   0.05127   0.05659   0.06482   0.07039
 Alpha virt. eigenvalues --    0.07651   0.07963   0.08672   0.09128   0.09318

 Mulliken charges:
               1
     1  C   -1.474002
     2  C    1.145978
     3  C   -1.680312
     4  C    2.626721
     5  C   -0.229678
     6  C   -0.247448
     7  C   -0.998329
     8  C   -2.839858
     9  H    0.416710
    10  H    0.170923
    11  H    0.118172
    12  H    0.223902
    13  H    0.248798
    14  H   -0.028158
    15  H    0.124943
    16  H    0.149268
    17  H    0.257718
    18  H    0.087574
    19  H    0.229680
    20  H    0.124586
    21  H    0.203250
    22  H    0.166884
    23  H    0.195590
    24  H    0.210956
    25  H    0.171822
    26  N    0.658830
    27  N    1.401003
    28  N    1.399774
    29  N    0.846800
    30  N    0.620083
    31  O   -1.359022
    32  O   -1.400435
    33  O   -1.542724
 Sum of Mulliken charges =  -0.00000

 Dipole moment (field-independent basis, Debye):
    X=              6.0560    Y=              1.6056    Z=              2.5980  Tot=              6.7825

 Test job not archived.
 1\1\GINC-SE460\SP\RHF\Aug-CC-pVDZ\C8H17N5O3\OHZDE\08-Apr-2025\0\\#t hf
  aug-cc-pvdz iop(5/13=1,5/36=2,99/5=2) pseudo=read geom=check guess=(r
 ead,tcheck) scf=(maxcycle=1)\\title\\0,1\C,0,-3.41737,0.0050533,0.5231
 66\C,0,-2.21075,-0.760144,-0.0139054\C,0,-0.556742,1.09397,0.506165\C,
 0,-0.165532,1.79278,-0.892447\C,0,0.480447,1.23819,1.67675\C,0,1.54233
 ,0.142108,1.88401\C,0,2.85274,0.231896,1.13758\C,0,2.18326,-1.24906,-0
 .665318\H,0,1.26955,2.73309,-1.68769\H,0,3.93647,-2.12365,0.0293588\H,
 0,2.81766,-3.1989,-0.712254\H,0,1.10177,-2.22546,-1.83668\H,0,2.27219,

 Normal termination of Gaussian 16 at Tue Apr  8 20:39:59 2025.
