 Gaussian 16, Revision C.01,

 ----------------------------------------------------------------------
 #t hf aug-cc-pvdz symm=none int=(grid=ultrafine) guess=(read,tcheck) s
 table=(opt,rrhf)
 ----------------------------------------------------------------------
 -----
 title
 -----
 Symbolic Z-matrix:
 Charge =  0 Multiplicity = 1

 SCF Done:  E(RHF) =  -351.492883508     A.U. after   15 cycles
 Normal termination of Gaussian 16 at Tue Apr  8 21:23:30 2025.
 Gaussian 16:  ES64L-G16RevC.01  3-Jul-2019

 ----------------------------------------------------------------------
 #t hf aug-cc-pvdz iop(5/13=1,5/36=2,99/5=2) pseudo=read geom=check gue
 ss=(read,tcheck) scf=(maxcycle=1)
 ----------------------------------------------------------------------
 -----
 title
 -----
 Structure from the checkpoint file:  "ANI1ccx_371_conf10_mol2.chk"
 Charge =  0 Multiplicity = 1

                         Standard orientation:
 ---------------------------------------------------------------------
 Center     Atomic      Atomic             Coordinates (Angstroms)
 Number     Number       Type             X           Y           Z
 ---------------------------------------------------------------------
      1          6           0        0.777060   -0.003833    0.004663
      2          1           0        0.070347    2.031271   -0.003123
      3          7           0       -0.118747    1.039441    0.004818
      4          7           0       -1.384420    0.592013   -0.003907
      5          7           0       -1.371260   -0.655319   -0.002400
      6          8           0        1.973830   -0.015983   -0.004897
      7          8           0       -0.050295   -1.089169    0.003093
 ---------------------------------------------------------------------

 SCF Done:  E(RHF) =  -351.834091860     A.U. after    2 cycles

 The electronic state is 1-A.
 Alpha  occ. eigenvalues --  -20.67303 -20.56220 -15.67170 -15.66332 -15.63076
 Alpha  occ. eigenvalues --  -11.46062  -1.65888  -1.51375  -1.43710  -1.28709
 Alpha  occ. eigenvalues --   -1.00515  -0.97805  -0.86711  -0.78601  -0.72051
 Alpha  occ. eigenvalues --   -0.68549  -0.64642  -0.61102  -0.60283  -0.59533
 Alpha  occ. eigenvalues --   -0.48861  -0.45958
 Alpha virt. eigenvalues --    0.02367   0.04820   0.08878   0.09547   0.09790
 Alpha virt. eigenvalues --    0.09961   0.11397   0.13015   0.14316   0.15527
 Alpha virt. eigenvalues --    0.16517   0.17747   0.18256   0.20263   0.22442

 Mulliken charges:
               1
     1  C    1.254716
     2  H    0.090381
     3  N    0.394340
     4  N   -0.746038
     5  N    1.253108
     6  O   -0.985023
     7  O   -1.261484
 Sum of Mulliken charges =  -0.00000

 Dipole moment (field-independent basis, Debye):
    X=             -0.8109    Y=              2.7349    Z=              0.0106  Tot=              2.8526

 Test job not archived.
 1\1\GINC-SE342\SP\RHF\Aug-CC-pVDZ\C1H1N3O2\OHZDE\08-Apr-2025\0\\#t hf
 aug-cc-pvdz iop(5/13=1,5/36=2,99/5=2) pseudo=read geom=check guess=(re
 ad,tcheck) scf=(maxcycle=1)\\title\\0,1\C,0,-0.77706,-0.00383295,-0.00
 466277\H,0,-0.0703458,2.03127,0.00312273\N,0,0.118748,1.03944,-0.00481
 847\N,0,1.38442,0.592012,0.00390733\N,0,1.37126,-0.65532,0.00240003\O,
 0,-1.97383,-0.0159825,0.00489723\O,0,0.0502951,-1.08917,-0.00309327\\V
 ersion=ES64L-G16RevC.01\State=1-A\HF=-351.8340919\RMSD=3.753e-02\Dipol
 e=0.3190352,1.0759788,-0.0041775\Quadrupole=-6.0780081,4.5303327,1.547

 Normal termination of Gaussian 16 at Tue Apr  8 21:23:32 2025.
