 Gaussian 16, Revision C.01,

 ----------------------------------------------------------------------
 #t hf aug-cc-pvdz symm=none int=(grid=ultrafine) guess=(read,tcheck) s
 table=(opt,rrhf)
 ----------------------------------------------------------------------
 -----
 title
 -----
 Symbolic Z-matrix:
 Charge =  0 Multiplicity = 1

 SCF Done:  E(RHF) =  -532.302131699     A.U. after   11 cycles
 Normal termination of Gaussian 16 at Tue Apr  8 21:10:04 2025.
 Gaussian 16:  ES64L-G16RevC.01  3-Jul-2019

 ----------------------------------------------------------------------
 #t hf aug-cc-pvdz iop(5/13=1,5/36=2,99/5=2) pseudo=read geom=check gue
 ss=(read,tcheck) scf=(maxcycle=1)
 ----------------------------------------------------------------------
 -----
 title
 -----
 Structure from the checkpoint file:  "ANI1ccx_1845_conf263_mol1.chk"
 Charge =  0 Multiplicity = 1

                         Standard orientation:
 ---------------------------------------------------------------------
 Center     Atomic      Atomic             Coordinates (Angstroms)
 Number     Number       Type             X           Y           Z
 ---------------------------------------------------------------------
      1          1           0       -1.771902    3.553669   -0.182087
      2          1           0        0.482562    2.064321    0.804846
      3          1           0        0.339052    0.948507   -0.171629
      4          1           0       -3.035419   -0.194225   -0.105162
      5          1           0       -3.906820    1.208297   -0.175591
      6          1           0       -1.821961    2.031129    0.133817
      7          1           0       -1.526967   -2.057831   -0.006521
      8          1           0        2.899672   -0.827169   -0.630939
      9          1           0       -2.914606   -2.633822    0.222064
     10          1           0        2.854480    1.050373   -0.193654
     11          1           0        4.266490    1.358504   -0.575307
     12          1           0        0.312772   -2.485369    1.085200
     13          1           0        0.747487   -2.357109   -0.335916
     14          1           0        1.555092   -0.608439    0.081358
     15          8           0       -1.225191    2.856629    0.161483
     16          8           0        2.138482   -1.314248   -0.136474
     17          8           0       -3.038609    0.745097   -0.345048
     18          8           0        3.747361    0.686237   -0.146187
     19          8           0        1.002180    1.400241    0.314365
     20          8           0       -2.471117   -1.854472   -0.059325
     21          8           0        0.036903   -2.650839    0.217378
 ---------------------------------------------------------------------

 SCF Done:  E(RHF) =  -532.857309072     A.U. after    2 cycles

 The electronic state is 1-A.
 Alpha  occ. eigenvalues --  -20.56329 -20.55621 -20.55419 -20.54907 -20.54668
 Alpha  occ. eigenvalues --  -20.54303 -20.54148  -1.46787  -1.46064  -1.44945
 Alpha  occ. eigenvalues --   -1.44134  -1.42882  -1.41890  -1.41647  -0.74135
 Alpha  occ. eigenvalues --   -0.73285  -0.73103  -0.72268  -0.72063  -0.70204
 Alpha  occ. eigenvalues --   -0.69000  -0.62252  -0.62026  -0.59544  -0.58847
 Alpha  occ. eigenvalues --   -0.56152  -0.54900  -0.53618  -0.51278  -0.50135
 Alpha  occ. eigenvalues --   -0.50089  -0.49465  -0.49072  -0.48562  -0.48279
 Alpha virt. eigenvalues --    0.03153   0.03913   0.04271   0.05600   0.06146
 Alpha virt. eigenvalues --    0.06480   0.07652   0.08721   0.09419   0.09620
 Alpha virt. eigenvalues --    0.10675   0.11757   0.12374   0.13752   0.17069

 Mulliken charges:
               1
     1  H    0.346330
     2  H    0.607474
     3  H    0.432171
     4  H    0.677070
     5  H    0.414704
     6  H    0.718983
     7  H    0.819317
     8  H    0.629947
     9  H    0.292780
    10  H    0.582695
    11  H    0.383197
    12  H    0.416190
    13  H    0.631893
    14  H    0.570362
    15  O   -0.977265
    16  O   -1.199145
    17  O   -1.049070
    18  O   -0.880785
    19  O   -1.145829
    20  O   -1.060433
    21  O   -1.210586
 Sum of Mulliken charges =  -0.00000

 Dipole moment (field-independent basis, Debye):
    X=             -2.4385    Y=              1.9725    Z=             -0.0136  Tot=              3.1364

 Test job not archived.
 1\1\GINC-SE095\SP\RHF\Aug-CC-pVDZ\H14O7\OHZDE\08-Apr-2025\0\\#t hf aug
 -cc-pvdz iop(5/13=1,5/36=2,99/5=2) pseudo=read geom=check guess=(read,
 tcheck) scf=(maxcycle=1)\\title\\0,1\H,0,-1.7719,3.55367,-0.182087\H,0
 ,0.482563,2.06432,0.804846\H,0,0.339052,0.948506,-0.171629\H,0,-3.0354
 2,-0.194223,-0.105162\H,0,-3.90682,1.2083,-0.175591\H,0,-1.82196,2.031
 13,0.133817\H,0,-1.52697,-2.05783,-0.00652038\H,0,2.89967,-0.827172,-0
 .630939\H,0,-2.91461,-2.63382,0.222064\H,0,2.85448,1.05037,-0.193654\H
 ,0,4.26649,1.3585,-0.575307\H,0,0.312769,-2.48537,1.0852\H,0,0.747484,

 Normal termination of Gaussian 16 at Tue Apr  8 21:10:11 2025.
