 Gaussian 16, Revision C.01,

 ----------------------------------------------------------------------
 #t hf aug-cc-pvdz symm=none int=(grid=ultrafine) guess=(read,tcheck) s
 table=(opt,rrhf)
 ----------------------------------------------------------------------
 -----
 title
 -----
 Symbolic Z-matrix:
 Charge =  0 Multiplicity = 1

 SCF Done:  E(RHF) =  -428.583735847     A.U. after   13 cycles
 Normal termination of Gaussian 16 at Tue Apr  8 21:37:49 2025.
 Gaussian 16:  ES64L-G16RevC.01  3-Jul-2019

 ----------------------------------------------------------------------
 #t hf aug-cc-pvdz iop(5/13=1,5/36=2,99/5=2) pseudo=read geom=check gue
 ss=(read,tcheck) scf=(maxcycle=1)
 ----------------------------------------------------------------------
 -----
 title
 -----
 Structure from the checkpoint file:  "ANI1ccx_419_conf3_mol1.chk"
 Charge =  0 Multiplicity = 1

                         Standard orientation:
 ---------------------------------------------------------------------
 Center     Atomic      Atomic             Coordinates (Angstroms)
 Number     Number       Type             X           Y           Z
 ---------------------------------------------------------------------
      1          6           0       -0.101237   -0.314412    0.035521
      2          1           0        1.895440    1.412558   -0.010049
      3          1           0       -0.767734    1.539309   -0.317814
      4          1           0       -1.606131   -1.654110    0.284140
      5          1           0       -3.008860    0.387229    0.319916
      6          1           0        2.565419   -1.560442   -0.163416
      7          7           0        0.073245    1.001209   -0.404933
      8          7           0       -1.431481   -0.658388    0.438679
      9          7           0        0.768364   -1.231641    0.155011
     10          8           0        1.047580    1.684729    0.402006
     11          8           0       -2.365690    0.075505   -0.338338
     12          8           0        2.025409   -0.762275   -0.269568
 ---------------------------------------------------------------------

 SCF Done:  E(RHF) =  -429.011653460     A.U. after    2 cycles

 The electronic state is 1-A.
 Alpha  occ. eigenvalues --  -20.61475 -20.59051 -20.59042 -15.58690 -15.57223
 Alpha  occ. eigenvalues --  -15.54786 -11.35483  -1.52380  -1.50589  -1.48110
 Alpha  occ. eigenvalues --   -1.25398  -1.13727  -1.11066  -0.84365  -0.79585
 Alpha  occ. eigenvalues --   -0.75583  -0.72154  -0.69410  -0.68470  -0.65885
 Alpha  occ. eigenvalues --   -0.63735  -0.62293  -0.54122  -0.52965  -0.51281
 Alpha  occ. eigenvalues --   -0.48701  -0.45474  -0.39079
 Alpha virt. eigenvalues --    0.03166   0.04861   0.05225   0.05888   0.06769
 Alpha virt. eigenvalues --    0.11090   0.11766   0.12971   0.13047   0.14609
 Alpha virt. eigenvalues --    0.15344   0.16436   0.17035   0.17887   0.19017

 Mulliken charges:
               1
     1  C   -1.369987
     2  H    0.384268
     3  H    0.186493
     4  H    0.198365
     5  H    0.346915
     6  H    0.323922
     7  N    1.048059
     8  N    0.978951
     9  N    1.344473
    10  O   -1.125487
    11  O   -1.135895
    12  O   -1.180076
 Sum of Mulliken charges =  -0.00000

 Dipole moment (field-independent basis, Debye):
    X=             -1.3546    Y=             -0.3004    Z=              0.2074  Tot=              1.4029

 Test job not archived.
 1\1\GINC-SE455\SP\RHF\Aug-CC-pVDZ\C1H5N3O3\OHZDE\08-Apr-2025\0\\#t hf
 aug-cc-pvdz iop(5/13=1,5/36=2,99/5=2) pseudo=read geom=check guess=(re
 ad,tcheck) scf=(maxcycle=1)\\title\\0,1\C,0,-0.101236,-0.314411,0.0355
 208\H,0,1.89544,1.41256,-0.0100491\H,0,-0.767734,1.53931,-0.317814\H,0
 ,-1.60613,-1.65411,0.28414\H,0,-3.00886,0.387229,0.319916\H,0,2.56542,
 -1.56044,-0.163416\N,0,0.0732448,1.00121,-0.404933\N,0,-1.43148,-0.658
 388,0.438679\N,0,0.768365,-1.23164,0.155011\O,0,1.04758,1.68473,0.4020
 06\O,0,-2.36569,0.0755049,-0.338338\O,0,2.02541,-0.762273,-0.269568\\V

 Normal termination of Gaussian 16 at Tue Apr  8 21:37:54 2025.
