 Gaussian 16, Revision C.01,

 ----------------------------------------------------------------------
 #t hf aug-cc-pvdz symm=none int=(grid=ultrafine) guess=(read,tcheck) s
 table=(opt,rrhf)
 ----------------------------------------------------------------------
 -----
 title
 -----
 Symbolic Z-matrix:
 Charge =  0 Multiplicity = 1

 SCF Done:  E(RHF) =  -369.118651206     A.U. after   13 cycles
 Normal termination of Gaussian 16 at Tue Apr  8 21:40:09 2025.
 Gaussian 16:  ES64L-G16RevC.01  3-Jul-2019

 ----------------------------------------------------------------------
 #t hf aug-cc-pvdz iop(5/13=1,5/36=2,99/5=2) pseudo=read geom=check gue
 ss=(read,tcheck) scf=(maxcycle=1)
 ----------------------------------------------------------------------
 -----
 title
 -----
 Structure from the checkpoint file:  "ANI1ccx_452_conf3_mol1.chk"
 Charge =  0 Multiplicity = 1

                         Standard orientation:
 ---------------------------------------------------------------------
 Center     Atomic      Atomic             Coordinates (Angstroms)
 Number     Number       Type             X           Y           Z
 ---------------------------------------------------------------------
      1          6           0       -0.169454   -0.237592   -0.055442
      2          1           0        2.033699    1.101950   -0.185022
      3          1           0        0.925639    1.648080   -1.243120
      4          1           0       -0.782302    1.732159    0.441194
      5          1           0       -1.416821   -1.582261   -0.590550
      6          1           0       -2.782241    0.735323   -0.240190
      7          1           0       -2.376171    0.186477    1.250960
      8          1           0        2.631979   -1.777810    0.102552
      9          1           0        2.056659   -0.725739    1.322620
     10          7           0        1.176739    1.731120   -0.257338
     11          7           0        0.034668    1.052560    0.363113
     12          7           0       -1.409071   -0.613984   -0.443197
     13          7           0       -2.533671   -0.129457    0.251481
     14          7           0        0.781182   -1.123750   -0.253432
     15          7           0        2.053909   -0.901149    0.264260
 ---------------------------------------------------------------------

 SCF Done:  E(RHF) =  -369.498591207     A.U. after    2 cycles

 The electronic state is 1-A.
 Alpha  occ. eigenvalues --  -15.55160 -15.54998 -15.53747 -15.52969 -15.52520
 Alpha  occ. eigenvalues --  -15.48882 -11.34249  -1.34904  -1.28057  -1.24422
 Alpha  occ. eigenvalues --   -1.13549  -1.06510  -1.02060  -0.84745  -0.79084
 Alpha  occ. eigenvalues --   -0.76119  -0.72715  -0.70219  -0.69047  -0.67156
 Alpha  occ. eigenvalues --   -0.65220  -0.60477  -0.53331  -0.50634  -0.50122
 Alpha  occ. eigenvalues --   -0.45586  -0.45029  -0.35151
 Alpha virt. eigenvalues --    0.02620   0.04599   0.05294   0.05637   0.05957
 Alpha virt. eigenvalues --    0.06189   0.06635   0.07336   0.11484   0.12203
 Alpha virt. eigenvalues --    0.12997   0.13868   0.14158   0.14702   0.16010

 Mulliken charges:
               1
     1  C   -1.988168
     2  H    0.166014
     3  H    0.219249
     4  H    0.165308
     5  H    0.166590
     6  H    0.145191
     7  H    0.128368
     8  H    0.160216
     9  H    0.238021
    10  N    0.023210
    11  N    0.259181
    12  N    0.139803
    13  N    0.149318
    14  N    0.147126
    15  N   -0.119428
 Sum of Mulliken charges =  -0.00000

 Dipole moment (field-independent basis, Debye):
    X=             -1.1254    Y=              0.9071    Z=              1.1433  Tot=              1.8430

 Test job not archived.
 1\1\GINC-SE247\SP\RHF\Aug-CC-pVDZ\C1H8N6\OHZDE\08-Apr-2025\0\\#t hf au
 g-cc-pvdz iop(5/13=1,5/36=2,99/5=2) pseudo=read geom=check guess=(read
 ,tcheck) scf=(maxcycle=1)\\title\\0,1\C,0,-0.169453,-0.237592,-0.05544
 15\H,0,2.0337,1.10195,-0.185022\H,0,0.92564,1.64808,-1.24312\H,0,-0.78
 2301,1.73216,0.441194\H,0,-1.41682,-1.58226,-0.59055\H,0,-2.78224,0.73
 5324,-0.24019\H,0,-2.37617,0.186478,1.25096\H,0,2.63198,-1.77781,0.102
 552\H,0,2.05666,-0.725739,1.32262\N,0,1.17674,1.73112,-0.257338\N,0,0.
 0346697,1.05256,0.363113\N,0,-1.40907,-0.613983,-0.443197\N,0,-2.53367

 Normal termination of Gaussian 16 at Tue Apr  8 21:40:14 2025.
