 Gaussian 16, Revision C.01,

 ----------------------------------------------------------------------
 #t hf aug-cc-pvdz symm=none int=(grid=ultrafine) guess=(read,tcheck) s
 table=(opt,rrhf)
 ----------------------------------------------------------------------
 -----
 title
 -----
 Symbolic Z-matrix:
 Charge =  0 Multiplicity = 1

 SCF Done:  E(RHF) =  -567.738732105     A.U. after   14 cycles
 Normal termination of Gaussian 16 at Tue Apr  8 19:22:54 2025.
 Gaussian 16:  ES64L-G16RevC.01  3-Jul-2019

 ----------------------------------------------------------------------
 #t hf aug-cc-pvdz iop(5/13=1,5/36=2,99/5=2) pseudo=read geom=check gue
 ss=(read,tcheck) scf=(maxcycle=1)
 ----------------------------------------------------------------------
 -----
 title
 -----
 Structure from the checkpoint file:  "ANI1ccx_1213_conf1_mol1.chk"
 Charge =  0 Multiplicity = 1

                         Standard orientation:
 ---------------------------------------------------------------------
 Center     Atomic      Atomic             Coordinates (Angstroms)
 Number     Number       Type             X           Y           Z
 ---------------------------------------------------------------------
      1          6           0        1.246539    0.441189    0.462334
      2          6           0        1.070511   -0.618153   -0.637658
      3          6           0        1.636678    1.782813   -0.202377
      4          6           0       -1.424739   -0.911609   -0.085189
      5          6           0       -1.752241    0.533987    0.119608
      6          6           0       -1.337838   -1.779930    1.174460
      7          1           0       -2.230632    1.983239   -1.013780
      8          1           0       -0.282158   -1.900949    1.393720
      9          1           0       -1.888789   -1.384891    2.073040
     10          1           0       -1.586997   -2.695691    0.882658
     11          1           0       -2.288399   -1.331601   -0.662590
     12          1           0       -0.353713   -1.310769   -1.802410
     13          1           0        0.745929    2.056862   -0.937853
     14          1           0        1.646057    2.631963    0.516120
     15          1           0        2.566858    1.725534   -0.735891
     16          1           0        0.347958    0.437009    0.998328
     17          1           0        2.746629    0.614877    1.906860
     18          1           0        3.087330   -0.254636    0.616384
     19          7           0        2.315810   -0.077741    1.271420
     20          7           0       -0.268610   -0.950753   -0.898739
     21          8           0        2.037311   -1.082077   -1.243240
     22          8           0       -1.605451    1.294339    1.032600
     23          8           0       -2.116101    1.030079   -1.143160
 ---------------------------------------------------------------------

 SCF Done:  E(RHF) =  -568.317844689     A.U. after    2 cycles

 The electronic state is 1-A.
 Alpha  occ. eigenvalues --  -20.60194 -20.56728 -20.52687 -15.53509 -15.48419
 Alpha  occ. eigenvalues --  -11.41309 -11.37059 -11.32061 -11.26815 -11.24695
 Alpha  occ. eigenvalues --  -11.24145  -1.55474  -1.46582  -1.46075  -1.27149
 Alpha  occ. eigenvalues --   -1.19595  -1.07681  -1.00649  -0.95894  -0.91049
 Alpha  occ. eigenvalues --   -0.83661  -0.78571  -0.74845  -0.74129  -0.72194
 Alpha  occ. eigenvalues --   -0.69877  -0.66001  -0.64628  -0.62566  -0.62370
 Alpha  occ. eigenvalues --   -0.61196  -0.59568  -0.58091  -0.57343  -0.54655
 Alpha  occ. eigenvalues --   -0.53609  -0.53272  -0.52568  -0.49128  -0.47382
 Alpha  occ. eigenvalues --   -0.43514  -0.42512  -0.42085
 Alpha virt. eigenvalues --    0.02965   0.03589   0.04008   0.04586   0.04914
 Alpha virt. eigenvalues --    0.05559   0.05760   0.06137   0.07920   0.08878
 Alpha virt. eigenvalues --    0.09227   0.09617   0.10463   0.11321   0.12295

 Mulliken charges:
               1
     1  C   -1.926206
     2  C    0.963075
     3  C   -0.207039
     4  C   -1.267272
     5  C    2.652723
     6  C    0.144802
     7  H    0.338467
     8  H    0.177577
     9  H    0.255606
    10  H   -0.084673
    11  H    0.192821
    12  H    0.232792
    13  H    0.353438
    14  H    0.177807
    15  H    0.120844
    16  H    0.135241
    17  H    0.159067
    18  H    0.307845
    19  N    0.704036
    20  N    0.830896
    21  O   -1.418777
    22  O   -1.404097
    23  O   -1.438973
 Sum of Mulliken charges =  -0.00000

 Dipole moment (field-independent basis, Debye):
    X=             -2.6473    Y=              1.0359    Z=             -0.1655  Tot=              2.8476

 Test job not archived.
 1\1\GINC-SE144\SP\RHF\Aug-CC-pVDZ\C6H12N2O3\OHZDE\08-Apr-2025\0\\#t hf
  aug-cc-pvdz iop(5/13=1,5/36=2,99/5=2) pseudo=read geom=check guess=(r
 ead,tcheck) scf=(maxcycle=1)\\title\\0,1\C,0,1.24654,0.441187,0.462334
 \C,0,1.07051,-0.618155,-0.637658\C,0,1.63668,1.78281,-0.202377\C,0,-1.
 42474,-0.911608,-0.0851885\C,0,-1.75224,0.533988,0.119608\C,0,-1.33784
 ,-1.77993,1.17446\H,0,-2.23063,1.98324,-1.01378\H,0,-0.28216,-1.90095,
 1.39372\H,0,-1.88879,-1.38489,2.07304\H,0,-1.587,-2.69569,0.882658\H,0
 ,-2.2884,-1.3316,-0.66259\H,0,-0.353714,-1.31077,-1.80241\H,0,0.745931

 Normal termination of Gaussian 16 at Tue Apr  8 19:23:11 2025.
