 Gaussian 16, Revision C.01,

 ----------------------------------------------------------------------
 #t hf aug-cc-pvdz symm=none int=(grid=ultrafine) guess=(read,tcheck) s
 table=(opt,rrhf)
 ----------------------------------------------------------------------
 -----
 title
 -----
 Symbolic Z-matrix:
 Charge =  0 Multiplicity = 1

 SCF Done:  E(RHF) =  -452.134529997     A.U. after   16 cycles
 Normal termination of Gaussian 16 at Tue Apr  8 21:57:46 2025.
 Gaussian 16:  ES64L-G16RevC.01  3-Jul-2019

 ----------------------------------------------------------------------
 #t hf aug-cc-pvdz iop(5/13=1,5/36=2,99/5=2) pseudo=read geom=check gue
 ss=(read,tcheck) scf=(maxcycle=1)
 ----------------------------------------------------------------------
 -----
 title
 -----
 Structure from the checkpoint file:  "ANI1ccx_859_conf2_mol1.chk"
 Charge =  0 Multiplicity = 1

                         Standard orientation:
 ---------------------------------------------------------------------
 Center     Atomic      Atomic             Coordinates (Angstroms)
 Number     Number       Type             X           Y           Z
 ---------------------------------------------------------------------
      1          6           0        1.372830   -0.033993    0.049744
      2          6           0        0.525457   -1.268959    0.225509
      3          6           0       -0.880297   -0.757073   -0.085569
      4          6           0       -0.722195    0.765448    0.003172
      5          1           0        0.410524   -1.514459    1.215870
      6          1           0        1.014430   -2.097359   -0.295317
      7          8           0        2.536040    0.013238   -0.257717
      8          8           0       -1.979100   -1.318019   -0.140275
      9          8           0       -1.558590    1.615281   -0.033768
     10          8           0        0.601683    1.111911    0.172049
 ---------------------------------------------------------------------

 SCF Done:  E(RHF) =  -452.568169726     A.U. after    2 cycles

 The electronic state is 1-A.
 Alpha  occ. eigenvalues --  -20.66723 -20.62414 -20.59991 -20.59423 -11.45230
 Alpha  occ. eigenvalues --  -11.44797 -11.42789 -11.32468  -1.62895  -1.54213
 Alpha  occ. eigenvalues --   -1.52279  -1.50125  -1.15345  -0.98882  -0.90276
 Alpha  occ. eigenvalues --   -0.82722  -0.75131  -0.74712  -0.71717  -0.69980
 Alpha  occ. eigenvalues --   -0.68093  -0.66282  -0.63219  -0.60286  -0.55928
 Alpha  occ. eigenvalues --   -0.54207  -0.50670  -0.48834  -0.46628
 Alpha virt. eigenvalues --    0.00913   0.02614   0.03869   0.06597   0.07038
 Alpha virt. eigenvalues --    0.08915   0.09301   0.10392   0.10524   0.11359
 Alpha virt. eigenvalues --    0.11623   0.13123   0.14227   0.14613   0.14806

 Mulliken charges:
               1
     1  C    1.987309
     2  C   -0.478514
     3  C    1.283003
     4  C    1.631290
     5  H    0.276282
     6  H    0.193549
     7  O   -1.215438
     8  O   -1.262060
     9  O   -1.153529
    10  O   -1.261892
 Sum of Mulliken charges =   0.00000

 Dipole moment (field-independent basis, Debye):
    X=              1.0772    Y=             -2.9257    Z=              0.9890  Tot=              3.2708

 Test job not archived.
 1\1\GINC-SE163\SP\RHF\Aug-CC-pVDZ\C4H2O4\OHZDE\08-Apr-2025\0\\#t hf au
 g-cc-pvdz iop(5/13=1,5/36=2,99/5=2) pseudo=read geom=check guess=(read
 ,tcheck) scf=(maxcycle=1)\\title\\0,1\C,0,1.37283,-0.0339933,0.0497444
 \C,0,0.525457,-1.26896,0.225509\C,0,-0.880297,-0.757074,-0.0855685\C,0
 ,-0.722195,0.765447,0.00317197\H,0,0.410524,-1.51446,1.21587\H,0,1.014
 43,-2.09736,-0.295317\O,0,2.53604,0.013237,-0.257717\O,0,-1.9791,-1.31
 802,-0.140275\O,0,-1.55859,1.61528,-0.0337683\O,0,0.601683,1.11191,0.1
 72049\\Version=ES64L-G16RevC.01\State=1-A\HF=-452.5681697\RMSD=1.393e-

 Normal termination of Gaussian 16 at Tue Apr  8 21:57:51 2025.
