 Gaussian 16, Revision C.01,

 ----------------------------------------------------------------------
 #t hf aug-cc-pvdz symm=none int=(grid=ultrafine) guess=(read,tcheck) s
 table=(opt,rrhf)
 ----------------------------------------------------------------------
 -----
 title
 -----
 Symbolic Z-matrix:
 Charge =  0 Multiplicity = 1

 SCF Done:  E(RHF) =  -456.229193556     A.U. after   11 cycles
 Normal termination of Gaussian 16 at Tue Apr  8 21:07:55 2025.
 Gaussian 16:  ES64L-G16RevC.01  3-Jul-2019

 ----------------------------------------------------------------------
 #t hf aug-cc-pvdz iop(5/13=1,5/36=2,99/5=2) pseudo=read geom=check gue
 ss=(read,tcheck) scf=(maxcycle=1)
 ----------------------------------------------------------------------
 -----
 title
 -----
 Structure from the checkpoint file:  "ANI1ccx_1844_conf347_mol1.chk"
 Charge =  0 Multiplicity = 1

                         Standard orientation:
 ---------------------------------------------------------------------
 Center     Atomic      Atomic             Coordinates (Angstroms)
 Number     Number       Type             X           Y           Z
 ---------------------------------------------------------------------
      1          1           0       -0.026506   -0.204029    1.755000
      2          1           0       -1.789544   -0.646531   -0.986285
      3          1           0       -1.457599   -2.223783   -1.497100
      4          1           0        1.916026   -0.589829    0.621007
      5          1           0        1.472082    0.887414    1.005620
      6          1           0       -0.035384    1.920230   -0.720333
      7          1           0       -1.109208   -1.233350    1.151520
      8          1           0        1.457247    2.538084   -0.914932
      9          1           0        1.562373   -0.314733   -1.266980
     10          1           0        0.650419   -1.512514   -0.886239
     11          1           0       -2.194189    2.113890   -0.033427
     12          1           0       -1.404486    0.745071    0.497752
     13          8           0        1.608791   -0.016533    1.411600
     14          8           0        1.579372   -1.247575   -0.963562
     15          8           0       -1.328386   -1.487482   -0.754180
     16          8           0        0.932867    1.625549   -0.821232
     17          8           0       -1.019226   -0.380873    1.642960
     18          8           0       -1.653572    1.321925   -0.356287
 ---------------------------------------------------------------------

 SCF Done:  E(RHF) =  -456.701211148     A.U. after    2 cycles

 The electronic state is 1-A.
 Alpha  occ. eigenvalues --  -20.58765 -20.57353 -20.56799 -20.54239 -20.53246
 Alpha  occ. eigenvalues --  -20.53036  -1.44724  -1.43122  -1.42798  -1.41272
 Alpha  occ. eigenvalues --   -1.40681  -1.38711  -0.73624  -0.70653  -0.69977
 Alpha  occ. eigenvalues --   -0.69316  -0.68630  -0.66863  -0.60771  -0.60207
 Alpha  occ. eigenvalues --   -0.58875  -0.57323  -0.55789  -0.53959  -0.51432
 Alpha  occ. eigenvalues --   -0.50133  -0.49609  -0.47612  -0.47200  -0.45459
 Alpha virt. eigenvalues --    0.02668   0.03396   0.04428   0.06497   0.07379
 Alpha virt. eigenvalues --    0.07757   0.07985   0.08673   0.09129   0.10477
 Alpha virt. eigenvalues --    0.10744   0.11278   0.16624   0.17588   0.18730

 Mulliken charges:
               1
     1  H    0.727180
     2  H    0.619383
     3  H    0.535558
     4  H    0.687559
     5  H    0.626539
     6  H    0.799760
     7  H    0.600873
     8  H    0.495405
     9  H    0.577952
    10  H    0.665017
    11  H    0.368346
    12  H    0.903397
    13  O   -1.319597
    14  O   -1.183023
    15  O   -1.264624
    16  O   -1.308359
    17  O   -1.362327
    18  O   -1.169039
 Sum of Mulliken charges =  -0.00000

 Dipole moment (field-independent basis, Debye):
    X=             -2.2940    Y=              2.5032    Z=             -2.9248  Tot=              4.4814

 Test job not archived.
 1\1\GINC-SE186\SP\RHF\Aug-CC-pVDZ\H12O6\OHZDE\08-Apr-2025\0\\#t hf aug
 -cc-pvdz iop(5/13=1,5/36=2,99/5=2) pseudo=read geom=check guess=(read,
 tcheck) scf=(maxcycle=1)\\title\\0,1\H,0,-0.0265078,-0.204029,1.755\H,
 0,-1.78955,-0.646515,-0.986285\H,0,-1.45762,-2.22377,-1.4971\H,0,1.916
 02,-0.589847,0.621007\H,0,1.47209,0.8874,1.00562\H,0,-0.0353667,1.9202
 3,-0.720333\H,0,-1.10922,-1.23334,1.15152\H,0,1.45727,2.53807,-0.91493
 2\H,0,1.56237,-0.314748,-1.26698\H,0,0.650405,-1.51252,-0.886239\H,0,-
 2.19417,2.11391,-0.0334275\H,0,-1.40448,0.745084,0.497752\O,0,1.60879,

 Normal termination of Gaussian 16 at Tue Apr  8 21:08:00 2025.
