 Gaussian 16, Revision C.01,

 ----------------------------------------------------------------------
 #t hf aug-cc-pvdz symm=none int=(grid=ultrafine) guess=(read,tcheck) s
 table=(opt,rrhf)
 ----------------------------------------------------------------------
 -----
 title
 -----
 Symbolic Z-matrix:
 Charge =  0 Multiplicity = 1

 SCF Done:  E(RHF) =  -603.582179230     A.U. after   15 cycles
 Normal termination of Gaussian 16 at Tue Apr  8 22:19:07 2025.
 Gaussian 16:  ES64L-G16RevC.01  3-Jul-2019

 ----------------------------------------------------------------------
 #t hf aug-cc-pvdz iop(5/13=1,5/36=2,99/5=2) pseudo=read geom=check gue
 ss=(read,tcheck) scf=(maxcycle=1)
 ----------------------------------------------------------------------
 -----
 title
 -----
 Structure from the checkpoint file:  "ANI1ccx_999_conf3_mol1.chk"
 Charge =  0 Multiplicity = 1

                         Standard orientation:
 ---------------------------------------------------------------------
 Center     Atomic      Atomic             Coordinates (Angstroms)
 Number     Number       Type             X           Y           Z
 ---------------------------------------------------------------------
      1          6           0        1.657431   -1.079619   -0.422740
      2          6           0        1.254780    0.146746    0.423811
      3          6           0       -1.200610    0.404675    0.432895
      4          6           0       -1.653769   -0.996296   -0.025719
      5          6           0       -1.113931    1.318689   -0.741552
      6          1           0       -0.737315   -1.511001    1.441660
      7          1           0        0.060910    2.672650   -0.235987
      8          1           0       -0.286355    1.008260   -1.455300
      9          1           0       -2.020301    1.226038   -1.263410
     10          1           0       -1.970970    0.775340    1.119690
     11          1           0        1.675021   -1.952509    0.256359
     12          1           0        0.899604   -1.297450   -1.202880
     13          1           0        3.491270   -0.269770   -0.207942
     14          1           0        2.874630   -0.184860   -1.682010
     15          1           0        0.179428    0.888161    1.950080
     16          7           0        2.997091   -0.850957   -0.913541
     17          7           0        0.056279    0.206820    1.153910
     18          8           0       -0.896826    2.680669   -0.271954
     19          8           0        2.108629    0.990290    0.646118
     20          8           0       -2.485079   -1.140332   -0.863967
     21          8           0       -1.127089   -1.982011    0.689424
 ---------------------------------------------------------------------

 SCF Done:  E(RHF) =  -604.189832046     A.U. after    2 cycles

 The electronic state is 1-A.
 Alpha  occ. eigenvalues --  -20.61198 -20.57731 -20.56546 -20.55172 -15.56301
 Alpha  occ. eigenvalues --  -15.50281 -11.40596 -11.39572 -11.32469 -11.31884
 Alpha  occ. eigenvalues --  -11.30353  -1.57283  -1.51156  -1.48358  -1.46957
 Alpha  occ. eigenvalues --   -1.27559  -1.20739  -1.07599  -0.98140  -0.92486
 Alpha  occ. eigenvalues --   -0.85383  -0.82021  -0.77202  -0.76223  -0.74138
 Alpha  occ. eigenvalues --   -0.71447  -0.70963  -0.68359  -0.66678  -0.66182
 Alpha  occ. eigenvalues --   -0.63422  -0.62054  -0.60998  -0.58980  -0.57907
 Alpha  occ. eigenvalues --   -0.54515  -0.54038  -0.50675  -0.49099  -0.48699
 Alpha  occ. eigenvalues --   -0.47563  -0.46039  -0.43805
 Alpha virt. eigenvalues --    0.02447   0.03346   0.04317   0.04821   0.05438
 Alpha virt. eigenvalues --    0.05640   0.05798   0.06613   0.07476   0.08747
 Alpha virt. eigenvalues --    0.10172   0.10466   0.11215   0.11826   0.12830

 Mulliken charges:
               1
     1  C   -1.140260
     2  C    0.362984
     3  C   -1.757254
     4  C    2.562275
     5  C    1.280999
     6  H    0.501346
     7  H    0.326665
     8  H    0.263922
     9  H   -0.015847
    10  H    0.202229
    11  H    0.232364
    12  H    0.143837
    13  H    0.217246
    14  H    0.237266
    15  H    0.391416
    16  N    0.369130
    17  N    0.955449
    18  O   -1.216348
    19  O   -1.306669
    20  O   -1.332073
    21  O   -1.278679
 Sum of Mulliken charges =   0.00000

 Dipole moment (field-independent basis, Debye):
    X=              0.6568    Y=              1.2482    Z=              2.1064  Tot=              2.5350

 Test job not archived.
 1\1\GINC-SE365\SP\RHF\Aug-CC-pVDZ\C5H10N2O4\OHZDE\08-Apr-2025\0\\#t hf
  aug-cc-pvdz iop(5/13=1,5/36=2,99/5=2) pseudo=read geom=check guess=(r
 ead,tcheck) scf=(maxcycle=1)\\title\\0,1\C,0,1.65743,-1.07962,-0.42274
 \C,0,1.25478,0.146746,0.423811\C,0,-1.20061,0.404676,0.432895\C,0,-1.6
 5377,-0.996295,-0.0257191\C,0,-1.11393,1.31869,-0.741552\H,0,-0.737316
 ,-1.511,1.44166\H,0,0.0609117,2.67265,-0.235987\H,0,-0.286354,1.00826,
 -1.4553\H,0,-2.0203,1.22604,-1.26341\H,0,-1.97097,0.775342,1.11969\H,0
 ,1.67502,-1.95251,0.256359\H,0,0.899603,-1.29745,-1.20288\H,0,3.49127,

 Normal termination of Gaussian 16 at Tue Apr  8 22:19:19 2025.
