 Gaussian 16, Revision C.01,

 ----------------------------------------------------------------------
 #t hf aug-cc-pvdz symm=none int=(grid=ultrafine) guess=(read,tcheck) s
 table=(opt,rrhf)
 ----------------------------------------------------------------------
 -----
 title
 -----
 Symbolic Z-matrix:
 Charge =  0 Multiplicity = 1

 SCF Done:  E(RHF) =  -371.628273560     A.U. after   16 cycles
 Normal termination of Gaussian 16 at Tue Apr  8 22:00:53 2025.
 Gaussian 16:  ES64L-G16RevC.01  3-Jul-2019

 ----------------------------------------------------------------------
 #t hf aug-cc-pvdz iop(5/13=1,5/36=2,99/5=2) pseudo=read geom=check gue
 ss=(read,tcheck) scf=(maxcycle=1)
 ----------------------------------------------------------------------
 -----
 title
 -----
 Structure from the checkpoint file:  "ANI1ccx_880_conf1_mol1.chk"
 Charge =  0 Multiplicity = 1

                         Standard orientation:
 ---------------------------------------------------------------------
 Center     Atomic      Atomic             Coordinates (Angstroms)
 Number     Number       Type             X           Y           Z
 ---------------------------------------------------------------------
      1          6           0        1.420900   -0.087474   -0.073745
      2          6           0       -0.149803    1.329310    0.010349
      3          6           0       -0.796289    0.115152   -0.038311
      4          6           0       -2.221250   -0.176914   -0.014223
      5          1           0        2.582420   -1.591780    0.560178
      6          1           0        3.412340   -0.087399    0.126918
      7          1           0       -0.620891    2.320539   -0.000804
      8          1           0        0.104532   -1.836230   -0.262600
      9          7           0        2.634680   -0.720566   -0.013466
     10          7           0        1.174710    1.192020    0.027519
     11          7           0        0.261603   -0.835904   -0.038805
     12          7           0       -3.356670   -0.476346    0.063593
 ---------------------------------------------------------------------

 SCF Done:  E(RHF) =  -371.996358821     A.U. after    2 cycles

 The electronic state is 1-A.
 Alpha  occ. eigenvalues --  -15.58541 -15.55410 -15.52422 -15.50097 -11.37812
 Alpha  occ. eigenvalues --  -11.31015 -11.30111 -11.29497  -1.37767  -1.24191
 Alpha  occ. eigenvalues --   -1.22475  -1.20737  -1.04292  -0.90321  -0.87654
 Alpha  occ. eigenvalues --   -0.82969  -0.76618  -0.71179  -0.69515  -0.67774
 Alpha  occ. eigenvalues --   -0.63288  -0.60876  -0.55354  -0.52193  -0.51049
 Alpha  occ. eigenvalues --   -0.49221  -0.48136  -0.34473
 Alpha virt. eigenvalues --    0.01683   0.03991   0.04808   0.05117   0.07634
 Alpha virt. eigenvalues --    0.07815   0.09117   0.09420   0.10349   0.11462
 Alpha virt. eigenvalues --    0.12067   0.12811   0.13222   0.13983   0.15277

 Mulliken charges:
               1
     1  C   -1.861186
     2  C   -0.206730
     3  C    0.778936
     4  C   -1.925464
     5  H    0.207726
     6  H    0.199983
     7  H   -0.095207
     8  H    0.008412
     9  N    0.639684
    10  N    0.554115
    11  N    0.727257
    12  N    0.972476
 Sum of Mulliken charges =   0.00000

 Dipole moment (field-independent basis, Debye):
    X=              5.4257    Y=             -1.9987    Z=              0.3940  Tot=              5.7955

 Test job not archived.
 1\1\GINC-SE058\SP\RHF\Aug-CC-pVDZ\C4H4N4\OHZDE\08-Apr-2025\0\\#t hf au
 g-cc-pvdz iop(5/13=1,5/36=2,99/5=2) pseudo=read geom=check guess=(read
 ,tcheck) scf=(maxcycle=1)\\title\\0,1\C,0,1.4209,-0.0874736,-0.0737448
 \C,0,-0.149803,1.32931,0.0103491\C,0,-0.796289,0.115153,-0.038311\C,0,
 -2.22125,-0.176913,-0.0142228\H,0,2.58242,-1.59178,0.560178\H,0,3.4123
 4,-0.0873993,0.126918\H,0,-0.620891,2.32054,-0.000804\H,0,0.104532,-1.
 83623,-0.2626\N,0,2.63468,-0.720566,-0.0134661\N,0,1.17471,1.19202,0.0
 275195\N,0,0.261603,-0.835904,-0.0388053\N,0,-3.35667,-0.476345,0.0635

 Normal termination of Gaussian 16 at Tue Apr  8 22:00:59 2025.
