 Gaussian 16, Revision C.01,

 ----------------------------------------------------------------------
 #t hf aug-cc-pvdz symm=none int=(grid=ultrafine) guess=(read,tcheck) s
 table=(opt,rrhf)
 ----------------------------------------------------------------------
 -----
 title
 -----
 Symbolic Z-matrix:
 Charge =  0 Multiplicity = 1

 SCF Done:  E(RHF) =  -557.492330726     A.U. after   16 cycles
 Normal termination of Gaussian 16 at Tue Apr  8 19:28:03 2025.
 Gaussian 16:  ES64L-G16RevC.01  3-Jul-2019

 ----------------------------------------------------------------------
 #t hf aug-cc-pvdz iop(5/13=1,5/36=2,99/5=2) pseudo=read geom=check gue
 ss=(read,tcheck) scf=(maxcycle=1)
 ----------------------------------------------------------------------
 -----
 title
 -----
 Structure from the checkpoint file:  "ANI1ccx_1322_conf3_mol1.chk"
 Charge =  0 Multiplicity = 1

                         Standard orientation:
 ---------------------------------------------------------------------
 Center     Atomic      Atomic             Coordinates (Angstroms)
 Number     Number       Type             X           Y           Z
 ---------------------------------------------------------------------
      1          6           0       -1.905000   -0.547735   -0.010162
      2          6           0       -0.595206    1.326931   -0.014334
      3          6           0        0.526564    0.468038    0.002083
      4          6           0        2.774270    0.189185    0.017550
      5          6           0        2.587720   -1.195020   -0.019575
      6          6           0        0.367224   -0.899112    0.012778
      7          1           0        3.472459   -1.864710    0.040542
      8          1           0        3.761470    0.576646    0.004257
      9          1           0        0.609771    2.928921    0.305498
     10          1           0       -1.139449    3.229121    0.319124
     11          1           0       -3.360341   -2.038068   -0.014744
     12          1           0       -3.966590   -0.479013   -0.212424
     13          7           0       -3.192900   -1.065488    0.038905
     14          7           0       -1.833040    0.787042   -0.089357
     15          7           0       -0.341695    2.671821   -0.012844
     16          7           0        1.772470    1.022550   -0.054046
     17          7           0        1.403009   -1.776340   -0.016954
     18          7           0       -0.937952   -1.411959    0.081112
 ---------------------------------------------------------------------

 SCF Done:  E(RHF) =  -558.046318139     A.U. after    2 cycles

 The electronic state is 1-A.
 Alpha  occ. eigenvalues --  -15.55186 -15.54479 -15.53346 -15.50421 -15.49858
 Alpha  occ. eigenvalues --  -15.47261 -11.36061 -11.35022 -11.32684 -11.31188
 Alpha  occ. eigenvalues --  -11.29183 -11.27986  -1.34390  -1.30239  -1.26609
 Alpha  occ. eigenvalues --   -1.22879  -1.18129  -1.16589  -1.07082  -0.96609
 Alpha  occ. eigenvalues --   -0.93735  -0.89685  -0.82124  -0.80892  -0.78088
 Alpha  occ. eigenvalues --   -0.74846  -0.72041  -0.69060  -0.68114  -0.66208
 Alpha  occ. eigenvalues --   -0.65317  -0.61902  -0.59177  -0.56671  -0.56053
 Alpha  occ. eigenvalues --   -0.52903  -0.49131  -0.48630  -0.45536  -0.43540
 Alpha  occ. eigenvalues --   -0.41858  -0.35065
 Alpha virt. eigenvalues --    0.01019   0.02755   0.03735   0.04216   0.04555
 Alpha virt. eigenvalues --    0.06260   0.07108   0.08547   0.08760   0.10014
 Alpha virt. eigenvalues --    0.10506   0.10800   0.11006   0.11321   0.12087

 Mulliken charges:
               1
     1  C   -1.305031
     2  C   -1.671372
     3  C   -0.411008
     4  C   -0.078637
     5  C   -0.478844
     6  C   -1.866670
     7  H   -0.088045
     8  H   -0.218175
     9  H    0.263746
    10  H    0.135836
    11  H    0.054808
    12  H    0.112354
    13  N    0.673006
    14  N    0.695739
    15  N    0.853382
    16  N    1.183598
    17  N    1.328107
    18  N    0.817207
 Sum of Mulliken charges =  -0.00000

 Dipole moment (field-independent basis, Debye):
    X=              2.0402    Y=              2.8371    Z=              0.5997  Tot=              3.5456

 Test job not archived.
 1\1\GINC-SE462\SP\RHF\Aug-CC-pVDZ\C6H6N6\OHZDE\08-Apr-2025\0\\#t hf au
 g-cc-pvdz iop(5/13=1,5/36=2,99/5=2) pseudo=read geom=check guess=(read
 ,tcheck) scf=(maxcycle=1)\\title\\0,1\C,0,-1.905,-0.547737,-0.0101624\
 C,0,-0.595207,1.32693,-0.0143338\C,0,0.526564,0.468037,0.00208279\C,0,
 2.77427,0.189185,0.0175502\C,0,2.58772,-1.19502,-0.019575\C,0,0.367224
 ,-0.899113,0.0127784\H,0,3.47246,-1.86471,0.0405415\H,0,3.76147,0.5766
 47,0.00425703\H,0,0.60977,2.92892,0.305498\H,0,-1.13945,3.22912,0.3191
 24\H,0,-3.36034,-2.03807,-0.0147444\H,0,-3.96659,-0.479015,-0.212424\N

 Normal termination of Gaussian 16 at Tue Apr  8 19:28:14 2025.
