 Gaussian 16, Revision C.01,

 ----------------------------------------------------------------------
 #t hf aug-cc-pvdz symm=none int=(grid=ultrafine) guess=(read,tcheck) s
 table=(opt,rrhf)
 ----------------------------------------------------------------------
 -----
 title
 -----
 Symbolic Z-matrix:
 Charge =  0 Multiplicity = 1

 SCF Done:  E(RHF) =  -963.587892760     A.U. after   15 cycles
 Normal termination of Gaussian 16 at Tue Apr  8 21:46:26 2025.
 Gaussian 16:  ES64L-G16RevC.01  3-Jul-2019

 ----------------------------------------------------------------------
 #t hf aug-cc-pvdz iop(5/13=1,5/36=2,99/5=2) pseudo=read geom=check gue
 ss=(read,tcheck) scf=(maxcycle=1)
 ----------------------------------------------------------------------
 -----
 title
 -----
 Structure from the checkpoint file:  "ANI1ccx_272_conf2_mol1.chk"
 Charge =  0 Multiplicity = 1

                         Standard orientation:
 ---------------------------------------------------------------------
 Center     Atomic      Atomic             Coordinates (Angstroms)
 Number     Number       Type             X           Y           Z
 ---------------------------------------------------------------------
      1          6           0        1.398384   -1.858107   -0.220065
      2          6           0       -2.470956    3.260215   -0.338326
      3          6           0       -1.685362    1.202486    1.012330
      4          6           0       -1.497100    0.169828   -0.050845
      5          6           0       -1.983895   -2.291484   -0.548368
      6          6           0       -1.646297   -1.268474    0.489465
      7          6           0       -1.491835    2.687647    0.686097
      8          6           0        3.313408    1.142257    0.552335
      9          6           0        2.686750    0.347972   -0.326102
     10          6           0        2.727313   -1.162334   -0.312511
     11          6           0        0.796524   -1.512699    1.206190
     12          6           0        2.587835    2.329775   -1.182660
     13          1           0       -1.034612    1.025878    1.858480
     14          1           0       -0.817546   -3.387892    0.434878
     15          1           0       -4.106384    2.059311   -0.004640
     16          1           0       -4.096327    3.536601    0.749065
     17          1           0       -2.265379    4.339115   -0.412524
     18          1           0       -2.230536    2.845085   -1.330320
     19          1           0       -1.596976    3.245076    1.627210
     20          1           0       -0.474883    2.857699    0.330583
     21          1           0       -2.689092    1.143984    1.417120
     22          1           0       -0.583439    0.289700   -0.682301
     23          1           0       -0.757737   -1.437822    2.367190
     24          1           0       -2.507047   -1.267975    1.123730
     25          1           0        0.903276   -0.878883   -1.935020
     26          1           0       -2.328820    0.298433   -0.780434
     27          1           0        1.691357   -2.908527   -0.101650
     28          1           0        3.297093   -1.458213    0.561692
     29          1           0        0.099371   -2.362860   -1.794200
     30          1           0        3.817868    0.929500    1.456380
     31          1           0        2.352614    3.218895   -1.735740
     32          1           0        3.720114    3.256738    0.242577
     33          1           0        3.280014   -1.513563   -1.210180
     34          7           0        0.490432   -1.564889   -1.287000
     35          7           0        2.178488    1.073664   -1.381860
     36          7           0        3.260875    2.422977   -0.005285
     37          7           0       -0.565654   -1.693621    1.425980
     38          7           0       -3.897236    3.029802   -0.116917
     39          8           0       -2.767965   -2.160556   -1.484340
     40          8           0        1.563633   -1.247737    2.087360
     41          8           0       -1.339402   -3.465243   -0.406970
 ---------------------------------------------------------------------

 SCF Done:  E(RHF) =  -964.573873526     A.U. after    2 cycles

 The electronic state is 1-A.
 Alpha  occ. eigenvalues --  -20.59340 -20.53154 -20.52520 -15.56753 -15.54540
 Alpha  occ. eigenvalues --  -15.49689 -15.48870 -15.48185 -11.39243 -11.36612
 Alpha  occ. eigenvalues --  -11.31662 -11.30729 -11.28773 -11.26642 -11.25768
 Alpha  occ. eigenvalues --  -11.25215 -11.24410 -11.23673 -11.22899 -11.22874
 Alpha  occ. eigenvalues --   -1.53644  -1.49206  -1.43168  -1.34596  -1.26022
 Alpha  occ. eigenvalues --   -1.20367  -1.18225  -1.17907  -1.09308  -1.06549
 Alpha  occ. eigenvalues --   -1.03400  -1.00836  -0.95500  -0.91489  -0.87435
 Alpha  occ. eigenvalues --   -0.86979  -0.84149  -0.81262  -0.80200  -0.78477
 Alpha  occ. eigenvalues --   -0.76954  -0.74521  -0.73231  -0.72237  -0.70829
 Alpha  occ. eigenvalues --   -0.69732  -0.66461  -0.66305  -0.65313  -0.65021
 Alpha  occ. eigenvalues --   -0.63804  -0.63774  -0.63245  -0.61881  -0.61407
 Alpha  occ. eigenvalues --   -0.59673  -0.59493  -0.57634  -0.56813  -0.55762
 Alpha  occ. eigenvalues --   -0.54186  -0.53868  -0.53472  -0.52889  -0.49794
 Alpha  occ. eigenvalues --   -0.48772  -0.48465  -0.47651  -0.46650  -0.46399
 Alpha  occ. eigenvalues --   -0.45037  -0.44279  -0.42735  -0.41914  -0.40301
 Alpha  occ. eigenvalues --   -0.34389
 Alpha virt. eigenvalues --    0.01954   0.02760   0.03424   0.03531   0.03876
 Alpha virt. eigenvalues --    0.04370   0.04545   0.05010   0.05585   0.05939
 Alpha virt. eigenvalues --    0.06951   0.06969   0.07595   0.08176   0.08309

 Mulliken charges:
               1
     1  C   -1.311914
     2  C   -0.934060
     3  C   -0.365283
     4  C   -0.343741
     5  C    3.079200
     6  C   -1.544419
     7  C   -0.030723
     8  C    0.225550
     9  C   -0.652125
    10  C   -0.530323
    11  C    0.916739
    12  C   -1.116699
    13  H   -0.013201
    14  H    0.620915
    15  H    0.107959
    16  H    0.228968
    17  H    0.091293
    18  H    0.193688
    19  H    0.155798
    20  H    0.164473
    21  H    0.191265
    22  H    0.047409
    23  H    0.474673
    24  H    0.226770
    25  H    0.377874
    26  H    0.209934
    27  H    0.103356
    28  H    0.206691
    29  H    0.251022
    30  H   -0.372308
    31  H   -0.245925
    32  H   -0.107998
    33  H    0.201393
    34  N    0.532075
    35  N    1.432950
    36  N    0.863337
    37  N    0.950958
    38  N    0.398827
    39  O   -1.609200
    40  O   -1.547227
    41  O   -1.527972
 Sum of Mulliken charges =  -0.00000

 Dipole moment (field-independent basis, Debye):
    X=              4.9895    Y=              3.3843    Z=              3.8145  Tot=              7.1344

 Test job not archived.
 1\1\GINC-SE009\SP\RHF\Aug-CC-pVDZ\C12H21N5O3\OHZDE\08-Apr-2025\0\\#t h
 f aug-cc-pvdz iop(5/13=1,5/36=2,99/5=2) pseudo=read geom=check guess=(
 read,tcheck) scf=(maxcycle=1)\\title\\0,1\C,0,1.39838,-1.85811,-0.2200
 65\C,0,-2.47095,3.26022,-0.338326\C,0,-1.68536,1.20249,1.01233\C,0,-1.
 4971,0.169831,-0.0508449\C,0,-1.9839,-2.29148,-0.548368\C,0,-1.6463,-1
 .26847,0.489465\C,0,-1.49183,2.68765,0.686097\C,0,3.31341,1.14225,0.55
 2335\C,0,2.68675,0.347967,-0.326102\C,0,2.72731,-1.16234,-0.312511\C,0
 ,0.79652,-1.5127,1.20619\C,0,2.58784,2.32977,-1.18266\H,0,-1.03461,1.0

 Normal termination of Gaussian 16 at Tue Apr  8 21:48:03 2025.
