 Gaussian 16, Revision C.01,

 ----------------------------------------------------------------------
 #t hf aug-cc-pvdz symm=none int=(grid=ultrafine) guess=(read,tcheck) s
 table=(opt,rrhf)
 ----------------------------------------------------------------------
 -----
 title
 -----
 Symbolic Z-matrix:
 Charge =  0 Multiplicity = 1

 SCF Done:  E(RHF) =  -431.388376843     A.U. after   15 cycles
 Normal termination of Gaussian 16 at Tue Apr  8 21:43:52 2025.
 Gaussian 16:  ES64L-G16RevC.01  3-Jul-2019

 ----------------------------------------------------------------------
 #t hf aug-cc-pvdz iop(5/13=1,5/36=2,99/5=2) pseudo=read geom=check gue
 ss=(read,tcheck) scf=(maxcycle=1)
 ----------------------------------------------------------------------
 -----
 title
 -----
 Structure from the checkpoint file:  "ANI1ccx_499_conf14_mol1.chk"
 Charge =  0 Multiplicity = 1

                         Standard orientation:
 ---------------------------------------------------------------------
 Center     Atomic      Atomic             Coordinates (Angstroms)
 Number     Number       Type             X           Y           Z
 ---------------------------------------------------------------------
      1          6           0        0.066420    0.759439   -0.051094
      2          6           0       -1.011140   -0.346145    0.028292
      3          1           0        2.167801   -1.206848    0.706967
      4          1           0        1.932168    1.275272    0.183336
      5          1           0        0.291088   -1.602499   -0.582481
      6          7           0        1.331819    0.430930    0.396496
      7          8           0        1.952220   -0.758002   -0.086770
      8          8           0       -0.209023    1.901160   -0.341345
      9          8           0       -0.638580   -1.566600   -0.291127
     10          8           0       -2.110300   -0.071833    0.350932
 ---------------------------------------------------------------------

 SCF Done:  E(RHF) =  -431.807936336     A.U. after    2 cycles

 The electronic state is 1-A.
 Alpha  occ. eigenvalues --  -20.66390 -20.62209 -20.57627 -20.55770 -15.62594
 Alpha  occ. eigenvalues --  -11.41827 -11.40994  -1.58808  -1.56681  -1.51647
 Alpha  occ. eigenvalues --   -1.48760  -1.22087  -0.96505  -0.86596  -0.81389
 Alpha  occ. eigenvalues --   -0.78019  -0.75110  -0.69426  -0.68716  -0.66062
 Alpha  occ. eigenvalues --   -0.62840  -0.60269  -0.56989  -0.51644  -0.49299
 Alpha  occ. eigenvalues --   -0.48265  -0.45048
 Alpha virt. eigenvalues --    0.01964   0.04147   0.05123   0.07140   0.09225
 Alpha virt. eigenvalues --    0.10137   0.10554   0.11169   0.11606   0.12230
 Alpha virt. eigenvalues --    0.13775   0.15325   0.17045   0.17394   0.18119

 Mulliken charges:
               1
     1  C    0.463407
     2  C    1.995768
     3  H    0.319763
     4  H    0.245403
     5  H    0.548240
     6  N    0.952547
     7  O   -1.058306
     8  O   -1.172121
     9  O   -1.235894
    10  O   -1.058807
 Sum of Mulliken charges =   0.00000

 Dipole moment (field-independent basis, Debye):
    X=              5.5167    Y=             -2.0543    Z=              0.2890  Tot=              5.8938

 Test job not archived.
 1\1\GINC-SE179\SP\RHF\Aug-CC-pVDZ\C2H3N1O4\OHZDE\08-Apr-2025\0\\#t hf
 aug-cc-pvdz iop(5/13=1,5/36=2,99/5=2) pseudo=read geom=check guess=(re
 ad,tcheck) scf=(maxcycle=1)\\title\\0,1\C,0,0.0664215,0.759439,-0.0510
 935\C,0,-1.01114,-0.346144,0.0282919\H,0,2.1678,-1.20685,0.706967\H,0,
 1.93217,1.27527,0.183336\H,0,0.291087,-1.6025,-0.582481\N,0,1.33182,0.
 430928,0.396496\O,0,1.95222,-0.758004,-0.0867701\O,0,-0.209021,1.90116
 ,-0.341345\O,0,-0.638581,-1.5666,-0.291127\O,0,-2.1103,-0.0718319,0.35
 0932\\Version=ES64L-G16RevC.01\State=1-A\HF=-431.8079363\RMSD=1.345e-0

 Normal termination of Gaussian 16 at Tue Apr  8 21:43:57 2025.
