 Gaussian 16, Revision C.01,

 ----------------------------------------------------------------------
 #t hf aug-cc-pvdz symm=none int=(grid=ultrafine) guess=(read,tcheck) s
 table=(opt,rrhf)
 ----------------------------------------------------------------------
 -----
 title
 -----
 Symbolic Z-matrix:
 Charge =  0 Multiplicity = 1

 SCF Done:  E(RHF) =  -276.593332781     A.U. after   15 cycles
 Normal termination of Gaussian 16 at Tue Apr  8 21:18:23 2025.
 Gaussian 16:  ES64L-G16RevC.01  3-Jul-2019

 ----------------------------------------------------------------------
 #t hf aug-cc-pvdz iop(5/13=1,5/36=2,99/5=2) pseudo=read geom=check gue
 ss=(read,tcheck) scf=(maxcycle=1)
 ----------------------------------------------------------------------
 -----
 title
 -----
 Structure from the checkpoint file:  "ANI1ccx_370_conf43_mol1.chk"
 Charge =  0 Multiplicity = 1

                         Standard orientation:
 ---------------------------------------------------------------------
 Center     Atomic      Atomic             Coordinates (Angstroms)
 Number     Number       Type             X           Y           Z
 ---------------------------------------------------------------------
      1          6           0       -1.022940    0.216952    0.030245
      2          1           0       -2.070509    0.346562    0.003046
      3          7           0       -0.151360    1.129161   -0.032680
      4          7           0        1.049041    0.497741    0.027263
      5          7           0        0.844199   -0.734698   -0.012336
      6          8           0       -0.498127   -0.986712   -0.007531
 ---------------------------------------------------------------------

 SCF Done:  E(RHF) =  -276.866542478     A.U. after    2 cycles

 The electronic state is 1-A.
 Alpha  occ. eigenvalues --  -20.69264 -15.65239 -15.62518 -15.56314 -11.38352
 Alpha  occ. eigenvalues --   -1.67896  -1.41562  -1.26845  -0.98148  -0.96665
 Alpha  occ. eigenvalues --   -0.81827  -0.76736  -0.70567  -0.63138  -0.57661
 Alpha  occ. eigenvalues --   -0.55943  -0.55411  -0.50480
 Alpha virt. eigenvalues --    0.03036   0.05352   0.07574   0.07906   0.08765
 Alpha virt. eigenvalues --    0.12729   0.14144   0.14210   0.15268   0.15894
 Alpha virt. eigenvalues --    0.17645   0.18772   0.20248   0.22779   0.24576

 Mulliken charges:
               1
     1  C    0.468187
     2  H    0.027413
     3  N    0.377315
     4  N   -0.840542
     5  N    1.204595
     6  O   -1.236968
 Sum of Mulliken charges =  -0.00000

 Dipole moment (field-independent basis, Debye):
    X=             -3.6995    Y=             -0.8666    Z=              0.0917  Tot=              3.8007

 Test job not archived.
 1\1\GINC-SE460\SP\RHF\Aug-CC-pVDZ\C1H1N3O1\OHZDE\08-Apr-2025\0\\#t hf
 aug-cc-pvdz iop(5/13=1,5/36=2,99/5=2) pseudo=read geom=check guess=(re
 ad,tcheck) scf=(maxcycle=1)\\title\\0,1\C,0,-1.02294,0.216948,0.030245
 4\H,0,-2.07051,0.346555,0.00304627\N,0,-0.151364,1.12916,-0.0326802\N,
 0,1.04904,0.497745,0.0272634\N,0,0.844202,-0.734695,-0.0123359\O,0,-0.
 498123,-0.986714,-0.00753123\\Version=ES64L-G16RevC.01\State=1-A\HF=-2
 76.8665425\RMSD=4.340e-02\Dipole=-1.4554781,-0.3409375,0.0360822\Quadr
 upole=2.6315259,-3.1746446,0.5431188,-0.2146695,-0.0744799,0.0412146\P

 Normal termination of Gaussian 16 at Tue Apr  8 21:18:24 2025.
