 Gaussian 16, Revision C.01,

 ----------------------------------------------------------------------
 #t hf aug-cc-pvdz symm=none int=(grid=ultrafine) guess=(read,tcheck) s
 table=(opt,rrhf)
 ----------------------------------------------------------------------
 -----
 title
 -----
 Symbolic Z-matrix:
 Charge =  0 Multiplicity = 1

 SCF Done:  E(RHF) =  -334.916975097     A.U. after   14 cycles
 Normal termination of Gaussian 16 at Tue Apr  8 21:52:09 2025.
 Gaussian 16:  ES64L-G16RevC.01  3-Jul-2019

 ----------------------------------------------------------------------
 #t hf aug-cc-pvdz iop(5/13=1,5/36=2,99/5=2) pseudo=read geom=check gue
 ss=(read,tcheck) scf=(maxcycle=1)
 ----------------------------------------------------------------------
 -----
 title
 -----
 Structure from the checkpoint file:  "ANI1ccx_726_conf3_mol2.chk"
 Charge =  0 Multiplicity = 1

                         Standard orientation:
 ---------------------------------------------------------------------
 Center     Atomic      Atomic             Coordinates (Angstroms)
 Number     Number       Type             X           Y           Z
 ---------------------------------------------------------------------
      1          6           0        0.503879   -0.568400    0.045822
      2          6           0       -1.640640   -0.706331   -0.005281
      3          6           0        0.062685    0.697992    0.027427
      4          1           0        2.204150   -1.273450    0.895592
      5          1           0        2.040490   -1.695410   -0.671816
      6          1           0       -2.706190   -1.048763    0.122194
      7          1           0       -1.922302    1.447978   -0.178071
      8          1           0        0.450980    2.557969    0.748820
      9          1           0        1.693608    1.883380   -0.183955
     10          7           0        1.900220   -0.910282   -0.043240
     11          7           0       -0.552883   -1.447591   -0.000867
     12          7           0       -1.316901    0.634014   -0.019086
     13          7           0        0.638668    1.950819   -0.099746
 ---------------------------------------------------------------------

 SCF Done:  E(RHF) =  -335.257624111     A.U. after    2 cycles

 The electronic state is 1-A.
 Alpha  occ. eigenvalues --  -15.54971 -15.52048 -15.49842 -15.48287 -11.30341
 Alpha  occ. eigenvalues --  -11.28479 -11.25990  -1.33870  -1.20835  -1.18792
 Alpha  occ. eigenvalues --   -1.13326  -0.98245  -0.85670  -0.81511  -0.76995
 Alpha  occ. eigenvalues --   -0.69504  -0.68535  -0.66489  -0.63617  -0.61863
 Alpha  occ. eigenvalues --   -0.60904  -0.51899  -0.48245  -0.46436  -0.43126
 Alpha  occ. eigenvalues --   -0.31172
 Alpha virt. eigenvalues --    0.02761   0.04347   0.04657   0.05170   0.06648
 Alpha virt. eigenvalues --    0.06779   0.09722   0.09896   0.11096   0.12495
 Alpha virt. eigenvalues --    0.12800   0.13446   0.14009   0.15159   0.15698

 Mulliken charges:
               1
     1  C   -1.763938
     2  C   -0.307770
     3  C   -1.578401
     4  H    0.304830
     5  H    0.148986
     6  H    0.030581
     7  H   -0.026071
     8  H    0.239010
     9  H    0.267849
    10  N    0.627591
    11  N    0.784014
    12  N    0.647701
    13  N    0.625618
 Sum of Mulliken charges =  -0.00000

 Dipole moment (field-independent basis, Debye):
    X=             -0.9541    Y=              2.3992    Z=              1.3693  Tot=              2.9226

 Test job not archived.
 1\1\GINC-SE453\SP\RHF\Aug-CC-pVDZ\C3H6N4\OHZDE\08-Apr-2025\0\\#t hf au
 g-cc-pvdz iop(5/13=1,5/36=2,99/5=2) pseudo=read geom=check guess=(read
 ,tcheck) scf=(maxcycle=1)\\title\\0,1\C,0,0.503879,-0.568399,0.0458224
 \C,0,-1.64064,-0.706329,-0.00528116\C,0,0.0626863,0.697993,0.0274274\H
 ,0,2.20415,-1.27345,0.895592\H,0,2.04049,-1.69541,-0.671816\H,0,-2.706
 19,-1.04876,0.122194\H,0,-1.9223,1.44798,-0.178071\H,0,0.450982,2.5579
 7,0.74882\H,0,1.69361,1.88338,-0.183955\N,0,1.90022,-0.910282,-0.04324
 \N,0,-0.552883,-1.44759,-0.00086732\N,0,-1.3169,0.634016,-0.0190855\N,

 Normal termination of Gaussian 16 at Tue Apr  8 21:52:14 2025.
