 Gaussian 16, Revision C.01,

 ----------------------------------------------------------------------
 #t hf aug-cc-pvdz symm=none int=(grid=ultrafine) guess=(read,tcheck) s
 table=(opt,rrhf)
 ----------------------------------------------------------------------
 -----
 title
 -----
 Symbolic Z-matrix:
 Charge =  0 Multiplicity = 1

 SCF Done:  E(RHF) =  -756.514818424     A.U. after   14 cycles
 Normal termination of Gaussian 16 at Tue Apr  8 19:51:32 2025.
 Gaussian 16:  ES64L-G16RevC.01  3-Jul-2019

 ----------------------------------------------------------------------
 #t hf aug-cc-pvdz iop(5/13=1,5/36=2,99/5=2) pseudo=read geom=check gue
 ss=(read,tcheck) scf=(maxcycle=1)
 ----------------------------------------------------------------------
 -----
 title
 -----
 Structure from the checkpoint file:  "ANI1ccx_1435_conf38_mol1.chk"
 Charge =  0 Multiplicity = 1

                         Standard orientation:
 ---------------------------------------------------------------------
 Center     Atomic      Atomic             Coordinates (Angstroms)
 Number     Number       Type             X           Y           Z
 ---------------------------------------------------------------------
      1          6           0        2.086050   -0.706394    0.369111
      2          6           0        0.871739   -0.832560   -0.448657
      3          6           0        2.329520    0.756097    0.769732
      4          6           0        2.562150    1.685840   -0.430685
      5          6           0       -1.526380   -0.571815   -0.540286
      6          6           0       -2.097880    0.918776   -0.618599
      7          6           0       -2.551760   -1.426150    0.277412
      8          1           0       -1.354960    2.752240   -0.282055
      9          1           0       -2.870770   -1.685530    2.100790
     10          1           0       -2.264480   -2.548340    0.163863
     11          1           0       -3.573490   -1.198030   -0.041490
     12          1           0       -1.304930   -0.950814   -1.488080
     13          1           0       -0.312887   -0.352034    1.064140
     14          1           0        2.949650    1.199810   -1.327820
     15          1           0        1.714310    2.303660   -0.799560
     16          1           0        3.269780    2.486520   -0.175398
     17          1           0        0.479070    1.501350    0.827644
     18          1           0        3.131390    0.718958    1.504020
     19          1           0        1.811170   -1.184150    1.323480
     20          1           0        3.336160   -1.283510   -1.164650
     21          1           0        3.140450   -2.421320   -0.071074
     22          7           0        3.153430   -1.472420   -0.241187
     23          7           0       -0.317096   -0.616220    0.130321
     24          8           0        0.992166   -1.180220   -1.585070
     25          8           0        1.108800    1.267830    1.536370
     26          8           0       -3.242750    1.117180   -1.008390
     27          8           0       -2.472190   -0.941564    1.580880
     28          8           0       -1.141700    1.779140   -0.164530
 ---------------------------------------------------------------------

 SCF Done:  E(RHF) =  -757.284247431     A.U. after    2 cycles

 The electronic state is 1-A.
 Alpha  occ. eigenvalues --  -20.63665 -20.57502 -20.56045 -20.54633 -20.50392
 Alpha  occ. eigenvalues --  -15.51473 -15.47386 -11.42106 -11.33924 -11.31189
 Alpha  occ. eigenvalues --  -11.31037 -11.29649 -11.27310 -11.24051  -1.55401
 Alpha  occ. eigenvalues --   -1.48588  -1.47720  -1.46843  -1.41949  -1.27588
 Alpha  occ. eigenvalues --   -1.19995  -1.06555  -1.03578  -0.96317  -0.91321
 Alpha  occ. eigenvalues --   -0.86794  -0.85112  -0.82953  -0.75345  -0.74091
 Alpha  occ. eigenvalues --   -0.73156  -0.71920  -0.70157  -0.67474  -0.67137
 Alpha  occ. eigenvalues --   -0.65596  -0.64497  -0.63871  -0.62195  -0.60290
 Alpha  occ. eigenvalues --   -0.59573  -0.58248  -0.58037  -0.57259  -0.52857
 Alpha  occ. eigenvalues --   -0.52201  -0.51079  -0.50267  -0.49246  -0.47782
 Alpha  occ. eigenvalues --   -0.46404  -0.45686  -0.43600  -0.41329  -0.40679
 Alpha virt. eigenvalues --    0.02843   0.03095   0.03920   0.04455   0.04556
 Alpha virt. eigenvalues --    0.05007   0.05382   0.05766   0.06940   0.07782
 Alpha virt. eigenvalues --    0.08168   0.08907   0.10022   0.10658   0.11564

 Mulliken charges:
               1
     1  C   -2.527731
     2  C    1.100654
     3  C    1.192450
     4  C   -0.265544
     5  C   -1.428067
     6  C    2.652364
     7  C    0.839031
     8  H    0.524125
     9  H    0.320628
    10  H    0.284407
    11  H    0.039780
    12  H   -0.107521
    13  H    0.361670
    14  H    0.108272
    15  H    0.076572
    16  H    0.123266
    17  H    0.717134
    18  H   -0.024740
    19  H    0.236391
    20  H    0.167006
    21  H    0.184807
    22  N    0.987437
    23  N    1.467373
    24  O   -1.510764
    25  O   -1.474376
    26  O   -1.328764
    27  O   -1.135927
    28  O   -1.579936
 Sum of Mulliken charges =   0.00000

 Dipole moment (field-independent basis, Debye):
    X=             -0.2980    Y=             -0.5618    Z=              1.1225  Tot=              1.2901

 Test job not archived.
 1\1\GINC-SE058\SP\RHF\Aug-CC-pVDZ\C7H14N2O5\OHZDE\08-Apr-2025\0\\#t hf
  aug-cc-pvdz iop(5/13=1,5/36=2,99/5=2) pseudo=read geom=check guess=(r
 ead,tcheck) scf=(maxcycle=1)\\title\\0,1\C,0,2.08605,-0.706394,0.36911
 1\C,0,0.871739,-0.83256,-0.448657\C,0,2.32952,0.756097,0.769732\C,0,2.
 56215,1.68584,-0.430685\C,0,-1.52638,-0.571815,-0.540286\C,0,-2.09788,
 0.918776,-0.618599\C,0,-2.55176,-1.42615,0.277412\H,0,-1.35496,2.75224
 ,-0.282055\H,0,-2.87077,-1.68553,2.10079\H,0,-2.26448,-2.54834,0.16386
 3\H,0,-3.57349,-1.19803,-0.0414898\H,0,-1.30493,-0.950814,-1.48808\H,0

 Normal termination of Gaussian 16 at Tue Apr  8 19:52:03 2025.
