 Gaussian 16, Revision C.01,

 ----------------------------------------------------------------------
 #t hf aug-cc-pvdz symm=none int=(grid=ultrafine) guess=(read,tcheck) s
 table=(opt,rrhf)
 ----------------------------------------------------------------------
 -----
 title
 -----
 Symbolic Z-matrix:
 Charge =  0 Multiplicity = 1

 SCF Done:  E(RHF) =  -752.425459576     A.U. after   15 cycles
 Normal termination of Gaussian 16 at Tue Apr  8 20:06:24 2025.
 Gaussian 16:  ES64L-G16RevC.01  3-Jul-2019

 ----------------------------------------------------------------------
 #t hf aug-cc-pvdz iop(5/13=1,5/36=2,99/5=2) pseudo=read geom=check gue
 ss=(read,tcheck) scf=(maxcycle=1)
 ----------------------------------------------------------------------
 -----
 title
 -----
 Structure from the checkpoint file:  "ANI1ccx_1572_conf15_mol2.chk"
 Charge =  0 Multiplicity = 1

                         Standard orientation:
 ---------------------------------------------------------------------
 Center     Atomic      Atomic             Coordinates (Angstroms)
 Number     Number       Type             X           Y           Z
 ---------------------------------------------------------------------
      1          6           0        3.881750   -1.043370    0.252296
      2          6           0        2.384050   -1.038170   -0.112687
      3          6           0        0.374337    0.180242   -0.385213
      4          6           0        0.023188    1.603719   -0.524037
      5          6           0       -0.555351   -0.421672    0.727007
      6          6           0       -2.011830   -0.394792    0.403367
      7          6           0       -2.536770   -1.172321   -0.585624
      8          6           0       -4.116610   -0.144189    0.580103
      9          1           0        0.444706    3.254499    0.135308
     10          1           0       -4.588750   -1.368461   -1.116840
     11          1           0       -5.109590    0.212821    0.869926
     12          1           0       -2.054540   -1.774211   -1.346130
     13          1           0       -0.433894    0.210337    1.624480
     14          1           0       -0.188669   -1.445691    0.939916
     15          1           0        0.158111   -0.426683   -1.258100
     16          1           0        2.141240    0.932636    0.425773
     17          1           0        3.994720   -1.538750    1.260480
     18          1           0        4.326480   -1.648160   -0.564478
     19          1           0        4.388690    0.714117   -0.559414
     20          1           0        5.271500    0.380171    0.771591
     21          7           0        4.307860    0.334224    0.371062
     22          7           0        1.749810    0.133205    0.032229
     23          7           0       -2.995190    0.180409    1.192040
     24          7           0       -3.926250   -0.983990   -0.509042
     25          8           0        1.756080   -2.012101   -0.562183
     26          8           0       -0.973821    2.067789   -1.001700
     27          8           0        0.847717    2.373529    0.199155
 ---------------------------------------------------------------------

 SCF Done:  E(RHF) =  -753.184984578     A.U. after    2 cycles

 The electronic state is 1-A.
 Alpha  occ. eigenvalues --  -20.60694 -20.53565 -20.50206 -15.55228 -15.52016
 Alpha  occ. eigenvalues --  -15.51616 -15.48525 -11.39003 -11.35397 -11.30419
 Alpha  occ. eigenvalues --  -11.29121 -11.28682 -11.25458 -11.24538 -11.24006
 Alpha  occ. eigenvalues --   -1.56771  -1.45634  -1.44368  -1.32058  -1.26417
 Alpha  occ. eigenvalues --   -1.20792  -1.16999  -1.07971  -1.01529  -0.95920
 Alpha  occ. eigenvalues --   -0.92764  -0.86453  -0.84810  -0.82461  -0.79021
 Alpha  occ. eigenvalues --   -0.76230  -0.75170  -0.71949  -0.71001  -0.68852
 Alpha  occ. eigenvalues --   -0.66543  -0.65686  -0.64121  -0.63405  -0.61934
 Alpha  occ. eigenvalues --   -0.61501  -0.60566  -0.59910  -0.57894  -0.57394
 Alpha  occ. eigenvalues --   -0.55106  -0.53579  -0.50433  -0.48008  -0.47360
 Alpha  occ. eigenvalues --   -0.46875  -0.45226  -0.43346  -0.41785  -0.40763
 Alpha  occ. eigenvalues --   -0.31996
 Alpha virt. eigenvalues --    0.02595   0.03343   0.04178   0.04615   0.04900
 Alpha virt. eigenvalues --    0.05167   0.05640   0.05831   0.06384   0.06754
 Alpha virt. eigenvalues --    0.08228   0.08851   0.09956   0.11035   0.11173

 Mulliken charges:
               1
     1  C   -1.024467
     2  C    0.927535
     3  C   -1.953438
     4  C    3.275469
     5  C   -0.204775
     6  C   -0.404782
     7  C   -0.188595
     8  C   -0.955666
     9  H    0.439963
    10  H   -0.105245
    11  H   -0.099362
    12  H   -0.291026
    13  H    0.272597
    14  H    0.220053
    15  H    0.066952
    16  H    0.342161
    17  H    0.246357
    18  H    0.229565
    19  H    0.207086
    20  H    0.132386
    21  N    0.325001
    22  N    1.162268
    23  N    1.103829
    24  N    0.789272
    25  O   -1.463168
    26  O   -1.480481
    27  O   -1.569492
 Sum of Mulliken charges =   0.00000

 Dipole moment (field-independent basis, Debye):
    X=              2.2663    Y=              0.2993    Z=             -1.2368  Tot=              2.5991

 Test job not archived.
 1\1\GINC-SE087\SP\RHF\Aug-CC-pVDZ\C8H12N4O3\OHZDE\08-Apr-2025\0\\#t hf
  aug-cc-pvdz iop(5/13=1,5/36=2,99/5=2) pseudo=read geom=check guess=(r
 ead,tcheck) scf=(maxcycle=1)\\title\\0,1\C,0,3.88175,-1.04337,0.252296
 \C,0,2.38405,-1.03817,-0.112687\C,0,0.374337,0.180243,-0.385213\C,0,0.
 0231878,1.60372,-0.524037\C,0,-0.555351,-0.421671,0.727007\C,0,-2.0118
 3,-0.394791,0.403367\C,0,-2.53677,-1.17232,-0.585624\C,0,-4.11661,-0.1
 44188,0.580103\H,0,0.444706,3.2545,0.135308\H,0,-4.58875,-1.36846,-1.1
 1684\H,0,-5.10959,0.212822,0.869926\H,0,-2.05454,-1.77421,-1.34613\H,0

 Normal termination of Gaussian 16 at Tue Apr  8 20:06:53 2025.
