 Gaussian 16, Revision C.01,

 ----------------------------------------------------------------------
 #t hf aug-cc-pvdz symm=none int=(grid=ultrafine) guess=(read,tcheck) s
 table=(opt,rrhf)
 ----------------------------------------------------------------------
 -----
 title
 -----
 Symbolic Z-matrix:
 Charge =  0 Multiplicity = 1

 SCF Done:  E(RHF) =  -456.227366888     A.U. after   11 cycles
 Normal termination of Gaussian 16 at Tue Apr  8 21:08:42 2025.
 Gaussian 16:  ES64L-G16RevC.01  3-Jul-2019

 ----------------------------------------------------------------------
 #t hf aug-cc-pvdz iop(5/13=1,5/36=2,99/5=2) pseudo=read geom=check gue
 ss=(read,tcheck) scf=(maxcycle=1)
 ----------------------------------------------------------------------
 -----
 title
 -----
 Structure from the checkpoint file:  "ANI1ccx_1844_conf546_mol1.chk"
 Charge =  0 Multiplicity = 1

                         Standard orientation:
 ---------------------------------------------------------------------
 Center     Atomic      Atomic             Coordinates (Angstroms)
 Number     Number       Type             X           Y           Z
 ---------------------------------------------------------------------
      1          1           0        2.945090   -1.237669    1.464690
      2          1           0        0.065060   -1.205180   -0.856235
      3          1           0        1.406180   -1.748140   -1.168600
      4          1           0       -2.241601    0.796100    0.627767
      5          1           0       -2.690110    0.448027    2.111020
      6          1           0       -2.336340   -1.686161    0.222207
      7          1           0        2.266540   -0.641879    0.430825
      8          1           0       -2.202060   -0.670237   -0.967887
      9          1           0        2.009479    1.082370    0.147694
     10          1           0        1.206809    0.659758   -1.166040
     11          1           0       -0.121505    1.624160   -0.136419
     12          1           0       -1.365871    2.480289   -0.188264
     13          8           0       -2.451310    0.077670    1.223940
     14          8           0        1.485369    1.489360   -0.590435
     15          8           0        0.966303   -1.136390   -0.558735
     16          8           0       -1.903180   -1.548011   -0.689302
     17          8           0        3.117800   -0.456778    0.961817
     18          8           0       -1.082691    1.586469   -0.412382
 ---------------------------------------------------------------------

 SCF Done:  E(RHF) =  -456.701027591     A.U. after    2 cycles

 The electronic state is 1-A.
 Alpha  occ. eigenvalues --  -20.58894 -20.55631 -20.55367 -20.55028 -20.54723
 Alpha  occ. eigenvalues --  -20.54238  -1.48719  -1.44843  -1.43264  -1.42727
 Alpha  occ. eigenvalues --   -1.41077  -1.40731  -0.74973  -0.72663  -0.70973
 Alpha  occ. eigenvalues --   -0.69612  -0.68461  -0.67735  -0.63109  -0.60409
 Alpha  occ. eigenvalues --   -0.60082  -0.58046  -0.56642  -0.53772  -0.51994
 Alpha  occ. eigenvalues --   -0.50740  -0.49138  -0.48730  -0.47879  -0.47569
 Alpha virt. eigenvalues --    0.03094   0.03482   0.04587   0.05621   0.06744
 Alpha virt. eigenvalues --    0.07601   0.07685   0.08813   0.09094   0.10546
 Alpha virt. eigenvalues --    0.11030   0.12331   0.18090   0.18318   0.19526

 Mulliken charges:
               1
     1  H    0.364342
     2  H    0.649683
     3  H    0.332714
     4  H    0.731419
     5  H    0.382553
     6  H    0.622662
     7  H    0.801255
     8  H    0.528755
     9  H    0.509026
    10  H    0.708995
    11  H    0.742948
    12  H    0.349204
    13  O   -1.013923
    14  O   -1.339505
    15  O   -1.118274
    16  O   -1.224953
    17  O   -0.969612
    18  O   -1.057288
 Sum of Mulliken charges =  -0.00000

 Dipole moment (field-independent basis, Debye):
    X=             -1.9063    Y=             -0.4402    Z=              0.7756  Tot=              2.1046

 Test job not archived.
 1\1\GINC-SE250\SP\RHF\Aug-CC-pVDZ\H12O6\OHZDE\08-Apr-2025\0\\#t hf aug
 -cc-pvdz iop(5/13=1,5/36=2,99/5=2) pseudo=read geom=check guess=(read,
 tcheck) scf=(maxcycle=1)\\title\\0,1\H,0,2.94509,-1.23767,1.46469\H,0,
 0.0650599,-1.20518,-0.856235\H,0,1.40618,-1.74814,-1.1686\H,0,-2.2416,
 0.796101,0.627767\H,0,-2.69011,0.448028,2.11102\H,0,-2.33634,-1.68616,
 0.222207\H,0,2.26654,-0.641879,0.430825\H,0,-2.20206,-0.670236,-0.9678
 87\H,0,2.00948,1.08237,0.147694\H,0,1.20681,0.659758,-1.16604\H,0,-0.1
 21504,1.62416,-0.136419\H,0,-1.36587,2.48029,-0.188264\O,0,-2.45131,0.

 Normal termination of Gaussian 16 at Tue Apr  8 21:08:47 2025.
