 Gaussian 16, Revision C.01,

 ----------------------------------------------------------------------
 #t hf aug-cc-pvdz symm=none int=(grid=ultrafine) guess=(read,tcheck) s
 table=(opt,rrhf)
 ----------------------------------------------------------------------
 -----
 title
 -----
 Symbolic Z-matrix:
 Charge =  0 Multiplicity = 1

 SCF Done:  E(RHF) =  -424.655639465     A.U. after   15 cycles
 Normal termination of Gaussian 16 at Tue Apr  8 21:43:56 2025.
 Gaussian 16:  ES64L-G16RevC.01  3-Jul-2019

 ----------------------------------------------------------------------
 #t hf aug-cc-pvdz iop(5/13=1,5/36=2,99/5=2) pseudo=read geom=check gue
 ss=(read,tcheck) scf=(maxcycle=1)
 ----------------------------------------------------------------------
 -----
 title
 -----
 Structure from the checkpoint file:  "ANI1ccx_507_conf10_mol1.chk"
 Charge =  0 Multiplicity = 1

                         Standard orientation:
 ---------------------------------------------------------------------
 Center     Atomic      Atomic             Coordinates (Angstroms)
 Number     Number       Type             X           Y           Z
 ---------------------------------------------------------------------
      1          6           0       -1.541700   -0.439189    0.092896
      2          6           0        0.023652    1.361660    0.032185
      3          1           0       -3.340240    0.594582   -0.482540
      4          1           0       -3.360070   -1.337130   -0.064320
      5          1           0        1.889170    1.696910   -0.072637
      6          7           0       -2.824290   -0.475259   -0.371779
      7          7           0       -0.969663    0.838353   -0.422275
      8          7           0        1.033990    1.988530    0.456819
      9          7           0        2.836040   -1.448621   -0.121926
     10          7           0        2.885890   -0.390612   -0.355912
     11          8           0       -0.851791   -1.259490    0.696815
 ---------------------------------------------------------------------

 SCF Done:  E(RHF) =  -425.062581731     A.U. after    2 cycles

 The electronic state is 1-A.
 Alpha  occ. eigenvalues --  -20.54761 -15.62230 -15.61850 -15.57370 -15.53734
 Alpha  occ. eigenvalues --  -15.53359 -11.43334 -11.38987  -1.51036  -1.48375
 Alpha  occ. eigenvalues --   -1.30383  -1.23897  -1.21035  -0.91920  -0.82509
 Alpha  occ. eigenvalues --   -0.78485  -0.76217  -0.72393  -0.69283  -0.68235
 Alpha  occ. eigenvalues --   -0.68156  -0.66664  -0.64505  -0.62417  -0.59048
 Alpha  occ. eigenvalues --   -0.50354  -0.48873  -0.46536  -0.44205
 Alpha virt. eigenvalues --    0.02255   0.05015   0.05149   0.08757   0.09273
 Alpha virt. eigenvalues --    0.09553   0.09951   0.10269   0.10719   0.10911
 Alpha virt. eigenvalues --    0.11944   0.12499   0.13362   0.13765   0.14797

 Mulliken charges:
               1
     1  C    0.472536
     2  C   -1.527283
     3  H    0.283359
     4  H    0.182219
     5  H    0.306903
     6  N    0.309550
     7  N    0.449393
     8  N    0.681783
     9  N   -0.097281
    10  N    0.063424
    11  O   -1.124603
 Sum of Mulliken charges =  -0.00000

 Dipole moment (field-independent basis, Debye):
    X=             -2.4154    Y=              0.1153    Z=             -1.3243  Tot=              2.7570

 Test job not archived.
 1\1\GINC-SE364\SP\RHF\Aug-CC-pVDZ\C2H3N5O1\OHZDE\08-Apr-2025\0\\#t hf
 aug-cc-pvdz iop(5/13=1,5/36=2,99/5=2) pseudo=read geom=check guess=(re
 ad,tcheck) scf=(maxcycle=1)\\title\\0,1\C,0,-1.5417,-0.439189,0.092896
 1\C,0,0.0236522,1.36166,0.0321851\H,0,-3.34024,0.594582,-0.48254\H,0,-
 3.36007,-1.33713,-0.0643203\H,0,1.88917,1.69691,-0.072637\N,0,-2.82429
 ,-0.475259,-0.371779\N,0,-0.969663,0.838353,-0.422275\N,0,1.03399,1.98
 853,0.456819\N,0,2.83604,-1.44862,-0.121926\N,0,2.88589,-0.390611,-0.3
 55912\O,0,-0.851791,-1.25949,0.696815\\Version=ES64L-G16RevC.01\State=

 Normal termination of Gaussian 16 at Tue Apr  8 21:44:00 2025.
