 Gaussian 16, Revision C.01,

 ----------------------------------------------------------------------
 #t hf aug-cc-pvdz symm=none int=(grid=ultrafine) guess=(read,tcheck) s
 table=(opt,rrhf)
 ----------------------------------------------------------------------
 -----
 title
 -----
 Symbolic Z-matrix:
 Charge =  0 Multiplicity = 1

 SCF Done:  E(RHF) =  -833.410532434     A.U. after   15 cycles
 Normal termination of Gaussian 16 at Tue Apr  8 21:02:04 2025.
 Gaussian 16:  ES64L-G16RevC.01  3-Jul-2019

 ----------------------------------------------------------------------
 #t hf aug-cc-pvdz iop(5/13=1,5/36=2,99/5=2) pseudo=read geom=check gue
 ss=(read,tcheck) scf=(maxcycle=1)
 ----------------------------------------------------------------------
 -----
 title
 -----
 Structure from the checkpoint file:  "ANI1ccx_1760_conf53_mol1.chk"
 Charge =  0 Multiplicity = 1

                         Standard orientation:
 ---------------------------------------------------------------------
 Center     Atomic      Atomic             Coordinates (Angstroms)
 Number     Number       Type             X           Y           Z
 ---------------------------------------------------------------------
      1          6           0        1.894291    1.040650   -0.882321
      2          6           0       -3.056119    1.791440   -0.496914
      3          6           0       -2.641579    0.848588    0.761444
      4          6           0       -1.822960   -1.099410   -0.534446
      5          6           0       -3.857300    0.050296    1.313181
      6          6           0        3.173200   -0.491164    0.552786
      7          6           0        3.288470    0.268600   -0.764296
      8          6           0        0.732268    0.144301   -0.610119
      9          6           0       -1.482510   -0.124875    0.626932
     10          1           0       -3.714579    2.570220   -0.181031
     11          1           0       -1.949820   -2.936820   -0.936489
     12          1           0       -4.019980   -0.849461    0.846608
     13          1           0       -3.515610   -0.201281    2.410751
     14          1           0       -4.701909    0.723953    1.438781
     15          1           0       -3.523179    1.027060   -1.182009
     16          1           0       -2.265689    2.410210   -0.953809
     17          1           0       -2.151819    1.636490    1.523931
     18          1           0       -0.129704    1.588520    0.412063
     19          1           0        2.046510   -0.995964    2.015381
     20          1           0        4.111031    0.917673   -0.663355
     21          1           0        3.298990   -0.513986   -1.492049
     22          1           0        1.790861    1.386040   -1.925089
     23          1           0        2.014411    2.156940    1.053111
     24          1           0        2.277361    3.055500   -0.271475
     25          1           0       -1.274040   -0.804854    1.512931
     26          7           0        1.828181    2.257770    0.042490
     27          7           0       -0.231330    0.620416    0.266645
     28          8           0       -1.817300   -0.720426   -1.710159
     29          8           0        0.858568   -0.980008   -1.041929
     30          8           0        3.992650   -1.285730    0.952468
     31          8           0        2.028700   -0.335582    1.244741
     32          8           0       -2.167290   -2.414270   -0.141325
 ---------------------------------------------------------------------

 SCF Done:  E(RHF) =  -834.247654511     A.U. after    2 cycles

 The electronic state is 1-A.
 Alpha  occ. eigenvalues --  -20.60063 -20.59922 -20.53864 -20.53019 -20.50479
 Alpha  occ. eigenvalues --  -15.52005 -15.50476 -11.40319 -11.39265 -11.35719
 Alpha  occ. eigenvalues --  -11.31480 -11.30371 -11.27843 -11.26778 -11.24328
 Alpha  occ. eigenvalues --  -11.23953  -1.54943  -1.51685  -1.46715  -1.44073
 Alpha  occ. eigenvalues --   -1.43451  -1.24212  -1.18594  -1.09510  -1.06289
 Alpha  occ. eigenvalues --   -0.98667  -0.94328  -0.93287  -0.85573  -0.82791
 Alpha  occ. eigenvalues --   -0.79112  -0.78291  -0.74361  -0.71451  -0.70729
 Alpha  occ. eigenvalues --   -0.70364  -0.69026  -0.68046  -0.66442  -0.65710
 Alpha  occ. eigenvalues --   -0.64470  -0.62311  -0.61630  -0.60856  -0.59515
 Alpha  occ. eigenvalues --   -0.58947  -0.58158  -0.57318  -0.57100  -0.55623
 Alpha  occ. eigenvalues --   -0.54053  -0.52137  -0.50983  -0.50287  -0.47712
 Alpha  occ. eigenvalues --   -0.46306  -0.46071  -0.45229  -0.43441  -0.42577
 Alpha  occ. eigenvalues --   -0.41758  -0.41424
 Alpha virt. eigenvalues --    0.02415   0.03199   0.03400   0.03962   0.04300
 Alpha virt. eigenvalues --    0.04488   0.05068   0.05275   0.06040   0.07051
 Alpha virt. eigenvalues --    0.07628   0.07921   0.08156   0.08820   0.09787

 Mulliken charges:
               1
     1  C   -1.190698
     2  C   -0.209924
     3  C   -0.664782
     4  C    3.109918
     5  C   -0.266892
     6  C    2.132801
     7  C   -0.248471
     8  C    0.953405
     9  C   -2.098381
    10  H    0.006302
    11  H    0.270919
    12  H    0.052906
    13  H    0.412801
    14  H    0.120366
    15  H    0.459980
    16  H    0.122231
    17  H    0.317078
    18  H    0.232941
    19  H    0.427819
    20  H    0.172545
    21  H    0.298575
    22  H    0.219233
    23  H    0.113687
    24  H    0.072301
    25  H   -0.010375
    26  N    0.669326
    27  N    1.714449
    28  O   -1.432539
    29  O   -1.650951
    30  O   -1.381989
    31  O   -1.363572
    32  O   -1.361010
 Sum of Mulliken charges =   0.00000

 Dipole moment (field-independent basis, Debye):
    X=             -0.8077    Y=              3.7013    Z=              1.9527  Tot=              4.2621

 Test job not archived.
 1\1\GINC-SE038\SP\RHF\Aug-CC-pVDZ\C9H16N2O5\OHZDE\08-Apr-2025\0\\#t hf
  aug-cc-pvdz iop(5/13=1,5/36=2,99/5=2) pseudo=read geom=check guess=(r
 ead,tcheck) scf=(maxcycle=1)\\title\\0,1\C,0,1.89429,1.04065,-0.882322
 \C,0,-3.05612,1.79144,-0.496915\C,0,-2.64158,0.848588,0.761443\C,0,-1.
 82296,-1.09941,-0.534447\C,0,-3.8573,0.050296,1.31318\C,0,3.1732,-0.49
 1164,0.552785\C,0,3.28847,0.2686,-0.764297\C,0,0.732268,0.144301,-0.61
 012\C,0,-1.48251,-0.124875,0.626931\H,0,-3.71458,2.57022,-0.181032\H,0
 ,-1.94982,-2.93682,-0.93649\H,0,-4.01998,-0.849461,0.846607\H,0,-3.515

 Normal termination of Gaussian 16 at Tue Apr  8 21:02:49 2025.
