 Gaussian 16, Revision C.01,

 ----------------------------------------------------------------------
 #t hf aug-cc-pvdz symm=none int=(grid=ultrafine) guess=(read,tcheck) s
 table=(opt,rrhf)
 ----------------------------------------------------------------------
 -----
 title
 -----
 Symbolic Z-matrix:
 Charge =  0 Multiplicity = 1

 SCF Done:  E(RHF) =  -544.886670715     A.U. after   16 cycles
 Normal termination of Gaussian 16 at Tue Apr  8 19:16:38 2025.
 Gaussian 16:  ES64L-G16RevC.01  3-Jul-2019

 ----------------------------------------------------------------------
 #t hf aug-cc-pvdz iop(5/13=1,5/36=2,99/5=2) pseudo=read geom=check gue
 ss=(read,tcheck) scf=(maxcycle=1)
 ----------------------------------------------------------------------
 -----
 title
 -----
 Structure from the checkpoint file:  "ANI1ccx_1075_conf2_mol2.chk"
 Charge =  0 Multiplicity = 1

                         Standard orientation:
 ---------------------------------------------------------------------
 Center     Atomic      Atomic             Coordinates (Angstroms)
 Number     Number       Type             X           Y           Z
 ---------------------------------------------------------------------
      1          6           0       -2.748960   -0.179124    0.018761
      2          6           0       -1.393059    0.407916   -0.040191
      3          6           0       -0.945159    1.712001   -0.026661
      4          6           0        0.470615    1.614930    0.006856
      5          6           0        0.735358    0.295294   -0.041829
      6          1           0       -3.541919    0.619202   -0.022619
      7          1           0       -1.556778    2.616561   -0.000219
      8          1           0        1.214342    2.414179    0.115653
      9          7           0        2.011870   -0.446356    0.000563
     10          8           0       -2.950021   -1.367968    0.065011
     11          8           0       -0.377607   -0.439931   -0.048331
     12          8           0        1.953719   -1.647931   -0.040203
     13          8           0        3.009970    0.251886    0.073727
 ---------------------------------------------------------------------

 SCF Done:  E(RHF) =  -545.412168371     A.U. after    2 cycles

 The electronic state is 1-A.
 Alpha  occ. eigenvalues --  -20.67125 -20.61519 -20.60529 -20.57995 -15.82050
 Alpha  occ. eigenvalues --  -11.38966 -11.38275 -11.35323 -11.30761 -11.30540
 Alpha  occ. eigenvalues --   -1.70197  -1.63250  -1.53841  -1.50587  -1.17083
 Alpha  occ. eigenvalues --   -1.14256  -1.02905  -0.90997  -0.88155  -0.83243
 Alpha  occ. eigenvalues --   -0.82699  -0.78125  -0.76584  -0.71935  -0.70238
 Alpha  occ. eigenvalues --   -0.68921  -0.65579  -0.63895  -0.61707  -0.56301
 Alpha  occ. eigenvalues --   -0.51930  -0.51190  -0.47212  -0.46019  -0.45710
 Alpha  occ. eigenvalues --   -0.38845
 Alpha virt. eigenvalues --    0.00339   0.01967   0.03197   0.04765   0.06429
 Alpha virt. eigenvalues --    0.07653   0.07818   0.09259   0.10744   0.11049
 Alpha virt. eigenvalues --    0.11270   0.11701   0.12572   0.13300   0.14580

 Mulliken charges:
               1
     1  C    0.716263
     2  C    1.631976
     3  C   -0.121986
     4  C    0.393116
     5  C    0.166645
     6  H    0.144825
     7  H   -0.129792
     8  H   -0.059019
     9  N    2.749497
    10  O   -1.091231
    11  O   -1.627276
    12  O   -1.321956
    13  O   -1.451062
 Sum of Mulliken charges =  -0.00000

 Dipole moment (field-independent basis, Debye):
    X=             -2.4993    Y=              5.4561    Z=             -0.0396  Tot=              6.0014

 Test job not archived.
 1\1\GINC-SE128\SP\RHF\Aug-CC-pVDZ\C5H3N1O4\OHZDE\08-Apr-2025\0\\#t hf
 aug-cc-pvdz iop(5/13=1,5/36=2,99/5=2) pseudo=read geom=check guess=(re
 ad,tcheck) scf=(maxcycle=1)\\title\\0,1\C,0,-2.74896,-0.179126,0.01876
 12\C,0,-1.39306,0.407915,-0.0401911\C,0,-0.945161,1.712,-0.0266613\C,0
 ,0.470614,1.61493,0.00685563\C,0,0.735358,0.295294,-0.0418294\H,0,-3.5
 4192,0.619199,-0.0226193\H,0,-1.55678,2.61656,-0.00021941\H,0,1.21434,
 2.41418,0.115653\N,0,2.01187,-0.446355,0.00056323\O,0,-2.95002,-1.3679
 7,0.0650112\O,0,-0.377607,-0.439931,-0.048331\O,0,1.95372,-1.64793,-0.

 Normal termination of Gaussian 16 at Tue Apr  8 19:16:44 2025.
