 Gaussian 16, Revision C.01,

 ----------------------------------------------------------------------
 #t hf aug-cc-pvdz symm=none int=(grid=ultrafine) guess=(read,tcheck) s
 table=(opt,rrhf)
 ----------------------------------------------------------------------
 -----
 title
 -----
 Symbolic Z-matrix:
 Charge =  0 Multiplicity = 1

 SCF Done:  E(RHF) =  -1021.06036803     A.U. after   16 cycles
 Normal termination of Gaussian 16 at Tue Apr  8 22:06:47 2025.
 Gaussian 16:  ES64L-G16RevC.01  3-Jul-2019

 ----------------------------------------------------------------------
 #t hf aug-cc-pvdz iop(5/13=1,5/36=2,99/5=2) pseudo=read geom=check gue
 ss=(read,tcheck) scf=(maxcycle=1)
 ----------------------------------------------------------------------
 -----
 title
 -----
 Structure from the checkpoint file:  "ANI1ccx_54_conf17_mol1.chk"
 Charge =  0 Multiplicity = 1

                         Standard orientation:
 ---------------------------------------------------------------------
 Center     Atomic      Atomic             Coordinates (Angstroms)
 Number     Number       Type             X           Y           Z
 ---------------------------------------------------------------------
      1          6           0        1.341310   -0.057566    0.975740
      2          6           0       -4.327360   -0.573550   -0.043035
      3          6           0       -1.882930   -0.635679    0.642619
      4          6           0       -1.128360    1.718719   -0.227160
      5          6           0       -1.303290    0.204319   -0.509213
      6          6           0       -3.083370   -1.440271    0.147724
      7          6           0        3.659840    1.070159    0.568037
      8          6           0        2.130150    1.188759    0.432637
      9          6           0        0.970152   -0.882178   -0.305610
     10          6           0        3.978710   -0.033869   -0.409981
     11          1           0       -2.085270    0.289367   -1.357230
     12          1           0       -2.955160    1.837549    0.258861
     13          1           0       -6.204980   -0.721409   -0.327697
     14          1           0       -2.919900   -1.665491   -0.977949
     15          1           0       -3.263590   -2.402601    0.684211
     16          1           0       -2.003420    0.016530    1.497430
     17          1           0       -1.093850   -1.203981    0.969175
     18          1           0       -0.195990   -0.932051   -1.861100
     19          1           0        4.352850   -1.918771   -0.269473
     20          1           0        4.265310    2.008079    0.468844
     21          1           0        3.926460    0.661263    1.548950
     22          1           0        1.793810    2.183049    1.033830
     23          1           0        1.706330    1.485869   -0.545610
     24          1           0        0.465155    0.361115    1.397370
     25          1           0        1.470830   -1.797901    1.988780
     26          1           0        2.926490   -1.113761    1.480430
     27          7           0        2.006490   -0.905569    1.951850
     28          7           0       -0.100846   -0.341921   -1.042850
     29          8           0        1.729330   -1.751081   -0.777741
     30          8           0        4.042700   -0.004903   -1.624080
     31          8           0        4.429210   -1.130581    0.238433
     32          8           0       -0.186237    2.316799   -0.694910
     33          8           0       -4.437650    0.625412    0.196877
     34          8           0       -5.436980   -1.314571   -0.287652
     35          8           0       -2.097080    2.295489    0.451284
 ---------------------------------------------------------------------

 SCF Done:  E(RHF) =  -1022.07658093     A.U. after    2 cycles

 The electronic state is 1-A.
 Alpha  occ. eigenvalues --  -20.64250 -20.60298 -20.59249 -20.58039 -20.53953
 Alpha  occ. eigenvalues --  -20.53659 -20.51830 -15.54241 -15.49718 -11.45328
 Alpha  occ. eigenvalues --  -11.40132 -11.38071 -11.37712 -11.33166 -11.31984
 Alpha  occ. eigenvalues --  -11.28869 -11.28009 -11.25506 -11.25468  -1.58884
 Alpha  occ. eigenvalues --   -1.55725  -1.53755  -1.49206  -1.46333  -1.45908
 Alpha  occ. eigenvalues --   -1.42771  -1.26960  -1.19807  -1.13137  -1.07039
 Alpha  occ. eigenvalues --   -1.03443  -0.98556  -0.94735  -0.88309  -0.85064
 Alpha  occ. eigenvalues --   -0.84484  -0.81294  -0.79117  -0.76525  -0.76287
 Alpha  occ. eigenvalues --   -0.74291  -0.72934  -0.72275  -0.71018  -0.69164
 Alpha  occ. eigenvalues --   -0.67998  -0.67698  -0.66583  -0.65621  -0.64871
 Alpha  occ. eigenvalues --   -0.63234  -0.62904  -0.62162  -0.60835  -0.59597
 Alpha  occ. eigenvalues --   -0.59107  -0.58112  -0.56942  -0.56326  -0.55025
 Alpha  occ. eigenvalues --   -0.54169  -0.52395  -0.52016  -0.50347  -0.49509
 Alpha  occ. eigenvalues --   -0.49175  -0.47840  -0.46674  -0.45271  -0.44535
 Alpha  occ. eigenvalues --   -0.43319  -0.42631  -0.40811
 Alpha virt. eigenvalues --    0.01660   0.02257   0.02920   0.04129   0.04563
 Alpha virt. eigenvalues --    0.04814   0.05489   0.05930   0.06203   0.06714
 Alpha virt. eigenvalues --    0.07473   0.07677   0.08520   0.09020   0.09902

 Mulliken charges:
               1
     1  C   -2.015029
     2  C    2.374388
     3  C    0.703918
     4  C    3.038036
     5  C   -1.958772
     6  C   -0.790690
     7  C   -0.780738
     8  C   -0.351134
     9  C    0.802468
    10  C    2.949710
    11  H    0.267962
    12  H    0.564706
    13  H    0.407433
    14  H    0.532442
    15  H    0.141572
    16  H    0.067635
    17  H   -0.169378
    18  H    0.382073
    19  H    0.374168
    20  H    0.111371
    21  H    0.331925
    22  H    0.319509
    23  H    0.318740
    24  H    0.054239
    25  H    0.242792
    26  H    0.323227
    27  N    0.994395
    28  N    0.914721
    29  O   -1.540226
    30  O   -1.517624
    31  O   -1.442181
    32  O   -1.485255
    33  O   -1.281576
    34  O   -1.407753
    35  O   -1.477076
 Sum of Mulliken charges =  -0.00000

 Dipole moment (field-independent basis, Debye):
    X=             -7.4045    Y=             -3.8362    Z=              1.4676  Tot=              8.4674

 Test job not archived.
 1\1\GINC-SE036\SP\RHF\Aug-CC-pVDZ\C10H16N2O7\OHZDE\08-Apr-2025\0\\#t h
 f aug-cc-pvdz iop(5/13=1,5/36=2,99/5=2) pseudo=read geom=check guess=(
 read,tcheck) scf=(maxcycle=1)\\title\\0,1\C,0,1.34131,-0.0575649,0.975
 74\C,0,-4.32736,-0.573549,-0.0430347\C,0,-1.88293,-0.635678,0.642619\C
 ,0,-1.12836,1.71872,-0.22716\C,0,-1.30329,0.20432,-0.509213\C,0,-3.083
 37,-1.44027,0.147724\C,0,3.65984,1.07016,0.568037\C,0,2.13015,1.18876,
 0.432637\C,0,0.970152,-0.882177,-0.30561\C,0,3.97871,-0.033868,-0.4099
 81\H,0,-2.08527,0.289368,-1.35723\H,0,-2.95516,1.83755,0.258861\H,0,-6

 Normal termination of Gaussian 16 at Tue Apr  8 22:07:51 2025.
