 Gaussian 16, Revision C.01,

 ----------------------------------------------------------------------
 #t hf aug-cc-pvdz symm=none int=(grid=ultrafine) guess=(read,tcheck) s
 table=(opt,rrhf)
 ----------------------------------------------------------------------
 -----
 title
 -----
 Symbolic Z-matrix:
 Charge =  0 Multiplicity = 1

 SCF Done:  E(RHF) =  -603.078071605     A.U. after   14 cycles
 Normal termination of Gaussian 16 at Tue Apr  8 22:05:39 2025.
 Gaussian 16:  ES64L-G16RevC.01  3-Jul-2019

 ----------------------------------------------------------------------
 #t hf aug-cc-pvdz iop(5/13=1,5/36=2,99/5=2) pseudo=read geom=check gue
 ss=(read,tcheck) scf=(maxcycle=1)
 ----------------------------------------------------------------------
 -----
 title
 -----
 Structure from the checkpoint file:  "ANI1ccx_894_conf8_mol1.chk"
 Charge =  0 Multiplicity = 1

                         Standard orientation:
 ---------------------------------------------------------------------
 Center     Atomic      Atomic             Coordinates (Angstroms)
 Number     Number       Type             X           Y           Z
 ---------------------------------------------------------------------
      1          6           0        1.984729   -0.101731   -0.003104
      2          6           0        0.575287    0.470377   -0.000058
      3          6           0       -0.519130   -0.327949    0.010914
      4          6           0       -1.908792    0.244860   -0.017932
      5          1           0        1.312821   -1.864388   -0.004269
      6          1           0        1.491336    2.059332   -0.039154
      7          1           0       -1.317029   -2.046992    0.042535
      8          1           0       -3.701471   -0.379088    0.033556
      9          8           0        2.171840   -1.408017   -0.010545
     10          8           0        2.871008    0.692691    0.013500
     11          8           0        0.553672    1.798561   -0.006015
     12          8           0       -0.409683   -1.676470    0.005547
     13          8           0       -2.792411   -0.740188   -0.010172
     14          8           0       -2.216703    1.398147    0.011235
 ---------------------------------------------------------------------

 SCF Done:  E(RHF) =  -603.665325800     A.U. after    2 cycles

 The electronic state is 1-A.
 Alpha  occ. eigenvalues --  -20.64089 -20.62807 -20.61226 -20.59730 -20.55854
 Alpha  occ. eigenvalues --  -20.55808 -11.42611 -11.41820 -11.35361 -11.34511
 Alpha  occ. eigenvalues --   -1.60089  -1.57915  -1.54466  -1.52910  -1.48691
 Alpha  occ. eigenvalues --   -1.48055  -1.09366  -0.97492  -0.88793  -0.84547
 Alpha  occ. eigenvalues --   -0.82428  -0.77186  -0.73760  -0.71578  -0.69449
 Alpha  occ. eigenvalues --   -0.68388  -0.67318  -0.66210  -0.63233  -0.61850
 Alpha  occ. eigenvalues --   -0.61505  -0.58739  -0.55631  -0.50824  -0.49310
 Alpha  occ. eigenvalues --   -0.48380  -0.46374  -0.36290
 Alpha virt. eigenvalues --    0.02125   0.03784   0.05353   0.05434   0.06586
 Alpha virt. eigenvalues --    0.08407   0.08752   0.10359   0.10679   0.11582
 Alpha virt. eigenvalues --    0.12861   0.13312   0.13878   0.14450   0.14578

 Mulliken charges:
               1
     1  C    1.372441
     2  C    1.933988
     3  C    1.624460
     4  C    2.010554
     5  H    0.499576
     6  H    0.394475
     7  H    0.478057
     8  H    0.507457
     9  O   -1.284037
    10  O   -1.198276
    11  O   -1.750204
    12  O   -1.881713
    13  O   -1.457952
    14  O   -1.248827
 Sum of Mulliken charges =  -0.00000

 Dipole moment (field-independent basis, Debye):
    X=             -4.1141    Y=             -3.3153    Z=              0.0052  Tot=              5.2837

 Test job not archived.
 1\1\GINC-SE365\SP\RHF\Aug-CC-pVDZ\C4H4O6\OHZDE\08-Apr-2025\0\\#t hf au
 g-cc-pvdz iop(5/13=1,5/36=2,99/5=2) pseudo=read geom=check guess=(read
 ,tcheck) scf=(maxcycle=1)\\title\\0,1\C,0,1.98473,-0.101734,-0.0031038
 \C,0,0.575289,0.470376,-0.00005754\C,0,-0.519129,-0.327949,0.0109142\C
 ,0,-1.90879,0.244862,-0.017932\H,0,1.31282,-1.86439,-0.00426916\H,0,1.
 49134,2.05933,-0.0391542\H,0,-1.31703,-2.04699,0.0425346\H,0,-3.70147,
 -0.379083,0.0335558\O,0,2.17184,-1.40802,-0.0105453\O,0,2.87101,0.6926
 87,0.0134999\O,0,0.553676,1.79856,-0.00601483\O,0,-0.409684,-1.67647,0

 Normal termination of Gaussian 16 at Tue Apr  8 22:05:45 2025.
