 Gaussian 16, Revision C.01,

 ----------------------------------------------------------------------
 #t hf aug-cc-pvdz symm=none int=(grid=ultrafine) guess=(read,tcheck) s
 table=(opt,rrhf)
 ----------------------------------------------------------------------
 -----
 title
 -----
 Symbolic Z-matrix:
 Charge =  0 Multiplicity = 1

 SCF Done:  E(RHF) =  -982.107324567     A.U. after   14 cycles
 Normal termination of Gaussian 16 at Tue Apr  8 20:48:00 2025.
 Gaussian 16:  ES64L-G16RevC.01  3-Jul-2019

 ----------------------------------------------------------------------
 #t hf aug-cc-pvdz iop(5/13=1,5/36=2,99/5=2) pseudo=read geom=check gue
 ss=(read,tcheck) scf=(maxcycle=1)
 ----------------------------------------------------------------------
 -----
 title
 -----
 Structure from the checkpoint file:  "ANI1ccx_1743_conf11_mol1.chk"
 Charge =  0 Multiplicity = 1

                         Standard orientation:
 ---------------------------------------------------------------------
 Center     Atomic      Atomic             Coordinates (Angstroms)
 Number     Number       Type             X           Y           Z
 ---------------------------------------------------------------------
      1          6           0        1.196949   -1.773890    0.103542
      2          6           0       -0.074913   -1.034690   -0.325477
      3          6           0        2.418409   -1.503791   -0.798108
      4          6           0        2.861229   -0.054829   -0.927405
      5          6           0        3.306460    0.533974    0.386575
      6          6           0       -1.460220    0.977774   -0.182159
      7          6           0       -1.105030    2.428840   -0.370521
      8          6           0       -2.672700    0.732138    0.735989
      9          6           0       -3.204021   -0.725829    0.604530
     10          1           0        0.430772    3.570660   -0.414621
     11          1           0       -4.327971   -1.653229   -0.656694
     12          1           0       -2.325380    0.857084    1.812920
     13          1           0       -3.454860    1.398771    0.410463
     14          1           0       -1.740310    0.682551   -1.201230
     15          1           0        0.371618    0.635204    0.874926
     16          1           0        4.726350    1.180249    1.353540
     17          1           0        3.722099    0.038996   -1.619830
     18          1           0        2.092650    0.584419   -1.453360
     19          1           0        2.186699   -1.957851   -1.790050
     20          1           0        3.163529   -2.133411   -0.291058
     21          1           0        1.355599   -1.533181    1.202890
     22          1           0        0.163416   -3.445470    0.655546
     23          1           0        0.385098   -3.318630   -0.944883
     24          7           0        0.841767   -3.202440   -0.074370
     25          7           0       -0.242964    0.191910    0.161140
     26          8           0       -0.945591   -1.531850   -1.049990
     27          8           0        2.531340    0.871228    1.237140
     28          8           0        4.639350    0.700967    0.550203
     29          8           0       -1.896820    3.327890   -0.586710
     30          8           0       -2.898251   -1.654939    1.311060
     31          8           0       -3.998121   -0.773904   -0.447151
     32          8           0        0.250855    2.646780   -0.253020
 ---------------------------------------------------------------------

 SCF Done:  E(RHF) =  -983.081814378     A.U. after    2 cycles

 The electronic state is 1-A.
 Alpha  occ. eigenvalues --  -20.61901 -20.61719 -20.60204 -20.55935 -20.55814
 Alpha  occ. eigenvalues --  -20.53427 -20.50668 -15.53550 -15.47788 -11.42048
 Alpha  occ. eigenvalues --  -11.41531 -11.39797 -11.35357 -11.31739 -11.28833
 Alpha  occ. eigenvalues --  -11.27565 -11.27561 -11.26563  -1.57720  -1.55740
 Alpha  occ. eigenvalues --   -1.55511  -1.47903  -1.46639  -1.45523  -1.45284
 Alpha  occ. eigenvalues --   -1.25308  -1.19052  -1.09277  -1.08886  -0.99170
 Alpha  occ. eigenvalues --   -0.97018  -0.89427  -0.85859  -0.83667  -0.83133
 Alpha  occ. eigenvalues --   -0.80967  -0.75162  -0.73725  -0.72993  -0.71802
 Alpha  occ. eigenvalues --   -0.70928  -0.70635  -0.68976  -0.68134  -0.66935
 Alpha  occ. eigenvalues --   -0.65813  -0.64647  -0.63633  -0.62686  -0.62072
 Alpha  occ. eigenvalues --   -0.61572  -0.59907  -0.58883  -0.58482  -0.57263
 Alpha  occ. eigenvalues --   -0.56246  -0.54743  -0.53862  -0.52962  -0.50914
 Alpha  occ. eigenvalues --   -0.49506  -0.48778  -0.47546  -0.46771  -0.45942
 Alpha  occ. eigenvalues --   -0.44345  -0.44159  -0.42368  -0.41489
 Alpha virt. eigenvalues --    0.02525   0.03352   0.03751   0.04138   0.04609
 Alpha virt. eigenvalues --    0.05029   0.05409   0.05775   0.06145   0.07161
 Alpha virt. eigenvalues --    0.08069   0.08386   0.08971   0.09611   0.10237

 Mulliken charges:
               1
     1  C   -2.571062
     2  C    0.507668
     3  C    0.010338
     4  C   -0.468231
     5  C    2.546023
     6  C   -1.729377
     7  C    3.056158
     8  C   -0.722022
     9  C    2.907325
    10  H    0.482884
    11  H    0.374659
    12  H    0.312839
    13  H    0.195036
    14  H    0.261259
    15  H    0.346033
    16  H    0.275320
    17  H    0.106046
    18  H    0.378228
    19  H    0.220960
    20  H    0.298299
    21  H    0.104491
    22  H    0.206985
    23  H    0.260041
    24  N    0.887956
    25  N    1.553950
    26  O   -1.483184
    27  O   -1.263086
    28  O   -1.322177
    29  O   -1.441475
    30  O   -1.410586
    31  O   -1.379586
    32  O   -1.501710
 Sum of Mulliken charges =  -0.00000

 Dipole moment (field-independent basis, Debye):
    X=              2.8313    Y=              2.4245    Z=             -0.4630  Tot=              3.7562

 Test job not archived.
 1\1\GINC-SE096\SP\RHF\Aug-CC-pVDZ\C9H14N2O7\OHZDE\08-Apr-2025\0\\#t hf
  aug-cc-pvdz iop(5/13=1,5/36=2,99/5=2) pseudo=read geom=check guess=(r
 ead,tcheck) scf=(maxcycle=1)\\title\\0,1\C,0,1.19695,-1.77389,0.103542
 \C,0,-0.0749119,-1.03469,-0.325477\C,0,2.41841,-1.50379,-0.798108\C,0,
 2.86123,-0.0548279,-0.927405\C,0,3.30646,0.533975,0.386575\C,0,-1.4602
 2,0.977774,-0.182159\C,0,-1.10503,2.42884,-0.370521\C,0,-2.6727,0.7321
 37,0.735989\C,0,-3.20402,-0.72583,0.60453\H,0,0.430772,3.57066,-0.4146
 21\H,0,-4.32797,-1.65323,-0.656694\H,0,-2.32538,0.857083,1.81292\H,0,-

 Normal termination of Gaussian 16 at Tue Apr  8 20:48:52 2025.
