 Gaussian 16, Revision C.01,

 ----------------------------------------------------------------------
 #t hf aug-cc-pvdz symm=none int=(grid=ultrafine) guess=(read,tcheck) s
 table=(opt,rrhf)
 ----------------------------------------------------------------------
 -----
 title
 -----
 Symbolic Z-matrix:
 Charge =  0 Multiplicity = 1

 SCF Done:  E(RHF) =  -366.856173509     A.U. after   16 cycles
 Normal termination of Gaussian 16 at Tue Apr  8 21:36:51 2025.
 Gaussian 16:  ES64L-G16RevC.01  3-Jul-2019

 ----------------------------------------------------------------------
 #t hf aug-cc-pvdz iop(5/13=1,5/36=2,99/5=2) pseudo=read geom=check gue
 ss=(read,tcheck) scf=(maxcycle=1)
 ----------------------------------------------------------------------
 -----
 title
 -----
 Structure from the checkpoint file:  "ANI1ccx_404_conf20_mol2.chk"
 Charge =  0 Multiplicity = 1

                         Standard orientation:
 ---------------------------------------------------------------------
 Center     Atomic      Atomic             Coordinates (Angstroms)
 Number     Number       Type             X           Y           Z
 ---------------------------------------------------------------------
      1          6           0       -0.254023   -0.698673   -0.010612
      2          1           0       -2.231687   -0.891162    0.266591
      3          1           0       -1.350845   -2.358654    0.229240
      4          1           0       -1.116241    2.116335    0.819080
      5          1           0       -1.231051    2.101206   -0.807538
      6          7           0       -1.426050   -1.393203   -0.071102
      7          7           0        0.967196   -1.188596    0.006273
      8          7           0        1.790307   -0.100139    0.014193
      9          7           0        1.144103    0.992261    0.001202
     10          7           0       -0.172861    0.642438   -0.033804
     11          7           0       -1.237844    1.507856    0.019852
 ---------------------------------------------------------------------

 SCF Done:  E(RHF) =  -367.229201658     A.U. after    2 cycles

 The electronic state is 1-A.
 Alpha  occ. eigenvalues --  -15.62049 -15.58403 -15.58236 -15.57783 -15.54727
 Alpha  occ. eigenvalues --  -15.51533 -11.36409  -1.48352  -1.33807  -1.27554
 Alpha  occ. eigenvalues --   -1.18745  -1.14662  -0.95380  -0.90359  -0.82324
 Alpha  occ. eigenvalues --   -0.79635  -0.76212  -0.73701  -0.69056  -0.62795
 Alpha  occ. eigenvalues --   -0.57279  -0.56784  -0.51783  -0.49970  -0.48677
 Alpha  occ. eigenvalues --   -0.41699
 Alpha virt. eigenvalues --    0.02282   0.03776   0.04771   0.05537   0.09112
 Alpha virt. eigenvalues --    0.09944   0.11005   0.12028   0.12135   0.12985
 Alpha virt. eigenvalues --    0.14611   0.15316   0.15575   0.16010   0.16800

 Mulliken charges:
               1
     1  C   -1.004217
     2  H    0.178438
     3  H    0.214822
     4  H    0.221243
     5  H    0.228586
     6  N    0.476187
     7  N    0.245444
     8  N   -0.344365
     9  N   -0.143850
    10  N   -0.238129
    11  N    0.165841
 Sum of Mulliken charges =   0.00000

 Dipole moment (field-independent basis, Debye):
    X=             -5.8583    Y=              1.5254    Z=              0.9176  Tot=              6.1228

 Test job not archived.
 1\1\GINC-SE127\SP\RHF\Aug-CC-pVDZ\C1H4N6\OHZDE\08-Apr-2025\0\\#t hf au
 g-cc-pvdz iop(5/13=1,5/36=2,99/5=2) pseudo=read geom=check guess=(read
 ,tcheck) scf=(maxcycle=1)\\title\\0,1\C,0,-0.254017,-0.698674,-0.01061
 2\H,0,-2.23168,-0.891173,0.266591\H,0,-1.35083,-2.35866,0.22924\H,0,-1
 .11625,2.11633,0.81908\H,0,-1.23106,2.1012,-0.807538\N,0,-1.42604,-1.3
 9321,-0.0711017\N,0,0.967204,-1.18859,0.00627309\N,0,1.79031,-0.100129
 ,0.0141931\N,0,1.1441,0.992268,0.00120164\N,0,-0.172862,0.642438,-0.03
 38041\N,0,-1.23785,1.50785,0.0198521\\Version=ES64L-G16RevC.01\State=1

 Normal termination of Gaussian 16 at Tue Apr  8 21:36:56 2025.
