 Gaussian 16, Revision C.01,

 ----------------------------------------------------------------------
 #t hf aug-cc-pvdz symm=none int=(grid=ultrafine) guess=(read,tcheck) s
 table=(opt,rrhf)
 ----------------------------------------------------------------------
 -----
 title
 -----
 Symbolic Z-matrix:
 Charge =  0 Multiplicity = 1

 SCF Done:  E(RHF) =  -752.384945277     A.U. after   15 cycles
 Normal termination of Gaussian 16 at Tue Apr  8 20:08:39 2025.
 Gaussian 16:  ES64L-G16RevC.01  3-Jul-2019

 ----------------------------------------------------------------------
 #t hf aug-cc-pvdz iop(5/13=1,5/36=2,99/5=2) pseudo=read geom=check gue
 ss=(read,tcheck) scf=(maxcycle=1)
 ----------------------------------------------------------------------
 -----
 title
 -----
 Structure from the checkpoint file:  "ANI1ccx_1572_conf9_mol1.chk"
 Charge =  0 Multiplicity = 1

                         Standard orientation:
 ---------------------------------------------------------------------
 Center     Atomic      Atomic             Coordinates (Angstroms)
 Number     Number       Type             X           Y           Z
 ---------------------------------------------------------------------
      1          6           0       -0.670599    2.682029   -0.616522
      2          6           0       -1.098112    1.312188   -0.126288
      3          6           0       -0.599494   -1.163791   -0.495048
      4          6           0       -1.925504   -1.970614   -0.136032
      5          6           0        0.390629   -1.339559    0.672194
      6          6           0        1.678113   -0.653641    0.356110
      7          6           0        2.223110    0.376361    1.002350
      8          6           0        3.607702   -0.423889   -0.564895
      9          1           0       -2.580028   -0.359628    0.688181
     10          1           0        4.086818    1.466490    0.676904
     11          1           0        4.566663   -0.691445   -0.953782
     12          1           0        1.785119    0.959911    1.848960
     13          1           0        0.305616   -2.379079    0.882224
     14          1           0       -0.022983   -0.798976    1.560290
     15          1           0       -0.269851   -1.702060   -1.330630
     16          1           0        0.085837    0.317677   -1.625050
     17          1           0       -0.641933    2.592149   -1.671090
     18          1           0        0.415172    2.901501   -0.335969
     19          1           0       -1.905618    3.760856    0.732047
     20          1           0       -2.281128    3.939955   -0.760727
     21          7           0       -1.482858    3.787707   -0.215016
     22          7           0       -0.578096    0.266235   -0.801956
     23          7           0        2.543204   -1.206284   -0.615431
     24          7           0        3.475230    0.595695    0.405444
     25          8           0       -1.800362    1.152766    0.891057
     26          8           0       -2.022542   -3.159815   -0.464740
     27          8           0       -2.787236   -1.371116    0.614448
 ---------------------------------------------------------------------

 SCF Done:  E(RHF) =  -753.135674566     A.U. after    2 cycles

 The electronic state is 1-A.
 Alpha  occ. eigenvalues --  -20.58199 -20.54739 -20.51580 -15.58549 -15.56338
 Alpha  occ. eigenvalues --  -15.51427 -15.50407 -11.39471 -11.38789 -11.33341
 Alpha  occ. eigenvalues --  -11.30238 -11.30180 -11.28614 -11.26905 -11.25139
 Alpha  occ. eigenvalues --   -1.53390  -1.48553  -1.41956  -1.33696  -1.27423
 Alpha  occ. eigenvalues --   -1.21112  -1.17876  -1.09375  -1.03753  -0.98534
 Alpha  occ. eigenvalues --   -0.91979  -0.87108  -0.86423  -0.81682  -0.80596
 Alpha  occ. eigenvalues --   -0.76855  -0.76353  -0.74966  -0.71371  -0.68251
 Alpha  occ. eigenvalues --   -0.68041  -0.65994  -0.64364  -0.63547  -0.63197
 Alpha  occ. eigenvalues --   -0.62983  -0.62663  -0.61429  -0.58975  -0.57006
 Alpha  occ. eigenvalues --   -0.55328  -0.53608  -0.52649  -0.50808  -0.47434
 Alpha  occ. eigenvalues --   -0.45746  -0.45508  -0.44272  -0.43936  -0.41383
 Alpha  occ. eigenvalues --   -0.35828
 Alpha virt. eigenvalues --    0.01538   0.02785   0.03189   0.03903   0.04174
 Alpha virt. eigenvalues --    0.05309   0.05575   0.06221   0.06450   0.07205
 Alpha virt. eigenvalues --    0.08158   0.08361   0.09182   0.09491   0.10335

 Mulliken charges:
               1
     1  C   -1.056197
     2  C    0.476809
     3  C   -1.347674
     4  C    2.431346
     5  C    0.052742
     6  C   -0.504061
     7  C   -0.469394
     8  C   -0.668847
     9  H    0.598525
    10  H    0.068526
    11  H   -0.169753
    12  H   -0.216020
    13  H    0.026782
    14  H    0.236646
    15  H   -0.125899
    16  H    0.336765
    17  H    0.126877
    18  H    0.253645
    19  H    0.170549
    20  H    0.150061
    21  N    0.485118
    22  N    1.760252
    23  N    1.031839
    24  N    0.725106
    25  O   -1.556443
    26  O   -1.396314
    27  O   -1.420988
 Sum of Mulliken charges =  -0.00000

 Dipole moment (field-independent basis, Debye):
    X=              5.6388    Y=              7.1204    Z=             -0.5705  Tot=              9.1007

 Test job not archived.
 1\1\GINC-SE195\SP\RHF\Aug-CC-pVDZ\C8H12N4O3\OHZDE\08-Apr-2025\0\\#t hf
  aug-cc-pvdz iop(5/13=1,5/36=2,99/5=2) pseudo=read geom=check guess=(r
 ead,tcheck) scf=(maxcycle=1)\\title\\0,1\C,0,-0.670594,2.68203,-0.6165
 22\C,0,-1.09811,1.31219,-0.126288\C,0,-0.599498,-1.16379,-0.495048\C,0
 ,-1.92551,-1.97061,-0.136032\C,0,0.390625,-1.33956,0.672194\C,0,1.6781
 1,-0.653645,0.35611\C,0,2.22311,0.376356,1.00235\C,0,3.6077,-0.423897,
 -0.564895\H,0,-2.58003,-0.359622,0.688181\H,0,4.08682,1.46648,0.676904
 \H,0,4.56666,-0.691456,-0.953782\H,0,1.78512,0.959907,1.84896\H,0,0.30

 Normal termination of Gaussian 16 at Tue Apr  8 20:09:10 2025.
