 Gaussian 16, Revision C.01,

 ----------------------------------------------------------------------
 #t hf aug-cc-pvdz symm=none int=(grid=ultrafine) guess=(read,tcheck) s
 table=(opt,rrhf)
 ----------------------------------------------------------------------
 -----
 title
 -----
 Symbolic Z-matrix:
 Charge =  0 Multiplicity = 1

 SCF Done:  E(RHF) =  -583.222332898     A.U. after   14 cycles
 Normal termination of Gaussian 16 at Tue Apr  8 22:06:54 2025.
 Gaussian 16:  ES64L-G16RevC.01  3-Jul-2019

 ----------------------------------------------------------------------
 #t hf aug-cc-pvdz iop(5/13=1,5/36=2,99/5=2) pseudo=read geom=check gue
 ss=(read,tcheck) scf=(maxcycle=1)
 ----------------------------------------------------------------------
 -----
 title
 -----
 Structure from the checkpoint file:  "ANI1ccx_900_conf7_mol1.chk"
 Charge =  0 Multiplicity = 1

                         Standard orientation:
 ---------------------------------------------------------------------
 Center     Atomic      Atomic             Coordinates (Angstroms)
 Number     Number       Type             X           Y           Z
 ---------------------------------------------------------------------
      1          6           0        2.109100   -0.016241    0.111082
      2          6           0        1.167160   -0.510971   -0.925310
      3          6           0       -1.219120   -0.722606   -0.125212
      4          6           0       -1.375909    0.827848   -0.132145
      5          1           0        0.883665   -0.870738    1.337900
      6          1           0        0.919583    0.438008   -1.511800
      7          1           0        1.667020   -1.229071   -1.646430
      8          1           0        0.095919   -2.282040   -0.629781
      9          1           0       -2.947660    0.173370    0.043430
     10          7           0       -0.028483   -1.245290   -0.559212
     11          8           0        1.744450   -0.328674    1.394670
     12          8           0        2.984531    0.805258   -0.202892
     13          8           0       -2.137050   -1.374460    0.371296
     14          8           0       -2.632989    1.084521    0.121159
     15          8           0       -0.522257    1.690770   -0.090397
 ---------------------------------------------------------------------

 SCF Done:  E(RHF) =  -583.788802143     A.U. after    2 cycles

 The electronic state is 1-A.
 Alpha  occ. eigenvalues --  -20.62795 -20.62736 -20.60154 -20.58025 -20.55332
 Alpha  occ. eigenvalues --  -15.61027 -11.44804 -11.44202 -11.42317 -11.33981
 Alpha  occ. eigenvalues --   -1.60586  -1.54170  -1.53368  -1.49181  -1.45204
 Alpha  occ. eigenvalues --   -1.31182  -1.06463  -0.98263  -0.87515  -0.84772
 Alpha  occ. eigenvalues --   -0.82430  -0.78590  -0.75126  -0.71919  -0.69969
 Alpha  occ. eigenvalues --   -0.67943  -0.66319  -0.65064  -0.62727  -0.62058
 Alpha  occ. eigenvalues --   -0.59075  -0.57755  -0.55469  -0.50808  -0.49900
 Alpha  occ. eigenvalues --   -0.47809  -0.46525  -0.45320
 Alpha virt. eigenvalues --    0.01342   0.03421   0.04115   0.04372   0.05290
 Alpha virt. eigenvalues --    0.05794   0.07617   0.08694   0.09315   0.10089
 Alpha virt. eigenvalues --    0.11276   0.11557   0.12510   0.13262   0.13876

 Mulliken charges:
               1
     1  C    2.272911
     2  C   -1.180442
     3  C    0.604254
     4  C    1.903750
     5  H    0.528742
     6  H    0.415036
     7  H    0.237785
     8  H    0.354607
     9  H    0.436518
    10  N    0.602608
    11  O   -1.338121
    12  O   -1.278980
    13  O   -1.305510
    14  O   -1.183322
    15  O   -1.069837
 Sum of Mulliken charges =  -0.00000

 Dipole moment (field-independent basis, Debye):
    X=             -2.1274    Y=             -5.3906    Z=             -2.4264  Tot=              6.2827

 Test job not archived.
 1\1\GINC-SE184\SP\RHF\Aug-CC-pVDZ\C4H5N1O5\OHZDE\08-Apr-2025\0\\#t hf
 aug-cc-pvdz iop(5/13=1,5/36=2,99/5=2) pseudo=read geom=check guess=(re
 ad,tcheck) scf=(maxcycle=1)\\title\\0,1\C,0,2.1091,-0.0162404,0.111082
 \C,0,1.16716,-0.51097,-0.92531\C,0,-1.21912,-0.722606,-0.125212\C,0,-1
 .37591,0.827848,-0.132145\H,0,0.883665,-0.870737,1.3379\H,0,0.919583,0
 .438009,-1.5118\H,0,1.66702,-1.22907,-1.64643\H,0,0.0959192,-2.28204,-
 0.629781\H,0,-2.94766,0.173369,0.0434301\N,0,-0.0284833,-1.24529,-0.55
 9212\O,0,1.74445,-0.328673,1.39467\O,0,2.98453,0.805259,-0.202892\O,0,

 Normal termination of Gaussian 16 at Tue Apr  8 22:07:01 2025.
