 Gaussian 16, Revision C.01,

 ----------------------------------------------------------------------
 #t hf aug-cc-pvdz symm=none int=(grid=ultrafine) guess=(read,tcheck) s
 table=(opt,rrhf)
 ----------------------------------------------------------------------
 -----
 title
 -----
 Symbolic Z-matrix:
 Charge =  0 Multiplicity = 1

 SCF Done:  E(RHF) =  -659.101900611     A.U. after   13 cycles
 Normal termination of Gaussian 16 at Tue Apr  8 19:33:32 2025.
 Gaussian 16:  ES64L-G16RevC.01  3-Jul-2019

 ----------------------------------------------------------------------
 #t hf aug-cc-pvdz iop(5/13=1,5/36=2,99/5=2) pseudo=read geom=check gue
 ss=(read,tcheck) scf=(maxcycle=1)
 ----------------------------------------------------------------------
 -----
 title
 -----
 Structure from the checkpoint file:  "ANI1ccx_1265_conf7_mol1.chk"
 Charge =  0 Multiplicity = 1

                         Standard orientation:
 ---------------------------------------------------------------------
 Center     Atomic      Atomic             Coordinates (Angstroms)
 Number     Number       Type             X           Y           Z
 ---------------------------------------------------------------------
      1          6           0       -2.171731    0.128917   -0.626411
      2          6           0       -0.744718    1.993159    0.062311
      3          6           0        0.729327    1.821539   -0.394249
      4          6           0        1.608809    1.288819    0.768013
      5          6           0        2.525959    0.111037    0.484259
      6          6           0        1.811560   -1.165581   -0.072154
      7          1           0        0.024429   -0.415505    0.462922
      8          1           0        3.979639   -0.524296   -0.686648
      9          1           0        4.274299    0.993885    0.009272
     10          1           0        2.881329   -0.190530    1.484710
     11          1           0        0.960192    1.014309    1.608240
     12          1           0        2.237349    2.140279    1.129190
     13          1           0        0.651333    1.284589   -1.353840
     14          1           0        1.190979    2.798059   -0.702418
     15          1           0       -0.885276    2.684969    0.871680
     16          1           0       -1.335371    2.389859   -0.776368
     17          1           0       -2.121571    1.009689    1.124560
     18          1           0       -3.846081    0.456984    0.343323
     19          1           0       -4.091601    0.275289   -1.293090
     20          1           0       -1.724991    0.409346   -1.584540
     21          1           0       -1.381080   -1.728011   -0.718748
     22          1           0       -1.839610   -1.339371    1.611440
     23          1           0       -2.921040   -2.548021    0.988649
     24          7           0       -2.564430   -1.575131    0.917432
     25          7           0       -2.235770   -1.324681   -0.405581
     26          7           0       -3.494851    0.710706   -0.583199
     27          7           0       -1.388601    0.734335    0.492540
     28          7           0        3.564639    0.408741   -0.491087
     29          8           0        0.536885   -1.270341    0.162072
     30          8           0        2.491230   -2.036741   -0.582030
 ---------------------------------------------------------------------

 SCF Done:  E(RHF) =  -659.788072816     A.U. after    2 cycles

 The electronic state is 1-A.
 Alpha  occ. eigenvalues --  -20.58871 -20.51953 -15.51891 -15.51764 -15.50742
 Alpha  occ. eigenvalues --  -15.49392 -15.49230 -11.38219 -11.32681 -11.28137
 Alpha  occ. eigenvalues --  -11.27279 -11.25204 -11.25113  -1.53809  -1.43876
 Alpha  occ. eigenvalues --   -1.31039  -1.23368  -1.19347  -1.16497  -1.06796
 Alpha  occ. eigenvalues --   -1.04358  -0.98034  -0.90195  -0.87375  -0.83547
 Alpha  occ. eigenvalues --   -0.81668  -0.75828  -0.73800  -0.73508  -0.71458
 Alpha  occ. eigenvalues --   -0.70228  -0.68251  -0.67150  -0.66438  -0.64967
 Alpha  occ. eigenvalues --   -0.63517  -0.61780  -0.60484  -0.59228  -0.57436
 Alpha  occ. eigenvalues --   -0.56050  -0.54130  -0.51564  -0.50754  -0.50483
 Alpha  occ. eigenvalues --   -0.47448  -0.46580  -0.46152  -0.45520  -0.43916
 Alpha  occ. eigenvalues --   -0.42539  -0.41476
 Alpha virt. eigenvalues --    0.02736   0.03224   0.03391   0.03781   0.04887
 Alpha virt. eigenvalues --    0.05131   0.05205   0.05755   0.06418   0.06976
 Alpha virt. eigenvalues --    0.07492   0.08002   0.08870   0.09243   0.09995

 Mulliken charges:
               1
     1  C   -2.566061
     2  C   -0.392278
     3  C   -0.117069
     4  C   -0.179703
     5  C   -1.401691
     6  C    2.340954
     7  H    0.881950
     8  H    0.259345
     9  H    0.242857
    10  H    0.222112
    11  H    0.259885
    12  H    0.118823
    13  H    0.054005
    14  H    0.173782
    15  H   -0.138394
    16  H    0.228056
    17  H    0.544235
    18  H    0.334965
    19  H    0.268664
    20  H   -0.163653
    21  H    0.292067
    22  H    0.207890
    23  H    0.134636
    24  N    0.254850
    25  N    0.327196
    26  N    0.609381
    27  N   -0.051973
    28  N    0.364786
    29  O   -1.644884
    30  O   -1.464732
 Sum of Mulliken charges =  -0.00000

 Dipole moment (field-independent basis, Debye):
    X=             -1.2433    Y=              3.1543    Z=              3.0074  Tot=              4.5321

 Test job not archived.
 1\1\GINC-SE028\SP\RHF\Aug-CC-pVDZ\C6H17N5O2\OHZDE\08-Apr-2025\0\\#t hf
  aug-cc-pvdz iop(5/13=1,5/36=2,99/5=2) pseudo=read geom=check guess=(r
 ead,tcheck) scf=(maxcycle=1)\\title\\0,1\C,0,-2.17173,0.128918,-0.6264
 11\C,0,-0.744717,1.99316,0.062311\C,0,0.729328,1.82154,-0.394249\C,0,1
 .60881,1.28882,0.768013\C,0,2.52596,0.111038,0.484259\C,0,1.81156,-1.1
 6558,-0.0721537\H,0,0.02443,-0.415504,0.462922\H,0,3.97964,-0.524295,-
 0.686648\H,0,4.2743,0.993886,0.00927174\H,0,2.88133,-0.190529,1.48471\
 H,0,0.960193,1.01431,1.60824\H,0,2.23735,2.14028,1.12919\H,0,0.651334,

 Normal termination of Gaussian 16 at Tue Apr  8 19:34:08 2025.
