 Gaussian 16, Revision C.01,

 ----------------------------------------------------------------------
 #t hf aug-cc-pvdz symm=none int=(grid=ultrafine) guess=(read,tcheck) s
 table=(opt,rrhf)
 ----------------------------------------------------------------------
 -----
 title
 -----
 Symbolic Z-matrix:
 Charge =  0 Multiplicity = 1

 SCF Done:  E(RHF) =  -413.901142114     A.U. after   13 cycles
 Normal termination of Gaussian 16 at Tue Apr  8 21:48:00 2025.
 Gaussian 16:  ES64L-G16RevC.01  3-Jul-2019

 ----------------------------------------------------------------------
 #t hf aug-cc-pvdz iop(5/13=1,5/36=2,99/5=2) pseudo=read geom=check gue
 ss=(read,tcheck) scf=(maxcycle=1)
 ----------------------------------------------------------------------
 -----
 title
 -----
 Structure from the checkpoint file:  "ANI1ccx_583_conf2_mol2.chk"
 Charge =  0 Multiplicity = 1

                         Standard orientation:
 ---------------------------------------------------------------------
 Center     Atomic      Atomic             Coordinates (Angstroms)
 Number     Number       Type             X           Y           Z
 ---------------------------------------------------------------------
      1          6           0       -0.371139    2.048410    0.072542
      2          6           0        0.401688   -0.085654   -0.299236
      3          1           0       -0.900273    2.013180   -0.921293
      4          1           0       -0.042337    3.092820    0.271270
      5          1           0       -0.962622    1.712490    0.921865
      6          1           0        1.122480   -1.934171   -0.326621
      7          1           0        3.519610   -1.195773   -0.031466
      8          1           0        2.674030   -0.846233    1.386270
      9          1           0       -4.126199   -0.391068   -0.017567
     10          1           0       -2.579219   -0.567241    0.056951
     11          7           0        1.440620   -0.935600   -0.225638
     12          7           0        2.671471   -0.739117    0.331700
     13          8           0        0.769947    1.167919    0.032693
     14          8           0       -0.790502   -0.415494   -0.458474
     15          8           0       -3.438620   -0.994615    0.335572
 ---------------------------------------------------------------------

 SCF Done:  E(RHF) =  -414.319892800     A.U. after    2 cycles

 The electronic state is 1-A.
 Alpha  occ. eigenvalues --  -20.59706 -20.52925 -20.51871 -15.57785 -15.55389
 Alpha  occ. eigenvalues --  -11.42943 -11.30547  -1.55097  -1.44134  -1.38325
 Alpha  occ. eigenvalues --   -1.32636  -1.11982  -0.96869  -0.84336  -0.79765
 Alpha  occ. eigenvalues --   -0.75523  -0.73879  -0.68783  -0.67948  -0.63737
 Alpha  occ. eigenvalues --   -0.61144  -0.58429  -0.53457  -0.52568  -0.50340
 Alpha  occ. eigenvalues --   -0.46877  -0.46412  -0.45366  -0.43984
 Alpha virt. eigenvalues --    0.02395   0.03971   0.05044   0.05383   0.05598
 Alpha virt. eigenvalues --    0.06136   0.07737   0.09245   0.11069   0.12201
 Alpha virt. eigenvalues --    0.12594   0.13728   0.14784   0.15382   0.16261

 Mulliken charges:
               1
     1  C    0.087609
     2  C    1.123237
     3  H    0.261884
     4  H    0.011740
     5  H    0.138375
     6  H    0.307720
     7  H    0.107079
     8  H    0.170613
     9  H    0.333271
    10  H    0.660029
    11  N    0.095922
    12  N    0.098458
    13  O   -1.227451
    14  O   -1.279228
    15  O   -0.889259
 Sum of Mulliken charges =  -0.00000

 Dipole moment (field-independent basis, Debye):
    X=              3.7400    Y=              1.1351    Z=              0.2266  Tot=              3.9150

 Test job not archived.
 1\1\GINC-SE126\SP\RHF\Aug-CC-pVDZ\C2H8N2O3\OHZDE\08-Apr-2025\0\\#t hf
 aug-cc-pvdz iop(5/13=1,5/36=2,99/5=2) pseudo=read geom=check guess=(re
 ad,tcheck) scf=(maxcycle=1)\\title\\0,1\C,0,-0.371142,2.04841,0.072541
 8\C,0,0.401687,-0.0856532,-0.299236\H,0,-0.900276,2.01318,-0.921293\H,
 0,-0.0423411,3.09282,0.27127\H,0,-0.962624,1.71249,0.921865\H,0,1.1224
 8,-1.93417,-0.326621\H,0,3.51961,-1.19577,-0.0314661\H,0,2.67403,-0.84
 6231,1.38627\H,0,-4.1262,-0.391071,-0.0175668\H,0,-2.57922,-0.567243,0
 .0569513\N,0,1.44062,-0.935599,-0.225638\N,0,2.67147,-0.739115,0.3317\

 Normal termination of Gaussian 16 at Tue Apr  8 21:48:05 2025.
