 Gaussian 16, Revision C.01,

 ----------------------------------------------------------------------
 #t hf aug-cc-pvdz symm=none int=(grid=ultrafine) guess=(read,tcheck) s
 table=(opt,rrhf)
 ----------------------------------------------------------------------
 -----
 title
 -----
 Symbolic Z-matrix:
 Charge =  0 Multiplicity = 1

 SCF Done:  E(RHF) =  -405.921606729     A.U. after   15 cycles
 Normal termination of Gaussian 16 at Tue Apr  8 21:47:22 2025.
 Gaussian 16:  ES64L-G16RevC.01  3-Jul-2019

 ----------------------------------------------------------------------
 #t hf aug-cc-pvdz iop(5/13=1,5/36=2,99/5=2) pseudo=read geom=check gue
 ss=(read,tcheck) scf=(maxcycle=1)
 ----------------------------------------------------------------------
 -----
 title
 -----
 Structure from the checkpoint file:  "ANI1ccx_557_conf1_mol1.chk"
 Charge =  0 Multiplicity = 1

                         Standard orientation:
 ---------------------------------------------------------------------
 Center     Atomic      Atomic             Coordinates (Angstroms)
 Number     Number       Type             X           Y           Z
 ---------------------------------------------------------------------
      1          6           0       -1.314882   -0.004489    0.022414
      2          6           0        0.597997    0.697933    0.021192
      3          1           0       -3.195713   -0.862708    0.093468
      4          1           0       -2.955921    0.942980    0.237102
      5          1           0        2.363530    1.230527    0.736852
      6          1           0        1.545911    2.393158   -0.098700
      7          1           0        2.365067   -1.202473   -0.706626
      8          1           0        2.097596   -1.576303    0.908674
      9          7           0       -2.663942    0.024139   -0.019189
     10          7           0       -0.556858    1.178930    0.002888
     11          7           0        1.841640    1.407967   -0.102929
     12          7           0        0.603401   -0.678982   -0.004890
     13          7           0        1.706026   -1.525933   -0.004838
     14          7           0       -0.633005   -1.132670   -0.075671
 ---------------------------------------------------------------------

 SCF Done:  E(RHF) =  -406.343501646     A.U. after    2 cycles

 The electronic state is 1-A.
 Alpha  occ. eigenvalues --  -15.58242 -15.54323 -15.53686 -15.50828 -15.49757
 Alpha  occ. eigenvalues --  -15.49005 -11.34393 -11.32117  -1.42533  -1.28180
 Alpha  occ. eigenvalues --   -1.24624  -1.20737  -1.17192  -1.02831  -0.88555
 Alpha  occ. eigenvalues --   -0.85761  -0.79246  -0.76738  -0.74271  -0.71251
 Alpha  occ. eigenvalues --   -0.67733  -0.67179  -0.65074  -0.56933  -0.55163
 Alpha  occ. eigenvalues --   -0.52134  -0.50320  -0.48447  -0.45362  -0.34200
 Alpha virt. eigenvalues --    0.02435   0.04332   0.04653   0.05635   0.06103
 Alpha virt. eigenvalues --    0.06609   0.09680   0.11262   0.11982   0.12298
 Alpha virt. eigenvalues --    0.13441   0.13743   0.14395   0.15387   0.16172

 Mulliken charges:
               1
     1  C   -1.233606
     2  C   -0.922842
     3  H    0.159615
     4  H    0.202111
     5  H    0.269390
     6  H    0.222298
     7  H    0.185074
     8  H    0.150188
     9  N    0.445667
    10  N    0.581153
    11  N    0.523058
    12  N   -1.012608
    13  N    0.027367
    14  N    0.403137
 Sum of Mulliken charges =   0.00000

 Dipole moment (field-independent basis, Debye):
    X=              1.7184    Y=              1.9447    Z=              2.3618  Tot=              3.5090

 Test job not archived.
 1\1\GINC-SE273\SP\RHF\Aug-CC-pVDZ\C2H6N6\OHZDE\08-Apr-2025\0\\#t hf au
 g-cc-pvdz iop(5/13=1,5/36=2,99/5=2) pseudo=read geom=check guess=(read
 ,tcheck) scf=(maxcycle=1)\\title\\0,1\C,0,-1.31488,-0.00448967,0.02241
 43\C,0,0.597998,0.697934,0.021192\H,0,-3.19571,-0.862711,0.0934679\H,0
 ,-2.95592,0.942977,0.237102\H,0,2.36353,1.23053,0.736852\H,0,1.54591,2
 .39316,-0.0987\H,0,2.36507,-1.20247,-0.706626\H,0,2.0976,-1.5763,0.908
 674\N,0,-2.66394,0.0241364,-0.0191893\N,0,-0.556858,1.17893,0.00288814
 \N,0,1.84164,1.40797,-0.102929\N,0,0.603404,-0.678981,-0.00488985\N,0,

 Normal termination of Gaussian 16 at Tue Apr  8 21:47:28 2025.
