 Gaussian 16, Revision C.01,

 ----------------------------------------------------------------------
 #t hf aug-cc-pvdz symm=none int=(grid=ultrafine) guess=(read,tcheck) s
 table=(opt,rrhf)
 ----------------------------------------------------------------------
 -----
 title
 -----
 Symbolic Z-matrix:
 Charge =  0 Multiplicity = 1

 SCF Done:  E(RHF) =  -356.582158727     A.U. after   15 cycles
 Normal termination of Gaussian 16 at Tue Apr  8 21:43:36 2025.
 Gaussian 16:  ES64L-G16RevC.01  3-Jul-2019

 ----------------------------------------------------------------------
 #t hf aug-cc-pvdz iop(5/13=1,5/36=2,99/5=2) pseudo=read geom=check gue
 ss=(read,tcheck) scf=(maxcycle=1)
 ----------------------------------------------------------------------
 -----
 title
 -----
 Structure from the checkpoint file:  "ANI1ccx_498_conf1_mol1.chk"
 Charge =  0 Multiplicity = 1

                         Standard orientation:
 ---------------------------------------------------------------------
 Center     Atomic      Atomic             Coordinates (Angstroms)
 Number     Number       Type             X           Y           Z
 ---------------------------------------------------------------------
      1          6           0       -0.794451   -0.208873    0.099604
      2          6           0        0.785029   -0.106687    0.053391
      3          1           0       -2.371811    1.012607    0.271870
      4          1           0       -0.973278    1.898388    0.106349
      5          1           0        2.067469    1.178491   -0.079984
      6          7           0       -1.373341    1.006668   -0.141198
      7          8           0       -1.345588   -1.258802   -0.010223
      8          8           0        1.144909    1.135051    0.029853
      9          8           0        1.569121   -1.031599   -0.048107
 ---------------------------------------------------------------------

 SCF Done:  E(RHF) =  -356.930052744     A.U. after    2 cycles

 The electronic state is 1-A.
 Alpha  occ. eigenvalues --  -20.63487 -20.56036 -20.55278 -15.55601 -11.42160
 Alpha  occ. eigenvalues --  -11.39824  -1.61069  -1.50881  -1.47137  -1.24471
 Alpha  occ. eigenvalues --   -0.97549  -0.85087  -0.79442  -0.74826  -0.70270
 Alpha  occ. eigenvalues --   -0.67700  -0.66148  -0.62547  -0.60865  -0.49863
 Alpha  occ. eigenvalues --   -0.49660  -0.47113  -0.44374
 Alpha virt. eigenvalues --    0.02344   0.03555   0.05830   0.07286   0.09594
 Alpha virt. eigenvalues --    0.09690   0.10856   0.11648   0.12108   0.14067
 Alpha virt. eigenvalues --    0.14836   0.16215   0.16627   0.18642   0.19981

 Mulliken charges:
               1
     1  C    0.287554
     2  C    2.017211
     3  H    0.289981
     4  H    0.074371
     5  H    0.382798
     6  N    0.369741
     7  O   -1.148524
     8  O   -1.129623
     9  O   -1.143509
 Sum of Mulliken charges =  -0.00000

 Dipole moment (field-independent basis, Debye):
    X=              0.0892    Y=              5.1799    Z=              1.2240  Tot=              5.3233

 Test job not archived.
 1\1\GINC-SE048\SP\RHF\Aug-CC-pVDZ\C2H3N1O3\OHZDE\08-Apr-2025\0\\#t hf
 aug-cc-pvdz iop(5/13=1,5/36=2,99/5=2) pseudo=read geom=check guess=(re
 ad,tcheck) scf=(maxcycle=1)\\title\\0,1\C,0,-0.794452,-0.208872,0.0996
 038\C,0,0.785028,-0.106687,0.0533912\H,0,-2.37181,1.01261,0.27187\H,0,
 -0.973277,1.89839,0.106349\H,0,2.06747,1.17849,-0.0799835\N,0,-1.37334
 ,1.00667,-0.141198\O,0,-1.34559,-1.2588,-0.0102232\O,0,1.14491,1.13505
 ,0.0298532\O,0,1.56912,-1.0316,-0.0481071\\Version=ES64L-G16RevC.01\St
 ate=1-A\HF=-356.9300527\RMSD=1.719e-02\Dipole=0.0350858,2.037916,0.481

 Normal termination of Gaussian 16 at Tue Apr  8 21:43:39 2025.
