 Gaussian 16, Revision C.01,

 ----------------------------------------------------------------------
 #t hf aug-cc-pvdz symm=none int=(grid=ultrafine) guess=(read,tcheck) s
 table=(opt,rrhf)
 ----------------------------------------------------------------------
 -----
 title
 -----
 Symbolic Z-matrix:
 Charge =  0 Multiplicity = 1

 SCF Done:  E(RHF) =  -928.126877793     A.U. after   17 cycles
 Normal termination of Gaussian 16 at Tue Apr  8 21:44:10 2025.
 Gaussian 16:  ES64L-G16RevC.01  3-Jul-2019

 ----------------------------------------------------------------------
 #t hf aug-cc-pvdz iop(5/13=1,5/36=2,99/5=2) pseudo=read geom=check gue
 ss=(read,tcheck) scf=(maxcycle=1)
 ----------------------------------------------------------------------
 -----
 title
 -----
 Structure from the checkpoint file:  "ANI1ccx_347_conf1_mol1.chk"
 Charge =  0 Multiplicity = 1

                         Standard orientation:
 ---------------------------------------------------------------------
 Center     Atomic      Atomic             Coordinates (Angstroms)
 Number     Number       Type             X           Y           Z
 ---------------------------------------------------------------------
      1          6           0        1.715308    2.778811   -0.332634
      2          6           0       -4.016601    1.053308   -0.248394
      3          6           0       -3.123291    1.556369    0.726002
      4          6           0       -3.844760   -0.172413   -0.885205
      5          6           0       -2.724050   -0.924377   -0.515858
      6          6           0       -1.748160   -0.375107    0.377655
      7          6           0       -1.041619   -2.421641   -0.180216
      8          6           0       -1.931151    0.883321    0.948352
      9          6           0        0.496519   -1.251420    1.478460
     10          6           0        2.253531   -2.041899   -0.122371
     11          6           0        1.791500   -0.887502    0.763352
     12          6           0        0.328291    3.133140   -0.833481
     13          6           0        1.626329    1.576191    0.622935
     14          6           0       -0.710849   -1.321650    0.548563
     15          1           0       -0.564075   -3.375550   -0.330511
     16          1           0        3.007081   -2.407249   -1.730090
     17          1           0       -4.930451    1.637758   -0.416784
     18          1           0       -3.318001    2.554488    1.096560
     19          1           0       -4.508490   -0.475998   -1.715080
     20          1           0       -1.130751    1.379759    1.544930
     21          1           0       -2.508999   -2.787531   -1.559990
     22          1           0        0.632418   -2.253400    1.977810
     23          1           0       -0.195692    2.283760   -1.332450
     24          1           0        2.650100   -0.820636    1.465310
     25          1           0        1.959010    0.268374   -0.936195
     26          1           0        0.330568    4.037880   -1.430570
     27          1           0       -0.383439    3.347300   -0.018804
     28          1           0        2.155588    3.622511    0.225456
     29          1           0        3.598959    2.401932   -1.095860
     30          1           0        2.449469    2.723371   -2.306490
     31          1           0        0.292023   -0.575365    2.368530
     32          7           0        2.624339    2.354661   -1.375860
     33          7           0        1.690010    0.342979    0.013054
     34          7           0       -2.248009   -2.189041   -0.834785
     35          8           0        2.401541   -3.196389    0.203103
     36          8           0        1.434729    1.728841    1.811190
     37          8           0        2.610520   -1.611499   -1.327490
 ---------------------------------------------------------------------

 SCF Done:  E(RHF) =  -929.066402253     A.U. after    2 cycles

 The electronic state is 1-A.
 Alpha  occ. eigenvalues --  -20.61910 -20.54723 -20.50766 -15.53768 -15.51344
 Alpha  occ. eigenvalues --  -15.49682 -11.40579 -11.34933 -11.29802 -11.28145
 Alpha  occ. eigenvalues --  -11.27536 -11.26756 -11.24604 -11.24191 -11.23827
 Alpha  occ. eigenvalues --  -11.23781 -11.23462 -11.22639 -11.22628 -11.22548
 Alpha  occ. eigenvalues --   -1.57717  -1.46350  -1.45935  -1.29006  -1.24965
 Alpha  occ. eigenvalues --   -1.19708  -1.13203  -1.08856  -1.04334  -1.01473
 Alpha  occ. eigenvalues --   -1.00319  -0.98117  -0.92813  -0.88965  -0.86054
 Alpha  occ. eigenvalues --   -0.83173  -0.82049  -0.81587  -0.76585  -0.74857
 Alpha  occ. eigenvalues --   -0.74059  -0.72128  -0.71851  -0.69386  -0.68208
 Alpha  occ. eigenvalues --   -0.67365  -0.66485  -0.66192  -0.63191  -0.62681
 Alpha  occ. eigenvalues --   -0.61376  -0.60921  -0.60176  -0.60128  -0.58217
 Alpha  occ. eigenvalues --   -0.57761  -0.56983  -0.54725  -0.53846  -0.53093
 Alpha  occ. eigenvalues --   -0.52749  -0.51817  -0.50271  -0.48789  -0.48421
 Alpha  occ. eigenvalues --   -0.47313  -0.45571  -0.44970  -0.41522  -0.40481
 Alpha  occ. eigenvalues --   -0.39428  -0.31517  -0.29074
 Alpha virt. eigenvalues --    0.02563   0.02836   0.03293   0.03881   0.04131
 Alpha virt. eigenvalues --    0.04521   0.04944   0.05325   0.05591   0.06109
 Alpha virt. eigenvalues --    0.06885   0.07449   0.08101   0.08724   0.08969

 Mulliken charges:
               1
     1  C   -1.425765
     2  C    0.011815
     3  C   -0.261215
     4  C    0.888234
     5  C   -2.473165
     6  C    0.793838
     7  C   -1.279324
     8  C    1.270732
     9  C   -0.387048
    10  C    3.386906
    11  C   -1.953270
    12  C   -0.162702
    13  C    0.882092
    14  C    1.346656
    15  H   -0.443391
    16  H    0.422052
    17  H   -0.240566
    18  H   -0.303981
    19  H   -0.209519
    20  H   -0.279967
    21  H   -0.127433
    22  H    0.143980
    23  H    0.340050
    24  H    0.221908
    25  H    0.281954
    26  H    0.036878
    27  H    0.174181
    28  H    0.104936
    29  H    0.227128
    30  H    0.231168
    31  H    0.220050
    32  N    0.430063
    33  N    1.518069
    34  N    1.319596
    35  O   -1.518628
    36  O   -1.686827
    37  O   -1.499486
 Sum of Mulliken charges =   0.00000

 Dipole moment (field-independent basis, Debye):
    X=              1.2727    Y=              0.7612    Z=             -4.8547  Tot=              5.0761

 Test job not archived.
 1\1\GINC-SE015\SP\RHF\Aug-CC-pVDZ\C14H17N3O3\OHZDE\08-Apr-2025\0\\#t h
 f aug-cc-pvdz iop(5/13=1,5/36=2,99/5=2) pseudo=read geom=check guess=(
 read,tcheck) scf=(maxcycle=1)\\title\\0,1\C,0,1.71531,2.77881,-0.33263
 4\C,0,-4.0166,1.05331,-0.248394\C,0,-3.12329,1.55637,0.726002\C,0,-3.8
 4476,-0.172411,-0.885205\C,0,-2.72405,-0.924376,-0.515858\C,0,-1.74816
 ,-0.375106,0.377655\C,0,-1.04162,-2.42164,-0.180216\C,0,-1.93115,0.883
 322,0.948352\C,0,0.496519,-1.25142,1.47846\C,0,2.25353,-2.0419,-0.1223
 71\C,0,1.7915,-0.887503,0.763352\C,0,0.328293,3.13314,-0.833481\C,0,1.

 Normal termination of Gaussian 16 at Tue Apr  8 21:45:32 2025.
