 Gaussian 16, Revision C.01,

 ----------------------------------------------------------------------
 #t hf aug-cc-pvdz symm=none int=(grid=ultrafine) guess=(read,tcheck) s
 table=(opt,rrhf)
 ----------------------------------------------------------------------
 -----
 title
 -----
 Symbolic Z-matrix:
 Charge =  0 Multiplicity = 1

 SCF Done:  E(RHF) =  -528.741303536     A.U. after   15 cycles
 Normal termination of Gaussian 16 at Tue Apr  8 22:17:54 2025.
 Gaussian 16:  ES64L-G16RevC.01  3-Jul-2019

 ----------------------------------------------------------------------
 #t hf aug-cc-pvdz iop(5/13=1,5/36=2,99/5=2) pseudo=read geom=check gue
 ss=(read,tcheck) scf=(maxcycle=1)
 ----------------------------------------------------------------------
 -----
 title
 -----
 Structure from the checkpoint file:  "ANI1ccx_998_conf10_mol2.chk"
 Charge =  0 Multiplicity = 1

                         Standard orientation:
 ---------------------------------------------------------------------
 Center     Atomic      Atomic             Coordinates (Angstroms)
 Number     Number       Type             X           Y           Z
 ---------------------------------------------------------------------
      1          6           0        1.508589   -0.375784   -0.447037
      2          6           0        0.903455    0.997799   -0.127177
      3          6           0        0.346218   -1.468709   -0.382763
      4          6           0       -0.930785   -0.838415   -0.997025
      5          6           0       -1.738771   -0.329496    0.168610
      6          1           0        1.500629    0.614456    1.552350
      7          1           0       -3.198411    1.020499    0.661725
      8          1           0       -2.052732    1.511860   -0.569022
      9          1           0       -1.422830   -1.682760   -1.470070
     10          1           0       -0.738663   -0.063029   -1.803060
     11          1           0        0.245618   -1.808429    0.645265
     12          1           0        0.608916   -2.335059   -0.912307
     13          1           0        1.815749   -0.310815   -1.490590
     14          1           0        2.728940   -1.698907    0.436282
     15          1           0        3.529319   -0.282206    0.188562
     16          7           0        2.648020   -0.692788    0.463535
     17          7           0       -2.560081    0.771744   -0.074055
     18          8           0        0.389575    1.671831   -0.987651
     19          8           0       -1.886660   -0.974976    1.173820
     20          8           0        0.976542    1.374311    1.157190
 ---------------------------------------------------------------------

 SCF Done:  E(RHF) =  -529.275193021     A.U. after    2 cycles

 The electronic state is 1-A.
 Alpha  occ. eigenvalues --  -20.60499 -20.54004 -20.51252 -15.53180 -15.51115
 Alpha  occ. eigenvalues --  -11.39766 -11.35442 -11.30644 -11.25989 -11.25634
 Alpha  occ. eigenvalues --   -1.54685  -1.47053  -1.46099  -1.22081  -1.19941
 Alpha  occ. eigenvalues --   -1.08518  -0.98055  -0.89753  -0.81378  -0.79323
 Alpha  occ. eigenvalues --   -0.74461  -0.73947  -0.72589  -0.70458  -0.68981
 Alpha  occ. eigenvalues --   -0.66938  -0.64003  -0.61989  -0.60191  -0.57695
 Alpha  occ. eigenvalues --   -0.56482  -0.55251  -0.53593  -0.50144  -0.48045
 Alpha  occ. eigenvalues --   -0.47473  -0.44140  -0.43903  -0.42225
 Alpha virt. eigenvalues --    0.02179   0.03454   0.04175   0.04595   0.05714
 Alpha virt. eigenvalues --    0.06572   0.06805   0.07056   0.07673   0.09026
 Alpha virt. eigenvalues --    0.09868   0.11250   0.11451   0.12250   0.13397

 Mulliken charges:
               1
     1  C   -1.759294
     2  C    2.691192
     3  C    0.348134
     4  C   -0.414965
     5  C    0.349831
     6  H    0.501211
     7  H    0.081303
     8  H    0.181990
     9  H    0.083039
    10  H    0.305737
    11  H    0.082253
    12  H   -0.024729
    13  H    0.072386
    14  H    0.267695
    15  H    0.216525
    16  N    0.460170
    17  N    0.713799
    18  O   -1.428717
    19  O   -1.346483
    20  O   -1.381076
 Sum of Mulliken charges =  -0.00000

 Dipole moment (field-independent basis, Debye):
    X=              3.3856    Y=             -2.1541    Z=             -1.7956  Tot=              4.3962

 Test job not archived.
 1\1\GINC-SE338\SP\RHF\Aug-CC-pVDZ\C5H10N2O3\OHZDE\08-Apr-2025\0\\#t hf
  aug-cc-pvdz iop(5/13=1,5/36=2,99/5=2) pseudo=read geom=check guess=(r
 ead,tcheck) scf=(maxcycle=1)\\title\\0,1\C,0,1.50859,-0.375786,-0.4470
 37\C,0,0.903456,0.997798,-0.127177\C,0,0.346218,-1.46871,-0.382763\C,0
 ,-0.930785,-0.838415,-0.997025\C,0,-1.73877,-0.329496,0.16861\H,0,1.50
 063,0.614454,1.55235\H,0,-3.19841,1.0205,0.661725\H,0,-2.05273,1.51186
 ,-0.569022\H,0,-1.42283,-1.68276,-1.47007\H,0,-0.738662,-0.063029,-1.8
 0306\H,0,0.245618,-1.80843,0.645265\H,0,0.608915,-2.33506,-0.912307\H,

 Normal termination of Gaussian 16 at Tue Apr  8 22:18:04 2025.
