 Gaussian 16, Revision C.01,

 ----------------------------------------------------------------------
 #t hf aug-cc-pvdz symm=none int=(grid=ultrafine) guess=(read,tcheck) s
 table=(opt,rrhf)
 ----------------------------------------------------------------------
 -----
 title
 -----
 Symbolic Z-matrix:
 Charge =  0 Multiplicity = 1

 SCF Done:  E(RHF) =  -311.834556433     A.U. after   15 cycles
 Normal termination of Gaussian 16 at Tue Apr  8 21:34:40 2025.
 Gaussian 16:  ES64L-G16RevC.01  3-Jul-2019

 ----------------------------------------------------------------------
 #t hf aug-cc-pvdz iop(5/13=1,5/36=2,99/5=2) pseudo=read geom=check gue
 ss=(read,tcheck) scf=(maxcycle=1)
 ----------------------------------------------------------------------
 -----
 title
 -----
 Structure from the checkpoint file:  "ANI1ccx_392_conf10_mol1.chk"
 Charge =  0 Multiplicity = 1

                         Standard orientation:
 ---------------------------------------------------------------------
 Center     Atomic      Atomic             Coordinates (Angstroms)
 Number     Number       Type             X           Y           Z
 ---------------------------------------------------------------------
      1          6           0       -0.613195   -0.086981    0.038141
      2          1           0       -2.301381    0.941110   -0.003333
      3          1           0       -2.483859   -0.877372    0.254434
      4          1           0        2.176232   -1.103067    0.089932
      5          7           0       -1.993250   -0.034480   -0.072491
      6          7           0        0.101993    1.147490    0.035368
      7          7           0        1.304449    0.773470   -0.010479
      8          7           0        1.327921   -0.544900   -0.040866
      9          7           0        0.157197   -1.118549    0.007056
 ---------------------------------------------------------------------

 SCF Done:  E(RHF) =  -312.152046337     A.U. after    2 cycles

 The electronic state is 1-A.
 Alpha  occ. eigenvalues --  -15.62325 -15.60940 -15.54919 -15.54429 -15.52985
 Alpha  occ. eigenvalues --  -11.33999  -1.50555  -1.30354  -1.24915  -1.15525
 Alpha  occ. eigenvalues --   -0.96192  -0.90988  -0.83469  -0.74699  -0.73394
 Alpha  occ. eigenvalues --   -0.70197  -0.63416  -0.55693  -0.55153  -0.51723
 Alpha  occ. eigenvalues --   -0.51554  -0.39498
 Alpha virt. eigenvalues --    0.02893   0.04544   0.06051   0.08312   0.09666
 Alpha virt. eigenvalues --    0.11594   0.11845   0.13142   0.13630   0.14531
 Alpha virt. eigenvalues --    0.15356   0.15801   0.16995   0.17665   0.19204

 Mulliken charges:
               1
     1  C   -1.081419
     2  H    0.157511
     3  H    0.158531
     4  H    0.100182
     5  N    0.433589
     6  N    0.156620
     7  N   -0.344056
     8  N    0.153329
     9  N    0.265713
 Sum of Mulliken charges =  -0.00000

 Dipole moment (field-independent basis, Debye):
    X=             -0.8693    Y=             -1.7352    Z=              0.8669  Tot=              2.1256

 Test job not archived.
 1\1\GINC-SE457\SP\RHF\Aug-CC-pVDZ\C1H3N5\OHZDE\08-Apr-2025\0\\#t hf au
 g-cc-pvdz iop(5/13=1,5/36=2,99/5=2) pseudo=read geom=check guess=(read
 ,tcheck) scf=(maxcycle=1)\\title\\0,1\C,0,-0.613195,-0.0869809,0.03814
 15\H,0,-2.30138,0.941112,-0.00333281\H,0,-2.48386,-0.877369,0.254434\H
 ,0,2.17623,-1.10307,0.0899325\N,0,-1.99325,-0.034478,-0.0724914\N,0,0.
 101994,1.14749,0.0353678\N,0,1.30445,0.773468,-0.0104787\N,0,1.32792,-
 0.544902,-0.0408657\N,0,0.157195,-1.11855,0.0070562\\Version=ES64L-G16
 RevC.01\State=1-A\HF=-312.1520463\RMSD=5.047e-02\Dipole=-0.342009,-0.6

 Normal termination of Gaussian 16 at Tue Apr  8 21:34:44 2025.
