 Gaussian 16, Revision C.01,

 ----------------------------------------------------------------------
 #t hf aug-cc-pvdz symm=none int=(grid=ultrafine) guess=(read,tcheck) s
 table=(opt,rrhf)
 ----------------------------------------------------------------------
 -----
 title
 -----
 Symbolic Z-matrix:
 Charge =  0 Multiplicity = 1

 SCF Done:  E(RHF) =  -541.417929143     A.U. after   16 cycles
 Normal termination of Gaussian 16 at Tue Apr  8 19:52:18 2025.
 Gaussian 16:  ES64L-G16RevC.01  3-Jul-2019

 ----------------------------------------------------------------------
 #t hf aug-cc-pvdz iop(5/13=1,5/36=2,99/5=2) pseudo=read geom=check gue
 ss=(read,tcheck) scf=(maxcycle=1)
 ----------------------------------------------------------------------
 -----
 title
 -----
 Structure from the checkpoint file:  "ANI1ccx_1513_conf4_mol1.chk"
 Charge =  0 Multiplicity = 1

                         Standard orientation:
 ---------------------------------------------------------------------
 Center     Atomic      Atomic             Coordinates (Angstroms)
 Number     Number       Type             X           Y           Z
 ---------------------------------------------------------------------
      1          6           0       -1.440670    0.069859    0.029857
      2          6           0       -3.807580   -0.330296    0.014190
      3          6           0        1.036350   -0.253773    0.086379
      4          6           0        1.439460    1.051540    0.185219
      5          6           0        2.741770    1.294229    0.025067
      6          6           0        3.709760    0.262546   -0.061466
      7          6           0        2.043429   -1.248280   -0.018345
      8          1           0        1.690129   -2.294280   -0.071896
      9          1           0        4.767260    0.565759   -0.200929
     10          1           0        3.134740    2.303989    0.140507
     11          1           0       -0.369487   -1.694990    0.066631
     12          1           0       -2.376061   -1.746229    0.099911
     13          1           0       -2.334660    1.750061   -0.249938
     14          1           0        0.714363    1.807180    0.383491
     15          7           0       -0.305546   -0.700672    0.119001
     16          7           0       -1.434240    1.327941   -0.194343
     17          7           0       -2.565971   -0.773704    0.019064
     18          7           0       -4.747760    0.354658   -0.050333
     19          7           0        3.401889   -1.032001   -0.140986
 ---------------------------------------------------------------------

 SCF Done:  E(RHF) =  -541.959913497     A.U. after    2 cycles

 The electronic state is 1-A.
 Alpha  occ. eigenvalues --  -15.60647 -15.57191 -15.53647 -15.52967 -15.49125
 Alpha  occ. eigenvalues --  -11.40563 -11.33835 -11.30972 -11.29748 -11.28722
 Alpha  occ. eigenvalues --  -11.25409 -11.25135  -1.37688  -1.29294  -1.26065
 Alpha  occ. eigenvalues --   -1.23344  -1.20378  -1.11374  -1.04534  -0.95786
 Alpha  occ. eigenvalues --   -0.90577  -0.86960  -0.86610  -0.83202  -0.75907
 Alpha  occ. eigenvalues --   -0.73564  -0.71503  -0.69499  -0.68522  -0.63011
 Alpha  occ. eigenvalues --   -0.62025  -0.61608  -0.61146  -0.56048  -0.55579
 Alpha  occ. eigenvalues --   -0.52535  -0.51057  -0.49532  -0.47001  -0.45034
 Alpha  occ. eigenvalues --   -0.41045  -0.34105
 Alpha virt. eigenvalues --    0.01160   0.03708   0.04044   0.04883   0.05412
 Alpha virt. eigenvalues --    0.06584   0.06841   0.07457   0.08427   0.08510
 Alpha virt. eigenvalues --    0.09125   0.09546   0.10144   0.10802   0.11276

 Mulliken charges:
               1
     1  C   -1.703154
     2  C   -1.504393
     3  C   -0.734216
     4  C    1.590194
     5  C    0.308540
     6  C   -0.889633
     7  C   -0.923741
     8  H   -0.226869
     9  H   -0.110930
    10  H   -0.187288
    11  H    0.148790
    12  H    0.181078
    13  H    0.208974
    14  H   -0.247726
    15  N    0.794353
    16  N    0.739579
    17  N    0.556862
    18  N    0.975061
    19  N    1.024521
 Sum of Mulliken charges =  -0.00000

 Dipole moment (field-independent basis, Debye):
    X=              1.0980    Y=             -2.6968    Z=              0.8043  Tot=              3.0208

 Test job not archived.
 1\1\GINC-SE132\SP\RHF\Aug-CC-pVDZ\C7H7N5\OHZDE\08-Apr-2025\0\\#t hf au
 g-cc-pvdz iop(5/13=1,5/36=2,99/5=2) pseudo=read geom=check guess=(read
 ,tcheck) scf=(maxcycle=1)\\title\\0,1\C,0,-1.44067,0.0698583,0.0298573
 \C,0,-3.80758,-0.330297,0.0141903\C,0,1.03635,-0.253773,0.0863788\C,0,
 1.43946,1.05154,0.185219\C,0,2.74177,1.29423,0.0250672\C,0,3.70976,0.2
 62547,-0.0614664\C,0,2.04343,-1.24828,-0.0183448\H,0,1.69013,-2.29428,
 -0.071896\H,0,4.76726,0.56576,-0.200929\H,0,3.13474,2.30399,0.140507\H
 ,0,-0.369486,-1.69499,0.0666308\H,0,-2.37606,-1.74623,0.099911\H,0,-2.

 Normal termination of Gaussian 16 at Tue Apr  8 19:52:30 2025.
