 Gaussian 16, Revision C.01,

 ----------------------------------------------------------------------
 #t hf aug-cc-pvdz symm=none int=(grid=ultrafine) guess=(read,tcheck) s
 table=(opt,rrhf)
 ----------------------------------------------------------------------
 -----
 title
 -----
 Symbolic Z-matrix:
 Charge =  0 Multiplicity = 1

 SCF Done:  E(RHF) =  -857.001072619     A.U. after   15 cycles
 Normal termination of Gaussian 16 at Tue Apr  8 21:51:32 2025.
 Gaussian 16:  ES64L-G16RevC.01  3-Jul-2019

 ----------------------------------------------------------------------
 #t hf aug-cc-pvdz iop(5/13=1,5/36=2,99/5=2) pseudo=read geom=check gue
 ss=(read,tcheck) scf=(maxcycle=1)
 ----------------------------------------------------------------------
 -----
 title
 -----
 Structure from the checkpoint file:  "ANI1ccx_290_conf3_mol1.chk"
 Charge =  0 Multiplicity = 1

                         Standard orientation:
 ---------------------------------------------------------------------
 Center     Atomic      Atomic             Coordinates (Angstroms)
 Number     Number       Type             X           Y           Z
 ---------------------------------------------------------------------
      1          6           0       -1.713952   -1.110587    0.616506
      2          6           0        2.878211    0.791042    0.586406
      3          6           0        1.986762    1.108666   -0.657361
      4          6           0        0.803857    2.057578   -0.440185
      5          6           0       -1.446195    2.698072    0.178230
      6          6           0       -0.546638    1.491260    0.003445
      7          6           0        3.888359   -0.346769    0.340611
      8          6           0       -0.115229   -3.086990    0.114837
      9          6           0        0.246248   -1.570421    2.060270
     10          6           0       -0.277391   -1.669650    0.655186
     11          6           0       -1.849091   -0.475020   -0.730600
     12          6           0       -0.222832   -3.123530   -1.448940
     13          1           0        0.623665    2.664398   -1.336760
     14          1           0        2.642013    1.518185   -1.434160
     15          1           0        1.543150    0.177800   -1.072720
     16          1           0        3.420953    1.694553    0.930716
     17          1           0        2.271511    0.494841    1.446290
     18          1           0        4.441369   -0.657170    1.253260
     19          1           0        5.464699   -0.803754   -0.751957
     20          1           0        4.625891    0.335025   -1.450290
     21          1           0       -2.002773    3.949583    1.436240
     22          1           0        1.174985    2.811647    0.262650
     23          1           0        3.298858   -1.245997   -0.035787
     24          1           0       -0.237946    0.891451    0.840319
     25          1           0        0.637516   -2.560522   -1.852620
     26          1           0       -1.142165   -2.743158   -1.790090
     27          1           0       -3.267824   -2.365595    0.183197
     28          1           0       -2.496145   -2.698906    1.674740
     29          1           0       -1.641941   -0.309255    1.341890
     30          1           0       -1.270338    1.018492   -1.923960
     31          1           0        0.607324   -0.550547    2.320940
     32          1           0        0.337055   -1.059921    0.021500
     33          1           0       -0.536536   -1.824820    2.808460
     34          1           0       -0.791092   -3.772999    0.595238
     35          1           0        0.852625   -3.468272    0.327410
     36          1           0       -0.137389   -4.193660   -1.745030
     37          1           0        1.090006   -2.232053    2.283940
     38          7           0       -2.813454   -1.984165    0.991829
     39          7           0       -1.112529    0.638743   -0.990216
     40          7           0        4.950010    0.074126   -0.559618
     41          8           0       -2.040694    3.226763   -0.774186
     42          8           0       -2.480952   -0.942178   -1.679900
     43          8           0       -1.536894    3.121392    1.441860
 ---------------------------------------------------------------------

 SCF Done:  E(RHF) =  -857.893850406     A.U. after    2 cycles

 The electronic state is 1-A.
 Alpha  occ. eigenvalues --  -20.62552 -20.55344 -20.50719 -15.52877 -15.49362
 Alpha  occ. eigenvalues --  -15.49174 -11.41624 -11.35839 -11.30815 -11.27818
 Alpha  occ. eigenvalues --  -11.27306 -11.25665 -11.25295 -11.24599 -11.24243
 Alpha  occ. eigenvalues --  -11.24061 -11.22682 -11.21630  -1.57104  -1.45782
 Alpha  occ. eigenvalues --   -1.45246  -1.26524  -1.19874  -1.19704  -1.10449
 Alpha  occ. eigenvalues --   -1.09866  -1.03912  -1.00518  -0.97054  -0.96071
 Alpha  occ. eigenvalues --   -0.88182  -0.87028  -0.85710  -0.82060  -0.80981
 Alpha  occ. eigenvalues --   -0.79760  -0.75251  -0.73819  -0.72598  -0.69938
 Alpha  occ. eigenvalues --   -0.69757  -0.67734  -0.67062  -0.65433  -0.64949
 Alpha  occ. eigenvalues --   -0.64255  -0.62708  -0.62065  -0.60532  -0.60014
 Alpha  occ. eigenvalues --   -0.59623  -0.59123  -0.58213  -0.57281  -0.55438
 Alpha  occ. eigenvalues --   -0.54333  -0.53879  -0.53213  -0.52443  -0.50742
 Alpha  occ. eigenvalues --   -0.50003  -0.49269  -0.48457  -0.48023  -0.47446
 Alpha  occ. eigenvalues --   -0.46383  -0.46231  -0.43619  -0.42753  -0.42003
 Alpha  occ. eigenvalues --   -0.41357
 Alpha virt. eigenvalues --    0.02193   0.02474   0.02877   0.03379   0.03982
 Alpha virt. eigenvalues --    0.04473   0.05026   0.05214   0.06044   0.06713
 Alpha virt. eigenvalues --    0.06959   0.07185   0.07631   0.07752   0.08165

 Mulliken charges:
               1
     1  C   -1.880312
     2  C   -0.306380
     3  C    0.064827
     4  C   -0.498035
     5  C    3.165746
     6  C   -0.943359
     7  C   -0.949783
     8  C   -0.094812
     9  C    0.098678
    10  C   -0.690846
    11  C    0.933766
    12  C   -0.099490
    13  H    0.153748
    14  H   -0.004749
    15  H    0.330351
    16  H    0.206478
    17  H    0.047830
    18  H    0.054938
    19  H    0.249789
    20  H    0.042609
    21  H    0.400878
    22  H    0.174226
    23  H    0.200654
    24  H    0.082042
    25  H    0.281497
    26  H   -0.009308
    27  H    0.185192
    28  H    0.252755
    29  H    0.239959
    30  H    0.455977
    31  H    0.221757
    32  H   -0.106911
    33  H    0.217746
    34  H    0.126842
    35  H   -0.011678
    36  H    0.122623
    37  H    0.012488
    38  N    0.933369
    39  N    0.503567
    40  N    0.433033
    41  O   -1.450460
    42  O   -1.678486
    43  O   -1.468758
 Sum of Mulliken charges =  -0.00000

 Dipole moment (field-independent basis, Debye):
    X=              3.5273    Y=             -0.4174    Z=              2.8521  Tot=              4.5552

 Test job not archived.
 1\1\GINC-SE102\SP\RHF\Aug-CC-pVDZ\C12H25N3O3\OHZDE\08-Apr-2025\0\\#t h
 f aug-cc-pvdz iop(5/13=1,5/36=2,99/5=2) pseudo=read geom=check guess=(
 read,tcheck) scf=(maxcycle=1)\\title\\0,1\C,0,-1.71395,-1.11059,0.6165
 06\C,0,2.87821,0.791048,0.586406\C,0,1.98676,1.10867,-0.657361\C,0,0.8
 03853,2.05758,-0.440185\C,0,-1.4462,2.69807,0.17823\C,0,-0.546641,1.49
 126,0.00344467\C,0,3.88836,-0.346761,0.340611\C,0,-0.115223,-3.08699,0
 .114837\C,0,0.246251,-1.57042,2.06027\C,0,-0.277388,-1.66965,0.655186\
 C,0,-1.84909,-0.475023,-0.7306\C,0,-0.222826,-3.12353,-1.44894\H,0,0.6

 Normal termination of Gaussian 16 at Tue Apr  8 21:53:09 2025.
