 Gaussian 16, Revision C.01,

 ----------------------------------------------------------------------
 #t hf aug-cc-pvdz symm=none int=(grid=ultrafine) guess=(read,tcheck) s
 table=(opt,rrhf)
 ----------------------------------------------------------------------
 -----
 title
 -----
 Symbolic Z-matrix:
 Charge =  0 Multiplicity = 1

 SCF Done:  E(RHF) =  -460.270095492     A.U. after   16 cycles
 Normal termination of Gaussian 16 at Tue Apr  8 21:27:37 2025.
 Gaussian 16:  ES64L-G16RevC.01  3-Jul-2019

 ----------------------------------------------------------------------
 #t hf aug-cc-pvdz iop(5/13=1,5/36=2,99/5=2) pseudo=read geom=check gue
 ss=(read,tcheck) scf=(maxcycle=1)
 ----------------------------------------------------------------------
 -----
 title
 -----
 Structure from the checkpoint file:  "ANI1ccx_373_conf5_mol1.chk"
 Charge =  0 Multiplicity = 1

                         Standard orientation:
 ---------------------------------------------------------------------
 Center     Atomic      Atomic             Coordinates (Angstroms)
 Number     Number       Type             X           Y           Z
 ---------------------------------------------------------------------
      1          6           0        0.039756   -0.050599    0.020738
      2          1           0        2.817241   -1.090231   -0.152365
      3          7           0       -1.422909   -0.031447   -0.058248
      4          7           0        0.726644    1.112769    0.088198
      5          7           0        1.932401    0.764250    0.056049
      6          7           0        1.967431   -0.528942   -0.043786
      7          7           0        0.844086   -1.118701   -0.062117
      8          8           0       -2.000839   -1.094160    0.113689
      9          8           0       -1.922829    1.095200   -0.092779
 ---------------------------------------------------------------------

 SCF Done:  E(RHF) =  -460.723379407     A.U. after    2 cycles

 The electronic state is 1-A.
 Alpha  occ. eigenvalues --  -20.61877 -20.61445 -15.82327 -15.69418 -15.64291
 Alpha  occ. eigenvalues --  -15.63096 -15.60191 -11.39207  -1.68982  -1.58355
 Alpha  occ. eigenvalues --   -1.53061  -1.37288  -1.26523  -1.11014  -1.02213
 Alpha  occ. eigenvalues --   -0.95540  -0.88052  -0.81959  -0.80958  -0.76510
 Alpha  occ. eigenvalues --   -0.76047  -0.69211  -0.61478  -0.57323  -0.56615
 Alpha  occ. eigenvalues --   -0.52313  -0.51489  -0.49067  -0.46702
 Alpha virt. eigenvalues --    0.00004   0.01726   0.05125   0.07131   0.09756
 Alpha virt. eigenvalues --    0.10438   0.11021   0.11266   0.12463   0.13257
 Alpha virt. eigenvalues --    0.13704   0.15463   0.15833   0.16609   0.17245

 Mulliken charges:
               1
     1  C   -0.487669
     2  H    0.110717
     3  N    2.510566
     4  N    0.357526
     5  N   -0.412041
     6  N    0.045122
     7  N    0.474214
     8  O   -1.325452
     9  O   -1.272984
 Sum of Mulliken charges =  -0.00000

 Dipole moment (field-independent basis, Debye):
    X=              4.2302    Y=             -2.1946    Z=             -0.3094  Tot=              4.7757

 Test job not archived.
 1\1\GINC-SE342\SP\RHF\Aug-CC-pVDZ\C1H1N5O2\OHZDE\08-Apr-2025\0\\#t hf
 aug-cc-pvdz iop(5/13=1,5/36=2,99/5=2) pseudo=read geom=check guess=(re
 ad,tcheck) scf=(maxcycle=1)\\title\\0,1\C,0,0.0397547,-0.0505985,0.020
 7375\H,0,2.81724,-1.09023,-0.152365\N,0,-1.42291,-0.0314465,-0.058248\
 N,0,0.726643,1.11277,0.0881978\N,0,1.9324,0.764251,0.0560485\N,0,1.967
 43,-0.528941,-0.0437863\N,0,0.844085,-1.1187,-0.0621173\O,0,-2.00084,-
 1.09416,0.113689\O,0,-1.92283,1.0952,-0.0927794\\Version=ES64L-G16RevC
 .01\State=1-A\HF=-460.7233794\RMSD=5.380e-02\Dipole=1.6643015,-0.86344

 Normal termination of Gaussian 16 at Tue Apr  8 21:27:40 2025.
