 Gaussian 16, Revision C.01,

 ----------------------------------------------------------------------
 #t hf aug-cc-pvdz symm=none int=(grid=ultrafine) guess=(read,tcheck) s
 table=(opt,rrhf)
 ----------------------------------------------------------------------
 -----
 title
 -----
 Symbolic Z-matrix:
 Charge =  0 Multiplicity = 1

 SCF Done:  E(RHF) =  -739.899334804     A.U. after   14 cycles
 Normal termination of Gaussian 16 at Tue Apr  8 21:05:59 2025.
 Gaussian 16:  ES64L-G16RevC.01  3-Jul-2019

 ----------------------------------------------------------------------
 #t hf aug-cc-pvdz iop(5/13=1,5/36=2,99/5=2) pseudo=read geom=check gue
 ss=(read,tcheck) scf=(maxcycle=1)
 ----------------------------------------------------------------------
 -----
 title
 -----
 Structure from the checkpoint file:  "ANI1ccx_1784_conf3_mol1.chk"
 Charge =  0 Multiplicity = 1

                         Standard orientation:
 ---------------------------------------------------------------------
 Center     Atomic      Atomic             Coordinates (Angstroms)
 Number     Number       Type             X           Y           Z
 ---------------------------------------------------------------------
      1          6           0        2.637410   -1.038299    0.673544
      2          6           0       -3.257431    0.592020    0.049643
      3          6           0       -2.192581    1.114299    0.953278
      4          6           0       -0.805265    0.423558    0.912230
      5          6           0       -3.593560   -0.865978    0.277151
      6          6           0       -0.064922    0.514642   -0.422371
      7          6           0        2.210179   -0.310324    1.946960
      8          6           0        1.521770   -1.514369   -0.279796
      9          6           0        0.811821    1.762510   -0.597940
     10          1           0       -2.162462    2.182459    0.693673
     11          1           0        1.761049    0.665756   -1.842670
     12          1           0       -5.572100   -0.897347   -0.276869
     13          1           0       -4.591890   -1.050752   -1.529220
     14          1           0       -3.887630   -1.032672    1.320880
     15          1           0       -2.679560   -1.455331    0.125834
     16          1           0       -4.116111    1.260408    0.259878
     17          1           0       -3.120771    0.717414   -1.054580
     18          1           0       -2.559421    0.996550    1.977890
     19          1           0       -0.826676    0.620020   -1.193780
     20          1           0       -0.183670    0.918511    1.685150
     21          1           0       -0.007354   -1.334520   -1.418560
     22          1           0        1.385380   -0.873058    2.398720
     23          1           0        3.040889   -0.242534    2.653750
     24          1           0        1.865149    0.719607    1.808130
     25          1           0        3.170190   -1.912078    1.057760
     26          1           0        4.066650   -0.750954   -0.835490
     27          1           0        3.343839    0.649485   -0.347035
     28          1           0       -0.911051   -0.664254    1.083270
     29          7           0        3.643269   -0.259143   -0.055567
     30          7           0        0.573235   -0.705211   -0.871668
     31          7           0       -4.695120   -1.340292   -0.554243
     32          8           0        0.638598    2.828410   -0.044194
     33          8           0        1.514931   -2.681949   -0.649888
     34          8           0        1.812889    1.546971   -1.464990
 ---------------------------------------------------------------------

 SCF Done:  E(RHF) =  -740.664168956     A.U. after    2 cycles

 The electronic state is 1-A.
 Alpha  occ. eigenvalues --  -20.61339 -20.55382 -20.52892 -15.55378 -15.49645
 Alpha  occ. eigenvalues --  -15.49339 -11.41501 -11.37416 -11.32032 -11.29548
 Alpha  occ. eigenvalues --  -11.26661 -11.26088 -11.24714 -11.24626 -11.24164
 Alpha  occ. eigenvalues --   -1.56416  -1.47793  -1.46880  -1.27174  -1.20159
 Alpha  occ. eigenvalues --   -1.19216  -1.10798  -1.04683  -1.03098  -0.95994
 Alpha  occ. eigenvalues --   -0.90893  -0.89523  -0.86336  -0.82969  -0.80739
 Alpha  occ. eigenvalues --   -0.76778  -0.73189  -0.71903  -0.70551  -0.69495
 Alpha  occ. eigenvalues --   -0.68117  -0.66991  -0.65675  -0.64477  -0.63765
 Alpha  occ. eigenvalues --   -0.62946  -0.62191  -0.60223  -0.59422  -0.57203
 Alpha  occ. eigenvalues --   -0.56947  -0.55488  -0.54945  -0.53283  -0.52846
 Alpha  occ. eigenvalues --   -0.51928  -0.49881  -0.48855  -0.48214  -0.47127
 Alpha  occ. eigenvalues --   -0.46740  -0.43463  -0.42660  -0.41660
 Alpha virt. eigenvalues --    0.02139   0.02856   0.03294   0.03809   0.04427
 Alpha virt. eigenvalues --    0.04541   0.05027   0.05957   0.06571   0.06626
 Alpha virt. eigenvalues --    0.06829   0.07305   0.08103   0.08683   0.09001

 Mulliken charges:
               1
     1  C   -1.465868
     2  C   -0.209541
     3  C   -0.314528
     4  C   -0.133356
     5  C   -1.051175
     6  C   -1.664651
     7  C    0.194301
     8  C    0.975284
     9  C    2.722464
    10  H    0.147574
    11  H    0.677146
    12  H    0.171882
    13  H    0.114418
    14  H    0.098051
    15  H    0.151283
    16  H    0.116499
    17  H    0.202932
    18  H    0.155845
    19  H    0.232510
    20  H    0.140380
    21  H    0.545463
    22  H    0.248129
    23  H    0.007335
    24  H    0.216029
    25  H    0.020476
    26  H    0.134839
    27  H    0.095677
    28  H    0.153747
    29  N    0.733480
    30  N    0.497265
    31  N    0.507704
    32  O   -1.424321
    33  O   -1.436937
    34  O   -1.560334
 Sum of Mulliken charges =  -0.00000

 Dipole moment (field-independent basis, Debye):
    X=             -2.4567    Y=              0.4893    Z=             -0.1967  Tot=              2.5127

 Test job not archived.
 1\1\GINC-SE461\SP\RHF\Aug-CC-pVDZ\C9H19N3O3\OHZDE\08-Apr-2025\0\\#t hf
  aug-cc-pvdz iop(5/13=1,5/36=2,99/5=2) pseudo=read geom=check guess=(r
 ead,tcheck) scf=(maxcycle=1)\\title\\0,1\C,0,2.63741,-1.0383,0.673544\
 C,0,-3.25743,0.592021,0.049643\C,0,-2.19258,1.1143,0.953278\C,0,-0.805
 264,0.423558,0.91223\C,0,-3.59356,-0.865976,0.277151\C,0,-0.0649206,0.
 514642,-0.422371\C,0,2.21018,-0.310325,1.94696\C,0,1.52177,-1.51437,-0
 .279796\C,0,0.811823,1.76251,-0.59794\H,0,-2.16246,2.18246,0.693673\H,
 0,1.76105,0.665755,-1.84267\H,0,-5.5721,-0.897345,-0.276869\H,0,-4.591

 Normal termination of Gaussian 16 at Tue Apr  8 21:06:44 2025.
