 Gaussian 16, Revision C.01,

 ----------------------------------------------------------------------
 #t hf aug-cc-pvdz symm=none int=(grid=ultrafine) guess=(read,tcheck) s
 table=(opt,rrhf)
 ----------------------------------------------------------------------
 -----
 title
 -----
 Symbolic Z-matrix:
 Charge =  0 Multiplicity = 1

 SCF Done:  E(RHF) =  -207.045495167     A.U. after   13 cycles
 Normal termination of Gaussian 16 at Tue Apr  8 21:12:19 2025.
 Gaussian 16:  ES64L-G16RevC.01  3-Jul-2019

 ----------------------------------------------------------------------
 #t hf aug-cc-pvdz iop(5/13=1,5/36=2,99/5=2) pseudo=read geom=check gue
 ss=(read,tcheck) scf=(maxcycle=1)
 ----------------------------------------------------------------------
 -----
 title
 -----
 Structure from the checkpoint file:  "ANI1ccx_1888_conf24_mol1.chk"
 Charge =  0 Multiplicity = 1

                         Standard orientation:
 ---------------------------------------------------------------------
 Center     Atomic      Atomic             Coordinates (Angstroms)
 Number     Number       Type             X           Y           Z
 ---------------------------------------------------------------------
      1          1           0        0.418417    0.979802   -0.784340
      2          1           0        2.392039   -0.248609   -0.175109
      3          1           0        1.439489   -1.042880    0.783457
      4          1           0       -1.206211   -0.493639    0.089405
      5          1           0       -2.232731    0.539252    0.494928
      6          7           0        1.471889   -0.564049   -0.114419
      7          8           0        0.741013    0.743737    0.123958
      8          8           0       -2.130291   -0.216935   -0.074884
 ---------------------------------------------------------------------

 SCF Done:  E(RHF) =  -207.260282667     A.U. after    2 cycles

 The electronic state is 1-A.
 Alpha  occ. eigenvalues --  -20.59816 -20.54326 -15.57082  -1.45824  -1.42214
 Alpha  occ. eigenvalues --   -1.13375  -0.74308  -0.69088  -0.67071  -0.64065
 Alpha  occ. eigenvalues --   -0.56981  -0.51644  -0.48602  -0.47183
 Alpha virt. eigenvalues --    0.03021   0.04946   0.05536   0.07076   0.08514
 Alpha virt. eigenvalues --    0.12510   0.16076   0.17865   0.18589   0.18771
 Alpha virt. eigenvalues --    0.20824   0.21170   0.22115   0.24581   0.25710

 Mulliken charges:
               1
     1  H    0.370417
     2  H    0.076166
     3  H    0.106414
     4  H    0.519507
     5  H    0.320859
     6  N    0.379726
     7  O   -0.940376
     8  O   -0.832713
 Sum of Mulliken charges =   0.00000

 Dipole moment (field-independent basis, Debye):
    X=              2.6126    Y=              0.7992    Z=              0.9713  Tot=              2.8997

 Test job not archived.
 1\1\GINC-SE036\SP\RHF\Aug-CC-pVDZ\H5N1O2\OHZDE\08-Apr-2025\0\\#t hf au
 g-cc-pvdz iop(5/13=1,5/36=2,99/5=2) pseudo=read geom=check guess=(read
 ,tcheck) scf=(maxcycle=1)\\title\\0,1\H,0,0.418418,0.979802,-0.78434\H
 ,0,2.39204,-0.248609,-0.175109\H,0,1.43949,-1.04288,0.783457\H,0,-1.20
 621,-0.493639,0.089405\H,0,-2.23273,0.539252,0.494928\N,0,1.47189,-0.5
 64049,-0.114419\O,0,0.741014,0.743737,0.123958\O,0,-2.13029,-0.216935,
 -0.0748841\\Version=ES64L-G16RevC.01\State=1-A\HF=-207.2602827\RMSD=7.
 286e-03\Dipole=1.0278886,0.3144347,0.3821388\Quadrupole=-0.6788014,0.1

 Normal termination of Gaussian 16 at Tue Apr  8 21:12:21 2025.
