 Gaussian 16, Revision C.01,

 ----------------------------------------------------------------------
 #t hf aug-cc-pvdz symm=none int=(grid=ultrafine) guess=(read,tcheck) s
 table=(opt,rrhf)
 ----------------------------------------------------------------------
 -----
 title
 -----
 Symbolic Z-matrix:
 Charge =  0 Multiplicity = 1

 SCF Done:  E(RHF) =  -1018.07759851     A.U. after   15 cycles
 Normal termination of Gaussian 16 at Tue Apr  8 20:57:24 2025.
 Gaussian 16:  ES64L-G16RevC.01  3-Jul-2019

 ----------------------------------------------------------------------
 #t hf aug-cc-pvdz iop(5/13=1,5/36=2,99/5=2) pseudo=read geom=check gue
 ss=(read,tcheck) scf=(maxcycle=1)
 ----------------------------------------------------------------------
 -----
 title
 -----
 Structure from the checkpoint file:  "ANI1ccx_171_conf26_mol1.chk"
 Charge =  0 Multiplicity = 1

                         Standard orientation:
 ---------------------------------------------------------------------
 Center     Atomic      Atomic             Coordinates (Angstroms)
 Number     Number       Type             X           Y           Z
 ---------------------------------------------------------------------
      1          6           0        1.008660   -1.047841    1.377240
      2          6           0       -2.160371   -2.075059   -0.924158
      3          6           0       -2.582719    0.583508   -0.750067
      4          6           0       -1.566098    2.586710    0.424803
      5          6           0       -1.285689    1.295050   -0.480667
      6          6           0       -2.456070   -0.683435   -1.612270
      7          6           0        4.080240   -0.202816    0.191811
      8          6           0        2.833620   -0.528496   -0.304488
      9          6           0        1.922489   -1.570032    0.023179
     10          6           0       -0.159310   -0.167597    1.088710
     11          6           0        3.524441    1.251117   -1.407470
     12          1           0       -0.875162    1.882650   -1.390450
     13          1           0       -2.521827    4.196181    0.268943
     14          1           0       -3.177392   -3.421939   -0.099749
     15          1           0       -1.672190   -0.666285   -2.508070
     16          1           0       -3.498030   -0.795267   -1.986610
     17          1           0       -3.221419    1.269151   -1.243250
     18          1           0       -2.918289    0.314371    0.304482
     19          1           0        0.603366    0.367325   -0.742727
     20          1           0        3.532652    2.173677   -1.940030
     21          1           0        4.684300   -0.709293    0.969946
     22          1           0        1.097399   -1.727801   -0.742328
     23          1           0        2.447689   -2.538062    0.119313
     24          1           0        1.706830   -0.361129    2.035720
     25          1           0       -0.265086   -2.570090    1.641470
     26          1           0        0.115542   -1.816481    2.901080
     27          1           0        5.356241    1.411586   -0.295492
     28          7           0        0.587910   -2.267401    2.139230
     29          7           0        2.504861    0.374619   -1.290190
     30          7           0        4.506581    0.907935   -0.524157
     31          7           0       -0.154333    0.528517   -0.062622
     32          8           0       -3.294961   -2.532678   -0.333871
     33          8           0       -0.955838    0.064680    1.996230
     34          8           0       -1.267178    2.844750    1.536410
     35          8           0       -1.059271   -2.621310   -1.027980
     36          8           0       -2.480867    3.436941   -0.281759
 ---------------------------------------------------------------------

 SCF Done:  E(RHF) =  -1019.09379210     A.U. after    2 cycles

 The electronic state is 1-A.
 Alpha  occ. eigenvalues --  -20.62027 -20.58206 -20.55681 -20.54439 -20.49808
 Alpha  occ. eigenvalues --  -15.57842 -15.52067 -15.50086 -15.48190 -11.41949
 Alpha  occ. eigenvalues --  -11.39402 -11.34388 -11.32167 -11.31171 -11.28502
 Alpha  occ. eigenvalues --  -11.28039 -11.27444 -11.26062 -11.25991 -11.24186
 Alpha  occ. eigenvalues --   -1.55987  -1.53328  -1.46357  -1.45002  -1.44591
 Alpha  occ. eigenvalues --   -1.34344  -1.25237  -1.18584  -1.17592  -1.09521
 Alpha  occ. eigenvalues --   -1.05807  -1.01288  -0.97435  -0.92292  -0.89280
 Alpha  occ. eigenvalues --   -0.87394  -0.83630  -0.82185  -0.80346  -0.78609
 Alpha  occ. eigenvalues --   -0.77149  -0.72709  -0.71566  -0.70287  -0.69500
 Alpha  occ. eigenvalues --   -0.68663  -0.66664  -0.65994  -0.65141  -0.64404
 Alpha  occ. eigenvalues --   -0.63865  -0.63674  -0.62559  -0.61916  -0.60961
 Alpha  occ. eigenvalues --   -0.60105  -0.59768  -0.57838  -0.56670  -0.55593
 Alpha  occ. eigenvalues --   -0.54798  -0.53674  -0.51677  -0.50761  -0.49344
 Alpha  occ. eigenvalues --   -0.48677  -0.47927  -0.47460  -0.46589  -0.44760
 Alpha  occ. eigenvalues --   -0.44338  -0.43279  -0.41072  -0.39859  -0.33039
 Alpha virt. eigenvalues --    0.02184   0.03326   0.03456   0.03836   0.04344
 Alpha virt. eigenvalues --    0.04432   0.05268   0.05691   0.06314   0.06689
 Alpha virt. eigenvalues --    0.07130   0.07753   0.08111   0.08878   0.09795

 Mulliken charges:
               1
     1  C   -1.695954
     2  C    2.685764
     3  C   -0.199677
     4  C    2.847453
     5  C   -2.437195
     6  C   -0.779494
     7  C   -0.519221
     8  C   -0.458472
     9  C   -0.008233
    10  C    0.272206
    11  C   -0.574419
    12  H    0.343647
    13  H    0.407766
    14  H    0.326281
    15  H    0.314072
    16  H    0.270178
    17  H    0.061218
    18  H    0.384035
    19  H    0.328415
    20  H   -0.205359
    21  H   -0.194351
    22  H    0.469773
    23  H   -0.056827
    24  H    0.305604
    25  H    0.129107
    26  H    0.330771
    27  H   -0.033841
    28  N    0.571560
    29  N    1.235642
    30  N    0.805100
    31  N    2.040493
    32  O   -1.343805
    33  O   -1.536913
    34  O   -1.314216
    35  O   -1.382499
    36  O   -1.388610
 Sum of Mulliken charges =  -0.00000

 Dipole moment (field-independent basis, Debye):
    X=              2.4849    Y=              1.6523    Z=             -3.3532  Tot=              4.4888

 Test job not archived.
 1\1\GINC-SE084\SP\RHF\Aug-CC-pVDZ\C11H16N4O5\OHZDE\08-Apr-2025\0\\#t h
 f aug-cc-pvdz iop(5/13=1,5/36=2,99/5=2) pseudo=read geom=check guess=(
 read,tcheck) scf=(maxcycle=1)\\title\\0,1\C,0,1.00866,-1.04784,1.37724
 \C,0,-2.16037,-2.07506,-0.924158\C,0,-2.58272,0.583507,-0.750067\C,0,-
 1.5661,2.58671,0.424803\C,0,-1.28569,1.29505,-0.480667\C,0,-2.45607,-0
 .683436,-1.61227\C,0,4.08024,-0.202813,0.191811\C,0,2.83362,-0.528494,
 -0.304488\C,0,1.92249,-1.57003,0.0231798\C,0,-0.15931,-0.167597,1.0887
 1\C,0,3.52444,1.25112,-1.40747\H,0,-0.875164,1.88265,-1.39045\H,0,-2.5

 Normal termination of Gaussian 16 at Tue Apr  8 20:58:38 2025.
