 Gaussian 16, Revision C.01,

 ----------------------------------------------------------------------
 #t hf aug-cc-pvdz symm=none int=(grid=ultrafine) guess=(read,tcheck) s
 table=(opt,rrhf)
 ----------------------------------------------------------------------
 -----
 title
 -----
 Symbolic Z-matrix:
 Charge =  0 Multiplicity = 1

 SCF Done:  E(RHF) =  -480.043276967     A.U. after   16 cycles
 Normal termination of Gaussian 16 at Tue Apr  8 21:39:48 2025.
 Gaussian 16:  ES64L-G16RevC.01  3-Jul-2019

 ----------------------------------------------------------------------
 #t hf aug-cc-pvdz iop(5/13=1,5/36=2,99/5=2) pseudo=read geom=check gue
 ss=(read,tcheck) scf=(maxcycle=1)
 ----------------------------------------------------------------------
 -----
 title
 -----
 Structure from the checkpoint file:  "ANI1ccx_456_conf10_mol1.chk"
 Charge =  0 Multiplicity = 1

                         Standard orientation:
 ---------------------------------------------------------------------
 Center     Atomic      Atomic             Coordinates (Angstroms)
 Number     Number       Type             X           Y           Z
 ---------------------------------------------------------------------
      1          6           0        0.062354   -0.031760   -0.057592
      2          7           0       -1.424450    0.014444   -0.004025
      3          7           0        0.745007   -1.101840   -0.057313
      4          7           0        2.022941   -0.658527    0.005924
      5          7           0        2.215450    0.525825    0.092180
      6          8           0       -1.953561    1.109468    0.007319
      7          8           0       -2.024249   -1.079202    0.050285
      8          8           0        0.816964    1.061140   -0.046580
 ---------------------------------------------------------------------

 SCF Done:  E(RHF) =  -480.502594503     A.U. after    2 cycles

 The electronic state is 1-A.
 Alpha  occ. eigenvalues --  -20.70380 -20.66062 -20.64614 -15.86150 -15.71361
 Alpha  occ. eigenvalues --  -15.66677 -15.61852 -11.47858  -1.72288  -1.66583
 Alpha  occ. eigenvalues --   -1.55556  -1.46501  -1.34385  -1.14813  -1.01029
 Alpha  occ. eigenvalues --   -0.92957  -0.87067  -0.81945  -0.79782  -0.78457
 Alpha  occ. eigenvalues --   -0.77288  -0.70285  -0.60783  -0.60282  -0.58039
 Alpha  occ. eigenvalues --   -0.56218  -0.55097  -0.53850  -0.49272
 Alpha virt. eigenvalues --   -0.04069   0.04142   0.05323   0.08170   0.09223
 Alpha virt. eigenvalues --    0.09349   0.10024   0.11817   0.13126   0.13472
 Alpha virt. eigenvalues --    0.14601   0.15619   0.16225   0.16864   0.17316

 Mulliken charges:
               1
     1  C    0.492606
     2  N    2.423113
     3  N    0.545771
     4  N   -0.913806
     5  N    1.128058
     6  O   -1.260070
     7  O   -1.223629
     8  O   -1.192043
 Sum of Mulliken charges =  -0.00000

 Dipole moment (field-independent basis, Debye):
    X=              0.2951    Y=              1.2036    Z=             -0.1426  Tot=              1.2474

 Test job not archived.
 1\1\GINC-SE453\SP\RHF\Aug-CC-pVDZ\C1N4O3\OHZDE\08-Apr-2025\0\\#t hf au
 g-cc-pvdz iop(5/13=1,5/36=2,99/5=2) pseudo=read geom=check guess=(read
 ,tcheck) scf=(maxcycle=1)\\title\\0,1\C,0,0.0623532,-0.0317591,-0.0575
 921\N,0,-1.42445,0.0144454,-0.0040253\N,0,0.745006,-1.10184,-0.0573133
 \N,0,2.02294,-0.658528,0.00592441\N,0,2.21545,0.525824,0.0921797\O,0,-
 1.95356,1.10947,0.00731898\O,0,-2.02425,-1.0792,0.0502849\O,0,0.816965
 ,1.06114,-0.0465796\\Version=ES64L-G16RevC.01\State=1-A\HF=-480.502594
 5\RMSD=3.548e-02\Dipole=0.1160879,0.4735317,-0.0561213\Quadrupole=-2.3

 Normal termination of Gaussian 16 at Tue Apr  8 21:39:52 2025.
