 Gaussian 16, Revision C.01,

 ----------------------------------------------------------------------
 #t hf aug-cc-pvdz symm=none int=(grid=ultrafine) guess=(read,tcheck) s
 table=(opt,rrhf)
 ----------------------------------------------------------------------
 -----
 title
 -----
 Symbolic Z-matrix:
 Charge =  0 Multiplicity = 1

 SCF Done:  E(RHF) =  -1018.11632975     A.U. after   15 cycles
 Normal termination of Gaussian 16 at Tue Apr  8 20:51:55 2025.
 Gaussian 16:  ES64L-G16RevC.01  3-Jul-2019

 ----------------------------------------------------------------------
 #t hf aug-cc-pvdz iop(5/13=1,5/36=2,99/5=2) pseudo=read geom=check gue
 ss=(read,tcheck) scf=(maxcycle=1)
 ----------------------------------------------------------------------
 -----
 title
 -----
 Structure from the checkpoint file:  "ANI1ccx_171_conf13_mol1.chk"
 Charge =  0 Multiplicity = 1

                         Standard orientation:
 ---------------------------------------------------------------------
 Center     Atomic      Atomic             Coordinates (Angstroms)
 Number     Number       Type             X           Y           Z
 ---------------------------------------------------------------------
      1          6           0        0.761575    1.265310   -0.430316
      2          6           0       -0.736904   -2.281161   -0.104949
      3          6           0       -2.115280   -0.820204    1.401310
      4          6           0       -3.684090    0.204764   -0.229801
      5          6           0       -2.204330    0.137316    0.215307
      6          6           0       -0.898193   -1.698261    1.310770
      7          6           0        4.361170    0.588117    0.310720
      8          6           0        3.010460    0.378237    0.301583
      9          6           0        1.898370    1.403150    0.610388
     10          6           0       -0.455953    2.035909    0.111708
     11          6           0        3.884350   -1.562800   -0.145315
     12          1           0       -1.628880   -0.240345   -0.617702
     13          1           0       -3.691650   -1.550021   -1.095950
     14          1           0        1.159760   -1.759130   -0.226419
     15          1           0       -0.907020   -2.521761    2.003010
     16          1           0        0.016932   -1.136221    1.434270
     17          1           0       -2.188000   -0.383396    2.400100
     18          1           0       -3.057850   -1.393731    1.489330
     19          1           0       -2.380200    2.085319    0.741659
     20          1           0        3.972710   -2.575500   -0.589791
     21          1           0        4.978520    1.516500    0.178994
     22          1           0        2.231100    2.402560    0.731279
     23          1           0        1.514390    1.063450    1.552260
     24          1           0        0.653823    0.206715   -0.561636
     25          1           0        1.032170    2.930560   -1.542540
     26          1           0        2.087840    1.827430   -1.952480
     27          1           0        5.897980   -0.808205   -0.127527
     28          7           0        1.083760    1.944230   -1.624210
     29          7           0        2.759260   -0.945188    0.063304
     30          7           0        4.936470   -0.632899    0.039081
     31          7           0       -1.676000    1.424409    0.496246
     32          8           0        0.439307   -2.217011   -0.767167
     33          8           0       -0.417059    3.250429    0.205733
     34          8           0       -4.343980    1.198839    0.041751
     35          8           0       -1.737210   -2.716691   -0.640003
     36          8           0       -4.233950   -0.778111   -0.933592
 ---------------------------------------------------------------------

 SCF Done:  E(RHF) =  -1019.13610241     A.U. after    2 cycles

 The electronic state is 1-A.
 Alpha  occ. eigenvalues --  -20.59937 -20.59728 -20.53638 -20.52981 -20.51799
 Alpha  occ. eigenvalues --  -15.59481 -15.53463 -15.52122 -15.49299 -11.40198
 Alpha  occ. eigenvalues --  -11.39809 -11.37304 -11.35451 -11.30591 -11.30282
 Alpha  occ. eigenvalues --  -11.29259 -11.29197 -11.27266 -11.26190 -11.26000
 Alpha  occ. eigenvalues --   -1.54623  -1.53572  -1.46973  -1.45130  -1.44250
 Alpha  occ. eigenvalues --   -1.37281  -1.24533  -1.22373  -1.21182  -1.10888
 Alpha  occ. eigenvalues --   -1.08101  -1.02295  -1.00704  -0.92620  -0.90259
 Alpha  occ. eigenvalues --   -0.89923  -0.85450  -0.84582  -0.82198  -0.81384
 Alpha  occ. eigenvalues --   -0.79116  -0.77728  -0.75772  -0.72593  -0.70204
 Alpha  occ. eigenvalues --   -0.68990  -0.68268  -0.67303  -0.66384  -0.65782
 Alpha  occ. eigenvalues --   -0.65456  -0.64261  -0.64013  -0.63043  -0.62756
 Alpha  occ. eigenvalues --   -0.61243  -0.60908  -0.59611  -0.57996  -0.57008
 Alpha  occ. eigenvalues --   -0.56899  -0.56141  -0.54302  -0.53008  -0.52410
 Alpha  occ. eigenvalues --   -0.50971  -0.48817  -0.47288  -0.46271  -0.44741
 Alpha  occ. eigenvalues --   -0.44266  -0.43593  -0.42682  -0.41187  -0.36312
 Alpha virt. eigenvalues --    0.01074   0.02663   0.02954   0.03489   0.03982
 Alpha virt. eigenvalues --    0.04407   0.04841   0.06038   0.06127   0.07196
 Alpha virt. eigenvalues --    0.07329   0.07871   0.08141   0.08654   0.09365

 Mulliken charges:
               1
     1  C   -1.395099
     2  C    2.680789
     3  C   -0.161869
     4  C    2.549341
     5  C   -0.929620
     6  C   -0.484007
     7  C   -0.808952
     8  C   -0.454126
     9  C    0.150032
    10  C    0.451121
    11  C   -0.817182
    12  H    0.118787
    13  H    0.461501
    14  H    0.997779
    15  H    0.157880
    16  H    0.059573
    17  H    0.114170
    18  H    0.105104
    19  H    0.298939
    20  H   -0.066370
    21  H   -0.140127
    22  H   -0.001223
    23  H    0.326323
    24  H    0.065822
    25  H    0.237726
    26  H    0.146634
    27  H   -0.061651
    28  N    0.869710
    29  N    1.365513
    30  N    0.803940
    31  N    0.878087
    32  O   -1.692313
    33  O   -1.446206
    34  O   -1.415612
    35  O   -1.537599
    36  O   -1.426815
 Sum of Mulliken charges =   0.00000

 Dipole moment (field-independent basis, Debye):
    X=             11.5734    Y=             -3.3027    Z=              2.5630  Tot=             12.3053

 Test job not archived.
 1\1\GINC-SE079\SP\RHF\Aug-CC-pVDZ\C11H16N4O5\OHZDE\08-Apr-2025\0\\#t h
 f aug-cc-pvdz iop(5/13=1,5/36=2,99/5=2) pseudo=read geom=check guess=(
 read,tcheck) scf=(maxcycle=1)\\title\\0,1\C,0,0.761575,1.26531,-0.4303
 16\C,0,-0.736904,-2.28116,-0.104949\C,0,-2.11528,-0.820203,1.40131\C,0
 ,-3.68409,0.204765,-0.229801\C,0,-2.20433,0.137317,0.215307\C,0,-0.898
 193,-1.69826,1.31077\C,0,4.36117,0.588117,0.31072\C,0,3.01046,0.378237
 ,0.301583\C,0,1.89837,1.40315,0.610388\C,0,-0.455953,2.03591,0.111708\
 C,0,3.88435,-1.5628,-0.145315\H,0,-1.62888,-0.240344,-0.617702\H,0,-3.

 Normal termination of Gaussian 16 at Tue Apr  8 20:53:09 2025.
