 Gaussian 16, Revision C.01,

 ----------------------------------------------------------------------
 #t hf aug-cc-pvdz symm=none int=(grid=ultrafine) guess=(read,tcheck) s
 table=(opt,rrhf)
 ----------------------------------------------------------------------
 -----
 title
 -----
 Symbolic Z-matrix:
 Charge =  0 Multiplicity = 1

 SCF Done:  E(RHF) =  -595.593783896     A.U. after   16 cycles
 Normal termination of Gaussian 16 at Tue Apr  8 19:20:29 2025.
 Gaussian 16:  ES64L-G16RevC.01  3-Jul-2019

 ----------------------------------------------------------------------
 #t hf aug-cc-pvdz iop(5/13=1,5/36=2,99/5=2) pseudo=read geom=check gue
 ss=(read,tcheck) scf=(maxcycle=1)
 ----------------------------------------------------------------------
 -----
 title
 -----
 Structure from the checkpoint file:  "ANI1ccx_1158_conf7_mol2.chk"
 Charge =  0 Multiplicity = 1

                         Standard orientation:
 ---------------------------------------------------------------------
 Center     Atomic      Atomic             Coordinates (Angstroms)
 Number     Number       Type             X           Y           Z
 ---------------------------------------------------------------------
      1          6           0       -4.228060   -0.298486    0.047911
      2          6           0       -0.059892    0.219412   -0.017299
      3          6           0        0.551943    2.304861    0.025274
      4          6           0        1.303829    0.309533   -0.038099
      5          6           0        2.280330   -0.819845   -0.016180
      6          1           0        3.828299    0.506174   -0.088365
      7          1           0        4.268410   -1.226707    0.026593
      8          1           0        0.469257    3.390741    0.076259
      9          1           0       -1.554041    1.643200   -0.004626
     10          1           0       -4.438830   -1.357251    0.165885
     11          1           0       -4.679100    0.261022    0.887713
     12          1           0       -4.674800    0.103297   -0.864909
     13          1           0       -0.221048   -1.808459   -0.054999
     14          7           0        3.580320   -0.485897    0.039585
     15          7           0       -2.776980   -0.009057   -0.002774
     16          7           0       -2.127740   -1.085560   -0.051302
     17          7           0       -0.799674   -0.960880   -0.073698
     18          7           0       -0.557254    1.482471    0.028478
     19          7           0        1.670789    1.639302   -0.037916
     20          8           0        1.873341   -1.983438    0.066274
 ---------------------------------------------------------------------

 SCF Done:  E(RHF) =  -596.191847290     A.U. after    2 cycles

 The electronic state is 1-A.
 Alpha  occ. eigenvalues --  -20.50330 -15.62903 -15.57381 -15.56948 -15.55752
 Alpha  occ. eigenvalues --  -15.52561 -15.50629 -11.36201 -11.33182 -11.31370
 Alpha  occ. eigenvalues --  -11.27262 -11.25226  -1.44901  -1.42365  -1.35842
 Alpha  occ. eigenvalues --   -1.24927  -1.22387  -1.19239  -1.07387  -1.00241
 Alpha  occ. eigenvalues --   -0.92620  -0.89011  -0.88579  -0.82438  -0.78139
 Alpha  occ. eigenvalues --   -0.75571  -0.75013  -0.72832  -0.69369  -0.66718
 Alpha  occ. eigenvalues --   -0.65995  -0.64794  -0.63821  -0.59661  -0.58918
 Alpha  occ. eigenvalues --   -0.58547  -0.57240  -0.50732  -0.47644  -0.46873
 Alpha  occ. eigenvalues --   -0.45560  -0.43264  -0.42991  -0.32318
 Alpha virt. eigenvalues --    0.02993   0.03988   0.04399   0.04907   0.04983
 Alpha virt. eigenvalues --    0.06008   0.06149   0.06786   0.07672   0.08831
 Alpha virt. eigenvalues --    0.08960   0.10419   0.10848   0.12102   0.13017

 Mulliken charges:
               1
     1  C   -0.231541
     2  C   -1.979184
     3  C   -0.416064
     4  C   -0.339760
     5  C    0.602300
     6  H    0.130035
     7  H    0.117952
     8  H   -0.093358
     9  H    0.088511
    10  H    0.101851
    11  H    0.159686
    12  H    0.181300
    13  H    0.312888
    14  N    0.791954
    15  N    0.370567
    16  N   -0.166230
    17  N   -0.077120
    18  N    1.067109
    19  N    0.927827
    20  O   -1.548725
 Sum of Mulliken charges =   0.00000

 Dipole moment (field-independent basis, Debye):
    X=             -2.2899    Y=              2.7402    Z=             -0.2089  Tot=              3.5772

 Test job not archived.
 1\1\GINC-SE104\SP\RHF\Aug-CC-pVDZ\C5H8N6O1\OHZDE\08-Apr-2025\0\\#t hf
 aug-cc-pvdz iop(5/13=1,5/36=2,99/5=2) pseudo=read geom=check guess=(re
 ad,tcheck) scf=(maxcycle=1)\\title\\0,1\C,0,-4.22806,-0.298485,0.04791
 12\C,0,-0.0598916,0.219411,-0.0172988\C,0,0.551945,2.30486,0.025274\C,
 0,1.30383,0.309531,-0.0380986\C,0,2.28033,-0.819847,-0.0161797\H,0,3.8
 283,0.506171,-0.088365\H,0,4.26841,-1.22671,0.0265934\H,0,0.469259,3.3
 9074,0.0762587\H,0,-1.55404,1.6432,-0.00462573\H,0,-4.43883,-1.35725,0
 .165885\H,0,-4.6791,0.261023,0.887713\H,0,-4.6748,0.103298,-0.864909\H

 Normal termination of Gaussian 16 at Tue Apr  8 19:20:42 2025.
