 Gaussian 16, Revision C.01,

 ----------------------------------------------------------------------
 #t hf aug-cc-pvdz symm=none int=(grid=ultrafine) guess=(read,tcheck) s
 table=(opt,rrhf)
 ----------------------------------------------------------------------
 -----
 title
 -----
 Symbolic Z-matrix:
 Charge =  0 Multiplicity = 1

 SCF Done:  E(RHF) =  -489.654998070     A.U. after   14 cycles
 Normal termination of Gaussian 16 at Tue Apr  8 22:13:49 2025.
 Gaussian 16:  ES64L-G16RevC.01  3-Jul-2019

 ----------------------------------------------------------------------
 #t hf aug-cc-pvdz iop(5/13=1,5/36=2,99/5=2) pseudo=read geom=check gue
 ss=(read,tcheck) scf=(maxcycle=1)
 ----------------------------------------------------------------------
 -----
 title
 -----
 Structure from the checkpoint file:  "ANI1ccx_957_conf133_mol1.chk"
 Charge =  0 Multiplicity = 1

                         Standard orientation:
 ---------------------------------------------------------------------
 Center     Atomic      Atomic             Coordinates (Angstroms)
 Number     Number       Type             X           Y           Z
 ---------------------------------------------------------------------
      1          6           0        0.655768    0.790812    0.539480
      2          6           0        1.446360   -0.456704    0.199709
      3          6           0       -0.750556    0.348196    1.114780
      4          6           0       -1.736630   -0.128829   -0.067315
      5          1           0        2.227860    0.838718   -0.628837
      6          1           0       -0.251729   -1.443771   -0.593354
      7          1           0       -1.709819   -1.775221   -1.406210
      8          1           0       -0.603827   -0.497184    1.704200
      9          1           0        1.055940    1.186050    1.448400
     10          1           0        0.118976    2.612470   -0.332226
     11          1           0        0.708425    1.540780   -1.516470
     12          1           0       -1.270061    1.281829    1.453210
     13          7           0        0.720443    1.766360   -0.414834
     14          7           0       -1.255299   -1.259021   -0.729393
     15          8           0       -2.840960    0.356290   -0.236237
     16          8           0        1.220991   -1.577590    0.634721
     17          8           0        2.342290   -0.105687   -0.753363
 ---------------------------------------------------------------------

 SCF Done:  E(RHF) =  -490.143353363     A.U. after    2 cycles

 The electronic state is 1-A.
 Alpha  occ. eigenvalues --  -20.62031 -20.56758 -20.51738 -15.55115 -15.51566
 Alpha  occ. eigenvalues --  -11.42694 -11.36828 -11.31622 -11.26897  -1.57242
 Alpha  occ. eigenvalues --   -1.48576  -1.45790  -1.25901  -1.20943  -1.05442
 Alpha  occ. eigenvalues --   -0.95389  -0.84419  -0.82723  -0.79935  -0.76069
 Alpha  occ. eigenvalues --   -0.74203  -0.69707  -0.67941  -0.66123  -0.64327
 Alpha  occ. eigenvalues --   -0.63600  -0.61856  -0.58182  -0.55873  -0.55051
 Alpha  occ. eigenvalues --   -0.50161  -0.47038  -0.45648  -0.43499  -0.41284
 Alpha virt. eigenvalues --    0.02279   0.03586   0.04334   0.04717   0.05767
 Alpha virt. eigenvalues --    0.06433   0.06983   0.07989   0.09266   0.10572
 Alpha virt. eigenvalues --    0.11693   0.12478   0.13035   0.13432   0.13878

 Mulliken charges:
               1
     1  C   -1.801460
     2  C    2.433916
     3  C   -0.156713
     4  C    0.446633
     5  H    0.538383
     6  H    0.091099
     7  H   -0.026737
     8  H    0.158952
     9  H    0.187408
    10  H    0.151816
    11  H    0.271066
    12  H    0.149087
    13  N    0.733574
    14  N    0.728122
    15  O   -1.231964
    16  O   -1.337938
    17  O   -1.335245
 Sum of Mulliken charges =  -0.00000

 Dipole moment (field-independent basis, Debye):
    X=              2.3036    Y=              2.9835    Z=             -0.4246  Tot=              3.7932

 Test job not archived.
 1\1\GINC-SE099\SP\RHF\Aug-CC-pVDZ\C4H8N2O3\OHZDE\08-Apr-2025\0\\#t hf
 aug-cc-pvdz iop(5/13=1,5/36=2,99/5=2) pseudo=read geom=check guess=(re
 ad,tcheck) scf=(maxcycle=1)\\title\\0,1\C,0,0.655768,0.790812,0.53948\
 C,0,1.44636,-0.456704,0.199709\C,0,-0.750556,0.348197,1.11478\C,0,-1.7
 3663,-0.128827,-0.0673152\H,0,2.22786,0.838717,-0.628837\H,0,-0.25173,
 -1.44377,-0.593354\H,0,-1.70982,-1.77522,-1.40621\H,0,-0.603828,-0.497
 183,1.7042\H,0,1.05594,1.18605,1.4484\H,0,0.118977,2.61247,-0.332226\H
 ,0,0.708426,1.54078,-1.51647\H,0,-1.27006,1.28183,1.45321\N,0,0.720444

 Normal termination of Gaussian 16 at Tue Apr  8 22:13:58 2025.
