 Gaussian 16, Revision C.01,

 ----------------------------------------------------------------------
 #t hf aug-cc-pvdz symm=none int=(grid=ultrafine) guess=(read,tcheck) s
 table=(opt,rrhf)
 ----------------------------------------------------------------------
 -----
 title
 -----
 Symbolic Z-matrix:
 Charge =  0 Multiplicity = 1

 SCF Done:  E(RHF) =  -833.434709151     A.U. after   14 cycles
 Normal termination of Gaussian 16 at Tue Apr  8 20:59:23 2025.
 Gaussian 16:  ES64L-G16RevC.01  3-Jul-2019

 ----------------------------------------------------------------------
 #t hf aug-cc-pvdz iop(5/13=1,5/36=2,99/5=2) pseudo=read geom=check gue
 ss=(read,tcheck) scf=(maxcycle=1)
 ----------------------------------------------------------------------
 -----
 title
 -----
 Structure from the checkpoint file:  "ANI1ccx_1760_conf34_mol1.chk"
 Charge =  0 Multiplicity = 1

                         Standard orientation:
 ---------------------------------------------------------------------
 Center     Atomic      Atomic             Coordinates (Angstroms)
 Number     Number       Type             X           Y           Z
 ---------------------------------------------------------------------
      1          6           0        1.881779    0.964160   -0.780898
      2          6           0       -1.994098   -1.906191    0.484066
      3          6           0       -2.173549   -0.983024   -0.789555
      4          6           0       -2.073711    1.011919    0.837849
      5          6           0       -3.574979   -1.187812   -1.308760
      6          6           0        2.926481   -0.965445    0.473481
      7          6           0        2.941140    0.591228    0.298342
      8          6           0        0.551979    0.204863   -0.531299
      9          6           0       -1.836360    0.496227   -0.582702
     10          1           0       -1.001668   -2.275410    0.752706
     11          1           0       -1.497512    2.208539    2.229220
     12          1           0       -3.814949   -0.636542   -2.180900
     13          1           0       -4.206649   -0.911679   -0.447877
     14          1           0       -3.791428   -2.259553   -1.472710
     15          1           0       -2.391709   -1.547351    1.440000
     16          1           0       -2.583748   -2.858022    0.225644
     17          1           0       -1.517459   -1.391371   -1.566420
     18          1           0       -0.446053    1.681820   -1.551930
     19          1           0        3.106751   -1.042757   -1.492870
     20          1           0        3.924989    0.984173    0.030509
     21          1           0        2.566549    1.100702    1.186960
     22          1           0        2.233160    0.544370   -1.733660
     23          1           0        1.648208    2.782662    0.041507
     24          1           0        2.429338    2.899402   -1.324880
     25          1           0       -2.565711    1.099268   -1.146800
     26          7           0        1.653388    2.395242   -0.890158
     27          7           0       -0.530706    0.824190   -1.051320
     28          8           0       -2.758130    0.472789    1.666350
     29          8           0        0.509517   -0.777391    0.180301
     30          8           0        2.910431   -1.592007    1.531040
     31          8           0        3.182581   -1.607397   -0.648561
     32          8           0       -1.324771    1.970279    1.270710
 ---------------------------------------------------------------------

 SCF Done:  E(RHF) =  -834.276212808     A.U. after    2 cycles

 The electronic state is 1-A.
 Alpha  occ. eigenvalues --  -20.60676 -20.60110 -20.53016 -20.52375 -20.50769
 Alpha  occ. eigenvalues --  -15.54095 -15.53352 -11.39142 -11.39004 -11.37710
 Alpha  occ. eigenvalues --  -11.31905 -11.30691 -11.27869 -11.24125 -11.21733
 Alpha  occ. eigenvalues --  -11.19529  -1.57779  -1.53840  -1.48832  -1.44524
 Alpha  occ. eigenvalues --   -1.41561  -1.28297  -1.23398  -1.09599  -1.06110
 Alpha  occ. eigenvalues --   -1.00517  -0.93551  -0.90785  -0.87090  -0.85318
 Alpha  occ. eigenvalues --   -0.83468  -0.78386  -0.77384  -0.75394  -0.73484
 Alpha  occ. eigenvalues --   -0.70984  -0.70222  -0.68279  -0.67103  -0.65962
 Alpha  occ. eigenvalues --   -0.64750  -0.63282  -0.62017  -0.61325  -0.60121
 Alpha  occ. eigenvalues --   -0.59575  -0.58209  -0.57233  -0.55318  -0.54005
 Alpha  occ. eigenvalues --   -0.53069  -0.51708  -0.49325  -0.48912  -0.47852
 Alpha  occ. eigenvalues --   -0.47018  -0.45841  -0.45231  -0.44495  -0.42263
 Alpha  occ. eigenvalues --   -0.41609  -0.41333
 Alpha virt. eigenvalues --    0.01342   0.02777   0.02845   0.03407   0.04022
 Alpha virt. eigenvalues --    0.04137   0.05121   0.05538   0.06365   0.07086
 Alpha virt. eigenvalues --    0.07701   0.07937   0.08524   0.08691   0.10160

 Mulliken charges:
               1
     1  C   -1.662665
     2  C   -0.050304
     3  C   -0.467476
     4  C    2.846825
     5  C   -0.131375
     6  C    2.697037
     7  C   -0.167032
     8  C    0.526706
     9  C   -1.923732
    10  H    0.151675
    11  H    0.434166
    12  H    0.040359
    13  H    0.388053
    14  H    0.147824
    15  H    0.144316
    16  H    0.222425
    17  H    0.106279
    18  H    0.330918
    19  H    0.527791
    20  H    0.215040
    21  H    0.175164
    22  H    0.124621
    23  H    0.265053
    24  H    0.260527
    25  H    0.196624
    26  N    0.538915
    27  N    1.423922
    28  O   -1.389314
    29  O   -1.542740
    30  O   -1.427621
    31  O   -1.453353
    32  O   -1.548627
 Sum of Mulliken charges =  -0.00000

 Dipole moment (field-independent basis, Debye):
    X=              1.2999    Y=              7.4266    Z=             -5.1178  Tot=              9.1124

 Test job not archived.
 1\1\GINC-SE343\SP\RHF\Aug-CC-pVDZ\C9H16N2O5\OHZDE\08-Apr-2025\0\\#t hf
  aug-cc-pvdz iop(5/13=1,5/36=2,99/5=2) pseudo=read geom=check guess=(r
 ead,tcheck) scf=(maxcycle=1)\\title\\0,1\C,0,1.88178,0.964158,-0.78089
 8\C,0,-1.9941,-1.90619,0.484066\C,0,-2.17355,-0.983023,-0.789555\C,0,-
 2.07371,1.01192,0.837849\C,0,-3.57498,-1.18781,-1.30876\C,0,2.92648,-0
 .965448,0.473481\C,0,2.94114,0.591225,0.298342\C,0,0.551979,0.204862,-
 0.531299\C,0,-1.83636,0.496228,-0.582702\H,0,-1.00167,-2.27541,0.75270
 6\H,0,-1.49751,2.20854,2.22922\H,0,-3.81495,-0.636539,-2.1809\H,0,-4.2

 Normal termination of Gaussian 16 at Tue Apr  8 21:00:07 2025.
