 Gaussian 16, Revision C.01,

 ----------------------------------------------------------------------
 #t hf aug-cc-pvdz symm=none int=(grid=ultrafine) guess=(read,tcheck) s
 table=(opt,rrhf)
 ----------------------------------------------------------------------
 -----
 title
 -----
 Symbolic Z-matrix:
 Charge =  0 Multiplicity = 1

 SCF Done:  E(RHF) =  -506.625245503     A.U. after   17 cycles
 Normal termination of Gaussian 16 at Tue Apr  8 21:56:06 2025.
 Gaussian 16:  ES64L-G16RevC.01  3-Jul-2019

 ----------------------------------------------------------------------
 #t hf aug-cc-pvdz iop(5/13=1,5/36=2,99/5=2) pseudo=read geom=check gue
 ss=(read,tcheck) scf=(maxcycle=1)
 ----------------------------------------------------------------------
 -----
 title
 -----
 Structure from the checkpoint file:  "ANI1ccx_787_conf5_mol1.chk"
 Charge =  0 Multiplicity = 1

                         Standard orientation:
 ---------------------------------------------------------------------
 Center     Atomic      Atomic             Coordinates (Angstroms)
 Number     Number       Type             X           Y           Z
 ---------------------------------------------------------------------
      1          6           0        0.441072    1.531250   -0.758059
      2          6           0        1.183660    0.163528    1.172750
      3          6           0        1.965580   -0.885899    0.342561
      4          1           0       -1.719210   -1.437369   -0.680179
      5          1           0        2.869980   -0.792285   -1.352530
      6          1           0        2.684070   -1.382880    1.037330
      7          1           0        0.755898   -0.300316    2.060210
      8          1           0        1.268740   -1.610850   -0.059041
      9          1           0       -0.481675    2.073291   -1.041510
     10          1           0        1.206430    2.275020   -0.421502
     11          1           0        0.836587    0.947830   -1.574600
     12          1           0        1.843820    0.985514    1.568530
     13          7           0        0.110971    0.809092    0.408152
     14          7           0       -0.951247   -0.034524    0.175958
     15          7           0       -2.193130    0.373661    0.420963
     16          8           0       -0.767242   -1.222899   -0.615340
     17          8           0        2.636750   -0.171345   -0.634180
     18          8           0       -3.066090   -0.311860   -0.139948
 ---------------------------------------------------------------------

 SCF Done:  E(RHF) =  -507.134148638     A.U. after    2 cycles

 The electronic state is 1-A.
 Alpha  occ. eigenvalues --  -20.62179 -20.58394 -20.56221 -15.69108 -15.65554
 Alpha  occ. eigenvalues --  -15.55873 -11.29204 -11.28360 -11.26184  -1.59489
 Alpha  occ. eigenvalues --   -1.51021  -1.47512  -1.34299  -1.20668  -1.03204
 Alpha  occ. eigenvalues --   -0.98560  -0.90320  -0.83651  -0.79925  -0.75576
 Alpha  occ. eigenvalues --   -0.73952  -0.72177  -0.68548  -0.67458  -0.63395
 Alpha  occ. eigenvalues --   -0.61939  -0.60536  -0.58806  -0.56352  -0.55776
 Alpha  occ. eigenvalues --   -0.54575  -0.52386  -0.47204  -0.45611  -0.42510
 Alpha  occ. eigenvalues --   -0.41777
 Alpha virt. eigenvalues --    0.03341   0.03810   0.04266   0.04476   0.05324
 Alpha virt. eigenvalues --    0.05875   0.06750   0.07314   0.07891   0.08722
 Alpha virt. eigenvalues --    0.11399   0.11943   0.13210   0.13859   0.14362

 Mulliken charges:
               1
     1  C   -0.420925
     2  C   -0.691514
     3  C    0.934628
     4  H    0.440443
     5  H    0.330909
     6  H    0.142006
     7  H    0.058369
     8  H    0.074203
     9  H    0.138254
    10  H    0.215012
    11  H    0.203615
    12  H    0.095975
    13  N    0.720423
    14  N   -0.175817
    15  N    1.706580
    16  O   -1.392643
    17  O   -1.220645
    18  O   -1.158874
 Sum of Mulliken charges =  -0.00000

 Dipole moment (field-independent basis, Debye):
    X=              2.9874    Y=             -1.6201    Z=             -0.7067  Tot=              3.4711

 Test job not archived.
 1\1\GINC-SE072\SP\RHF\Aug-CC-pVDZ\C3H9N3O3\OHZDE\08-Apr-2025\0\\#t hf
 aug-cc-pvdz iop(5/13=1,5/36=2,99/5=2) pseudo=read geom=check guess=(re
 ad,tcheck) scf=(maxcycle=1)\\title\\0,1\C,0,0.441072,1.53125,-0.758059
 \C,0,1.18366,0.163528,1.17275\C,0,1.96558,-0.885899,0.342561\H,0,-1.71
 921,-1.43737,-0.680179\H,0,2.86998,-0.792285,-1.35253\H,0,2.68407,-1.3
 8288,1.03733\H,0,0.755898,-0.300316,2.06021\H,0,1.26874,-1.61085,-0.05
 90409\H,0,-0.481675,2.07329,-1.04151\H,0,1.20643,2.27502,-0.421502\H,0
 ,0.836587,0.94783,-1.5746\H,0,1.84382,0.985514,1.56853\N,0,0.110971,0.

 Normal termination of Gaussian 16 at Tue Apr  8 21:56:14 2025.
