 Gaussian 16, Revision C.01,

 ----------------------------------------------------------------------
 #t hf aug-cc-pvdz symm=none int=(grid=ultrafine) guess=(read,tcheck) s
 table=(opt,rrhf)
 ----------------------------------------------------------------------
 -----
 title
 -----
 Symbolic Z-matrix:
 Charge =  0 Multiplicity = 1

 SCF Done:  E(RHF) =  -456.244425718     A.U. after   11 cycles
 Normal termination of Gaussian 16 at Tue Apr  8 21:07:40 2025.
 Gaussian 16:  ES64L-G16RevC.01  3-Jul-2019

 ----------------------------------------------------------------------
 #t hf aug-cc-pvdz iop(5/13=1,5/36=2,99/5=2) pseudo=read geom=check gue
 ss=(read,tcheck) scf=(maxcycle=1)
 ----------------------------------------------------------------------
 -----
 title
 -----
 Structure from the checkpoint file:  "ANI1ccx_1844_conf304_mol1.chk"
 Charge =  0 Multiplicity = 1

                         Standard orientation:
 ---------------------------------------------------------------------
 Center     Atomic      Atomic             Coordinates (Angstroms)
 Number     Number       Type             X           Y           Z
 ---------------------------------------------------------------------
      1          1           0       -0.259115   -2.421750    1.574140
      2          1           0       -2.008961   -0.336372   -0.536172
      3          1           0       -3.157006   -1.332067   -0.396029
      4          1           0        0.702161    2.028745    0.280205
      5          1           0        0.313291    2.663627    1.698930
      6          1           0       -1.399274    1.372835    0.287551
      7          1           0       -0.812067   -2.288278    0.113621
      8          1           0       -2.349462    1.808429   -0.813404
      9          1           0        2.731982   -1.816253   -0.674760
     10          1           0        1.506244   -1.472308    0.299373
     11          1           0        2.154512    0.372304   -0.669761
     12          1           0        2.785937    1.658196   -0.810135
     13          8           0       -0.027984    2.547059    0.753218
     14          8           0        2.426575   -1.213032    0.011859
     15          8           0       -2.143816   -1.336552   -0.614901
     16          8           0       -2.247635    1.066038   -0.093201
     17          8           0        0.068624   -2.409452    0.664052
     18          8           0        1.898206    1.316300   -0.765222
 ---------------------------------------------------------------------

 SCF Done:  E(RHF) =  -456.716008741     A.U. after    2 cycles

 The electronic state is 1-A.
 Alpha  occ. eigenvalues --  -20.57364 -20.55528 -20.55268 -20.55041 -20.54684
 Alpha  occ. eigenvalues --  -20.53286  -1.45207  -1.44822  -1.42798  -1.41246
 Alpha  occ. eigenvalues --   -1.41075  -1.38704  -0.71496  -0.70211  -0.69760
 Alpha  occ. eigenvalues --   -0.69266  -0.69162  -0.68148  -0.61946  -0.60455
 Alpha  occ. eigenvalues --   -0.59945  -0.56137  -0.55571  -0.53468  -0.49636
 Alpha  occ. eigenvalues --   -0.49375  -0.48937  -0.48807  -0.48325  -0.46657
 Alpha virt. eigenvalues --    0.03432   0.04162   0.04673   0.04798   0.06399
 Alpha virt. eigenvalues --    0.06972   0.08383   0.08929   0.09320   0.10707
 Alpha virt. eigenvalues --    0.11067   0.11765   0.17689   0.19000   0.19709

 Mulliken charges:
               1
     1  H    0.409975
     2  H    0.882791
     3  H    0.406337
     4  H    0.811245
     5  H    0.393490
     6  H    0.671620
     7  H    0.697717
     8  H    0.446541
     9  H    0.363771
    10  H    0.750388
    11  H    0.657953
    12  H    0.330261
    13  O   -1.127564
    14  O   -1.062131
    15  O   -1.194243
    16  O   -1.207525
    17  O   -1.189164
    18  O   -1.041463
 Sum of Mulliken charges =  -0.00000

 Dipole moment (field-independent basis, Debye):
    X=              0.3569    Y=              0.8486    Z=              0.7193  Tot=              1.1683

 Test job not archived.
 1\1\GINC-SE030\SP\RHF\Aug-CC-pVDZ\H12O6\OHZDE\08-Apr-2025\0\\#t hf aug
 -cc-pvdz iop(5/13=1,5/36=2,99/5=2) pseudo=read geom=check guess=(read,
 tcheck) scf=(maxcycle=1)\\title\\0,1\H,0,-0.259104,-2.42175,1.57414\H,
 0,-2.00896,-0.336379,-0.536172\H,0,-3.157,-1.33208,-0.396029\H,0,0.702
 152,2.02875,0.280205\H,0,0.313279,2.66363,1.69893\H,0,-1.39928,1.37283
 ,0.287551\H,0,-0.812057,-2.28828,0.113621\H,0,-2.34947,1.80842,-0.8134
 04\H,0,2.73199,-1.81624,-0.67476\H,0,1.50625,-1.4723,0.299373\H,0,2.15
 451,0.372315,-0.669761\H,0,2.78593,1.65821,-0.810135\O,0,-0.0279953,2.

 Normal termination of Gaussian 16 at Tue Apr  8 21:07:45 2025.
