 Gaussian 16, Revision C.01,

 ----------------------------------------------------------------------
 #t hf aug-cc-pvdz symm=none int=(grid=ultrafine) guess=(read,tcheck) s
 table=(opt,rrhf)
 ----------------------------------------------------------------------
 -----
 title
 -----
 Symbolic Z-matrix:
 Charge =  0 Multiplicity = 1

 SCF Done:  E(RHF) =  -369.531607679     A.U. after   16 cycles
 Normal termination of Gaussian 16 at Tue Apr  8 21:42:48 2025.
 Gaussian 16:  ES64L-G16RevC.01  3-Jul-2019

 ----------------------------------------------------------------------
 #t hf aug-cc-pvdz iop(5/13=1,5/36=2,99/5=2) pseudo=read geom=check gue
 ss=(read,tcheck) scf=(maxcycle=1)
 ----------------------------------------------------------------------
 -----
 title
 -----
 Structure from the checkpoint file:  "ANI1ccx_487_conf3_mol1.chk"
 Charge =  0 Multiplicity = 1

                         Standard orientation:
 ---------------------------------------------------------------------
 Center     Atomic      Atomic             Coordinates (Angstroms)
 Number     Number       Type             X           Y           Z
 ---------------------------------------------------------------------
      1          6           0       -0.969693    0.082223   -0.013680
      2          6           0        1.004311    1.110218    0.056011
      3          1           0        1.522802    2.016498    0.003295
      4          1           0       -0.677436   -1.964550   -0.004239
      5          7           0       -0.289029    1.286099   -0.007014
      6          7           0        1.752880   -0.056808   -0.028976
      7          7           0        1.106979   -1.178832   -0.081130
      8          7           0       -0.244859   -1.082251    0.131797
      9          8           0       -2.166860    0.001992   -0.044472
 ---------------------------------------------------------------------

 SCF Done:  E(RHF) =  -369.890188815     A.U. after    2 cycles

 The electronic state is 1-A.
 Alpha  occ. eigenvalues --  -20.53516 -15.69406 -15.62764 -15.60231 -15.55843
 Alpha  occ. eigenvalues --  -11.41468 -11.37598  -1.51205  -1.45821  -1.29732
 Alpha  occ. eigenvalues --   -1.28221  -1.06681  -0.99740  -0.87815  -0.85228
 Alpha  occ. eigenvalues --   -0.75418  -0.73174  -0.66059  -0.65306  -0.59845
 Alpha  occ. eigenvalues --   -0.59135  -0.55722  -0.52639  -0.46759  -0.44425
 Alpha virt. eigenvalues --   -0.03046   0.02539   0.05054   0.07582   0.08082
 Alpha virt. eigenvalues --    0.08882   0.09960   0.10145   0.10746   0.11358
 Alpha virt. eigenvalues --    0.13957   0.14359   0.15993   0.16597   0.17430

 Mulliken charges:
               1
     1  C    0.413791
     2  C   -0.214872
     3  H   -0.031428
     4  H    0.135189
     5  N    0.555728
     6  N    0.137465
     7  N   -0.173756
     8  N    0.300615
     9  O   -1.122732
 Sum of Mulliken charges =  -0.00000

 Dipole moment (field-independent basis, Debye):
    X=              2.3433    Y=             -1.0076    Z=              0.0862  Tot=              2.5523

 Test job not archived.
 1\1\GINC-SE402\SP\RHF\Aug-CC-pVDZ\C2H2N4O1\OHZDE\08-Apr-2025\0\\#t hf
 aug-cc-pvdz iop(5/13=1,5/36=2,99/5=2) pseudo=read geom=check guess=(re
 ad,tcheck) scf=(maxcycle=1)\\title\\0,1\C,0,-0.969693,0.0822232,-0.013
 6803\C,0,1.00431,1.11022,0.0560111\H,0,1.5228,2.0165,0.00329458\H,0,-0
 .677435,-1.96455,-0.00423905\N,0,-0.28903,1.2861,-0.00701453\N,0,1.752
 88,-0.056806,-0.0289756\N,0,1.10698,-1.17883,-0.0811305\N,0,-0.244858,
 -1.08225,0.131797\O,0,-2.16686,0.00199132,-0.0444721\\Version=ES64L-G1
 6RevC.01\State=1-A\HF=-369.8901888\RMSD=3.055e-02\Dipole=0.9219429,-0.

 Normal termination of Gaussian 16 at Tue Apr  8 21:42:51 2025.
