 Gaussian 16, Revision C.01,

 ----------------------------------------------------------------------
 #t hf aug-cc-pvdz symm=none int=(grid=ultrafine) guess=(read,tcheck) s
 table=(opt,rrhf)
 ----------------------------------------------------------------------
 -----
 title
 -----
 Symbolic Z-matrix:
 Charge =  0 Multiplicity = 1

 SCF Done:  E(RHF) =  -318.602479571     A.U. after   16 cycles
 Normal termination of Gaussian 16 at Tue Apr  8 21:34:31 2025.
 Gaussian 16:  ES64L-G16RevC.01  3-Jul-2019

 ----------------------------------------------------------------------
 #t hf aug-cc-pvdz iop(5/13=1,5/36=2,99/5=2) pseudo=read geom=check gue
 ss=(read,tcheck) scf=(maxcycle=1)
 ----------------------------------------------------------------------
 -----
 title
 -----
 Structure from the checkpoint file:  "ANI1ccx_387_conf1_mol1.chk"
 Charge =  0 Multiplicity = 1

                         Standard orientation:
 ---------------------------------------------------------------------
 Center     Atomic      Atomic             Coordinates (Angstroms)
 Number     Number       Type             X           Y           Z
 ---------------------------------------------------------------------
      1          6           0       -1.899231    0.091531    0.332949
      2          1           0        3.827239   -0.588749    0.458158
      3          1           0       -0.016746   -0.164872    0.078126
      4          1           0       -1.638011    0.438437    1.349860
      5          7           0        2.798669   -0.480507    0.167356
      6          8           0        2.572179    0.654008   -0.177907
      7          8           0       -0.853631   -0.368525   -0.365225
      8          8           0       -3.014521    0.105710   -0.088783
 ---------------------------------------------------------------------

 SCF Done:  E(RHF) =  -318.907750399     A.U. after    2 cycles

 The electronic state is 1-A.
 Alpha  occ. eigenvalues --  -20.66784 -20.60638 -20.54204 -15.68149 -11.39794
 Alpha  occ. eigenvalues --   -1.63226  -1.54942  -1.46254  -1.04555  -0.86875
 Alpha  occ. eigenvalues --   -0.79476  -0.78871  -0.71547  -0.66652  -0.64029
 Alpha  occ. eigenvalues --   -0.62836  -0.58227  -0.47767  -0.46566  -0.45019
 Alpha virt. eigenvalues --    0.02144   0.02572   0.04186   0.07470   0.08623
 Alpha virt. eigenvalues --    0.10035   0.11756   0.14055   0.14747   0.15786
 Alpha virt. eigenvalues --    0.15867   0.16834   0.19300   0.20562   0.21396

 Mulliken charges:
               1
     1  C    1.414660
     2  H    0.074308
     3  H    0.485894
     4  H    0.113152
     5  N    0.757138
     6  O   -0.819279
     7  O   -1.048293
     8  O   -0.977580
 Sum of Mulliken charges =   0.00000

 Dipole moment (field-independent basis, Debye):
    X=              5.6035    Y=              0.2300    Z=              2.7366  Tot=              6.2402

 Test job not archived.
 1\1\GINC-SE094\SP\RHF\Aug-CC-pVDZ\C1H3N1O3\OHZDE\08-Apr-2025\0\\#t hf
 aug-cc-pvdz iop(5/13=1,5/36=2,99/5=2) pseudo=read geom=check guess=(re
 ad,tcheck) scf=(maxcycle=1)\\title\\0,1\C,0,-1.89923,0.0915305,0.33294
 9\H,0,3.82724,-0.588749,0.458158\H,0,-0.0167452,-0.164872,0.0781258\H,
 0,-1.63801,0.438437,1.34986\N,0,2.79867,-0.480507,0.167356\O,0,2.57218
 ,0.654008,-0.177907\O,0,-0.85363,-0.368525,-0.365225\O,0,-3.01452,0.10
 571,-0.0887832\\Version=ES64L-G16RevC.01\State=1-A\HF=-318.9077504\RMS
 D=9.160e-03\Dipole=2.204573,0.0904996,1.0766599\Quadrupole=-0.5576083,

 Normal termination of Gaussian 16 at Tue Apr  8 21:34:33 2025.
