 Gaussian 16, Revision C.01,

 ----------------------------------------------------------------------
 #t hf aug-cc-pvdz symm=none int=(grid=ultrafine) guess=(read,tcheck) s
 table=(opt,rrhf)
 ----------------------------------------------------------------------
 -----
 title
 -----
 Symbolic Z-matrix:
 Charge =  0 Multiplicity = 1

 SCF Done:  E(RHF) =  -584.431671608     A.U. after   14 cycles
 Normal termination of Gaussian 16 at Tue Apr  8 22:13:18 2025.
 Gaussian 16:  ES64L-G16RevC.01  3-Jul-2019

 ----------------------------------------------------------------------
 #t hf aug-cc-pvdz iop(5/13=1,5/36=2,99/5=2) pseudo=read geom=check gue
 ss=(read,tcheck) scf=(maxcycle=1)
 ----------------------------------------------------------------------
 -----
 title
 -----
 Structure from the checkpoint file:  "ANI1ccx_940_conf6_mol1.chk"
 Charge =  0 Multiplicity = 1

                         Standard orientation:
 ---------------------------------------------------------------------
 Center     Atomic      Atomic             Coordinates (Angstroms)
 Number     Number       Type             X           Y           Z
 ---------------------------------------------------------------------
      1          6           0       -0.467338    0.212730    0.282561
      2          6           0        0.578576   -0.564524   -0.569339
      3          6           0        2.094540   -0.283926   -0.289571
      4          6           0       -1.912050   -0.124794   -0.212743
      5          1           0       -3.226280   -1.493450   -0.327968
      6          1           0        1.718790    1.602210   -0.131448
      7          1           0        0.345711   -0.472038   -1.633370
      8          1           0        0.503533   -1.637600   -0.321069
      9          1           0       -0.879124    0.260902    2.350330
     10          1           0        0.710342   -0.069839    1.993190
     11          1           0       -0.903470    1.867030   -0.613178
     12          7           0       -0.235879   -0.178991    1.673740
     13          8           0       -2.316470   -1.388660    0.047659
     14          8           0       -0.301496    1.586720    0.083175
     15          8           0        2.468590    0.994618   -0.072266
     16          8           0        2.884250   -1.185000   -0.299279
     17          8           0       -2.532460    0.712171   -0.796554
 ---------------------------------------------------------------------

 SCF Done:  E(RHF) =  -585.007572303     A.U. after    2 cycles

 The electronic state is 1-A.
 Alpha  occ. eigenvalues --  -20.63991 -20.59781 -20.58539 -20.58487 -20.53894
 Alpha  occ. eigenvalues --  -15.52132 -11.43463 -11.40411 -11.38149 -11.27971
 Alpha  occ. eigenvalues --   -1.58563  -1.54416  -1.51732  -1.49124  -1.45871
 Alpha  occ. eigenvalues --   -1.21196  -1.05670  -0.95959  -0.84970  -0.83492
 Alpha  occ. eigenvalues --   -0.78946  -0.75531  -0.74547  -0.71703  -0.70959
 Alpha  occ. eigenvalues --   -0.67182  -0.66072  -0.64583  -0.63596  -0.62657
 Alpha  occ. eigenvalues --   -0.58579  -0.56924  -0.54171  -0.51887  -0.50424
 Alpha  occ. eigenvalues --   -0.49815  -0.47387  -0.46939  -0.43877
 Alpha virt. eigenvalues --    0.02607   0.03714   0.04022   0.05147   0.06076
 Alpha virt. eigenvalues --    0.06834   0.07297   0.09180   0.09896   0.11400
 Alpha virt. eigenvalues --    0.11881   0.12315   0.13157   0.13903   0.14620

 Mulliken charges:
               1
     1  C   -0.001533
     2  C   -0.377142
     3  C    2.018988
     4  C    2.284740
     5  H    0.377572
     6  H    0.465729
     7  H    0.214496
     8  H    0.282728
     9  H    0.183109
    10  H    0.214437
    11  H    0.284273
    12  N    0.618340
    13  O   -1.313711
    14  O   -1.530252
    15  O   -1.303506
    16  O   -1.224040
    17  O   -1.194230
 Sum of Mulliken charges =  -0.00000

 Dipole moment (field-independent basis, Debye):
    X=             -4.7965    Y=              0.9091    Z=             -0.1808  Tot=              4.8853

 Test job not archived.
 1\1\GINC-SE184\SP\RHF\Aug-CC-pVDZ\C4H7N1O5\OHZDE\08-Apr-2025\0\\#t hf
 aug-cc-pvdz iop(5/13=1,5/36=2,99/5=2) pseudo=read geom=check guess=(re
 ad,tcheck) scf=(maxcycle=1)\\title\\0,1\C,0,-0.467338,0.21273,0.282561
 \C,0,0.578576,-0.564524,-0.569339\C,0,2.09454,-0.283926,-0.289571\C,0,
 -1.91205,-0.124794,-0.212743\H,0,-3.22628,-1.49345,-0.327968\H,0,1.718
 79,1.60221,-0.131448\H,0,0.345711,-0.472038,-1.63337\H,0,0.503533,-1.6
 376,-0.321069\H,0,-0.879124,0.260902,2.35033\H,0,0.710342,-0.0698391,1
 .99319\H,0,-0.90347,1.86703,-0.613178\N,0,-0.235879,-0.178991,1.67374\

 Normal termination of Gaussian 16 at Tue Apr  8 22:13:26 2025.
