 Gaussian 16, Revision C.01,

 ----------------------------------------------------------------------
 #t hf aug-cc-pvdz symm=none int=(grid=ultrafine) guess=(read,tcheck) s
 table=(opt,rrhf)
 ----------------------------------------------------------------------
 -----
 title
 -----
 Symbolic Z-matrix:
 Charge =  0 Multiplicity = 1

 SCF Done:  E(RHF) =  -228.135807984     A.U. after   11 cycles
 Normal termination of Gaussian 16 at Tue Apr  8 21:13:20 2025.
 Gaussian 16:  ES64L-G16RevC.01  3-Jul-2019

 ----------------------------------------------------------------------
 #t hf aug-cc-pvdz iop(5/13=1,5/36=2,99/5=2) pseudo=read geom=check gue
 ss=(read,tcheck) scf=(maxcycle=1)
 ----------------------------------------------------------------------
 -----
 title
 -----
 Structure from the checkpoint file:  "ANI1ccx_1900_conf21_mol2.chk"
 Charge =  0 Multiplicity = 1

                         Standard orientation:
 ---------------------------------------------------------------------
 Center     Atomic      Atomic             Coordinates (Angstroms)
 Number     Number       Type             X           Y           Z
 ---------------------------------------------------------------------
      1          1           0        1.100669    0.347799   -0.149858
      2          1           0        1.949786   -0.560202    0.748355
      3          1           0       -0.901845    0.793020   -0.098359
      4          1           0       -0.352667    1.950220    0.760833
      5          1           0       -0.246791   -1.114227    0.076121
      6          1           0       -1.569885   -1.486238   -0.621983
      7          8           0        1.484906   -0.555236   -0.099617
      8          8           0       -0.273964    1.545332   -0.105681
      9          8           0       -1.208351   -0.981392    0.115910
 ---------------------------------------------------------------------

 SCF Done:  E(RHF) =  -228.373314729     A.U. after    2 cycles

 The electronic state is 1-A.
 Alpha  occ. eigenvalues --  -20.55683 -20.55667 -20.55550  -1.45750  -1.43305
 Alpha  occ. eigenvalues --   -1.43133  -0.73764  -0.70698  -0.70306  -0.60224
 Alpha  occ. eigenvalues --   -0.59472  -0.56445  -0.50784  -0.49545  -0.48862
 Alpha virt. eigenvalues --    0.03409   0.04738   0.05449   0.07385   0.08393
 Alpha virt. eigenvalues --    0.09614   0.16800   0.18362   0.18801   0.21480
 Alpha virt. eigenvalues --    0.22081   0.22774   0.24432   0.26249   0.27187

 Mulliken charges:
               1
     1  H    0.592458
     2  H    0.364317
     3  H    0.594389
     4  H    0.363604
     5  H    0.579077
     6  H    0.362394
     7  O   -0.959144
     8  O   -0.953227
     9  O   -0.943868
 Sum of Mulliken charges =  -0.00000

 Dipole moment (field-independent basis, Debye):
    X=             -0.0798    Y=             -0.1685    Z=              1.4227  Tot=              1.4349

 Test job not archived.
 1\1\GINC-SE090\SP\RHF\Aug-CC-pVDZ\H6O3\OHZDE\08-Apr-2025\0\\#t hf aug-
 cc-pvdz iop(5/13=1,5/36=2,99/5=2) pseudo=read geom=check guess=(read,t
 check) scf=(maxcycle=1)\\title\\0,1\H,0,1.10068,0.347765,-0.149858\H,0
 ,1.94977,-0.560262,0.748355\H,0,-0.90182,0.793047,-0.0983593\H,0,-0.35
 2607,1.95023,0.760833\H,0,-0.246824,-1.11422,0.0761211\H,0,-1.56993,-1
 .48619,-0.621983\O,0,1.48489,-0.555282,-0.0996174\O,0,-0.273916,1.5453
 4,-0.105681\O,0,-1.20838,-0.981356,0.11591\\Version=ES64L-G16RevC.01\S
 tate=1-A\HF=-228.3733147\RMSD=5.925e-03\Dipole=-0.0313997,-0.0662972,0

 Normal termination of Gaussian 16 at Tue Apr  8 21:13:21 2025.
