 Gaussian 16, Revision C.01,

 ----------------------------------------------------------------------
 #t hf aug-cc-pvdz symm=none int=(grid=ultrafine) guess=(read,tcheck) s
 table=(opt,rrhf)
 ----------------------------------------------------------------------
 -----
 title
 -----
 Symbolic Z-matrix:
 Charge =  0 Multiplicity = 1

 SCF Done:  E(RHF) =  -487.415909107     A.U. after   15 cycles
 Normal termination of Gaussian 16 at Tue Apr  8 22:00:34 2025.
 Gaussian 16:  ES64L-G16RevC.01  3-Jul-2019

 ----------------------------------------------------------------------
 #t hf aug-cc-pvdz iop(5/13=1,5/36=2,99/5=2) pseudo=read geom=check gue
 ss=(read,tcheck) scf=(maxcycle=1)
 ----------------------------------------------------------------------
 -----
 title
 -----
 Structure from the checkpoint file:  "ANI1ccx_877_conf3_mol1.chk"
 Charge =  0 Multiplicity = 1

                         Standard orientation:
 ---------------------------------------------------------------------
 Center     Atomic      Atomic             Coordinates (Angstroms)
 Number     Number       Type             X           Y           Z
 ---------------------------------------------------------------------
      1          6           0        1.440132   -0.054334   -0.013127
      2          6           0        0.707787    1.257373    0.126164
      3          6           0       -0.751255    1.209998   -0.079807
      4          6           0       -0.728903   -1.212762    0.019779
      5          1           0        0.866204    1.407964    1.179150
      6          1           0        1.237964    2.048305   -0.297225
      7          1           0       -2.296228   -0.071042   -0.214687
      8          1           0        1.194369   -2.024695   -0.113990
      9          7           0       -1.338518   -0.028870   -0.102192
     10          7           0        0.696001   -1.166307   -0.007725
     11          8           0        2.660721   -0.013453   -0.086300
     12          8           0       -1.380277    2.229725   -0.008513
     13          8           0       -1.344350   -2.240765    0.082078
 ---------------------------------------------------------------------

 SCF Done:  E(RHF) =  -487.897658009     A.U. after    2 cycles

 The electronic state is 1-A.
 Alpha  occ. eigenvalues --  -20.56441 -20.56165 -20.54759 -15.59245 -15.59107
 Alpha  occ. eigenvalues --  -11.45061 -11.41166 -11.40367 -11.28650  -1.53843
 Alpha  occ. eigenvalues --   -1.51876  -1.49369  -1.35341  -1.29181  -1.10921
 Alpha  occ. eigenvalues --   -0.98756  -0.95139  -0.88553  -0.82609  -0.74996
 Alpha  occ. eigenvalues --   -0.74037  -0.71113  -0.67480  -0.65992  -0.65393
 Alpha  occ. eigenvalues --   -0.63955  -0.63714  -0.53908  -0.51203  -0.49595
 Alpha  occ. eigenvalues --   -0.48596  -0.46768  -0.44313
 Alpha virt. eigenvalues --    0.02665   0.04586   0.04679   0.04783   0.07699
 Alpha virt. eigenvalues --    0.08520   0.08717   0.09313   0.09930   0.10347
 Alpha virt. eigenvalues --    0.12754   0.13006   0.13522   0.13625   0.13794

 Mulliken charges:
               1
     1  C    0.573516
     2  C   -0.182020
     3  C    0.777788
     4  C    0.385722
     5  H    0.394336
     6  H    0.093891
     7  H    0.215436
     8  H    0.238820
     9  N    0.730774
    10  N    0.630656
    11  O   -1.345537
    12  O   -1.294749
    13  O   -1.218632
 Sum of Mulliken charges =  -0.00000

 Dipole moment (field-independent basis, Debye):
    X=             -0.4283    Y=             -0.1195    Z=             -0.0069  Tot=              0.4447

 Test job not archived.
 1\1\GINC-SE453\SP\RHF\Aug-CC-pVDZ\C4H4N2O3\OHZDE\08-Apr-2025\0\\#t hf
 aug-cc-pvdz iop(5/13=1,5/36=2,99/5=2) pseudo=read geom=check guess=(re
 ad,tcheck) scf=(maxcycle=1)\\title\\0,1\C,0,1.44013,-0.0543394,-0.0131
 272\C,0,0.70779,1.25737,0.126164\C,0,-0.751252,1.21,-0.079807\C,0,-0.7
 28909,-1.21276,0.019779\H,0,0.866208,1.40796,1.17915\H,0,1.23797,2.048
 3,-0.297225\H,0,-2.29623,-0.0710343,-0.214687\H,0,1.19436,-2.0247,-0.1
 1399\N,0,-1.33852,-0.0288651,-0.102192\N,0,0.695995,-1.16631,-0.007724
 69\O,0,2.66072,-0.0134638,-0.0863001\O,0,-1.38027,2.22973,-0.00851316\

 Normal termination of Gaussian 16 at Tue Apr  8 22:00:40 2025.
