 Gaussian 16, Revision C.01,

 ----------------------------------------------------------------------
 #t hf aug-cc-pvdz symm=none int=(grid=ultrafine) guess=(read,tcheck) s
 table=(opt,rrhf)
 ----------------------------------------------------------------------
 -----
 title
 -----
 Symbolic Z-matrix:
 Charge =  0 Multiplicity = 1

 SCF Done:  E(RHF) =  -817.957498503     A.U. after   14 cycles
 Normal termination of Gaussian 16 at Tue Apr  8 21:36:12 2025.
 Gaussian 16:  ES64L-G16RevC.01  3-Jul-2019

 ----------------------------------------------------------------------
 #t hf aug-cc-pvdz iop(5/13=1,5/36=2,99/5=2) pseudo=read geom=check gue
 ss=(read,tcheck) scf=(maxcycle=1)
 ----------------------------------------------------------------------
 -----
 title
 -----
 Structure from the checkpoint file:  "ANI1ccx_211_conf6_mol1.chk"
 Charge =  0 Multiplicity = 1

                         Standard orientation:
 ---------------------------------------------------------------------
 Center     Atomic      Atomic             Coordinates (Angstroms)
 Number     Number       Type             X           Y           Z
 ---------------------------------------------------------------------
      1          6           0        1.072741    1.504220   -0.661317
      2          6           0       -3.813629    0.334292   -2.047150
      3          6           0       -3.253460   -0.634976   -0.920337
      4          6           0       -2.442030   -0.396374    1.460680
      5          6           0       -2.425029    0.215920    0.042238
      6          6           0       -2.643760   -1.929209   -1.305400
      7          6           0        3.339810   -1.763730    0.069329
      8          6           0        2.259250   -0.677969    0.501494
      9          6           0        1.860141    0.126864   -0.773741
     10          6           0       -0.226326    1.339771    0.057610
     11          6           0        4.768030   -1.322461    0.260263
     12          1           0       -0.777173   -0.330347   -1.111320
     13          1           0       -0.945838    0.522451    1.983470
     14          1           0       -1.724240   -1.709809   -1.828690
     15          1           0       -3.222340   -2.405419   -2.031490
     16          1           0       -2.598780   -2.544209   -0.434103
     17          1           0       -4.346999    1.054022   -1.442050
     18          1           0       -4.580069   -0.140213   -2.668760
     19          1           0       -2.972849    0.866212   -2.585170
     20          1           0       -4.172400   -0.942317   -0.354702
     21          1           0       -2.822529    1.219311    0.192116
     22          1           0        6.067701   -0.206775   -0.840475
     23          1           0        3.181440   -2.097670   -1.034200
     24          1           0        4.910650   -0.942018    1.273190
     25          1           0        1.919071    3.332330   -0.736153
     26          1           0        1.289161    2.945210    0.738358
     27          1           0        4.697011    0.699165   -0.357589
     28          1           0        1.279640   -0.524649   -1.405460
     29          1           0        2.769871    0.420448   -1.337820
     30          1           0        0.749880    1.793630   -1.664930
     31          1           0        1.449040   -1.271440    0.970329
     32          1           0        3.100910   -2.687520    0.583178
     33          1           0        5.437220   -2.220661    0.101455
     34          1           0        2.672811   -0.071635    1.351740
     35          7           0        1.790071    2.590140   -0.028974
     36          7           0        5.094711   -0.218584   -0.679888
     37          7           0       -1.033709    0.407784   -0.469448
     38          8           0       -3.465910   -0.963079    1.737600
     39          8           0       -0.534362    1.886581    1.125550
     40          8           0       -1.411369   -0.297449    2.235000
 ---------------------------------------------------------------------

 SCF Done:  E(RHF) =  -818.807641093     A.U. after    2 cycles

 The electronic state is 1-A.
 Alpha  occ. eigenvalues --  -20.57782 -20.54410 -20.51306 -15.54769 -15.49454
 Alpha  occ. eigenvalues --  -15.48306 -11.38262 -11.37479 -11.29669 -11.29289
 Alpha  occ. eigenvalues --  -11.26342 -11.25567 -11.24950 -11.24860 -11.24240
 Alpha  occ. eigenvalues --  -11.23727 -11.23005  -1.54924  -1.49328  -1.44602
 Alpha  occ. eigenvalues --   -1.26942  -1.20905  -1.17368  -1.11003  -1.06685
 Alpha  occ. eigenvalues --   -1.01752  -0.98441  -0.95729  -0.93377  -0.87700
 Alpha  occ. eigenvalues --   -0.84172  -0.83364  -0.79972  -0.79134  -0.76287
 Alpha  occ. eigenvalues --   -0.74899  -0.71274  -0.70889  -0.68444  -0.66441
 Alpha  occ. eigenvalues --   -0.65224  -0.65031  -0.64635  -0.63627  -0.62150
 Alpha  occ. eigenvalues --   -0.61014  -0.60683  -0.59815  -0.58686  -0.57782
 Alpha  occ. eigenvalues --   -0.57269  -0.55601  -0.55096  -0.54123  -0.53335
 Alpha  occ. eigenvalues --   -0.51769  -0.49690  -0.49238  -0.48846  -0.48080
 Alpha  occ. eigenvalues --   -0.47036  -0.46524  -0.45126  -0.44983  -0.43394
 Alpha  occ. eigenvalues --   -0.41911  -0.40570
 Alpha virt. eigenvalues --    0.02372   0.02747   0.03319   0.03731   0.04068
 Alpha virt. eigenvalues --    0.04194   0.04638   0.05244   0.05736   0.06164
 Alpha virt. eigenvalues --    0.06222   0.07099   0.07558   0.08125   0.08511

 Mulliken charges:
               1
     1  C   -2.082406
     2  C   -0.442572
     3  C   -0.259402
     4  C    2.512973
     5  C   -1.857795
     6  C   -0.123995
     7  C   -0.325575
     8  C   -0.168930
     9  C   -0.327809
    10  C    0.570709
    11  C   -0.643967
    12  H    0.396070
    13  H    0.483478
    14  H    0.236390
    15  H   -0.028778
    16  H    0.201111
    17  H    0.210712
    18  H    0.123131
    19  H    0.325404
    20  H    0.218158
    21  H    0.057661
    22  H    0.118793
    23  H    0.298931
    24  H    0.103053
    25  H    0.322339
    26  H    0.133074
    27  H    0.153434
    28  H    0.067125
    29  H    0.249138
    30  H    0.234683
    31  H    0.062909
    32  H    0.013125
    33  H    0.131814
    34  H    0.226361
    35  N    0.927832
    36  N    0.237179
    37  N    1.970690
    38  O   -1.364982
    39  O   -1.578521
    40  O   -1.381544
 Sum of Mulliken charges =  -0.00000

 Dipole moment (field-independent basis, Debye):
    X=              2.5513    Y=              0.8776    Z=             -4.6427  Tot=              5.3698

 Test job not archived.
 1\1\GINC-SE338\SP\RHF\Aug-CC-pVDZ\C11H23N3O3\OHZDE\08-Apr-2025\0\\#t h
 f aug-cc-pvdz iop(5/13=1,5/36=2,99/5=2) pseudo=read geom=check guess=(
 read,tcheck) scf=(maxcycle=1)\\title\\0,1\C,0,1.07274,1.50422,-0.66131
 7\C,0,-3.81363,0.33429,-2.04715\C,0,-3.25346,-0.634977,-0.920337\C,0,-
 2.44203,-0.396375,1.46068\C,0,-2.42503,0.215919,0.0422374\C,0,-2.64376
 ,-1.92921,-1.3054\C,0,3.33981,-1.76373,0.069329\C,0,2.25925,-0.677969,
 0.501494\C,0,1.86014,0.126864,-0.773741\C,0,-0.226327,1.33977,0.057609
 8\C,0,4.76803,-1.32246,0.260263\H,0,-0.777174,-0.330348,-1.11132\H,0,-

 Normal termination of Gaussian 16 at Tue Apr  8 21:37:11 2025.
