 Gaussian 16, Revision C.01,

 ----------------------------------------------------------------------
 #t hf aug-cc-pvdz symm=none int=(grid=ultrafine) guess=(read,tcheck) s
 table=(opt,rrhf)
 ----------------------------------------------------------------------
 -----
 title
 -----
 Symbolic Z-matrix:
 Charge =  0 Multiplicity = 1

 SCF Done:  E(RHF) =  -332.532573447     A.U. after   16 cycles
 Normal termination of Gaussian 16 at Tue Apr  8 21:48:54 2025.
 Gaussian 16:  ES64L-G16RevC.01  3-Jul-2019

 ----------------------------------------------------------------------
 #t hf aug-cc-pvdz iop(5/13=1,5/36=2,99/5=2) pseudo=read geom=check gue
 ss=(read,tcheck) scf=(maxcycle=1)
 ----------------------------------------------------------------------
 -----
 title
 -----
 Structure from the checkpoint file:  "ANI1ccx_658_conf3_mol1.chk"
 Charge =  0 Multiplicity = 1

                         Standard orientation:
 ---------------------------------------------------------------------
 Center     Atomic      Atomic             Coordinates (Angstroms)
 Number     Number       Type             X           Y           Z
 ---------------------------------------------------------------------
      1          6           0       -1.803669   -0.027240   -0.060688
      2          6           0       -0.297255   -0.089254   -0.239375
      3          6           0        1.747001   -0.673466    0.105550
      4          1           0        2.727101   -1.195119    0.447564
      5          1           0        2.421950    1.385211    0.273201
      6          7           0       -2.948219   -0.011593    0.197643
      7          7           0        0.548715   -1.138089   -0.105868
      8          7           0        1.589960    0.693693    0.057395
      9          7           0        0.377329    1.105941   -0.085412
 ---------------------------------------------------------------------

 SCF Done:  E(RHF) =  -332.856022779     A.U. after    2 cycles

 The electronic state is 1-A.
 Alpha  occ. eigenvalues --  -15.64539 -15.59361 -15.54302 -15.53569 -11.36576
 Alpha  occ. eigenvalues --  -11.36336 -11.31112  -1.46515  -1.25921  -1.23257
 Alpha  occ. eigenvalues --   -1.15581  -0.94673  -0.91954  -0.83639  -0.74210
 Alpha  occ. eigenvalues --   -0.71910  -0.69895  -0.61606  -0.58750  -0.54015
 Alpha  occ. eigenvalues --   -0.53341  -0.51269  -0.49990  -0.41761
 Alpha virt. eigenvalues --    0.01401   0.03444   0.05473   0.06960   0.07028
 Alpha virt. eigenvalues --    0.08446   0.09185   0.10336   0.11826   0.12301
 Alpha virt. eigenvalues --    0.12406   0.13956   0.14467   0.15443   0.15556

 Mulliken charges:
               1
     1  C   -1.503296
     2  C   -0.443707
     3  C   -0.243067
     4  H    0.162501
     5  H    0.181193
     6  N    0.946310
     7  N    0.697646
     8  N   -0.080318
     9  N    0.282738
 Sum of Mulliken charges =  -0.00000

 Dipole moment (field-independent basis, Debye):
    X=              7.8436    Y=              0.4560    Z=              0.3371  Tot=              7.8640

 Test job not archived.
 1\1\GINC-SE455\SP\RHF\Aug-CC-pVDZ\C3H2N4\OHZDE\08-Apr-2025\0\\#t hf au
 g-cc-pvdz iop(5/13=1,5/36=2,99/5=2) pseudo=read geom=check guess=(read
 ,tcheck) scf=(maxcycle=1)\\title\\0,1\C,0,-1.80367,-0.0272406,-0.06068
 79\C,0,-0.297256,-0.089255,-0.239375\C,0,1.747,-0.673467,0.10555\H,0,2
 .7271,-1.19512,0.447564\H,0,2.42195,1.38521,0.273201\N,0,-2.94822,-0.0
 115936,0.197643\N,0,0.548714,-1.13809,-0.105868\N,0,1.58996,0.693692,0
 .0573953\N,0,0.377329,1.10594,-0.0854116\\Version=ES64L-G16RevC.01\Sta
 te=1-A\HF=-332.8560228\RMSD=5.707e-02\Dipole=3.0858966,0.1794202,0.132

 Normal termination of Gaussian 16 at Tue Apr  8 21:48:58 2025.
