 Gaussian 16, Revision C.01,

 ----------------------------------------------------------------------
 #t hf aug-cc-pvdz symm=none int=(grid=ultrafine) guess=(read,tcheck) s
 table=(opt,rrhf)
 ----------------------------------------------------------------------
 -----
 title
 -----
 Symbolic Z-matrix:
 Charge =  0 Multiplicity = 1

 SCF Done:  E(RHF) =  -903.321421642     A.U. after   14 cycles
 Normal termination of Gaussian 16 at Tue Apr  8 20:22:03 2025.
 Gaussian 16:  ES64L-G16RevC.01  3-Jul-2019

 ----------------------------------------------------------------------
 #t hf aug-cc-pvdz iop(5/13=1,5/36=2,99/5=2) pseudo=read geom=check gue
 ss=(read,tcheck) scf=(maxcycle=1)
 ----------------------------------------------------------------------
 -----
 title
 -----
 Structure from the checkpoint file:  "ANI1ccx_1597_conf23_mol1.chk"
 Charge =  0 Multiplicity = 1

                         Standard orientation:
 ---------------------------------------------------------------------
 Center     Atomic      Atomic             Coordinates (Angstroms)
 Number     Number       Type             X           Y           Z
 ---------------------------------------------------------------------
      1          6           0        2.147140    0.638679   -0.954383
      2          6           0        0.711955    0.229883   -0.256035
      3          6           0        3.291620    0.383834    0.075300
      4          6           0        3.251920   -1.195100    0.397219
      5          6           0       -1.682090    0.485660   -0.203725
      6          6           0       -1.551140    1.665410    0.708543
      7          6           0       -2.111360   -0.730280    0.553698
      8          6           0       -3.051180   -1.514650   -0.269751
      9          1           0       -0.221822    2.425250   -0.417530
     10          1           0       -4.736740   -0.532749    0.393228
     11          1           0       -4.721020   -1.884960   -0.937868
     12          1           0       -1.324510   -1.512470    0.654864
     13          1           0       -2.440730   -0.301165    1.514130
     14          1           0       -2.502950    0.770314   -0.947229
     15          1           0       -0.362767    0.492310   -2.038160
     16          1           0        2.694750   -1.071650    2.308430
     17          1           0        4.197610    0.519190   -0.550827
     18          1           0        3.344510    1.107230    0.829488
     19          1           0        2.321960   -0.059036   -1.811630
     20          1           0        2.419290    2.167990   -2.472370
     21          1           0        2.495660    2.645380   -0.904235
     22          1           0        3.392670   -2.539950    1.976250
     23          7           0        1.955730    2.014270   -1.561590
     24          7           0        3.252170   -1.624240    1.682580
     25          7           0       -0.479417    0.386545   -0.967331
     26          7           0       -4.370220   -1.214400   -0.231800
     27          8           0       -2.594080   -2.316770   -1.154680
     28          8           0        0.727715    0.012749    0.919883
     29          8           0        3.363530   -1.967760   -0.551423
     30          8           0       -2.267380    1.673230    1.723490
     31          8           0       -0.867901    2.730860    0.268381
 ---------------------------------------------------------------------

 SCF Done:  E(RHF) =  -904.218305453     A.U. after    2 cycles

 The electronic state is 1-A.
 Alpha  occ. eigenvalues --  -20.61192 -20.54725 -20.53746 -20.51865 -20.50708
 Alpha  occ. eigenvalues --  -15.55798 -15.54370 -15.53925 -15.52533 -11.40387
 Alpha  occ. eigenvalues --  -11.38549 -11.37972 -11.36181 -11.32338 -11.32123
 Alpha  occ. eigenvalues --  -11.27908 -11.24244  -1.54587  -1.51132  -1.45994
 Alpha  occ. eigenvalues --   -1.44560  -1.42559  -1.26876  -1.23341  -1.22995
 Alpha  occ. eigenvalues --   -1.20666  -1.08808  -1.04696  -0.97278  -0.91066
 Alpha  occ. eigenvalues --   -0.85535  -0.83731  -0.83403  -0.82070  -0.77759
 Alpha  occ. eigenvalues --   -0.76913  -0.75762  -0.74305  -0.73352  -0.70571
 Alpha  occ. eigenvalues --   -0.68952  -0.67628  -0.66191  -0.65468  -0.64610
 Alpha  occ. eigenvalues --   -0.63083  -0.61865  -0.60615  -0.59798  -0.57843
 Alpha  occ. eigenvalues --   -0.56909  -0.55673  -0.54965  -0.54646  -0.53980
 Alpha  occ. eigenvalues --   -0.53115  -0.50323  -0.47718  -0.47209  -0.44179
 Alpha  occ. eigenvalues --   -0.43287  -0.43052  -0.42906  -0.42450  -0.42174
 Alpha virt. eigenvalues --    0.01934   0.03082   0.03466   0.03934   0.04379
 Alpha virt. eigenvalues --    0.05014   0.05388   0.05929   0.06390   0.06889
 Alpha virt. eigenvalues --    0.07323   0.08294   0.08401   0.09203   0.10123

 Mulliken charges:
               1
     1  C   -1.526269
     2  C    0.454094
     3  C   -0.007731
     4  C    0.480368
     5  C   -1.596673
     6  C    2.856833
     7  C    0.202600
     8  C    0.173660
     9  H    0.612493
    10  H    0.098002
    11  H    0.260417
    12  H    0.205883
    13  H    0.134536
    14  H    0.361222
    15  H    0.303889
    16  H    0.167109
    17  H    0.391873
    18  H   -0.096277
    19  H    0.178634
    20  H    0.165386
    21  H    0.255745
    22  H   -0.008052
    23  N    0.423549
    24  N    0.845052
    25  N    0.956187
    26  N    0.876242
    27  O   -1.443679
    28  O   -1.380636
    29  O   -1.339208
    30  O   -1.453495
    31  O   -1.551754
 Sum of Mulliken charges =  -0.00000

 Dipole moment (field-independent basis, Debye):
    X=              1.6247    Y=              3.1021    Z=             -1.2474  Tot=              3.7174

 Test job not archived.
 1\1\GINC-SE273\SP\RHF\Aug-CC-pVDZ\C8H14N4O5\OHZDE\08-Apr-2025\0\\#t hf
  aug-cc-pvdz iop(5/13=1,5/36=2,99/5=2) pseudo=read geom=check guess=(r
 ead,tcheck) scf=(maxcycle=1)\\title\\0,1\C,0,2.14714,0.638679,-0.95438
 3\C,0,0.711955,0.229883,-0.256035\C,0,3.29162,0.383834,0.0753001\C,0,3
 .25192,-1.1951,0.397219\C,0,-1.68209,0.48566,-0.203725\C,0,-1.55114,1.
 66541,0.708543\C,0,-2.11136,-0.73028,0.553698\C,0,-3.05118,-1.51465,-0
 .269751\H,0,-0.221822,2.42525,-0.41753\H,0,-4.73674,-0.532749,0.393228
 \H,0,-4.72102,-1.88496,-0.937868\H,0,-1.32451,-1.51247,0.654864\H,0,-2

 Normal termination of Gaussian 16 at Tue Apr  8 20:22:48 2025.
