 Gaussian 16, Revision C.01,

 ----------------------------------------------------------------------
 #t hf aug-cc-pvdz symm=none int=(grid=ultrafine) guess=(read,tcheck) s
 table=(opt,rrhf)
 ----------------------------------------------------------------------
 -----
 title
 -----
 Symbolic Z-matrix:
 Charge =  0 Multiplicity = 1

 SCF Done:  E(RHF) =  -431.403244338     A.U. after   14 cycles
 Normal termination of Gaussian 16 at Tue Apr  8 21:43:51 2025.
 Gaussian 16:  ES64L-G16RevC.01  3-Jul-2019

 ----------------------------------------------------------------------
 #t hf aug-cc-pvdz iop(5/13=1,5/36=2,99/5=2) pseudo=read geom=check gue
 ss=(read,tcheck) scf=(maxcycle=1)
 ----------------------------------------------------------------------
 -----
 title
 -----
 Structure from the checkpoint file:  "ANI1ccx_499_conf10_mol2.chk"
 Charge =  0 Multiplicity = 1

                         Standard orientation:
 ---------------------------------------------------------------------
 Center     Atomic      Atomic             Coordinates (Angstroms)
 Number     Number       Type             X           Y           Z
 ---------------------------------------------------------------------
      1          6           0        0.050892    0.728597   -0.003960
      2          6           0       -0.781231   -0.571866   -0.000361
      3          1           0        1.435190   -1.262901   -0.022116
      4          1           0        1.971420    1.442169    0.018451
      5          1           0       -2.113200    0.671567    0.005916
      6          7           0        1.380680    0.610080    0.040065
      7          8           0        2.117540   -0.552948   -0.001768
      8          8           0       -0.571042    1.788439   -0.036802
      9          8           0       -2.067760   -0.306365    0.035543
     10          8           0       -0.300754   -1.686851   -0.029070
 ---------------------------------------------------------------------

 SCF Done:  E(RHF) =  -431.823092066     A.U. after    2 cycles

 The electronic state is 1-A.
 Alpha  occ. eigenvalues --  -20.63471 -20.62518 -20.58941 -20.56671 -15.62823
 Alpha  occ. eigenvalues --  -11.44595 -11.42013  -1.59694  -1.55283  -1.51358
 Alpha  occ. eigenvalues --   -1.49470  -1.22338  -0.98747  -0.88804  -0.83512
 Alpha  occ. eigenvalues --   -0.76215  -0.71612  -0.71019  -0.69804  -0.65746
 Alpha  occ. eigenvalues --   -0.64278  -0.61320  -0.56795  -0.54503  -0.51295
 Alpha  occ. eigenvalues --   -0.45932  -0.43047
 Alpha virt. eigenvalues --    0.03390   0.04944   0.05471   0.05882   0.08588
 Alpha virt. eigenvalues --    0.09458   0.10915   0.11182   0.11421   0.14442
 Alpha virt. eigenvalues --    0.14985   0.16271   0.17054   0.18002   0.18549

 Mulliken charges:
               1
     1  C    0.401788
     2  C    2.157721
     3  H    0.426765
     4  H    0.123864
     5  H    0.419382
     6  N    1.398916
     7  O   -1.213759
     8  O   -1.268755
     9  O   -1.222739
    10  O   -1.223184
 Sum of Mulliken charges =   0.00000

 Dipole moment (field-independent basis, Debye):
    X=              0.7168    Y=              1.2579    Z=             -0.0174  Tot=              1.4480

 Test job not archived.
 1\1\GINC-SE150\SP\RHF\Aug-CC-pVDZ\C2H3N1O4\OHZDE\08-Apr-2025\0\\#t hf
 aug-cc-pvdz iop(5/13=1,5/36=2,99/5=2) pseudo=read geom=check guess=(re
 ad,tcheck) scf=(maxcycle=1)\\title\\0,1\C,0,0.0508923,0.728598,-0.0039
 6045\C,0,-0.781231,-0.571865,-0.00036118\H,0,1.43519,-1.2629,-0.022116
 3\H,0,1.97142,1.44217,0.0184513\H,0,-2.1132,0.671568,0.00591639\N,0,1.
 38068,0.610081,0.0400654\O,0,2.11754,-0.552947,-0.00176815\O,0,-0.5710
 42,1.78844,-0.0368021\O,0,-2.06776,-0.306364,0.0355429\O,0,-0.300754,-
 1.68685,-0.0290701\\Version=ES64L-G16RevC.01\State=1-A\HF=-431.8230921

 Normal termination of Gaussian 16 at Tue Apr  8 21:43:55 2025.
