 Gaussian 16, Revision C.01,

 ----------------------------------------------------------------------
 #t hf aug-cc-pvdz symm=none int=(grid=ultrafine) guess=(read,tcheck) s
 table=(opt,rrhf)
 ----------------------------------------------------------------------
 -----
 title
 -----
 Symbolic Z-matrix:
 Charge =  0 Multiplicity = 1

 SCF Done:  E(RHF) =  -720.703127510     A.U. after   14 cycles
 Normal termination of Gaussian 16 at Tue Apr  8 20:26:10 2025.
 Gaussian 16:  ES64L-G16RevC.01  3-Jul-2019

 ----------------------------------------------------------------------
 #t hf aug-cc-pvdz iop(5/13=1,5/36=2,99/5=2) pseudo=read geom=check gue
 ss=(read,tcheck) scf=(maxcycle=1)
 ----------------------------------------------------------------------
 -----
 title
 -----
 Structure from the checkpoint file:  "ANI1ccx_1618_conf5_mol1.chk"
 Charge =  0 Multiplicity = 1

                         Standard orientation:
 ---------------------------------------------------------------------
 Center     Atomic      Atomic             Coordinates (Angstroms)
 Number     Number       Type             X           Y           Z
 ---------------------------------------------------------------------
      1          6           0       -2.331620   -0.791212   -0.281271
      2          6           0       -0.771126   -0.775785   -0.094326
      3          6           0       -2.915130    0.640457   -0.067861
      4          6           0        1.274290    0.424325   -0.660826
      5          6           0        2.305930   -0.770976   -0.667361
      6          6           0        1.614569    1.308400    0.568235
      7          6           0        0.785455    2.609890    0.458815
      8          6           0        1.374969    0.713808    1.943320
      9          1           0        1.013790   -1.912700    0.183457
     10          1           0        2.090870   -0.097825    2.171960
     11          1           0        0.336187    0.326157    1.943880
     12          1           0        1.416349    1.527040    2.700450
     13          1           0        0.962668    3.399650    1.172860
     14          1           0       -0.271565    2.337429    0.615034
     15          1           0        0.930797    3.064620   -0.531396
     16          1           0        2.650529    1.429700    0.429694
     17          1           0       -0.652650    0.744733   -1.329730
     18          1           0       -2.710761    2.414099   -1.016160
     19          1           0       -2.501221    0.975648    0.921280
     20          1           0       -3.993760    0.492432   -0.024982
     21          1           0       -2.694860   -1.160991   -1.270770
     22          1           0       -2.373630   -2.523001    0.747902
     23          1           0       -2.494730   -1.228881    1.581350
     24          1           0        1.530539    1.032740   -1.545660
     25          7           0       -2.887390   -1.605861    0.764914
     26          7           0       -0.079816    0.046747   -0.902437
     27          8           0        3.449640   -0.520350   -1.000340
     28          8           0       -0.321696   -1.481941    0.780501
     29          8           0       -2.598571    1.464179   -1.204940
     30          8           0        1.909110   -1.969450   -0.197575
 ---------------------------------------------------------------------

 SCF Done:  E(RHF) =  -721.441501118     A.U. after    2 cycles

 The electronic state is 1-A.
 Alpha  occ. eigenvalues --  -20.59540 -20.56715 -20.55543 -20.52105 -15.55705
 Alpha  occ. eigenvalues --  -15.50439 -11.39176 -11.38742 -11.32977 -11.30502
 Alpha  occ. eigenvalues --  -11.30474 -11.25255 -11.24672 -11.23461  -1.53710
 Alpha  occ. eigenvalues --   -1.50894  -1.48357  -1.43278  -1.29397  -1.22807
 Alpha  occ. eigenvalues --   -1.11159  -1.02947  -0.99133  -0.94707  -0.90400
 Alpha  occ. eigenvalues --   -0.85836  -0.83413  -0.81562  -0.76786  -0.75991
 Alpha  occ. eigenvalues --   -0.73833  -0.71125  -0.68676  -0.67281  -0.66074
 Alpha  occ. eigenvalues --   -0.64719  -0.64089  -0.62920  -0.61179  -0.60770
 Alpha  occ. eigenvalues --   -0.58659  -0.58471  -0.58208  -0.55550  -0.54743
 Alpha  occ. eigenvalues --   -0.53480  -0.51684  -0.50547  -0.49351  -0.48950
 Alpha  occ. eigenvalues --   -0.48218  -0.45985  -0.45126  -0.44532  -0.41039
 Alpha virt. eigenvalues --    0.01850   0.02921   0.03188   0.03788   0.04575
 Alpha virt. eigenvalues --    0.05054   0.05188   0.05579   0.06683   0.07581
 Alpha virt. eigenvalues --    0.07991   0.08317   0.08990   0.09131   0.10172

 Mulliken charges:
               1
     1  C   -2.168369
     2  C    0.480333
     3  C    0.997488
     4  C   -1.507876
     5  C    2.385213
     6  C   -0.379700
     7  C   -0.048786
     8  C   -0.201335
     9  H    0.595242
    10  H    0.159766
    11  H    0.259613
    12  H    0.179270
    13  H    0.009858
    14  H    0.138194
    15  H    0.160194
    16  H    0.005818
    17  H    0.364227
    18  H    0.392022
    19  H    0.327301
    20  H    0.090680
    21  H    0.119772
    22  H    0.290488
    23  H    0.234810
    24  H    0.101497
    25  N    0.818223
    26  N    1.954519
    27  O   -1.403448
    28  O   -1.527608
    29  O   -1.321470
    30  O   -1.505935
 Sum of Mulliken charges =  -0.00000

 Dipole moment (field-independent basis, Debye):
    X=             -5.2730    Y=              4.6460    Z=              0.8902  Tot=              7.0839

 Test job not archived.
 1\1\GINC-SE078\SP\RHF\Aug-CC-pVDZ\C8H16N2O4\OHZDE\08-Apr-2025\0\\#t hf
  aug-cc-pvdz iop(5/13=1,5/36=2,99/5=2) pseudo=read geom=check guess=(r
 ead,tcheck) scf=(maxcycle=1)\\title\\0,1\C,0,-2.33162,-0.791211,-0.281
 271\C,0,-0.771126,-0.775784,-0.0943258\C,0,-2.91513,0.640458,-0.067860
 6\C,0,1.27429,0.424325,-0.660826\C,0,2.30593,-0.770976,-0.667361\C,0,1
 .61457,1.3084,0.568235\C,0,0.785456,2.60989,0.458815\C,0,1.37497,0.713
 808,1.94332\H,0,1.01379,-1.9127,0.183457\H,0,2.09087,-0.0978246,2.1719
 6\H,0,0.336187,0.326157,1.94388\H,0,1.41635,1.52704,2.70045\H,0,0.9626

 Normal termination of Gaussian 16 at Tue Apr  8 20:26:46 2025.
