 Gaussian 16, Revision C.01,

 ----------------------------------------------------------------------
 #t hf aug-cc-pvdz symm=none int=(grid=ultrafine) guess=(read,tcheck) s
 table=(opt,rrhf)
 ----------------------------------------------------------------------
 -----
 title
 -----
 Symbolic Z-matrix:
 Charge =  0 Multiplicity = 1

 SCF Done:  E(RHF) =  -584.422513352     A.U. after   14 cycles
 Normal termination of Gaussian 16 at Tue Apr  8 22:12:50 2025.
 Gaussian 16:  ES64L-G16RevC.01  3-Jul-2019

 ----------------------------------------------------------------------
 #t hf aug-cc-pvdz iop(5/13=1,5/36=2,99/5=2) pseudo=read geom=check gue
 ss=(read,tcheck) scf=(maxcycle=1)
 ----------------------------------------------------------------------
 -----
 title
 -----
 Structure from the checkpoint file:  "ANI1ccx_940_conf12_mol1.chk"
 Charge =  0 Multiplicity = 1

                         Standard orientation:
 ---------------------------------------------------------------------
 Center     Atomic      Atomic             Coordinates (Angstroms)
 Number     Number       Type             X           Y           Z
 ---------------------------------------------------------------------
      1          6           0       -0.737265   -0.602900   -0.016980
      2          6           0        0.506454   -0.754623   -0.910878
      3          6           0        1.739959   -0.029044   -0.399034
      4          6           0       -0.984006    0.925813    0.268180
      5          1           0       -2.466772    0.648388   -0.697638
      6          1           0        2.937759   -0.003028    0.960917
      7          1           0        0.715967   -1.780809   -1.012030
      8          1           0        0.359808   -0.385737   -1.911440
      9          1           0       -2.589480   -1.584223    0.067708
     10          1           0       -1.627909   -2.010472   -1.185900
     11          1           0        0.351064   -1.244710    1.534670
     12          7           0       -1.960650   -1.170672   -0.619844
     13          8           0       -2.045773    1.452298   -0.420109
     14          8           0       -0.564949   -1.190101    1.209530
     15          8           0        2.138859   -0.498280    0.770581
     16          8           0        2.363928    0.837371   -0.943404
     17          8           0       -0.280408    1.563690    1.000260
 ---------------------------------------------------------------------

 SCF Done:  E(RHF) =  -584.999584822     A.U. after    2 cycles

 The electronic state is 1-A.
 Alpha  occ. eigenvalues --  -20.62167 -20.59194 -20.57530 -20.55420 -20.54296
 Alpha  occ. eigenvalues --  -15.54626 -11.41549 -11.39565 -11.38114 -11.28875
 Alpha  occ. eigenvalues --   -1.59008  -1.54206  -1.50411  -1.47299  -1.46146
 Alpha  occ. eigenvalues --   -1.22279  -1.09114  -0.95328  -0.86533  -0.81353
 Alpha  occ. eigenvalues --   -0.78534  -0.76865  -0.74021  -0.71969  -0.70244
 Alpha  occ. eigenvalues --   -0.67784  -0.64988  -0.64549  -0.63009  -0.60836
 Alpha  occ. eigenvalues --   -0.60248  -0.58853  -0.55169  -0.52852  -0.49211
 Alpha  occ. eigenvalues --   -0.48914  -0.47282  -0.46649  -0.43103
 Alpha virt. eigenvalues --    0.02151   0.03484   0.04230   0.05001   0.06052
 Alpha virt. eigenvalues --    0.06355   0.06916   0.09596   0.10102   0.10606
 Alpha virt. eigenvalues --    0.11782   0.12678   0.13213   0.13602   0.14700

 Mulliken charges:
               1
     1  C   -0.332834
     2  C   -0.526476
     3  C    2.717590
     4  C    2.493262
     5  H    0.476996
     6  H    0.416342
     7  H    0.131351
     8  H    0.164303
     9  H    0.306062
    10  H    0.327346
    11  H    0.374485
    12  N    0.353681
    13  O   -1.336718
    14  O   -1.539219
    15  O   -1.356525
    16  O   -1.386416
    17  O   -1.283228
 Sum of Mulliken charges =  -0.00000

 Dipole moment (field-independent basis, Debye):
    X=             -0.0053    Y=             -5.8703    Z=             -0.8394  Tot=              5.9300

 Test job not archived.
 1\1\GINC-SE232\SP\RHF\Aug-CC-pVDZ\C4H7N1O5\OHZDE\08-Apr-2025\0\\#t hf
 aug-cc-pvdz iop(5/13=1,5/36=2,99/5=2) pseudo=read geom=check guess=(re
 ad,tcheck) scf=(maxcycle=1)\\title\\0,1\C,0,-0.737264,-0.602899,-0.016
 9801\C,0,0.506454,-0.754623,-0.910878\C,0,1.73996,-0.0290459,-0.399034
 \C,0,-0.984004,0.925814,0.26818\H,0,-2.46677,0.648391,-0.697638\H,0,2.
 93776,-0.00303042,0.960917\H,0,0.715966,-1.78081,-1.01203\H,0,0.359809
 ,-0.385737,-1.91144\H,0,-2.58948,-1.58422,0.0677081\H,0,-1.62791,-2.01
 047,-1.1859\H,0,0.351064,-1.24471,1.53467\N,0,-1.96065,-1.17067,-0.619

 Normal termination of Gaussian 16 at Tue Apr  8 22:12:59 2025.
