 Gaussian 16, Revision C.01,

 ----------------------------------------------------------------------
 #t hf aug-cc-pvdz symm=none int=(grid=ultrafine) guess=(read,tcheck) s
 table=(opt,rrhf)
 ----------------------------------------------------------------------
 -----
 title
 -----
 Symbolic Z-matrix:
 Charge =  0 Multiplicity = 1

 SCF Done:  E(RHF) =  -410.441378059     A.U. after   14 cycles
 Normal termination of Gaussian 16 at Tue Apr  8 21:42:09 2025.
 Gaussian 16:  ES64L-G16RevC.01  3-Jul-2019

 ----------------------------------------------------------------------
 #t hf aug-cc-pvdz iop(5/13=1,5/36=2,99/5=2) pseudo=read geom=check gue
 ss=(read,tcheck) scf=(maxcycle=1)
 ----------------------------------------------------------------------
 -----
 title
 -----
 Structure from the checkpoint file:  "ANI1ccx_483_conf2_mol1.chk"
 Charge =  0 Multiplicity = 1

                         Standard orientation:
 ---------------------------------------------------------------------
 Center     Atomic      Atomic             Coordinates (Angstroms)
 Number     Number       Type             X           Y           Z
 ---------------------------------------------------------------------
      1          6           0        1.126280   -0.182157   -0.073630
      2          6           0       -1.143510   -0.212675    0.081809
      3          1           0        1.258629    1.645700    0.510581
      4          1           0       -1.265181    1.747298   -0.430282
      5          7           0        0.680329    1.162239   -0.184929
      6          7           0       -0.671957    1.129309    0.162507
      7          8           0        2.260670   -0.564831    0.067728
      8          8           0       -2.271590   -0.552703   -0.016435
      9          8           0        0.017336   -1.015571   -0.047846
 ---------------------------------------------------------------------

 SCF Done:  E(RHF) =  -410.839709726     A.U. after    2 cycles

 The electronic state is 1-A.
 Alpha  occ. eigenvalues --  -20.66323 -20.58573 -20.57622 -15.61544 -15.60964
 Alpha  occ. eigenvalues --  -11.47301 -11.46736  -1.61781  -1.54112  -1.49934
 Alpha  occ. eigenvalues --   -1.37997  -1.16877  -0.92799  -0.92038  -0.82003
 Alpha  occ. eigenvalues --   -0.79401  -0.72030  -0.71082  -0.67945  -0.65347
 Alpha  occ. eigenvalues --   -0.62921  -0.61722  -0.52745  -0.50975  -0.48780
 Alpha  occ. eigenvalues --   -0.47220
 Alpha virt. eigenvalues --    0.02218   0.04685   0.08255   0.09047   0.09512
 Alpha virt. eigenvalues --    0.09724   0.10621   0.10759   0.11109   0.13336
 Alpha virt. eigenvalues --    0.13801   0.15188   0.15415   0.17408   0.18710

 Mulliken charges:
               1
     1  C    1.395680
     2  C    1.384612
     3  H    0.261051
     4  H    0.216798
     5  N   -0.065466
     6  N    0.023075
     7  O   -1.075337
     8  O   -1.015178
     9  O   -1.125235
 Sum of Mulliken charges =   0.00000

 Dipole moment (field-independent basis, Debye):
    X=             -0.3686    Y=              3.4096    Z=              0.0906  Tot=              3.4306

 Test job not archived.
 1\1\GINC-SE455\SP\RHF\Aug-CC-pVDZ\C2H2N2O3\OHZDE\08-Apr-2025\0\\#t hf
 aug-cc-pvdz iop(5/13=1,5/36=2,99/5=2) pseudo=read geom=check guess=(re
 ad,tcheck) scf=(maxcycle=1)\\title\\0,1\C,0,1.12628,-0.182157,-0.07363
 01\C,0,-1.14351,-0.212673,0.0818088\H,0,1.25863,1.6457,0.510581\H,0,-1
 .26518,1.7473,-0.430282\N,0,0.68033,1.16224,-0.184929\N,0,-0.671956,1.
 12931,0.162507\O,0,2.26067,-0.564831,0.0677283\O,0,-2.27159,-0.552701,
 -0.0164349\O,0,0.0173359,-1.01557,-0.047846\\Version=ES64L-G16RevC.01\
 State=1-A\HF=-410.8397097\RMSD=1.670e-02\Dipole=-0.1450113,1.3414264,0

 Normal termination of Gaussian 16 at Tue Apr  8 21:42:12 2025.
