 Gaussian 16, Revision C.01,

 ----------------------------------------------------------------------
 #t hf aug-cc-pvdz symm=none int=(grid=ultrafine) guess=(read,tcheck) s
 table=(opt,rrhf)
 ----------------------------------------------------------------------
 -----
 title
 -----
 Symbolic Z-matrix:
 Charge =  0 Multiplicity = 1

 SCF Done:  E(RHF) =  -256.784997449     A.U. after   15 cycles
 Normal termination of Gaussian 16 at Tue Apr  8 21:31:30 2025.
 Gaussian 16:  ES64L-G16RevC.01  3-Jul-2019

 ----------------------------------------------------------------------
 #t hf aug-cc-pvdz iop(5/13=1,5/36=2,99/5=2) pseudo=read geom=check gue
 ss=(read,tcheck) scf=(maxcycle=1)
 ----------------------------------------------------------------------
 -----
 title
 -----
 Structure from the checkpoint file:  "ANI1ccx_377_conf55_mol1.chk"
 Charge =  0 Multiplicity = 1

                         Standard orientation:
 ---------------------------------------------------------------------
 Center     Atomic      Atomic             Coordinates (Angstroms)
 Number     Number       Type             X           Y           Z
 ---------------------------------------------------------------------
      1          6           0        1.134950   -0.134906   -0.038439
      2          1           0        2.149610   -0.308159    0.101440
      3          1           0       -1.769212   -0.993069   -0.042745
      4          7           0        0.470575    1.069449   -0.017209
      5          7           0       -0.812113    0.851303    0.040602
      6          7           0       -0.926280   -0.473597   -0.031047
      7          7           0        0.240661   -1.145631    0.032216
 ---------------------------------------------------------------------

 SCF Done:  E(RHF) =  -257.038267850     A.U. after    2 cycles

 The electronic state is 1-A.
 Alpha  occ. eigenvalues --  -15.64469 -15.62266 -15.58139 -15.56016 -11.31892
 Alpha  occ. eigenvalues --   -1.48929  -1.27988  -1.20363  -0.96857  -0.93630
 Alpha  occ. eigenvalues --   -0.83953  -0.72768  -0.69256  -0.64197  -0.56629
 Alpha  occ. eigenvalues --   -0.52601  -0.50140  -0.45468
 Alpha virt. eigenvalues --    0.02855   0.05171   0.05514   0.08438   0.09288
 Alpha virt. eigenvalues --    0.09673   0.11785   0.14523   0.15165   0.15397
 Alpha virt. eigenvalues --    0.16284   0.17051   0.17967   0.19854   0.21359

 Mulliken charges:
               1
     1  C    0.052445
     2  H   -0.074740
     3  H    0.059125
     4  N    0.106479
     5  N   -0.253982
     6  N    0.045879
     7  N    0.064794
 Sum of Mulliken charges =   0.00000

 Dipole moment (field-independent basis, Debye):
    X=             -0.2193    Y=             -2.0460    Z=             -0.0368  Tot=              2.0580

 Test job not archived.
 1\1\GINC-SE126\SP\RHF\Aug-CC-pVDZ\C1H2N4\OHZDE\08-Apr-2025\0\\#t hf au
 g-cc-pvdz iop(5/13=1,5/36=2,99/5=2) pseudo=read geom=check guess=(read
 ,tcheck) scf=(maxcycle=1)\\title\\0,1\C,0,1.13495,-0.134904,-0.0384389
 \H,0,2.14961,-0.308154,0.10144\H,0,-1.76921,-0.993073,-0.0427446\N,0,0
 .470573,1.06945,-0.0172087\N,0,-0.812115,0.851301,0.040602\N,0,-0.9262
 79,-0.473599,-0.0310468\N,0,0.240663,-1.14563,0.0322161\\Version=ES64L
 -G16RevC.01\State=1-A\HF=-257.0382678\RMSD=4.737e-02\Dipole=-0.0862718
 ,-0.8049455,-0.0144815\Quadrupole=5.7239869,-4.543504,-1.1804829,1.960

 Normal termination of Gaussian 16 at Tue Apr  8 21:31:32 2025.
