 Gaussian 16, Revision C.01,

 ----------------------------------------------------------------------
 #t hf aug-cc-pvdz symm=none int=(grid=ultrafine) guess=(read,tcheck) s
 table=(opt,rrhf)
 ----------------------------------------------------------------------
 -----
 title
 -----
 Symbolic Z-matrix:
 Charge =  0 Multiplicity = 1

 SCF Done:  E(RHF) =  -814.699004827     A.U. after   14 cycles
 Normal termination of Gaussian 16 at Tue Apr  8 21:16:05 2025.
 Gaussian 16:  ES64L-G16RevC.01  3-Jul-2019

 ----------------------------------------------------------------------
 #t hf aug-cc-pvdz iop(5/13=1,5/36=2,99/5=2) pseudo=read geom=check gue
 ss=(read,tcheck) scf=(maxcycle=1)
 ----------------------------------------------------------------------
 -----
 title
 -----
 Structure from the checkpoint file:  "ANI1ccx_1785_conf26_mol1.chk"
 Charge =  0 Multiplicity = 1

                         Standard orientation:
 ---------------------------------------------------------------------
 Center     Atomic      Atomic             Coordinates (Angstroms)
 Number     Number       Type             X           Y           Z
 ---------------------------------------------------------------------
      1          6           0       -3.086950   -0.327448    0.394977
      2          6           0        2.725190   -1.028450   -0.807817
      3          6           0        1.683670   -1.808750    0.017147
      4          6           0        0.858584   -1.232970    1.145420
      5          6           0        3.837320   -0.416958    0.077291
      6          6           0       -0.120788   -0.109584    0.598853
      7          6           0       -3.334960    1.132740   -0.155688
      8          6           0       -2.143860   -0.956000   -0.624206
      9          6           0        0.783272    1.058710    0.078535
     10          1           0        0.874962   -2.238020   -0.596414
     11          1           0        2.528810    1.613480    0.532508
     12          1           0        5.011060    1.381470    0.224632
     13          1           0        3.929610    1.350080   -1.121160
     14          1           0        3.745460   -0.676536    1.131740
     15          1           0        4.825070   -0.850582   -0.163129
     16          1           0        2.296970   -0.254184   -1.596910
     17          1           0        3.256430   -1.809660   -1.443520
     18          1           0        2.289720   -2.552830    0.410763
     19          1           0        0.069168   -1.974380    1.496610
     20          1           0       -0.625347    0.245363    1.440410
     21          1           0       -0.430090   -0.822704   -1.365800
     22          1           0       -1.911600    1.529370   -1.305860
     23          1           0       -3.827520    1.660420    0.662408
     24          1           0       -3.881410    1.046910   -1.044860
     25          1           0       -4.068560   -0.779961    0.214767
     26          1           0       -3.491910   -0.080511    2.426370
     27          1           0       -2.442560   -1.357170    2.022530
     28          1           0        1.414870   -0.757456    2.002100
     29          7           0       -2.635000   -0.341199    1.821810
     30          7           0       -0.871629   -0.654532   -0.484509
     31          7           0        4.019440    1.057150   -0.086429
     32          8           0        0.476115    1.654780   -0.938577
     33          8           0       -2.498810   -1.497130   -1.643170
     34          8           0       -2.142260    1.844760   -0.452122
     35          8           0        1.619740    1.376240    0.905079
 ---------------------------------------------------------------------

 SCF Done:  E(RHF) =  -815.529761361     A.U. after    2 cycles

 The electronic state is 1-A.
 Alpha  occ. eigenvalues --  -20.56505 -20.52669 -20.49699 -20.49488 -15.53928
 Alpha  occ. eigenvalues --  -15.52020 -15.50884 -11.35854 -11.34062 -11.28730
 Alpha  occ. eigenvalues --  -11.28222 -11.27662 -11.26734 -11.26386 -11.24413
 Alpha  occ. eigenvalues --  -11.23547  -1.56792  -1.46248  -1.44140  -1.42214
 Alpha  occ. eigenvalues --   -1.25450  -1.19681  -1.18252  -1.09336  -1.02825
 Alpha  occ. eigenvalues --   -1.00029  -0.95241  -0.88902  -0.87445  -0.85292
 Alpha  occ. eigenvalues --   -0.80876  -0.78132  -0.73513  -0.71601  -0.71054
 Alpha  occ. eigenvalues --   -0.69003  -0.68200  -0.66960  -0.66553  -0.66383
 Alpha  occ. eigenvalues --   -0.65390  -0.64117  -0.63384  -0.61321  -0.60412
 Alpha  occ. eigenvalues --   -0.59137  -0.57732  -0.56208  -0.55781  -0.55161
 Alpha  occ. eigenvalues --   -0.53955  -0.52552  -0.51082  -0.49773  -0.49085
 Alpha  occ. eigenvalues --   -0.47279  -0.45623  -0.45065  -0.43722  -0.42385
 Alpha  occ. eigenvalues --   -0.41191  -0.40478  -0.38138
 Alpha virt. eigenvalues --    0.02259   0.03007   0.03197   0.03499   0.04567
 Alpha virt. eigenvalues --    0.05129   0.05397   0.05636   0.06042   0.06666
 Alpha virt. eigenvalues --    0.06875   0.07530   0.07710   0.08430   0.09641

 Mulliken charges:
               1
     1  C   -1.699194
     2  C   -0.815255
     3  C    0.230590
     4  C   -0.573902
     5  C   -0.292261
     6  C   -0.910510
     7  C    1.071342
     8  C    1.012322
     9  C    2.676250
    10  H    0.253195
    11  H    0.706826
    12  H    0.223459
    13  H    0.252302
    14  H    0.032982
    15  H    0.025676
    16  H    0.331325
    17  H    0.148999
    18  H    0.018589
    19  H    0.256050
    20  H    0.111143
    21  H    0.195171
    22  H    0.451863
    23  H    0.039904
    24  H    0.105632
    25  H    0.146915
    26  H    0.261508
    27  H    0.267987
    28  H    0.161004
    29  N    0.330054
    30  N    1.052045
    31  N   -0.080478
    32  O   -1.562110
    33  O   -1.528278
    34  O   -1.215188
    35  O   -1.685959
 Sum of Mulliken charges =  -0.00000

 Dipole moment (field-independent basis, Debye):
    X=              4.1126    Y=             -1.9827    Z=              2.8463  Tot=              5.3801

 Test job not archived.
 1\1\GINC-SE086\SP\RHF\Aug-CC-pVDZ\C9H19N3O4\OHZDE\08-Apr-2025\0\\#t hf
  aug-cc-pvdz iop(5/13=1,5/36=2,99/5=2) pseudo=read geom=check guess=(r
 ead,tcheck) scf=(maxcycle=1)\\title\\0,1\C,0,-3.08695,-0.327448,0.3949
 77\C,0,2.72519,-1.02845,-0.807817\C,0,1.68367,-1.80875,0.0171471\C,0,0
 .858584,-1.23297,1.14542\C,0,3.83732,-0.416958,0.0772912\C,0,-0.120788
 ,-0.109584,0.598853\C,0,-3.33496,1.13274,-0.155688\C,0,-2.14386,-0.956
 ,-0.624206\C,0,0.783272,1.05871,0.078535\H,0,0.874962,-2.23802,-0.5964
 14\H,0,2.52881,1.61348,0.532508\H,0,5.01106,1.38147,0.224632\H,0,3.929

 Normal termination of Gaussian 16 at Tue Apr  8 21:17:01 2025.
