 Gaussian 16, Revision C.01,

 ----------------------------------------------------------------------
 #t hf aug-cc-pvdz symm=none int=(grid=ultrafine) guess=(read,tcheck) s
 table=(opt,rrhf)
 ----------------------------------------------------------------------
 -----
 title
 -----
 Symbolic Z-matrix:
 Charge =  0 Multiplicity = 1

 SCF Done:  E(RHF) =  -813.577337599     A.U. after   15 cycles
 Normal termination of Gaussian 16 at Tue Apr  8 21:11:11 2025.
 Gaussian 16:  ES64L-G16RevC.01  3-Jul-2019

 ----------------------------------------------------------------------
 #t hf aug-cc-pvdz iop(5/13=1,5/36=2,99/5=2) pseudo=read geom=check gue
 ss=(read,tcheck) scf=(maxcycle=1)
 ----------------------------------------------------------------------
 -----
 title
 -----
 Structure from the checkpoint file:  "ANI1ccx_1770_conf10_mol1.chk"
 Charge =  0 Multiplicity = 1

                         Standard orientation:
 ---------------------------------------------------------------------
 Center     Atomic      Atomic             Coordinates (Angstroms)
 Number     Number       Type             X           Y           Z
 ---------------------------------------------------------------------
      1          6           0       -1.340099   -0.815982    0.029880
      2          6           0        1.634610   -0.262042   -0.785728
      3          6           0        1.223738    2.081271   -0.167436
      4          6           0        1.446349    0.709624    0.320041
      5          6           0        2.087462   -1.611538   -0.346043
      6          6           0       -3.198281    0.823862   -0.477057
      7          6           0       -1.953580    0.141182   -0.966889
      8          6           0       -0.794571   -0.117338    1.335860
      9          6           0       -2.236289   -0.708725   -2.193440
     10          1           0        0.836493    0.369616    2.304860
     11          1           0        0.551090    3.709350    0.306624
     12          1           0        4.069971   -1.128816   -0.615257
     13          1           0        3.746062   -2.416637    0.482456
     14          1           0        0.610551   -0.412452   -1.096710
     15          1           0        2.139330    0.178011   -1.611530
     16          1           0        2.463549    0.755294    0.719870
     17          1           0       -1.321459   -1.337601   -2.518140
     18          1           0       -2.606100   -0.118919   -3.034540
     19          1           0       -3.449582    1.698387   -1.117440
     20          1           0       -4.053510    0.120758   -0.540530
     21          1           0       -3.049741    1.204167    0.570777
     22          1           0       -1.138101    0.972625   -1.087160
     23          1           0       -0.469993   -1.324451   -0.388645
     24          1           0       -1.445997   -2.586732    0.746057
     25          1           0       -2.687808   -1.723993    1.295690
     26          1           0       -3.098679   -1.307273   -1.947830
     27          7           0       -2.199848   -1.870642    0.449534
     28          7           0        0.527500    0.349866    1.363130
     29          7           0        3.420702   -1.896707   -0.362327
     30          8           0        1.281972   -2.322019    0.295295
     31          8           0       -1.559130    0.081302    2.284420
     32          8           0        1.996148    2.684922   -0.944729
     33          8           0        0.212186    2.784440    0.475515
 ---------------------------------------------------------------------

 SCF Done:  E(RHF) =  -814.401464864     A.U. after    2 cycles

 The electronic state is 1-A.
 Alpha  occ. eigenvalues --  -20.62341 -20.56743 -20.54050 -20.51845 -15.56432
 Alpha  occ. eigenvalues --  -15.53203 -15.47493 -11.42915 -11.39441 -11.36183
 Alpha  occ. eigenvalues --  -11.33707 -11.27367 -11.25872 -11.24163 -11.22231
 Alpha  occ. eigenvalues --  -11.21854  -1.54967  -1.47254  -1.45285  -1.45171
 Alpha  occ. eigenvalues --   -1.26515  -1.24886  -1.19629  -1.11768  -1.07378
 Alpha  occ. eigenvalues --   -1.00208  -0.93794  -0.92357  -0.85842  -0.85337
 Alpha  occ. eigenvalues --   -0.80607  -0.78395  -0.77568  -0.75968  -0.73584
 Alpha  occ. eigenvalues --   -0.71487  -0.70543  -0.69004  -0.68024  -0.65963
 Alpha  occ. eigenvalues --   -0.64275  -0.63405  -0.62016  -0.61349  -0.60669
 Alpha  occ. eigenvalues --   -0.58956  -0.58701  -0.57745  -0.55606  -0.53475
 Alpha  occ. eigenvalues --   -0.52509  -0.51557  -0.49529  -0.48914  -0.48378
 Alpha  occ. eigenvalues --   -0.47878  -0.46699  -0.46170  -0.46055  -0.44112
 Alpha  occ. eigenvalues --   -0.42490  -0.39651
 Alpha virt. eigenvalues --    0.01318   0.03125   0.03504   0.04250   0.04388
 Alpha virt. eigenvalues --    0.04953   0.05292   0.05948   0.06499   0.07145
 Alpha virt. eigenvalues --    0.07560   0.08177   0.08590   0.09292   0.09466

 Mulliken charges:
               1
     1  C   -1.189774
     2  C    0.578192
     3  C    3.120747
     4  C   -1.777779
     5  C   -0.156312
     6  C   -0.295039
     7  C   -1.253791
     8  C    0.594702
     9  C   -0.343829
    10  H    0.316949
    11  H    0.351860
    12  H    0.183139
    13  H    0.225576
    14  H    0.188201
    15  H   -0.082855
    16  H    0.410071
    17  H    0.327421
    18  H    0.072741
    19  H    0.158406
    20  H    0.297819
    21  H    0.296209
    22  H    0.373334
    23  H    0.428308
    24  H    0.368619
    25  H    0.196253
    26  H    0.284023
    27  N    0.609469
    28  N    0.671816
    29  N    0.908660
    30  O   -1.425620
    31  O   -1.554399
    32  O   -1.487326
    33  O   -1.395789
 Sum of Mulliken charges =  -0.00000

 Dipole moment (field-independent basis, Debye):
    X=              5.4702    Y=              1.1653    Z=             -0.4155  Tot=              5.6084

 Test job not archived.
 1\1\GINC-SE009\SP\RHF\Aug-CC-pVDZ\C9H17N3O4\OHZDE\08-Apr-2025\0\\#t hf
  aug-cc-pvdz iop(5/13=1,5/36=2,99/5=2) pseudo=read geom=check guess=(r
 ead,tcheck) scf=(maxcycle=1)\\title\\0,1\C,0,-1.3401,-0.815981,0.02988
 07\C,0,1.63461,-0.262043,-0.785728\C,0,1.22374,2.08127,-0.167436\C,0,1
 .44635,0.709623,0.320041\C,0,2.08746,-1.61154,-0.346043\C,0,-3.19828,0
 .823865,-0.477057\C,0,-1.95358,0.141184,-0.966889\C,0,-0.794571,-0.117
 337,1.33586\C,0,-2.23629,-0.708723,-2.19344\H,0,0.836493,0.369615,2.30
 486\H,0,0.551093,3.70935,0.306624\H,0,4.06997,-1.12882,-0.615257\H,0,3

 Normal termination of Gaussian 16 at Tue Apr  8 21:12:01 2025.
