 Gaussian 16, Revision C.01,

 ----------------------------------------------------------------------
 #t hf aug-cc-pvdz symm=none int=(grid=ultrafine) guess=(read,tcheck) s
 table=(opt,rrhf)
 ----------------------------------------------------------------------
 -----
 title
 -----
 Symbolic Z-matrix:
 Charge =  0 Multiplicity = 1

 SCF Done:  E(RHF) =  -759.734325847     A.U. after   15 cycles
 Normal termination of Gaussian 16 at Tue Apr  8 21:06:21 2025.
 Gaussian 16:  ES64L-G16RevC.01  3-Jul-2019

 ----------------------------------------------------------------------
 #t hf aug-cc-pvdz iop(5/13=1,5/36=2,99/5=2) pseudo=read geom=check gue
 ss=(read,tcheck) scf=(maxcycle=1)
 ----------------------------------------------------------------------
 -----
 title
 -----
 Structure from the checkpoint file:  "ANI1ccx_1777_conf4_mol1.chk"
 Charge =  0 Multiplicity = 1

                         Standard orientation:
 ---------------------------------------------------------------------
 Center     Atomic      Atomic             Coordinates (Angstroms)
 Number     Number       Type             X           Y           Z
 ---------------------------------------------------------------------
      1          6           0        2.687851    0.153697   -0.185011
      2          6           0       -3.189209   -1.124439    0.467954
      3          6           0       -1.979319    0.182132    2.201680
      4          6           0       -1.805389   -0.747871    0.982553
      5          6           0       -3.192440   -1.721509   -0.963250
      6          6           0       -1.029949    0.023033   -0.134683
      7          6           0        3.851901   -0.778768    0.044499
      8          6           0        1.317061   -0.542373   -0.119048
      9          6           0       -1.776348    1.286991   -0.628638
     10          1           0       -2.449749   -0.363120    3.012350
     11          1           0       -3.306618    1.917301   -1.377900
     12          1           0       -2.783449   -0.979399   -1.690760
     13          1           0       -4.212220   -2.024428   -1.216780
     14          1           0       -2.538120   -2.617409   -0.885098
     15          1           0       -3.844889   -0.276656    0.502250
     16          1           0       -3.603630   -1.889729    1.090320
     17          1           0       -0.965336    0.587238    2.472460
     18          1           0       -2.529708    1.015951    1.767780
     19          1           0       -0.974721   -0.772553   -0.955008
     20          1           0        0.407960    1.229580    0.583371
     21          1           0        5.711651   -0.349320    0.133763
     22          1           0        4.041131   -1.020252    1.087010
     23          1           0        3.683470   -1.778301   -0.480691
     24          1           0        2.738221    0.582889   -1.150600
     25          1           0        2.935162    1.128919    1.674540
     26          1           0        3.341392    2.031649    0.387523
     27          1           0       -1.189459   -1.622080    1.284630
     28          7           0        2.656452    1.336339    0.688564
     29          7           0        0.286599    0.296466    0.267622
     30          8           0       -1.333418    2.414870   -0.509113
     31          8           0        1.162531   -1.634950   -0.589942
     32          8           0        5.023531   -0.156660   -0.540020
     33          8           0       -2.898568    1.049831   -1.227030
 ---------------------------------------------------------------------

 SCF Done:  E(RHF) =  -760.512911972     A.U. after    2 cycles

 The electronic state is 1-A.
 Alpha  occ. eigenvalues --  -20.61812 -20.55970 -20.54220 -20.51757 -15.51292
 Alpha  occ. eigenvalues --  -15.50260 -11.40270 -11.35870 -11.29636 -11.28542
 Alpha  occ. eigenvalues --  -11.27861 -11.23983 -11.22780 -11.21803 -11.21708
 Alpha  occ. eigenvalues --   -1.58792  -1.47819  -1.45857  -1.44630  -1.25487
 Alpha  occ. eigenvalues --   -1.19312  -1.10176  -1.01546  -0.99413  -0.97259
 Alpha  occ. eigenvalues --   -0.89544  -0.86686  -0.84514  -0.82820  -0.77380
 Alpha  occ. eigenvalues --   -0.75739  -0.73321  -0.70616  -0.69321  -0.68710
 Alpha  occ. eigenvalues --   -0.68271  -0.66237  -0.63306  -0.62727  -0.62422
 Alpha  occ. eigenvalues --   -0.61282  -0.60179  -0.58909  -0.58340  -0.56831
 Alpha  occ. eigenvalues --   -0.55368  -0.53937  -0.52195  -0.51208  -0.50370
 Alpha  occ. eigenvalues --   -0.49852  -0.47881  -0.47603  -0.46592  -0.45970
 Alpha  occ. eigenvalues --   -0.45391  -0.44293  -0.41464  -0.40254
 Alpha virt. eigenvalues --    0.02793   0.03147   0.03603   0.04057   0.04338
 Alpha virt. eigenvalues --    0.04498   0.05162   0.05708   0.05970   0.06780
 Alpha virt. eigenvalues --    0.07586   0.07923   0.08013   0.08393   0.09546

 Mulliken charges:
               1
     1  C   -1.780318
     2  C    0.154387
     3  C   -0.193666
     4  C   -0.971748
     5  C   -0.604746
     6  C   -2.881219
     7  C    1.194643
     8  C    1.265091
     9  C    3.276672
    10  H    0.156117
    11  H    0.426165
    12  H    0.511418
    13  H   -0.030297
    14  H    0.311163
    15  H    0.239367
    16  H    0.015691
    17  H    0.286705
    18  H    0.238852
    19  H    0.197791
    20  H    0.375959
    21  H    0.355977
    22  H    0.101629
    23  H    0.232751
    24  H    0.213884
    25  H    0.218583
    26  H    0.237378
    27  H    0.113702
    28  N    0.547713
    29  N    1.372996
    30  O   -1.465290
    31  O   -1.428583
    32  O   -1.232515
    33  O   -1.456250
 Sum of Mulliken charges =  -0.00000

 Dipole moment (field-independent basis, Debye):
    X=              0.1661    Y=              0.3615    Z=              2.3243  Tot=              2.3581

 Test job not archived.
 1\1\GINC-SE079\SP\RHF\Aug-CC-pVDZ\C9H18N2O4\OHZDE\08-Apr-2025\0\\#t hf
  aug-cc-pvdz iop(5/13=1,5/36=2,99/5=2) pseudo=read geom=check guess=(r
 ead,tcheck) scf=(maxcycle=1)\\title\\0,1\C,0,2.68785,0.153698,-0.18501
 1\C,0,-3.18921,-1.12444,0.467954\C,0,-1.97932,0.182131,2.20168\C,0,-1.
 80539,-0.747872,0.982553\C,0,-3.19244,-1.72151,-0.96325\C,0,-1.02995,0
 .0230327,-0.134683\C,0,3.8519,-0.778767,0.044499\C,0,1.31706,-0.542372
 ,-0.119048\C,0,-1.77635,1.28699,-0.628638\H,0,-2.44975,-0.363121,3.012
 35\H,0,-3.30662,1.9173,-1.3779\H,0,-2.78345,-0.9794,-1.69076\H,0,-4.21

 Normal termination of Gaussian 16 at Tue Apr  8 21:07:03 2025.
