 Gaussian 16, Revision C.01,

 ----------------------------------------------------------------------
 #t hf aug-cc-pvdz symm=none int=(grid=ultrafine) guess=(read,tcheck) s
 table=(opt,rrhf)
 ----------------------------------------------------------------------
 -----
 title
 -----
 Symbolic Z-matrix:
 Charge =  0 Multiplicity = 1

 SCF Done:  E(RHF) =  -298.818320110     A.U. after   14 cycles
 Normal termination of Gaussian 16 at Tue Apr  8 21:36:32 2025.
 Gaussian 16:  ES64L-G16RevC.01  3-Jul-2019

 ----------------------------------------------------------------------
 #t hf aug-cc-pvdz iop(5/13=1,5/36=2,99/5=2) pseudo=read geom=check gue
 ss=(read,tcheck) scf=(maxcycle=1)
 ----------------------------------------------------------------------
 -----
 title
 -----
 Structure from the checkpoint file:  "ANI1ccx_398_conf34_mol1.chk"
 Charge =  0 Multiplicity = 1

                         Standard orientation:
 ---------------------------------------------------------------------
 Center     Atomic      Atomic             Coordinates (Angstroms)
 Number     Number       Type             X           Y           Z
 ---------------------------------------------------------------------
      1          6           0       -0.464417    0.147138   -0.058035
      2          1           0       -1.823961   -1.314519   -0.605775
      3          1           0       -2.555120   -0.005654    0.252786
      4          1           0        0.659518   -1.388789    0.753074
      5          1           0        1.643990    0.785312    0.306350
      6          7           0       -1.634590   -0.521667    0.028644
      7          7           0        0.613249   -0.756484    0.004987
      8          8           0       -0.351456    1.338561    0.012177
      9          8           0        1.852890   -0.090077   -0.086382
 ---------------------------------------------------------------------

 SCF Done:  E(RHF) =  -299.116496126     A.U. after    2 cycles

 The electronic state is 1-A.
 Alpha  occ. eigenvalues --  -20.58756 -20.53565 -15.57186 -15.54574 -11.40299
 Alpha  occ. eigenvalues --   -1.52227  -1.47661  -1.25171  -1.14011  -0.87993
 Alpha  occ. eigenvalues --   -0.80914  -0.74200  -0.72890  -0.66202  -0.61799
 Alpha  occ. eigenvalues --   -0.60092  -0.52869  -0.48294  -0.46582  -0.44278
 Alpha virt. eigenvalues --    0.02453   0.04836   0.05534   0.06526   0.10287
 Alpha virt. eigenvalues --    0.11486   0.11978   0.13629   0.15270   0.15826
 Alpha virt. eigenvalues --    0.16371   0.17405   0.17462   0.18736   0.20757

 Mulliken charges:
               1
     1  C   -0.098344
     2  H    0.151157
     3  H    0.165627
     4  H    0.169920
     5  H    0.333048
     6  N    0.424010
     7  N    1.022044
     8  O   -1.029450
     9  O   -1.138011
 Sum of Mulliken charges =  -0.00000

 Dipole moment (field-independent basis, Debye):
    X=             -2.6956    Y=             -1.9729    Z=              0.9771  Tot=              3.4804

 Test job not archived.
 1\1\GINC-SE226\SP\RHF\Aug-CC-pVDZ\C1H4N2O2\OHZDE\08-Apr-2025\0\\#t hf
 aug-cc-pvdz iop(5/13=1,5/36=2,99/5=2) pseudo=read geom=check guess=(re
 ad,tcheck) scf=(maxcycle=1)\\title\\0,1\C,0,-0.464417,0.147137,-0.0580
 349\H,0,-1.82396,-1.31452,-0.605775\H,0,-2.55512,-0.00565591,0.252786\
 H,0,0.659519,-1.38879,0.753074\H,0,1.64399,0.785311,0.30635\N,0,-1.634
 59,-0.521668,0.0286439\N,0,0.613249,-0.756485,0.00498665\O,0,-0.351456
 ,1.33856,0.0121773\O,0,1.85289,-0.0900772,-0.0863821\\Version=ES64L-G1
 6RevC.01\State=1-A\HF=-299.1164961\RMSD=1.520e-02\Dipole=-1.0605353,-0

 Normal termination of Gaussian 16 at Tue Apr  8 21:36:35 2025.
