 Gaussian 16, Revision C.01,

 ----------------------------------------------------------------------
 #t hf aug-cc-pvdz symm=none int=(grid=ultrafine) guess=(read,tcheck) s
 table=(opt,rrhf)
 ----------------------------------------------------------------------
 -----
 title
 -----
 Symbolic Z-matrix:
 Charge =  0 Multiplicity = 1

 SCF Done:  E(RHF) =  -548.576562459     A.U. after   14 cycles
 Normal termination of Gaussian 16 at Tue Apr  8 19:19:21 2025.
 Gaussian 16:  ES64L-G16RevC.01  3-Jul-2019

 ----------------------------------------------------------------------
 #t hf aug-cc-pvdz iop(5/13=1,5/36=2,99/5=2) pseudo=read geom=check gue
 ss=(read,tcheck) scf=(maxcycle=1)
 ----------------------------------------------------------------------
 -----
 title
 -----
 Structure from the checkpoint file:  "ANI1ccx_1168_conf26_mol1.chk"
 Charge =  0 Multiplicity = 1

                         Standard orientation:
 ---------------------------------------------------------------------
 Center     Atomic      Atomic             Coordinates (Angstroms)
 Number     Number       Type             X           Y           Z
 ---------------------------------------------------------------------
      1          6           0        1.281850    0.794319    0.257250
      2          6           0        1.682651   -0.673991    0.098315
      3          6           0       -0.178406    1.026460   -0.240429
      4          6           0       -1.315680    0.596325    0.758486
      5          6           0       -2.445979   -0.060979    0.019992
      6          1           0        3.138661   -1.927819   -0.194016
      7          1           0       -0.844447   -0.080450    1.452970
      8          1           0       -1.803190    1.387029    1.339490
      9          1           0       -0.377573    2.121340   -0.498981
     10          1           0       -1.204429   -1.472601   -0.116416
     11          1           0        3.068950    1.689931    0.267725
     12          1           0        2.331130    1.513981   -1.318010
     13          1           0        1.251740    1.013250    1.339920
     14          1           0       -0.342111    0.562695   -1.198090
     15          7           0        2.214520    1.682111   -0.306917
     16          8           0       -3.554460    0.385457   -0.241599
     17          8           0        0.815314   -1.486540    0.331532
     18          8           0       -2.082579   -1.259721   -0.438535
     19          8           0        2.963351   -0.973563   -0.187379
 ---------------------------------------------------------------------

 SCF Done:  E(RHF) =  -549.126143919     A.U. after    2 cycles

 The electronic state is 1-A.
 Alpha  occ. eigenvalues --  -20.64026 -20.57813 -20.56775 -20.52025 -15.51355
 Alpha  occ. eigenvalues --  -11.42550 -11.38134 -11.31350 -11.27267 -11.25990
 Alpha  occ. eigenvalues --   -1.57999  -1.53250  -1.48978  -1.42829  -1.23388
 Alpha  occ. eigenvalues --   -1.08278  -0.99288  -0.91693  -0.84461  -0.82251
 Alpha  occ. eigenvalues --   -0.75859  -0.74467  -0.73595  -0.71868  -0.67092
 Alpha  occ. eigenvalues --   -0.66400  -0.64051  -0.62446  -0.61860  -0.59622
 Alpha  occ. eigenvalues --   -0.56241  -0.55015  -0.52888  -0.51911  -0.50688
 Alpha  occ. eigenvalues --   -0.49288  -0.45066  -0.43993  -0.42487
 Alpha virt. eigenvalues --    0.01925   0.03199   0.03610   0.04888   0.05310
 Alpha virt. eigenvalues --    0.06159   0.06687   0.06912   0.08425   0.10213
 Alpha virt. eigenvalues --    0.10469   0.11103   0.12113   0.12543   0.13206

 Mulliken charges:
               1
     1  C   -1.818990
     2  C    2.425495
     3  C   -0.270070
     4  C   -0.253839
     5  C    2.325449
     6  H    0.368888
     7  H    0.128210
     8  H    0.043987
     9  H    0.280917
    10  H    0.602374
    11  H    0.295809
    12  H    0.237600
    13  H    0.213306
    14  H    0.008453
    15  N    0.803520
    16  O   -1.355584
    17  O   -1.275631
    18  O   -1.372732
    19  O   -1.387162
 Sum of Mulliken charges =   0.00000

 Dipole moment (field-independent basis, Debye):
    X=              7.4998    Y=             -0.3066    Z=              1.1953  Tot=              7.6006

 Test job not archived.
 1\1\GINC-SE344\SP\RHF\Aug-CC-pVDZ\C5H9N1O4\OHZDE\08-Apr-2025\0\\#t hf
 aug-cc-pvdz iop(5/13=1,5/36=2,99/5=2) pseudo=read geom=check guess=(re
 ad,tcheck) scf=(maxcycle=1)\\title\\0,1\C,0,1.28185,0.794319,0.25725\C
 ,0,1.68265,-0.673991,0.0983149\C,0,-0.178406,1.02646,-0.240429\C,0,-1.
 31568,0.596326,0.758486\C,0,-2.44598,-0.0609782,0.019992\H,0,3.13866,-
 1.92782,-0.194016\H,0,-0.844448,-0.0804491,1.45297\H,0,-1.80319,1.3870
 3,1.33949\H,0,-0.377573,2.12134,-0.498981\H,0,-1.20443,-1.4726,-0.1164
 16\H,0,3.06895,1.68993,0.267725\H,0,2.33113,1.51398,-1.31801\H,0,1.251

 Normal termination of Gaussian 16 at Tue Apr  8 19:19:31 2025.
