 Gaussian 16, Revision C.01,

 ----------------------------------------------------------------------
 #t hf aug-cc-pvdz symm=none int=(grid=ultrafine) guess=(read,tcheck) s
 table=(opt,rrhf)
 ----------------------------------------------------------------------
 -----
 title
 -----
 Symbolic Z-matrix:
 Charge =  0 Multiplicity = 1

 SCF Done:  E(RHF) =  -489.707679755     A.U. after   14 cycles
 Normal termination of Gaussian 16 at Tue Apr  8 22:14:10 2025.
 Gaussian 16:  ES64L-G16RevC.01  3-Jul-2019

 ----------------------------------------------------------------------
 #t hf aug-cc-pvdz iop(5/13=1,5/36=2,99/5=2) pseudo=read geom=check gue
 ss=(read,tcheck) scf=(maxcycle=1)
 ----------------------------------------------------------------------
 -----
 title
 -----
 Structure from the checkpoint file:  "ANI1ccx_957_conf2_mol1.chk"
 Charge =  0 Multiplicity = 1

                         Standard orientation:
 ---------------------------------------------------------------------
 Center     Atomic      Atomic             Coordinates (Angstroms)
 Number     Number       Type             X           Y           Z
 ---------------------------------------------------------------------
      1          6           0       -0.502383    0.699183   -0.157337
      2          6           0       -1.353070   -0.660757   -0.093818
      3          6           0        0.711241    0.526169    0.863062
      4          6           0        1.846110    0.027575    0.038517
      5          1           0       -2.617660    0.582493   -0.419108
      6          1           0        1.294111   -1.923000    0.282304
      7          1           0        2.607381   -1.582519   -0.746028
      8          1           0        1.031699    1.524340    1.216640
      9          1           0       -0.097153    0.822502   -1.169430
     10          1           0       -1.416921    1.900469    1.048770
     11          1           0       -1.016101    2.643479   -0.299467
     12          1           0        0.492795   -0.106187    1.699140
     13          7           0       -1.374261    1.778049    0.023843
     14          7           0        1.996131   -1.269260   -0.017968
     15          8           0        2.531340    0.856098   -0.542619
     16          8           0       -1.018449   -1.789001    0.187448
     17          8           0       -2.618220   -0.439113   -0.339390
 ---------------------------------------------------------------------

 SCF Done:  E(RHF) =  -490.204843117     A.U. after    2 cycles

 The electronic state is 1-A.
 Alpha  occ. eigenvalues --  -20.59442 -20.53741 -20.50516 -15.54877 -15.52949
 Alpha  occ. eigenvalues --  -11.39851 -11.35573 -11.32522 -11.26361  -1.55666
 Alpha  occ. eigenvalues --   -1.45912  -1.45084  -1.27165  -1.25043  -1.06001
 Alpha  occ. eigenvalues --   -0.94703  -0.84862  -0.81718  -0.79234  -0.77226
 Alpha  occ. eigenvalues --   -0.73531  -0.70655  -0.69682  -0.65488  -0.63428
 Alpha  occ. eigenvalues --   -0.60775  -0.59896  -0.59163  -0.56420  -0.53682
 Alpha  occ. eigenvalues --   -0.50817  -0.46826  -0.44160  -0.43869  -0.41839
 Alpha virt. eigenvalues --    0.02230   0.03940   0.04139   0.05043   0.05823
 Alpha virt. eigenvalues --    0.06283   0.06604   0.07914   0.09876   0.10294
 Alpha virt. eigenvalues --    0.10758   0.12360   0.12633   0.13743   0.13889

 Mulliken charges:
               1
     1  C   -1.658048
     2  C    2.287322
     3  C   -0.055395
     4  C    0.248502
     5  H    0.584796
     6  H    0.123218
     7  H    0.198495
     8  H    0.140912
     9  H    0.177485
    10  H    0.398413
    11  H    0.320921
    12  H    0.061809
    13  N    0.356910
    14  N    0.812745
    15  O   -1.368693
    16  O   -1.280342
    17  O   -1.349050
 Sum of Mulliken charges =  -0.00000

 Dipole moment (field-independent basis, Debye):
    X=             -0.9415    Y=              2.5325    Z=              1.1275  Tot=              2.9277

 Test job not archived.
 1\1\GINC-SE227\SP\RHF\Aug-CC-pVDZ\C4H8N2O3\OHZDE\08-Apr-2025\0\\#t hf
 aug-cc-pvdz iop(5/13=1,5/36=2,99/5=2) pseudo=read geom=check guess=(re
 ad,tcheck) scf=(maxcycle=1)\\title\\0,1\C,0,-0.502383,0.699184,-0.1573
 37\C,0,-1.35307,-0.660756,-0.0938184\C,0,0.711241,0.526169,0.863062\C,
 0,1.84611,0.027575,0.0385169\H,0,-2.61766,0.582495,-0.419108\H,0,1.294
 11,-1.923,0.282304\H,0,2.60738,-1.58252,-0.746028\H,0,1.0317,1.52434,1
 .21664\H,0,-0.0971529,0.822502,-1.16943\H,0,-1.41692,1.90047,1.04877\H
 ,0,-1.0161,2.64348,-0.299467\H,0,0.492795,-0.106187,1.69914\N,0,-1.374

 Normal termination of Gaussian 16 at Tue Apr  8 22:14:18 2025.
