 Gaussian 16, Revision C.01,

 ----------------------------------------------------------------------
 #t hf aug-cc-pvdz symm=none int=(grid=ultrafine) guess=(read,tcheck) s
 table=(opt,rrhf)
 ----------------------------------------------------------------------
 -----
 title
 -----
 Symbolic Z-matrix:
 Charge =  0 Multiplicity = 1

 SCF Done:  E(RHF) =  -414.357911992     A.U. after   15 cycles
 Normal termination of Gaussian 16 at Tue Apr  8 21:37:46 2025.
 Gaussian 16:  ES64L-G16RevC.01  3-Jul-2019

 ----------------------------------------------------------------------
 #t hf aug-cc-pvdz iop(5/13=1,5/36=2,99/5=2) pseudo=read geom=check gue
 ss=(read,tcheck) scf=(maxcycle=1)
 ----------------------------------------------------------------------
 -----
 title
 -----
 Structure from the checkpoint file:  "ANI1ccx_410_conf7_mol1.chk"
 Charge =  0 Multiplicity = 1

                         Standard orientation:
 ---------------------------------------------------------------------
 Center     Atomic      Atomic             Coordinates (Angstroms)
 Number     Number       Type             X           Y           Z
 ---------------------------------------------------------------------
      1          6           0        2.573350   -0.167240   -0.023941
      2          1           0        1.132260   -1.421200    0.029047
      3          1           0        3.234010   -1.059590   -0.058340
      4          1           0       -3.098420    1.042180    0.838601
      5          1           0       -0.564750   -0.400057   -0.564210
      6          8           0        1.276830   -0.469424   -0.032479
      7          8           0        2.955500    0.948854    0.015948
      8          8           0       -2.860670    0.896601   -0.114300
      9          8           0       -2.354640   -0.478255   -0.106294
     10          8           0       -1.034920   -0.542514    0.224444
 ---------------------------------------------------------------------

 SCF Done:  E(RHF) =  -414.762100986     A.U. after    2 cycles

 The electronic state is 1-A.
 Alpha  occ. eigenvalues --  -20.67928 -20.63227 -20.62634 -20.62615 -20.55777
 Alpha  occ. eigenvalues --  -11.41235  -1.68003  -1.58011  -1.48834  -1.45896
 Alpha  occ. eigenvalues --   -1.19729  -0.89485  -0.81357  -0.78224  -0.69812
 Alpha  occ. eigenvalues --   -0.68633  -0.67273  -0.65567  -0.64186  -0.60572
 Alpha  occ. eigenvalues --   -0.51281  -0.50172  -0.48522  -0.48019  -0.46720
 Alpha virt. eigenvalues --    0.02348   0.04701   0.05345   0.06707   0.08620
 Alpha virt. eigenvalues --    0.10839   0.11624   0.14192   0.14406   0.15548
 Alpha virt. eigenvalues --    0.16703   0.19057   0.20372   0.21176   0.21649

 Mulliken charges:
               1
     1  C    1.386089
     2  H    0.432536
     3  H    0.074470
     4  H    0.464165
     5  H    0.525043
     6  O   -1.084517
     7  O   -0.944330
     8  O   -0.492763
     9  O    0.173247
    10  O   -0.533940
 Sum of Mulliken charges =   0.00000

 Dipole moment (field-independent basis, Debye):
    X=              0.6333    Y=             -3.3708    Z=              0.4247  Tot=              3.4559

 Test job not archived.
 1\1\GINC-SE109\SP\RHF\Aug-CC-pVDZ\C1H4O5\OHZDE\08-Apr-2025\0\\#t hf au
 g-cc-pvdz iop(5/13=1,5/36=2,99/5=2) pseudo=read geom=check guess=(read
 ,tcheck) scf=(maxcycle=1)\\title\\0,1\C,0,2.57335,-0.16724,-0.0239413\
 H,0,1.13226,-1.4212,0.0290468\H,0,3.23401,-1.05959,-0.0583396\H,0,-3.0
 9842,1.04218,0.838601\H,0,-0.56475,-0.400057,-0.56421\O,0,1.27683,-0.4
 69424,-0.0324788\O,0,2.9555,0.948854,0.0159477\O,0,-2.86067,0.896601,-
 0.1143\O,0,-2.35464,-0.478255,-0.106294\O,0,-1.03492,-0.542514,0.22444
 4\\Version=ES64L-G16RevC.01\State=1-A\HF=-414.762101\RMSD=7.904e-03\Di

 Normal termination of Gaussian 16 at Tue Apr  8 21:37:49 2025.
