 Gaussian 16, Revision C.01,

 ----------------------------------------------------------------------
 #t hf aug-cc-pvdz symm=none int=(grid=ultrafine) guess=(read,tcheck) s
 table=(opt,rrhf)
 ----------------------------------------------------------------------
 -----
 title
 -----
 Symbolic Z-matrix:
 Charge =  0 Multiplicity = 1

 SCF Done:  E(RHF) =  -302.697318321     A.U. after   13 cycles
 Normal termination of Gaussian 16 at Tue Apr  8 21:45:47 2025.
 Gaussian 16:  ES64L-G16RevC.01  3-Jul-2019

 ----------------------------------------------------------------------
 #t hf aug-cc-pvdz iop(5/13=1,5/36=2,99/5=2) pseudo=read geom=check gue
 ss=(read,tcheck) scf=(maxcycle=1)
 ----------------------------------------------------------------------
 -----
 title
 -----
 Structure from the checkpoint file:  "ANI1ccx_528_conf44_mol1.chk"
 Charge =  0 Multiplicity = 1

                         Standard orientation:
 ---------------------------------------------------------------------
 Center     Atomic      Atomic             Coordinates (Angstroms)
 Number     Number       Type             X           Y           Z
 ---------------------------------------------------------------------
      1          6           0       -0.693664   -0.746116    0.071452
      2          6           0        0.533237    0.128118    0.025703
      3          1           0       -1.547330    0.869755   -0.119325
      4          1           0       -0.628775   -1.270741    1.070690
      5          1           0       -0.595048   -1.462871   -0.730277
      6          1           0        1.577160   -1.424901    0.098247
      7          8           0       -1.821580   -0.024818   -0.077139
      8          8           0        1.712030   -0.438999   -0.084568
      9          8           0        0.379121    1.338409    0.048924
 ---------------------------------------------------------------------

 SCF Done:  E(RHF) =  -302.998716797     A.U. after    2 cycles

 The electronic state is 1-A.
 Alpha  occ. eigenvalues --  -20.63886 -20.56034 -20.55049 -11.40953 -11.32417
 Alpha  occ. eigenvalues --   -1.57823  -1.50799  -1.46193  -1.01687  -0.85268
 Alpha  occ. eigenvalues --   -0.79804  -0.70776  -0.70043  -0.65419  -0.63718
 Alpha  occ. eigenvalues --   -0.61978  -0.53989  -0.48934  -0.46846  -0.45939
 Alpha virt. eigenvalues --    0.02160   0.04377   0.04835   0.06397   0.08996
 Alpha virt. eigenvalues --    0.11088   0.11512   0.11662   0.13140   0.15082
 Alpha virt. eigenvalues --    0.15769   0.16052   0.19225   0.20953   0.21730

 Mulliken charges:
               1
     1  C    0.758740
     2  C    1.755589
     3  H    0.304476
     4  H    0.256898
     5  H    0.098104
     6  H    0.417817
     7  O   -1.150601
     8  O   -1.255063
     9  O   -1.185961
 Sum of Mulliken charges =  -0.00000

 Dipole moment (field-independent basis, Debye):
    X=              0.8327    Y=             -3.7267    Z=              0.3444  Tot=              3.8341

 Test job not archived.
 1\1\GINC-SE150\SP\RHF\Aug-CC-pVDZ\C2H4O3\OHZDE\08-Apr-2025\0\\#t hf au
 g-cc-pvdz iop(5/13=1,5/36=2,99/5=2) pseudo=read geom=check guess=(read
 ,tcheck) scf=(maxcycle=1)\\title\\0,1\C,0,-0.693664,-0.746115,0.071452
 2\C,0,0.533237,0.128119,0.0257025\H,0,-1.54733,0.869756,-0.119325\H,0,
 -0.628775,-1.27074,1.07069\H,0,-0.595048,-1.46287,-0.730277\H,0,1.5771
 6,-1.4249,0.0982471\O,0,-1.82158,-0.024817,-0.0771392\O,0,1.71203,-0.4
 38998,-0.0845684\O,0,0.379121,1.33841,0.0489241\\Version=ES64L-G16RevC
 .01\State=1-A\HF=-302.9987168\RMSD=1.128e-02\Dipole=0.3276108,-1.46620

 Normal termination of Gaussian 16 at Tue Apr  8 21:45:50 2025.
