 Gaussian 16, Revision C.01,

 ----------------------------------------------------------------------
 #t hf aug-cc-pvdz symm=none int=(grid=ultrafine) guess=(read,tcheck) s
 table=(opt,rrhf)
 ----------------------------------------------------------------------
 -----
 title
 -----
 Symbolic Z-matrix:
 Charge =  0 Multiplicity = 1

 SCF Done:  E(RHF) =  -355.354279029     A.U. after   14 cycles
 Normal termination of Gaussian 16 at Tue Apr  8 21:40:43 2025.
 Gaussian 16:  ES64L-G16RevC.01  3-Jul-2019

 ----------------------------------------------------------------------
 #t hf aug-cc-pvdz iop(5/13=1,5/36=2,99/5=2) pseudo=read geom=check gue
 ss=(read,tcheck) scf=(maxcycle=1)
 ----------------------------------------------------------------------
 -----
 title
 -----
 Structure from the checkpoint file:  "ANI1ccx_469_conf16_mol2.chk"
 Charge =  0 Multiplicity = 1

                         Standard orientation:
 ---------------------------------------------------------------------
 Center     Atomic      Atomic             Coordinates (Angstroms)
 Number     Number       Type             X           Y           Z
 ---------------------------------------------------------------------
      1          6           0        0.780506    0.008126   -0.004657
      2          6           0       -1.321421    0.555997    0.004608
      3          1           0       -2.175582    1.212757   -0.003505
      4          7           0       -1.361080   -0.721171    0.001231
      5          8           0        1.961929    0.055541    0.004105
      6          8           0       -0.088574    1.094999   -0.002865
      7          8           0       -0.004776   -1.094201   -0.001843
 ---------------------------------------------------------------------

 SCF Done:  E(RHF) =  -355.695406183     A.U. after    2 cycles

 The electronic state is 1-A.
 Alpha  occ. eigenvalues --  -20.67547 -20.66861 -20.57585 -15.61835 -11.48358
 Alpha  occ. eigenvalues --  -11.40468  -1.68089  -1.55170  -1.52621  -1.23964
 Alpha  occ. eigenvalues --   -0.95235  -0.92580  -0.79854  -0.76471  -0.70420
 Alpha  occ. eigenvalues --   -0.69371  -0.62697  -0.60902  -0.59952  -0.58406
 Alpha  occ. eigenvalues --   -0.50170  -0.45113
 Alpha virt. eigenvalues --    0.02538   0.06568   0.07428   0.07838   0.09733
 Alpha virt. eigenvalues --    0.10413   0.10915   0.12783   0.13696   0.15898
 Alpha virt. eigenvalues --    0.17351   0.17590   0.19099   0.19356   0.22929

 Mulliken charges:
               1
     1  C    2.128925
     2  C    0.210407
     3  H    0.036493
     4  N    0.984828
     5  O   -1.054442
     6  O   -1.075187
     7  O   -1.231025
 Sum of Mulliken charges =  -0.00000

 Dipole moment (field-independent basis, Debye):
    X=             -3.0655    Y=              2.4944    Z=             -0.0154  Tot=              3.9522

 Test job not archived.
 1\1\GINC-SE044\SP\RHF\Aug-CC-pVDZ\C2H1N1O3\OHZDE\08-Apr-2025\0\\#t hf
 aug-cc-pvdz iop(5/13=1,5/36=2,99/5=2) pseudo=read geom=check guess=(re
 ad,tcheck) scf=(maxcycle=1)\\title\\0,1\C,0,-0.780507,0.00812671,0.004
 65701\C,0,1.32142,0.555999,-0.00460759\H,0,2.17558,1.21276,0.00350531\
 N,0,1.36108,-0.721168,-0.00123129\O,0,-1.96193,0.0555403,-0.00410549\O
 ,0,0.0885722,1.095,0.00286471\O,0,0.0047762,-1.0942,0.00184291\\Versio
 n=ES64L-G16RevC.01\State=1-A\HF=-355.6954062\RMSD=1.325e-02\Dipole=1.2
 060641,0.9813781,0.0060668\Quadrupole=-1.3285328,-0.2118704,1.5404032,

 Normal termination of Gaussian 16 at Tue Apr  8 21:40:45 2025.
