 Gaussian 16, Revision C.01,

 ----------------------------------------------------------------------
 #t hf aug-cc-pvdz symm=none int=(grid=ultrafine) guess=(read,tcheck) s
 table=(opt,rrhf)
 ----------------------------------------------------------------------
 -----
 title
 -----
 Symbolic Z-matrix:
 Charge =  0 Multiplicity = 1

 SCF Done:  E(RHF) =  -380.207305102     A.U. after   11 cycles
 Normal termination of Gaussian 16 at Tue Apr  8 21:03:27 2025.
 Gaussian 16:  ES64L-G16RevC.01  3-Jul-2019

 ----------------------------------------------------------------------
 #t hf aug-cc-pvdz iop(5/13=1,5/36=2,99/5=2) pseudo=read geom=check gue
 ss=(read,tcheck) scf=(maxcycle=1)
 ----------------------------------------------------------------------
 -----
 title
 -----
 Structure from the checkpoint file:  "ANI1ccx_1843_conf271_mol1.chk"
 Charge =  0 Multiplicity = 1

                         Standard orientation:
 ---------------------------------------------------------------------
 Center     Atomic      Atomic             Coordinates (Angstroms)
 Number     Number       Type             X           Y           Z
 ---------------------------------------------------------------------
      1          1           0       -1.625710    0.537877   -0.917397
      2          1           0       -3.116310    0.279983   -0.359085
      3          1           0        0.857473    0.005085    0.996421
      4          1           0       -0.327293   -0.606480    1.870570
      5          1           0       -0.909076   -1.525469   -0.023515
      6          1           0        0.459798   -1.586939   -0.632687
      7          1           0        1.821840    0.643049   -0.754772
      8          1           0        3.026480   -0.185113   -0.596497
      9          1           0       -0.329872    1.519231    0.551397
     10          1           0        0.238522    2.829141    0.184602
     11          8           0       -2.297380   -0.157777   -0.723303
     12          8           0        0.140814    0.167109    1.621300
     13          8           0       -0.061919   -1.970279    0.114433
     14          8           0        2.135010   -0.299669   -0.831489
     15          8           0        0.071494    2.021821   -0.220818
 ---------------------------------------------------------------------

 SCF Done:  E(RHF) =  -380.603317227     A.U. after    2 cycles

 The electronic state is 1-A.
 Alpha  occ. eigenvalues --  -20.57543 -20.57219 -20.56335 -20.54473 -20.52469
 Alpha  occ. eigenvalues --   -1.46510  -1.45844  -1.43821  -1.43504  -1.40213
 Alpha  occ. eigenvalues --   -0.75131  -0.72212  -0.71645  -0.70260  -0.67176
 Alpha  occ. eigenvalues --   -0.61688  -0.60711  -0.58377  -0.56761  -0.55028
 Alpha  occ. eigenvalues --   -0.51917  -0.51254  -0.50805  -0.49193  -0.45686
 Alpha virt. eigenvalues --    0.02996   0.03764   0.04986   0.06077   0.07504
 Alpha virt. eigenvalues --    0.08114   0.08734   0.08856   0.10077   0.10972
 Alpha virt. eigenvalues --    0.17660   0.18944   0.19607   0.20397   0.21417

 Mulliken charges:
               1
     1  H    0.503143
     2  H    0.445221
     3  H    0.672233
     4  H    0.474671
     5  H    0.530446
     6  H    0.498945
     7  H    0.534813
     8  H    0.372073
     9  H    0.753052
    10  H    0.241941
    11  O   -0.991099
    12  O   -1.256200
    13  O   -0.982444
    14  O   -0.905399
    15  O   -0.891397
 Sum of Mulliken charges =  -0.00000

 Dipole moment (field-independent basis, Debye):
    X=              0.2900    Y=              3.8141    Z=              0.6866  Tot=              3.8863

 Test job not archived.
 1\1\GINC-SE078\SP\RHF\Aug-CC-pVDZ\H10O5\OHZDE\08-Apr-2025\0\\#t hf aug
 -cc-pvdz iop(5/13=1,5/36=2,99/5=2) pseudo=read geom=check guess=(read,
 tcheck) scf=(maxcycle=1)\\title\\0,1\H,0,-1.62571,0.537876,-0.917397\H
 ,0,-3.11631,0.279982,-0.359085\H,0,0.857473,0.00508462,0.996421\H,0,-0
 .327293,-0.606481,1.87057\H,0,-0.909076,-1.52547,-0.023515\H,0,0.45979
 8,-1.58694,-0.632687\H,0,1.82184,0.643048,-0.754772\H,0,3.02648,-0.185
 113,-0.596497\H,0,-0.329872,1.51923,0.551397\H,0,0.238522,2.82914,0.18
 4602\O,0,-2.29738,-0.157778,-0.723303\O,0,0.140814,0.167108,1.6213\O,0

 Normal termination of Gaussian 16 at Tue Apr  8 21:03:30 2025.
