 Gaussian 16, Revision C.01,

 ----------------------------------------------------------------------
 #t hf aug-cc-pvdz symm=none int=(grid=ultrafine) guess=(read,tcheck) s
 table=(opt,rrhf)
 ----------------------------------------------------------------------
 -----
 title
 -----
 Symbolic Z-matrix:
 Charge =  0 Multiplicity = 1

 SCF Done:  E(RHF) =  -636.075389701     A.U. after   16 cycles
 Normal termination of Gaussian 16 at Tue Apr  8 19:49:30 2025.
 Gaussian 16:  ES64L-G16RevC.01  3-Jul-2019

 ----------------------------------------------------------------------
 #t hf aug-cc-pvdz iop(5/13=1,5/36=2,99/5=2) pseudo=read geom=check gue
 ss=(read,tcheck) scf=(maxcycle=1)
 ----------------------------------------------------------------------
 -----
 title
 -----
 Structure from the checkpoint file:  "ANI1ccx_1499_conf2_mol1.chk"
 Charge =  0 Multiplicity = 1

                         Standard orientation:
 ---------------------------------------------------------------------
 Center     Atomic      Atomic             Coordinates (Angstroms)
 Number     Number       Type             X           Y           Z
 ---------------------------------------------------------------------
      1          6           0        0.349453    0.449457    0.005564
      2          6           0       -2.674529   -0.516632   -1.032300
      3          6           0       -2.653349    0.073788    1.041890
      4          6           0        1.745781    0.051928    0.081416
      5          6           0        2.486460   -1.207611    0.205367
      6          6           0        3.811920   -0.900320    0.042552
      7          6           0        2.730231    0.968887   -0.125558
      8          1           0        2.627271    2.014369   -0.409847
      9          1           0        4.752000   -1.491641    0.121817
     10          1           0        2.084170   -2.189531    0.375156
     11          1           0       -2.274099    0.360456    2.063770
     12          1           0       -2.303780   -0.940254   -1.978570
     13          1           0       -0.219130   -1.561030    0.316909
     14          7           0       -0.518641   -0.600920    0.129253
     15          7           0       -1.863629   -0.379473    0.033165
     16          7           0       -3.879749   -0.161613   -0.692519
     17          7           0       -3.870029    0.257884    0.624810
     18          8           0       -0.034657    1.596690   -0.184380
     19          8           0        3.969921    0.463248   -0.123845
 ---------------------------------------------------------------------

 SCF Done:  E(RHF) =  -636.706666143     A.U. after    2 cycles

 The electronic state is 1-A.
 Alpha  occ. eigenvalues --  -20.65394 -20.53984 -15.61574 -15.60648 -15.52618
 Alpha  occ. eigenvalues --  -15.52070 -11.40138 -11.34454 -11.34040 -11.31700
 Alpha  occ. eigenvalues --  -11.31577 -11.28980 -11.27623  -1.58679  -1.49034
 Alpha  occ. eigenvalues --   -1.42703  -1.33040  -1.19085  -1.13439  -1.12228
 Alpha  occ. eigenvalues --   -1.05001  -0.96721  -0.91059  -0.87561  -0.86936
 Alpha  occ. eigenvalues --   -0.83261  -0.80722  -0.79309  -0.71013  -0.69744
 Alpha  occ. eigenvalues --   -0.67854  -0.66728  -0.65611  -0.65062  -0.63382
 Alpha  occ. eigenvalues --   -0.62161  -0.61271  -0.58046  -0.53741  -0.50468
 Alpha  occ. eigenvalues --   -0.48244  -0.46584  -0.46506  -0.43792  -0.40223
 Alpha  occ. eigenvalues --   -0.36577
 Alpha virt. eigenvalues --    0.01584   0.02688   0.03688   0.04494   0.04664
 Alpha virt. eigenvalues --    0.05873   0.06413   0.08046   0.08250   0.08712
 Alpha virt. eigenvalues --    0.09190   0.09844   0.10475   0.10901   0.11381

 Mulliken charges:
               1
     1  C    0.138189
     2  C   -0.331669
     3  C   -0.423803
     4  C    1.420846
     5  C    0.092478
     6  C    0.780661
     7  C    0.520717
     8  H   -0.202312
     9  H   -0.063014
    10  H   -0.340530
    11  H   -0.004198
    12  H   -0.035905
    13  H    0.173133
    14  N   -0.199667
    15  N    1.287572
    16  N    0.047065
    17  N    0.097603
    18  O   -1.386148
    19  O   -1.571018
 Sum of Mulliken charges =  -0.00000

 Dipole moment (field-independent basis, Debye):
    X=              7.8752    Y=             -4.5676    Z=              0.6871  Tot=              9.1298

 Test job not archived.
 1\1\GINC-SE332\SP\RHF\Aug-CC-pVDZ\C7H6N4O2\OHZDE\08-Apr-2025\0\\#t hf
 aug-cc-pvdz iop(5/13=1,5/36=2,99/5=2) pseudo=read geom=check guess=(re
 ad,tcheck) scf=(maxcycle=1)\\title\\0,1\C,0,0.349452,0.449457,0.005563
 69\C,0,-2.67453,-0.516633,-1.0323\C,0,-2.65335,0.0737877,1.04189\C,0,1
 .74578,0.0519283,0.081416\C,0,2.48646,-1.20761,0.205367\C,0,3.81192,-0
 .900319,0.0425513\C,0,2.73023,0.968888,-0.125558\H,0,2.62727,2.01437,-
 0.409847\H,0,4.752,-1.49164,0.121817\H,0,2.08417,-2.18953,0.375156\H,0
 ,-2.2741,0.360456,2.06377\H,0,-2.30378,-0.940254,-1.97857\H,0,-0.21913

 Normal termination of Gaussian 16 at Tue Apr  8 19:49:41 2025.
