 Gaussian 16, Revision C.01,

 ----------------------------------------------------------------------
 #t hf aug-cc-pvdz symm=none int=(grid=ultrafine) guess=(read,tcheck) s
 table=(opt,rrhf)
 ----------------------------------------------------------------------
 -----
 title
 -----
 Symbolic Z-matrix:
 Charge =  0 Multiplicity = 1

 SCF Done:  E(RHF) =  -849.428610202     A.U. after   14 cycles
 Normal termination of Gaussian 16 at Tue Apr  8 20:30:08 2025.
 Gaussian 16:  ES64L-G16RevC.01  3-Jul-2019

 ----------------------------------------------------------------------
 #t hf aug-cc-pvdz iop(5/13=1,5/36=2,99/5=2) pseudo=read geom=check gue
 ss=(read,tcheck) scf=(maxcycle=1)
 ----------------------------------------------------------------------
 -----
 title
 -----
 Structure from the checkpoint file:  "ANI1ccx_1611_conf15_mol1.chk"
 Charge =  0 Multiplicity = 1

                         Standard orientation:
 ---------------------------------------------------------------------
 Center     Atomic      Atomic             Coordinates (Angstroms)
 Number     Number       Type             X           Y           Z
 ---------------------------------------------------------------------
      1          6           0       -2.212009   -0.253271    0.877839
      2          6           0       -1.038769   -0.956284    0.149916
      3          6           0       -3.414779    0.031445   -0.044247
      4          6           0       -3.128139    1.022740   -1.170520
      5          6           0        1.203381    0.331702    0.877332
      6          6           0        1.341581    1.473080   -0.125002
      7          6           0        2.565941   -0.246252    1.273020
      8          6           0        3.187301   -0.838079    0.059321
      9          1           0        0.353511    2.719620   -1.170460
     10          1           0        4.534421   -0.970772   -1.246640
     11          1           0        4.631741    0.573882   -0.658283
     12          1           0        3.228711    0.524802    1.607990
     13          1           0        2.377601   -1.081480    1.961010
     14          1           0        0.716515    0.632016    1.830730
     15          1           0        0.730022   -1.282740   -0.410305
     16          1           0       -4.134029    1.304701   -1.440190
     17          1           0       -2.598869    0.407812   -1.950090
     18          1           0       -2.562629    1.798350   -0.734354
     19          1           0       -3.064149   -1.724290   -0.608748
     20          1           0       -4.362409    0.389076    0.501001
     21          1           0       -2.516679   -1.003330    1.611850
     22          1           0       -2.613959    1.782380    1.206790
     23          1           0       -1.943339    1.058380    2.526410
     24          7           0       -2.001989    0.974503    1.520260
     25          7           0        0.267664   -0.591779    0.190034
     26          7           0        4.178391   -0.312429   -0.630778
     27          8           0       -1.341129   -1.842410   -0.668475
     28          8           0       -3.917119   -1.230810   -0.480459
     29          8           0        2.334551    1.807300   -0.693093
     30          8           0        2.682201   -1.880650   -0.368415
     31          8           0        0.127502    2.020200   -0.535716
 ---------------------------------------------------------------------

 SCF Done:  E(RHF) =  -850.284571045     A.U. after    2 cycles

 The electronic state is 1-A.
 Alpha  occ. eigenvalues --  -20.60438 -20.57017 -20.51541 -20.51042 -20.50264
 Alpha  occ. eigenvalues --  -15.53614 -15.53261 -15.49780 -11.42072 -11.37330
 Alpha  occ. eigenvalues --  -11.37007 -11.34370 -11.28387 -11.28262 -11.28224
 Alpha  occ. eigenvalues --  -11.21596  -1.56354  -1.47080  -1.46902  -1.46390
 Alpha  occ. eigenvalues --   -1.40794  -1.25202  -1.24881  -1.20976  -1.10795
 Alpha  occ. eigenvalues --   -1.02083  -0.98921  -0.95974  -0.87456  -0.84895
 Alpha  occ. eigenvalues --   -0.82836  -0.79744  -0.77331  -0.75339  -0.73273
 Alpha  occ. eigenvalues --   -0.72584  -0.71950  -0.70626  -0.68154  -0.66253
 Alpha  occ. eigenvalues --   -0.64783  -0.63970  -0.63192  -0.62748  -0.59785
 Alpha  occ. eigenvalues --   -0.59120  -0.58772  -0.58299  -0.57832  -0.56508
 Alpha  occ. eigenvalues --   -0.55363  -0.52780  -0.50435  -0.49832  -0.48567
 Alpha  occ. eigenvalues --   -0.48034  -0.45821  -0.43948  -0.43272  -0.42303
 Alpha  occ. eigenvalues --   -0.40085  -0.39462
 Alpha virt. eigenvalues --    0.02086   0.02805   0.03342   0.03811   0.04062
 Alpha virt. eigenvalues --    0.04591   0.05352   0.06138   0.06714   0.06976
 Alpha virt. eigenvalues --    0.07459   0.07935   0.09130   0.09630   0.10337

 Mulliken charges:
               1
     1  C   -1.403858
     2  C    0.309385
     3  C    0.910929
     4  C   -0.310746
     5  C   -0.767459
     6  C    2.611722
     7  C   -0.216556
     8  C    0.235354
     9  H    0.419917
    10  H    0.208970
    11  H    0.078472
    12  H    0.075208
    13  H    0.267468
    14  H    0.171524
    15  H    0.289544
    16  H    0.182619
    17  H    0.366644
    18  H    0.173872
    19  H    0.462370
    20  H    0.006647
    21  H    0.164823
    22  H    0.237078
    23  H    0.113707
    24  N    0.800909
    25  N    0.922307
    26  N    0.954111
    27  O   -1.517566
    28  O   -1.484296
    29  O   -1.337257
    30  O   -1.468465
    31  O   -1.457380
 Sum of Mulliken charges =  -0.00000

 Dipole moment (field-independent basis, Debye):
    X=              4.4857    Y=              5.8314    Z=              4.3117  Tot=              8.5275

 Test job not archived.
 1\1\GINC-SE096\SP\RHF\Aug-CC-pVDZ\C8H15N3O5\OHZDE\08-Apr-2025\0\\#t hf
  aug-cc-pvdz iop(5/13=1,5/36=2,99/5=2) pseudo=read geom=check guess=(r
 ead,tcheck) scf=(maxcycle=1)\\title\\0,1\C,0,-2.21201,-0.253271,0.8778
 39\C,0,-1.03877,-0.956284,0.149916\C,0,-3.41478,0.0314447,-0.0442472\C
 ,0,-3.12814,1.02274,-1.17052\C,0,1.20338,0.331702,0.877332\C,0,1.34158
 ,1.47308,-0.125002\C,0,2.56594,-0.246252,1.27302\C,0,3.1873,-0.838078,
 0.0593207\H,0,0.35351,2.71962,-1.17046\H,0,4.53442,-0.970771,-1.24664\
 H,0,4.63174,0.573883,-0.658283\H,0,3.22871,0.524803,1.60799\H,0,2.3776

 Normal termination of Gaussian 16 at Tue Apr  8 20:30:50 2025.
