 Gaussian 16, Revision C.01,

 ----------------------------------------------------------------------
 #t hf aug-cc-pvdz symm=none int=(grid=ultrafine) guess=(read,tcheck) s
 table=(opt,rrhf)
 ----------------------------------------------------------------------
 -----
 title
 -----
 Symbolic Z-matrix:
 Charge =  0 Multiplicity = 1

 SCF Done:  E(RHF) =  -430.216501915     A.U. after   14 cycles
 Normal termination of Gaussian 16 at Tue Apr  8 21:40:45 2025.
 Gaussian 16:  ES64L-G16RevC.01  3-Jul-2019

 ----------------------------------------------------------------------
 #t hf aug-cc-pvdz iop(5/13=1,5/36=2,99/5=2) pseudo=read geom=check gue
 ss=(read,tcheck) scf=(maxcycle=1)
 ----------------------------------------------------------------------
 -----
 title
 -----
 Structure from the checkpoint file:  "ANI1ccx_470_conf9_mol1.chk"
 Charge =  0 Multiplicity = 1

                         Standard orientation:
 ---------------------------------------------------------------------
 Center     Atomic      Atomic             Coordinates (Angstroms)
 Number     Number       Type             X           Y           Z
 ---------------------------------------------------------------------
      1          6           0        1.092270   -0.236715   -0.023121
      2          6           0       -1.059890   -0.144131    0.029043
      3          1           0        0.972033    1.902350   -0.328169
      4          7           0        0.564839    1.085890    0.286943
      5          8           0        2.224460   -0.510858   -0.033829
      6          8           0       -0.728109    1.171681   -0.190699
      7          8           0       -2.130370   -0.608007    0.058113
      8          8           0       -0.006004   -0.955129   -0.048079
 ---------------------------------------------------------------------

 SCF Done:  E(RHF) =  -430.626684082     A.U. after    2 cycles

 The electronic state is 1-A.
 Alpha  occ. eigenvalues --  -20.68744 -20.68439 -20.59643 -20.58482 -15.63869
 Alpha  occ. eigenvalues --  -11.49222 -11.47828  -1.72295  -1.60510  -1.56693
 Alpha  occ. eigenvalues --   -1.53739  -1.20006  -0.98248  -0.95434  -0.81629
 Alpha  occ. eigenvalues --   -0.78545  -0.74471  -0.71761  -0.69496  -0.67683
 Alpha  occ. eigenvalues --   -0.64940  -0.63557  -0.54763  -0.52679  -0.50662
 Alpha  occ. eigenvalues --   -0.47897
 Alpha virt. eigenvalues --    0.02588   0.07736   0.07851   0.08171   0.09690
 Alpha virt. eigenvalues --    0.10463   0.10669   0.11035   0.13310   0.13865
 Alpha virt. eigenvalues --    0.15186   0.16012   0.17338   0.19837   0.22695

 Mulliken charges:
               1
     1  C    1.301810
     2  C    1.976204
     3  H    0.258545
     4  N    0.687752
     5  O   -1.026934
     6  O   -1.218321
     7  O   -1.014540
     8  O   -0.964517
 Sum of Mulliken charges =   0.00000

 Dipole moment (field-independent basis, Debye):
    X=              0.9475    Y=              2.1454    Z=             -1.0419  Tot=              2.5663

 Test job not archived.
 1\1\GINC-SE221\SP\RHF\Aug-CC-pVDZ\C2H1N1O4\OHZDE\08-Apr-2025\0\\#t hf
 aug-cc-pvdz iop(5/13=1,5/36=2,99/5=2) pseudo=read geom=check guess=(re
 ad,tcheck) scf=(maxcycle=1)\\title\\0,1\C,0,1.09227,-0.236715,-0.02312
 11\C,0,-1.05989,-0.144132,0.0290431\H,0,0.972032,1.90235,-0.328169\N,0
 ,0.564838,1.08589,0.286943\O,0,2.22446,-0.510858,-0.0338293\O,0,-0.728
 11,1.17168,-0.190699\O,0,-2.13037,-0.608008,0.0581127\O,0,-0.00600381,
 -0.95513,-0.0480794\\Version=ES64L-G16RevC.01\State=1-A\HF=-430.626684
 1\RMSD=1.128e-02\Dipole=0.3727563,0.8440746,-0.4099232\Quadrupole=-6.0

 Normal termination of Gaussian 16 at Tue Apr  8 21:40:48 2025.
