 Gaussian 16, Revision C.01,

 ----------------------------------------------------------------------
 #t hf aug-cc-pvdz symm=none int=(grid=ultrafine) guess=(read,tcheck) s
 table=(opt,rrhf)
 ----------------------------------------------------------------------
 -----
 title
 -----
 Symbolic Z-matrix:
 Charge =  0 Multiplicity = 1

 SCF Done:  E(RHF) =  -448.359766754     A.U. after   15 cycles
 Normal termination of Gaussian 16 at Tue Apr  8 21:48:58 2025.
 Gaussian 16:  ES64L-G16RevC.01  3-Jul-2019

 ----------------------------------------------------------------------
 #t hf aug-cc-pvdz iop(5/13=1,5/36=2,99/5=2) pseudo=read geom=check gue
 ss=(read,tcheck) scf=(maxcycle=1)
 ----------------------------------------------------------------------
 -----
 title
 -----
 Structure from the checkpoint file:  "ANI1ccx_656_conf2_mol1.chk"
 Charge =  0 Multiplicity = 1

                         Standard orientation:
 ---------------------------------------------------------------------
 Center     Atomic      Atomic             Coordinates (Angstroms)
 Number     Number       Type             X           Y           Z
 ---------------------------------------------------------------------
      1          6           0        1.387610    0.020154    0.004293
      2          6           0       -0.824585    0.792127    0.006128
      3          6           0       -0.830636   -0.798068    0.040336
      4          1           0        0.932000    2.033418   -0.038778
      5          1           0        0.874764   -2.009621    0.110199
      6          7           0        0.530646    1.093829   -0.027016
      7          7           0        0.463917   -1.056221    0.177706
      8          8           0        2.595290   -0.062601   -0.082514
      9          8           0       -1.724086    1.559714    0.030352
     10          8           0       -1.766583   -1.543656   -0.126688
 ---------------------------------------------------------------------

 SCF Done:  E(RHF) =  -448.792537752     A.U. after    2 cycles

 The electronic state is 1-A.
 Alpha  occ. eigenvalues --  -20.58886 -20.58581 -20.57655 -15.60012 -15.59790
 Alpha  occ. eigenvalues --  -11.46191 -11.42613 -11.42176  -1.54763  -1.52913
 Alpha  occ. eigenvalues --   -1.51339  -1.38381  -1.26910  -1.02027  -0.94955
 Alpha  occ. eigenvalues --   -0.91254  -0.78600  -0.75274  -0.73524  -0.71505
 Alpha  occ. eigenvalues --   -0.70378  -0.67747  -0.62207  -0.60202  -0.55559
 Alpha  occ. eigenvalues --   -0.50297  -0.49284  -0.48516  -0.45718
 Alpha virt. eigenvalues --    0.02627   0.04032   0.04257   0.08152   0.08210
 Alpha virt. eigenvalues --    0.08487   0.09002   0.10106   0.10245   0.10694
 Alpha virt. eigenvalues --    0.12721   0.13696   0.13884   0.15387   0.16033

 Mulliken charges:
               1
     1  C    0.587498
     2  C    0.768705
     3  C    0.709455
     4  H    0.134596
     5  H    0.173668
     6  N    0.536908
     7  N    0.504324
     8  O   -1.099730
     9  O   -1.137997
    10  O   -1.177426
 Sum of Mulliken charges =  -0.00000

 Dipole moment (field-independent basis, Debye):
    X=              2.3111    Y=              0.3938    Z=              0.2467  Tot=              2.3574

 Test job not archived.
 1\1\GINC-SE453\SP\RHF\Aug-CC-pVDZ\C3H2N2O3\OHZDE\08-Apr-2025\0\\#t hf
 aug-cc-pvdz iop(5/13=1,5/36=2,99/5=2) pseudo=read geom=check guess=(re
 ad,tcheck) scf=(maxcycle=1)\\title\\0,1\C,0,1.38761,0.0201562,0.004292
 5\C,0,-0.824587,0.792125,0.00612755\C,0,-0.830634,-0.79807,0.0403362\H
 ,0,0.931995,2.03342,-0.0387776\H,0,0.874768,-2.00962,0.110199\N,0,0.53
 0644,1.09383,-0.0270158\N,0,0.463919,-1.05622,0.177706\O,0,2.59529,-0.
 0625954,-0.0825136\O,0,-1.72409,1.55971,0.0303524\O,0,-1.76658,-1.5436
 6,-0.126688\\Version=ES64L-G16RevC.01\State=1-A\HF=-448.7925378\RMSD=2

 Normal termination of Gaussian 16 at Tue Apr  8 21:49:02 2025.
