 Gaussian 16, Revision C.01,

 ----------------------------------------------------------------------
 #t hf aug-cc-pvdz symm=none int=(grid=ultrafine) guess=(read,tcheck) s
 table=(opt,rrhf)
 ----------------------------------------------------------------------
 -----
 title
 -----
 Symbolic Z-matrix:
 Charge =  0 Multiplicity = 1

 SCF Done:  E(RHF) =  -541.237809931     A.U. after   16 cycles
 Normal termination of Gaussian 16 at Tue Apr  8 21:58:42 2025.
 Gaussian 16:  ES64L-G16RevC.01  3-Jul-2019

 ----------------------------------------------------------------------
 #t hf aug-cc-pvdz iop(5/13=1,5/36=2,99/5=2) pseudo=read geom=check gue
 ss=(read,tcheck) scf=(maxcycle=1)
 ----------------------------------------------------------------------
 -----
 title
 -----
 Structure from the checkpoint file:  "ANI1ccx_869_conf13_mol1.chk"
 Charge =  0 Multiplicity = 1

                         Standard orientation:
 ---------------------------------------------------------------------
 Center     Atomic      Atomic             Coordinates (Angstroms)
 Number     Number       Type             X           Y           Z
 ---------------------------------------------------------------------
      1          6           0        1.275981    0.057230   -0.082729
      2          6           0        0.397420    1.302949   -0.055460
      3          6           0       -1.746540   -0.060481    0.030500
      4          6           0        0.557387   -1.267672   -0.019220
      5          1           0        3.096699   -0.542241    0.038296
      6          1           0       -1.562464    1.968735    0.499853
      7          1           0       -1.330416   -2.062446   -0.221032
      8          7           0        2.544391    0.274266   -0.134219
      9          7           0       -1.091726    1.142893    0.107061
     10          7           0       -0.862459   -1.211497   -0.093023
     11          8           0        0.771642    2.428608    0.048713
     12          8           0       -2.896080   -0.258774   -0.084190
     13          8           0        1.219344   -2.294314    0.196178
 ---------------------------------------------------------------------

 SCF Done:  E(RHF) =  -541.756847523     A.U. after    2 cycles

 The electronic state is 1-A.
 Alpha  occ. eigenvalues --  -20.58406 -20.58071 -20.56437 -15.58897 -15.58816
 Alpha  occ. eigenvalues --  -15.58252 -11.44625 -11.43598 -11.43184 -11.36752
 Alpha  occ. eigenvalues --   -1.54935  -1.53598  -1.50383  -1.31051  -1.27821
 Alpha  occ. eigenvalues --   -1.24920  -1.03434  -0.93853  -0.92477  -0.85076
 Alpha  occ. eigenvalues --   -0.82200  -0.75572  -0.73558  -0.72021  -0.70179
 Alpha  occ. eigenvalues --   -0.68445  -0.66854  -0.61954  -0.61528  -0.56167
 Alpha  occ. eigenvalues --   -0.51931  -0.51716  -0.50652  -0.49110  -0.47335
 Alpha  occ. eigenvalues --   -0.45902
 Alpha virt. eigenvalues --   -0.01902   0.03033   0.04459   0.04672   0.07826
 Alpha virt. eigenvalues --    0.08231   0.08855   0.09087   0.10056   0.10957
 Alpha virt. eigenvalues --    0.11103   0.12280   0.12877   0.13207   0.13645

 Mulliken charges:
               1
     1  C   -1.366663
     2  C    0.937093
     3  C    0.321481
     4  C    1.388084
     5  H    0.138225
     6  H    0.224024
     7  H    0.182775
     8  N    0.976540
     9  N    0.511947
    10  N    0.412667
    11  O   -1.250279
    12  O   -1.122377
    13  O   -1.353518
 Sum of Mulliken charges =  -0.00000

 Dipole moment (field-independent basis, Debye):
    X=             -0.3820    Y=             -0.6890    Z=              0.3381  Tot=              0.8573

 Test job not archived.
 1\1\GINC-SE072\SP\RHF\Aug-CC-pVDZ\C4H3N3O3\OHZDE\08-Apr-2025\0\\#t hf
 aug-cc-pvdz iop(5/13=1,5/36=2,99/5=2) pseudo=read geom=check guess=(re
 ad,tcheck) scf=(maxcycle=1)\\title\\0,1\C,0,1.27598,0.057234,-0.082728
 7\C,0,0.397416,1.30295,-0.0554605\C,0,-1.74654,-0.0604861,0.0305004\C,
 0,0.55739,-1.26767,-0.0192202\H,0,3.0967,-0.542232,0.038296\H,0,-1.562
 47,1.96873,0.499853\H,0,-1.33041,-2.06245,-0.221032\N,0,2.54439,0.2742
 73,-0.134219\N,0,-1.09173,1.14289,0.107061\N,0,-0.862456,-1.2115,-0.09
 30226\O,0,0.771634,2.42861,0.0487125\O,0,-2.89608,-0.258783,-0.0841904

 Normal termination of Gaussian 16 at Tue Apr  8 21:58:48 2025.
