 Gaussian 16, Revision C.01,

 ----------------------------------------------------------------------
 #t hf aug-cc-pvdz symm=none int=(grid=ultrafine) guess=(read,tcheck) s
 table=(opt,rrhf)
 ----------------------------------------------------------------------
 -----
 title
 -----
 Symbolic Z-matrix:
 Charge =  0 Multiplicity = 1

 SCF Done:  E(RHF) =  -616.073596932     A.U. after   13 cycles

 1\1\GINC-SE231\Stability\RHF\Aug-CC-pVDZ\C6H13N7\OHZDE\08-Apr-2025\0\\
 #t hf aug-cc-pvdz symm=none int=(grid=ultrafine) guess=(read,tcheck) s
 table=(opt,rrhf)\\title\\0,1\C,0,2.75603,0.254769,1.13239\C,0,3.21054,
 -0.813189,0.125924\C,0,2.16882,-1.02402,-0.998393\C,0,-0.239558,-0.756
 842,-0.282795\C,0,-2.41224,-0.606653,0.257901\C,0,-1.29778,1.23764,-0.
 286271\H,0,-0.482356,3.004,-0.903648\H,0,-2.14284,3.05998,-0.524771\H,
 0,-4.29453,-0.641002,0.88423\H,0,-3.47982,-2.14015,1.03687\H,0,0.76055
 1,-2.45237,-0.35687\H,0,2.02864,-0.0609359,-1.52842\H,0,2.5815,-1.7060

 Normal termination of Gaussian 16 at Tue Apr  8 19:28:11 2025.
 Gaussian 16:  ES64L-G16RevC.01  3-Jul-2019

 ----------------------------------------------------------------------
 #t hf aug-cc-pvdz iop(5/13=1,5/36=2,99/5=2) pseudo=read geom=check gue
 ss=(read,tcheck) scf=(maxcycle=1)
 ----------------------------------------------------------------------
 -----
 title
 -----
 Structure from the checkpoint file:  "ANI1ccx_1241_conf2_mol2.chk"
 Charge =  0 Multiplicity = 1

                         Standard orientation:
 ---------------------------------------------------------------------
 Center     Atomic      Atomic             Coordinates (Angstroms)
 Number     Number       Type             X           Y           Z
 ---------------------------------------------------------------------
      1          6           0        2.756030    0.254769    1.132390
      2          6           0        3.210540   -0.813189    0.125924
      3          6           0        2.168820   -1.024020   -0.998393
      4          6           0       -0.239558   -0.756842   -0.282795
      5          6           0       -2.412240   -0.606653    0.257901
      6          6           0       -1.297780    1.237640   -0.286271
      7          1           0       -0.482356    3.004000   -0.903648
      8          1           0       -2.142839    3.059980   -0.524771
      9          1           0       -4.294530   -0.641001    0.884230
     10          1           0       -3.479820   -2.140150    1.036870
     11          1           0        0.760551   -2.452370   -0.356870
     12          1           0        2.028640   -0.060936   -1.528420
     13          1           0        2.581500   -1.706020   -1.729160
     14          1           0        4.158270   -0.486412   -0.319159
     15          1           0        3.376350   -1.765590    0.621857
     16          1           0        3.540360    0.362780    1.878550
     17          1           0        1.898460   -0.121797    1.681690
     18          1           0        2.706460    2.315030    1.139080
     19          1           0        1.616490    1.568230    0.084054
     20          7           0        2.585970    1.554920    0.464435
     21          7           0        0.857591   -1.486910   -0.596019
     22          7           0       -1.328350   -1.386930    0.146427
     23          7           0       -3.561100   -1.238080    0.569315
     24          7           0       -2.475550    0.720956    0.049987
     25          7           0       -1.271800    2.584860   -0.441772
     26          7           0       -0.147106    0.581759   -0.429065
 ---------------------------------------------------------------------

 SCF Done:  E(RHF) =  -616.711506695     A.U. after    2 cycles

 The electronic state is 1-A.
 Alpha  occ. eigenvalues --  -15.52115 -15.51934 -15.51917 -15.47632 -15.47506
 Alpha  occ. eigenvalues --  -15.47331 -15.46389 -11.35878 -11.35855 -11.35680
 Alpha  occ. eigenvalues --  -11.26382 -11.24157 -11.22223  -1.35756  -1.27241
 Alpha  occ. eigenvalues --   -1.26690  -1.20146  -1.16683  -1.15860  -1.15358
 Alpha  occ. eigenvalues --   -1.02863  -0.94193  -0.91623  -0.88528  -0.83384
 Alpha  occ. eigenvalues --   -0.80936  -0.78575  -0.74485  -0.71206  -0.69124
 Alpha  occ. eigenvalues --   -0.68450  -0.67221  -0.66150  -0.65330  -0.63708
 Alpha  occ. eigenvalues --   -0.61245  -0.60335  -0.57156  -0.56694  -0.54515
 Alpha  occ. eigenvalues --   -0.51477  -0.49494  -0.48882  -0.46936  -0.46397
 Alpha  occ. eigenvalues --   -0.43968  -0.41504  -0.41000  -0.39434
 Alpha virt. eigenvalues --    0.03137   0.03880   0.03939   0.04383   0.04689
 Alpha virt. eigenvalues --    0.05160   0.05644   0.06089   0.06988   0.07762
 Alpha virt. eigenvalues --    0.08193   0.09341   0.10194   0.11298   0.11557

 Mulliken charges:
               1
     1  C   -0.364435
     2  C   -0.318034
     3  C   -0.743291
     4  C   -2.141013
     5  C   -2.034075
     6  C   -1.017798
     7  H    0.163847
     8  H    0.124646
     9  H    0.153458
    10  H    0.164274
    11  H    0.240690
    12  H    0.346930
    13  H   -0.074568
    14  H    0.162158
    15  H    0.103061
    16  H   -0.002091
    17  H    0.138957
    18  H    0.207286
    19  H   -0.105767
    20  N    0.353478
    21  N    0.801915
    22  N    1.118244
    23  N    0.827127
    24  N    0.757259
    25  N    0.775100
    26  N    0.362643
 Sum of Mulliken charges =  -0.00000

 Dipole moment (field-independent basis, Debye):
    X=             -0.7860    Y=             -0.3381    Z=              0.9531  Tot=              1.2808

 Test job not archived.
 1\1\GINC-SE231\SP\RHF\Aug-CC-pVDZ\C6H13N7\OHZDE\08-Apr-2025\0\\#t hf a
 ug-cc-pvdz iop(5/13=1,5/36=2,99/5=2) pseudo=read geom=check guess=(rea
 d,tcheck) scf=(maxcycle=1)\\title\\0,1\C,0,2.75603,0.254769,1.13239\C,
 0,3.21054,-0.813189,0.125924\C,0,2.16882,-1.02402,-0.998393\C,0,-0.239
 558,-0.756842,-0.282795\C,0,-2.41224,-0.606653,0.257901\C,0,-1.29778,1
 .23764,-0.286271\H,0,-0.482356,3.004,-0.903648\H,0,-2.14284,3.05998,-0
 .524771\H,0,-4.29453,-0.641002,0.88423\H,0,-3.47982,-2.14015,1.03687\H
 ,0,0.760551,-2.45237,-0.35687\H,0,2.02864,-0.0609359,-1.52842\H,0,2.58

 Normal termination of Gaussian 16 at Tue Apr  8 19:28:35 2025.
