 Gaussian 16, Revision C.01,

 ----------------------------------------------------------------------
 #t hf aug-cc-pvdz symm=none int=(grid=ultrafine) guess=(read,tcheck) s
 table=(opt,rrhf)
 ----------------------------------------------------------------------
 -----
 title
 -----
 Symbolic Z-matrix:
 Charge =  0 Multiplicity = 1

 SCF Done:  E(RHF) =  -408.777696842     A.U. after   13 cycles
 Normal termination of Gaussian 16 at Tue Apr  8 21:39:00 2025.
 Gaussian 16:  ES64L-G16RevC.01  3-Jul-2019

 ----------------------------------------------------------------------
 #t hf aug-cc-pvdz iop(5/13=1,5/36=2,99/5=2) pseudo=read geom=check gue
 ss=(read,tcheck) scf=(maxcycle=1)
 ----------------------------------------------------------------------
 -----
 title
 -----
 Structure from the checkpoint file:  "ANI1ccx_432_conf10_mol2.chk"
 Charge =  0 Multiplicity = 1

                         Standard orientation:
 ---------------------------------------------------------------------
 Center     Atomic      Atomic             Coordinates (Angstroms)
 Number     Number       Type             X           Y           Z
 ---------------------------------------------------------------------
      1          6           0        0.028743    0.120247    0.072318
      2          1           0       -1.628921   -2.445760   -0.721328
      3          1           0       -1.554348   -2.141418    0.926811
      4          1           0       -1.988318   -0.039229   -0.049968
      5          1           0        1.098629   -1.590905   -0.093208
      6          1           0        2.781412    0.378561    0.465318
      7          1           0       -1.057098    2.855874   -0.029937
      8          7           0       -1.114282   -1.976408    0.038662
      9          7           0       -1.108335   -0.576616   -0.209197
     10          7           0        1.190436   -0.635856    0.271773
     11          7           0        0.106246    1.381052    0.197554
     12          8           0        2.308122   -0.036416   -0.300963
     13          8           0       -1.225905    1.900940   -0.076930
 ---------------------------------------------------------------------

 SCF Done:  E(RHF) =  -409.192104655     A.U. after    2 cycles

 The electronic state is 1-A.
 Alpha  occ. eigenvalues --  -20.58563 -20.56659 -15.56031 -15.55621 -15.55196
 Alpha  occ. eigenvalues --  -15.51425 -11.33810  -1.49912  -1.46207  -1.32040
 Alpha  occ. eigenvalues --   -1.20524  -1.10616  -1.07710  -0.82975  -0.77889
 Alpha  occ. eigenvalues --   -0.76737  -0.74808  -0.70641  -0.65548  -0.65070
 Alpha  occ. eigenvalues --   -0.64526  -0.60590  -0.52678  -0.51135  -0.48905
 Alpha  occ. eigenvalues --   -0.46799  -0.45153  -0.37392
 Alpha virt. eigenvalues --    0.02772   0.04995   0.05356   0.05700   0.06090
 Alpha virt. eigenvalues --    0.06766   0.11035   0.12370   0.13299   0.14102
 Alpha virt. eigenvalues --    0.14767   0.15140   0.16771   0.17263   0.18475

 Mulliken charges:
               1
     1  C   -1.368888
     2  H    0.184935
     3  H    0.183539
     4  H    0.286322
     5  H    0.233075
     6  H    0.347633
     7  H    0.338544
     8  N   -0.204187
     9  N    0.033693
    10  N    1.036461
    11  N    1.187201
    12  O   -1.150224
    13  O   -1.108103
 Sum of Mulliken charges =   0.00000

 Dipole moment (field-independent basis, Debye):
    X=             -2.3263    Y=             -2.2525    Z=              0.8274  Tot=              3.3422

 Test job not archived.
 1\1\GINC-SE458\SP\RHF\Aug-CC-pVDZ\C1H6N4O2\OHZDE\08-Apr-2025\0\\#t hf
 aug-cc-pvdz iop(5/13=1,5/36=2,99/5=2) pseudo=read geom=check guess=(re
 ad,tcheck) scf=(maxcycle=1)\\title\\0,1\C,0,0.028745,0.120247,0.072318
 4\H,0,-1.62898,-2.44572,-0.721328\H,0,-1.5544,-2.14138,0.926811\H,0,-1
 .98832,-0.0391803,-0.0499679\H,0,1.09859,-1.59093,-0.0932083\H,0,2.781
 42,0.378495,0.465318\H,0,-1.05703,2.8559,-0.0299372\N,0,-1.11433,-1.97
 638,0.0386623\N,0,-1.10835,-0.576588,-0.209197\N,0,1.19042,-0.635883,0
 .271773\N,0,0.106278,1.38105,0.197554\O,0,2.30812,-0.0364702,-0.300963

 Normal termination of Gaussian 16 at Tue Apr  8 21:39:04 2025.
