 Gaussian 16, Revision C.01,

 ----------------------------------------------------------------------
 #t hf aug-cc-pvdz symm=none int=(grid=ultrafine) guess=(read,tcheck) s
 table=(opt,rrhf)
 ----------------------------------------------------------------------
 -----
 title
 -----
 Symbolic Z-matrix:
 Charge =  0 Multiplicity = 1

 SCF Done:  E(RHF) =  -304.180025959     A.U. after   11 cycles
 Normal termination of Gaussian 16 at Tue Apr  8 21:13:24 2025.
 Gaussian 16:  ES64L-G16RevC.01  3-Jul-2019

 ----------------------------------------------------------------------
 #t hf aug-cc-pvdz iop(5/13=1,5/36=2,99/5=2) pseudo=read geom=check gue
 ss=(read,tcheck) scf=(maxcycle=1)
 ----------------------------------------------------------------------
 -----
 title
 -----
 Structure from the checkpoint file:  "ANI1ccx_1904_conf12_mol1.chk"
 Charge =  0 Multiplicity = 1

                         Standard orientation:
 ---------------------------------------------------------------------
 Center     Atomic      Atomic             Coordinates (Angstroms)
 Number     Number       Type             X           Y           Z
 ---------------------------------------------------------------------
      1          1           0        2.395589    0.375360    0.702688
      2          1           0        1.406467   -0.448286   -0.152287
      3          1           0        0.487928    1.390538    0.107095
      4          1           0       -0.414998    2.488600   -0.575433
      5          1           0       -1.483581    0.470401    0.062346
      6          1           0       -2.351543   -0.431353   -0.815333
      7          1           0       -0.494324   -1.429860    0.018356
      8          1           0        0.594999   -2.258152    0.784861
      9          8           0        1.888639    0.402332   -0.147055
     10          8           0       -0.404639    1.821820    0.135022
     11          8           0       -1.934823   -0.422366    0.072231
     12          8           0        0.433255   -1.821442   -0.076734
 ---------------------------------------------------------------------

 SCF Done:  E(RHF) =  -304.495235865     A.U. after    2 cycles

 The electronic state is 1-A.
 Alpha  occ. eigenvalues --  -20.55981 -20.55620 -20.55430 -20.55374  -1.45070
 Alpha  occ. eigenvalues --   -1.43337  -1.43127  -1.41439  -0.72012  -0.70872
 Alpha  occ. eigenvalues --   -0.70346  -0.69728  -0.61545  -0.59077  -0.57956
 Alpha  occ. eigenvalues --   -0.55908  -0.49775  -0.49503  -0.49152  -0.48493
 Alpha virt. eigenvalues --    0.03389   0.04000   0.05028   0.06693   0.07643
 Alpha virt. eigenvalues --    0.08261   0.09690   0.10958   0.16952   0.17785
 Alpha virt. eigenvalues --    0.18592   0.20738   0.21364   0.22808   0.22991

 Mulliken charges:
               1
     1  H    0.367665
     2  H    0.714279
     3  H    0.699244
     4  H    0.334468
     5  H    0.709192
     6  H    0.367485
     7  H    0.673213
     8  H    0.357370
     9  O   -1.074714
    10  O   -1.041499
    11  O   -1.054287
    12  O   -1.052415
 Sum of Mulliken charges =  -0.00000

 Dipole moment (field-independent basis, Debye):
    X=              0.2718    Y=              0.2727    Z=              0.2128  Tot=              0.4399

 Test job not archived.
 1\1\GINC-SE220\SP\RHF\Aug-CC-pVDZ\H8O4\OHZDE\08-Apr-2025\0\\#t hf aug-
 cc-pvdz iop(5/13=1,5/36=2,99/5=2) pseudo=read geom=check guess=(read,t
 check) scf=(maxcycle=1)\\title\\0,1\H,0,2.39559,0.375367,0.702688\H,0,
 1.40647,-0.448281,-0.152287\H,0,0.487927,1.39054,0.107095\H,0,-0.41500
 2,2.4886,-0.575433\H,0,-1.48358,0.470398,0.0623458\H,0,-2.35154,-0.431
 358,-0.815333\H,0,-0.494318,-1.42986,0.0183563\H,0,0.595007,-2.25815,0
 .784861\O,0,1.88864,0.402338,-0.147055\O,0,-0.404641,1.82182,0.135022\
 O,0,-1.93482,-0.42237,0.0722306\O,0,0.433262,-1.82144,-0.0767341\\Vers

 Normal termination of Gaussian 16 at Tue Apr  8 21:13:27 2025.
