 Gaussian 16, Revision C.01,

 ----------------------------------------------------------------------
 #t hf aug-cc-pvdz symm=none int=(grid=ultrafine) guess=(read,tcheck) s
 table=(opt,rrhf)
 ----------------------------------------------------------------------
 -----
 title
 -----
 Symbolic Z-matrix:
 Charge =  0 Multiplicity = 1

 SCF Done:  E(RHF) =  -681.672797588     A.U. after   14 cycles
 Normal termination of Gaussian 16 at Tue Apr  8 19:45:39 2025.
 Gaussian 16:  ES64L-G16RevC.01  3-Jul-2019

 ----------------------------------------------------------------------
 #t hf aug-cc-pvdz iop(5/13=1,5/36=2,99/5=2) pseudo=read geom=check gue
 ss=(read,tcheck) scf=(maxcycle=1)
 ----------------------------------------------------------------------
 -----
 title
 -----
 Structure from the checkpoint file:  "ANI1ccx_1434_conf2_mol2.chk"
 Charge =  0 Multiplicity = 1

                         Standard orientation:
 ---------------------------------------------------------------------
 Center     Atomic      Atomic             Coordinates (Angstroms)
 Number     Number       Type             X           Y           Z
 ---------------------------------------------------------------------
      1          6           0        1.926419    0.653445    0.106389
      2          6           0        0.513509    1.191750    0.034930
      3          6           0        2.051469   -0.683298   -0.563647
      4          6           0        3.481089   -1.018909   -0.944491
      5          6           0       -1.819491    0.551914    0.004980
      6          6           0       -2.680831   -0.685791    0.310772
      7          6           0       -2.326802    1.289820   -1.271741
      8          1           0       -1.552231   -1.599870   -0.969379
      9          1           0       -3.392972    1.464520   -1.127881
     10          1           0       -1.911832    2.309430   -1.326941
     11          1           0       -2.177231    0.683736   -2.149351
     12          1           0       -1.999952    1.275320    0.824094
     13          1           0       -0.097553   -0.646264    0.486473
     14          1           0        3.434789   -2.061799   -1.367721
     15          1           0        3.861109   -0.311569   -1.644941
     16          1           0        4.095159   -1.022669   -0.054240
     17          1           0        1.904559   -1.307870    1.156269
     18          1           0        1.454499   -0.627871   -1.451141
     19          1           0        2.441268    1.460521   -0.436729
     20          1           0        3.473449    0.853934    1.373249
     21          1           0        2.044218    1.288951    2.071849
     22          7           0        2.478429    0.570158    1.509639
     23          7           0       -0.438213    0.178502   -0.043146
     24          8           0        0.288595    2.358860   -0.012730
     25          8           0        1.549939   -1.662370    0.302592
     26          8           0       -3.605341   -0.735859    1.088809
     27          8           0       -2.324561   -1.809720   -0.342701
 ---------------------------------------------------------------------

 SCF Done:  E(RHF) =  -682.364670088     A.U. after    2 cycles

 The electronic state is 1-A.
 Alpha  occ. eigenvalues --  -20.60634 -20.56732 -20.54563 -20.53490 -15.54188
 Alpha  occ. eigenvalues --  -15.54140 -11.39596 -11.37666 -11.30522 -11.30301
 Alpha  occ. eigenvalues --  -11.29665 -11.24826 -11.24404  -1.54115  -1.50942
 Alpha  occ. eigenvalues --   -1.48483  -1.44488  -1.26939  -1.22070  -1.08091
 Alpha  occ. eigenvalues --   -1.05417  -0.98165  -0.92059  -0.85313  -0.82711
 Alpha  occ. eigenvalues --   -0.81461  -0.79073  -0.75286  -0.72546  -0.70927
 Alpha  occ. eigenvalues --   -0.69062  -0.67001  -0.65423  -0.64268  -0.63819
 Alpha  occ. eigenvalues --   -0.63021  -0.61279  -0.59920  -0.58853  -0.56370
 Alpha  occ. eigenvalues --   -0.56146  -0.55814  -0.54984  -0.53151  -0.51427
 Alpha  occ. eigenvalues --   -0.48933  -0.47224  -0.46785  -0.45762  -0.43549
 Alpha  occ. eigenvalues --   -0.43286
 Alpha virt. eigenvalues --    0.02307   0.02967   0.03676   0.03758   0.04634
 Alpha virt. eigenvalues --    0.04994   0.05716   0.06342   0.06411   0.07391
 Alpha virt. eigenvalues --    0.07742   0.08648   0.09103   0.10160   0.10173

 Mulliken charges:
               1
     1  C   -0.937988
     2  C    0.098026
     3  C    1.172231
     4  C   -0.370298
     5  C   -1.793914
     6  C    2.567176
     7  C   -0.101330
     8  H    0.516811
     9  H    0.137468
    10  H    0.217466
    11  H    0.139076
    12  H    0.014178
    13  H    0.342036
    14  H    0.295679
    15  H    0.183355
    16  H    0.149292
    17  H    0.432167
    18  H    0.126490
    19  H    0.072994
    20  H    0.322354
    21  H    0.228680
    22  N    0.348972
    23  N    1.355907
    24  O   -1.348251
    25  O   -1.426605
    26  O   -1.345911
    27  O   -1.396064
 Sum of Mulliken charges =  -0.00000

 Dipole moment (field-independent basis, Debye):
    X=              5.6684    Y=              1.7901    Z=             -1.9730  Tot=              6.2632

 Test job not archived.
 1\1\GINC-SE212\SP\RHF\Aug-CC-pVDZ\C7H14N2O4\OHZDE\08-Apr-2025\0\\#t hf
  aug-cc-pvdz iop(5/13=1,5/36=2,99/5=2) pseudo=read geom=check guess=(r
 ead,tcheck) scf=(maxcycle=1)\\title\\0,1\C,0,1.92642,0.653444,0.10639\
 C,0,0.513511,1.19175,0.0349306\C,0,2.05147,-0.683299,-0.563646\C,0,3.4
 8109,-1.01891,-0.94449\C,0,-1.81949,0.551914,0.00498012\C,0,-2.68083,-
 0.685791,0.310773\C,0,-2.3268,1.28982,-1.27174\H,0,-1.55223,-1.59987,-
 0.969378\H,0,-3.39297,1.46452,-1.12788\H,0,-1.91183,2.30943,-1.32694\H
 ,0,-2.17723,0.683736,-2.14935\H,0,-1.99995,1.27532,0.824095\H,0,-0.097

 Normal termination of Gaussian 16 at Tue Apr  8 19:46:13 2025.
