 Gaussian 16, Revision C.01,

 ----------------------------------------------------------------------
 #t hf aug-cc-pvdz symm=none int=(grid=ultrafine) guess=(read,tcheck) s
 table=(opt,rrhf)
 ----------------------------------------------------------------------
 -----
 title
 -----
 Symbolic Z-matrix:
 Charge =  0 Multiplicity = 1

 SCF Done:  E(RHF) =  -810.431366573     A.U. after   14 cycles
 Normal termination of Gaussian 16 at Tue Apr  8 19:49:07 2025.
 Gaussian 16:  ES64L-G16RevC.01  3-Jul-2019

 ----------------------------------------------------------------------
 #t hf aug-cc-pvdz iop(5/13=1,5/36=2,99/5=2) pseudo=read geom=check gue
 ss=(read,tcheck) scf=(maxcycle=1)
 ----------------------------------------------------------------------
 -----
 title
 -----
 Structure from the checkpoint file:  "ANI1ccx_1427_conf7_mol1.chk"
 Charge =  0 Multiplicity = 1

                         Standard orientation:
 ---------------------------------------------------------------------
 Center     Atomic      Atomic             Coordinates (Angstroms)
 Number     Number       Type             X           Y           Z
 ---------------------------------------------------------------------
      1          6           0        2.255590   -0.850799    0.568189
      2          6           0        1.287529    0.298672    0.083291
      3          6           0        3.465780   -0.920705   -0.352613
      4          6           0       -1.206991    0.665877   -0.324946
      5          6           0       -1.240872    2.230200    0.237907
      6          6           0       -2.578631   -0.008725    0.017338
      7          6           0       -2.447920   -1.522261   -0.142061
      8          1           0        0.436347    2.319611   -0.545273
      9          1           0       -4.363760   -1.561662   -0.832417
     10          1           0       -3.566369   -3.095081   -0.777069
     11          1           0       -2.814101    0.350303    1.060900
     12          1           0       -3.370101    0.249318   -0.657779
     13          1           0       -1.139541    0.777504   -1.480870
     14          1           0       -0.256214   -0.856203    0.709169
     15          1           0        3.686389    0.926675   -0.500918
     16          1           0        3.164720   -1.213758   -1.337250
     17          1           0        4.069070   -1.781788    0.015461
     18          1           0        2.599350   -0.407569    1.504230
     19          1           0        0.883407   -2.451859    0.190101
     20          1           0        1.290850   -2.320519    1.704180
     21          7           0        1.591030   -2.112239    0.779583
     22          7           0       -0.023394   -0.005265    0.257840
     23          7           0       -3.572360   -2.080391   -0.645102
     24          8           0        1.670089    1.235951   -0.606012
     25          8           0        4.284129    0.244482   -0.337205
     26          8           0       -2.247982    2.542649    0.858779
     27          8           0       -1.403790   -2.113480    0.077106
     28          8           0       -0.276684    2.977490   -0.282835
 ---------------------------------------------------------------------

 SCF Done:  E(RHF) =  -811.245206972     A.U. after    2 cycles

 The electronic state is 1-A.
 Alpha  occ. eigenvalues --  -20.59307 -20.55052 -20.55025 -20.54159 -20.53578
 Alpha  occ. eigenvalues --  -15.56584 -15.54435 -15.49778 -11.40584 -11.40161
 Alpha  occ. eigenvalues --  -11.38636 -11.33691 -11.29942 -11.28704 -11.28537
 Alpha  occ. eigenvalues --   -1.53722  -1.50767  -1.50284  -1.45445  -1.44844
 Alpha  occ. eigenvalues --   -1.27446  -1.26940  -1.20536  -1.08322  -1.02293
 Alpha  occ. eigenvalues --   -0.95925  -0.89195  -0.87770  -0.84598  -0.82356
 Alpha  occ. eigenvalues --   -0.79774  -0.75575  -0.75335  -0.72946  -0.71731
 Alpha  occ. eigenvalues --   -0.70796  -0.68320  -0.67380  -0.66438  -0.65227
 Alpha  occ. eigenvalues --   -0.64378  -0.63665  -0.61724  -0.60601  -0.60252
 Alpha  occ. eigenvalues --   -0.57435  -0.56605  -0.54594  -0.53312  -0.51584
 Alpha  occ. eigenvalues --   -0.49408  -0.48854  -0.47731  -0.46413  -0.45981
 Alpha  occ. eigenvalues --   -0.44181  -0.41772  -0.40776
 Alpha virt. eigenvalues --    0.01291   0.03537   0.03752   0.03998   0.04954
 Alpha virt. eigenvalues --    0.05147   0.05628   0.06244   0.06471   0.07031
 Alpha virt. eigenvalues --    0.08187   0.08514   0.08909   0.10670   0.11271

 Mulliken charges:
               1
     1  C   -2.179392
     2  C    0.812916
     3  C    1.114934
     4  C   -1.018298
     5  C    2.299359
     6  C   -0.600858
     7  C    0.659064
     8  H    0.726890
     9  H    0.053332
    10  H    0.153784
    11  H    0.375254
    12  H    0.070778
    13  H    0.164988
    14  H    0.357478
    15  H    0.372573
    16  H    0.103377
    17  H    0.172339
    18  H    0.241175
    19  H    0.074450
    20  H    0.217102
    21  N    1.008132
    22  N    0.922191
    23  N    0.921511
    24  O   -1.620130
    25  O   -1.188114
    26  O   -1.255532
    27  O   -1.620174
    28  O   -1.339125
 Sum of Mulliken charges =  -0.00000

 Dipole moment (field-independent basis, Debye):
    X=             -5.5190    Y=             -5.2384    Z=             -0.9179  Tot=              7.6644

 Test job not archived.
 1\1\GINC-SE177\SP\RHF\Aug-CC-pVDZ\C7H13N3O5\OHZDE\08-Apr-2025\0\\#t hf
  aug-cc-pvdz iop(5/13=1,5/36=2,99/5=2) pseudo=read geom=check guess=(r
 ead,tcheck) scf=(maxcycle=1)\\title\\0,1\C,0,2.25559,-0.8508,0.568189\
 C,0,1.28753,0.298671,0.0832915\C,0,3.46578,-0.920707,-0.352613\C,0,-1.
 20699,0.665877,-0.324946\C,0,-1.24087,2.2302,0.237907\C,0,-2.57863,-0.
 00872417,0.0173379\C,0,-2.44792,-1.52226,-0.142061\H,0,0.436349,2.3196
 1,-0.545273\H,0,-4.36376,-1.56166,-0.832417\H,0,-3.56637,-3.09508,-0.7
 77069\H,0,-2.8141,0.350304,1.0609\H,0,-3.3701,0.249319,-0.657779\H,0,-

 Normal termination of Gaussian 16 at Tue Apr  8 19:49:39 2025.
