 Gaussian 16, Revision C.01,

 ----------------------------------------------------------------------
 #t hf aug-cc-pvdz symm=none int=(grid=ultrafine) guess=(read,tcheck) s
 table=(opt,rrhf)
 ----------------------------------------------------------------------
 -----
 title
 -----
 Symbolic Z-matrix:
 Charge =  0 Multiplicity = 1

 SCF Done:  E(RHF) =  -380.203628967     A.U. after   11 cycles
 Normal termination of Gaussian 16 at Tue Apr  8 21:04:26 2025.
 Gaussian 16:  ES64L-G16RevC.01  3-Jul-2019

 ----------------------------------------------------------------------
 #t hf aug-cc-pvdz iop(5/13=1,5/36=2,99/5=2) pseudo=read geom=check gue
 ss=(read,tcheck) scf=(maxcycle=1)
 ----------------------------------------------------------------------
 -----
 title
 -----
 Structure from the checkpoint file:  "ANI1ccx_1843_conf297_mol1.chk"
 Charge =  0 Multiplicity = 1

                         Standard orientation:
 ---------------------------------------------------------------------
 Center     Atomic      Atomic             Coordinates (Angstroms)
 Number     Number       Type             X           Y           Z
 ---------------------------------------------------------------------
      1          1           0       -1.947468   -0.371866   -0.411483
      2          1           0       -3.140798   -1.193793    0.266727
      3          1           0       -0.855266    1.465559   -0.037940
      4          1           0       -2.098660    2.207238   -0.510564
      5          1           0        1.268250    2.086970    1.016170
      6          1           0        1.224781    0.836279    0.186948
      7          1           0        1.589942   -0.472177   -0.500911
      8          1           0        2.969722   -0.123972   -1.455780
      9          1           0        1.193963   -1.830810    0.973292
     10          1           0       -0.275780   -1.649321    0.431897
     11          8           0       -2.207108   -1.238082   -0.001340
     12          8           0       -1.689919    1.384168   -0.552255
     13          8           0        0.734599    1.319620    0.914156
     14          8           0        2.535812   -0.148228   -0.629114
     15          8           0        0.635531   -1.436740    0.273757
 ---------------------------------------------------------------------

 SCF Done:  E(RHF) =  -380.599449683     A.U. after    2 cycles

 The electronic state is 1-A.
 Alpha  occ. eigenvalues --  -20.56115 -20.55345 -20.54868 -20.53587 -20.53031
 Alpha  occ. eigenvalues --   -1.46139  -1.44989  -1.43666  -1.41257  -1.40746
 Alpha  occ. eigenvalues --   -0.77652  -0.73825  -0.72437  -0.69582  -0.68149
 Alpha  occ. eigenvalues --   -0.60672  -0.60120  -0.57543  -0.54240  -0.52033
 Alpha  occ. eigenvalues --   -0.51361  -0.49996  -0.49042  -0.47770  -0.47389
 Alpha virt. eigenvalues --    0.03500   0.04281   0.04873   0.05589   0.06589
 Alpha virt. eigenvalues --    0.08700   0.08990   0.10141   0.10658   0.12282
 Alpha virt. eigenvalues --    0.18031   0.18968   0.19955   0.20652   0.21222

 Mulliken charges:
               1
     1  H    0.635574
     2  H    0.399684
     3  H    0.599167
     4  H    0.321143
     5  H    0.286634
     6  H    0.650734
     7  H    0.980300
     8  H    0.362102
     9  H    0.402063
    10  H    0.572956
    11  O   -0.973051
    12  O   -0.976384
    13  O   -0.975792
    14  O   -1.134749
    15  O   -1.150382
 Sum of Mulliken charges =  -0.00000

 Dipole moment (field-independent basis, Debye):
    X=             -0.2632    Y=              1.7250    Z=              0.2204  Tot=              1.7589

 Test job not archived.
 1\1\GINC-SE087\SP\RHF\Aug-CC-pVDZ\H10O5\OHZDE\08-Apr-2025\0\\#t hf aug
 -cc-pvdz iop(5/13=1,5/36=2,99/5=2) pseudo=read geom=check guess=(read,
 tcheck) scf=(maxcycle=1)\\title\\0,1\H,0,-1.94747,-0.371864,-0.411483\
 H,0,-3.1408,-1.19379,0.266727\H,0,-0.855267,1.46556,-0.0379404\H,0,-2.
 09866,2.20724,-0.510564\H,0,1.26825,2.08697,1.01617\H,0,1.22478,0.8362
 79,0.186948\H,0,1.58994,-0.472177,-0.500911\H,0,2.96972,-0.123973,-1.4
 5578\H,0,1.19396,-1.83081,0.973292\H,0,-0.275782,-1.64932,0.431897\O,0
 ,-2.20711,-1.23808,-0.00134002\O,0,-1.68992,1.38417,-0.552255\O,0,0.73

 Normal termination of Gaussian 16 at Tue Apr  8 21:04:30 2025.
