 Gaussian 16, Revision C.01,

 ----------------------------------------------------------------------
 #t hf aug-cc-pvdz symm=none int=(grid=ultrafine) guess=(read,tcheck) s
 table=(opt,rrhf)
 ----------------------------------------------------------------------
 -----
 title
 -----
 Symbolic Z-matrix:
 Charge =  0 Multiplicity = 1

 SCF Done:  E(RHF) =  -563.426670965     A.U. after   14 cycles
 Normal termination of Gaussian 16 at Tue Apr  8 22:09:12 2025.
 Gaussian 16:  ES64L-G16RevC.01  3-Jul-2019

 ----------------------------------------------------------------------
 #t hf aug-cc-pvdz iop(5/13=1,5/36=2,99/5=2) pseudo=read geom=check gue
 ss=(read,tcheck) scf=(maxcycle=1)
 ----------------------------------------------------------------------
 -----
 title
 -----
 Structure from the checkpoint file:  "ANI1ccx_918_conf1_mol1.chk"
 Charge =  0 Multiplicity = 1

                         Standard orientation:
 ---------------------------------------------------------------------
 Center     Atomic      Atomic             Coordinates (Angstroms)
 Number     Number       Type             X           Y           Z
 ---------------------------------------------------------------------
      1          6           0        1.140680   -0.021863    0.011240
      2          6           0       -0.908111    1.239204   -0.082458
      3          6           0       -1.536220   -0.001806    0.450504
      4          6           0       -0.905386   -1.261276   -0.095219
      5          1           0        1.618325   -0.887302    1.795821
      6          1           0        1.912355    0.687734    1.673061
      7          1           0        2.946044   -0.741553   -0.508158
      8          1           0        2.297399    0.161406   -1.655529
      9          1           0       -1.469810   -0.065624    1.559261
     10          1           0       -2.578981    0.019973    0.089334
     11          7           0        1.241070   -0.023411    1.431831
     12          7           0        2.380399    0.087890   -0.653633
     13          8           0        0.451688    1.170193   -0.371240
     14          8           0       -1.458404    2.326671   -0.223272
     15          8           0       -1.507207   -2.268569   -0.274618
     16          8           0        0.411250   -1.147238   -0.394064
 ---------------------------------------------------------------------

 SCF Done:  E(RHF) =  -563.984909452     A.U. after    2 cycles

 The electronic state is 1-A.
 Alpha  occ. eigenvalues --  -20.62146 -20.61157 -20.56209 -20.55633 -15.53493
 Alpha  occ. eigenvalues --  -15.53009 -11.45444 -11.42284 -11.42213 -11.29674
 Alpha  occ. eigenvalues --   -1.60858  -1.54707  -1.49822  -1.45783  -1.27307
 Alpha  occ. eigenvalues --   -1.20355  -1.09557  -0.95620  -0.89784  -0.80846
 Alpha  occ. eigenvalues --   -0.80206  -0.77470  -0.74185  -0.72527  -0.70150
 Alpha  occ. eigenvalues --   -0.69008  -0.67017  -0.65171  -0.62614  -0.60136
 Alpha  occ. eigenvalues --   -0.56627  -0.55946  -0.53021  -0.51284  -0.49429
 Alpha  occ. eigenvalues --   -0.48416  -0.47181  -0.44936
 Alpha virt. eigenvalues --    0.02112   0.03903   0.04737   0.05239   0.05617
 Alpha virt. eigenvalues --    0.05905   0.08528   0.09344   0.09963   0.11023
 Alpha virt. eigenvalues --    0.11457   0.12352   0.13250   0.13739   0.14349

 Mulliken charges:
               1
     1  C   -0.195960
     2  C    1.843222
     3  C   -0.611508
     4  C    1.769324
     5  H    0.326769
     6  H    0.371055
     7  H    0.241837
     8  H    0.217268
     9  H    0.508181
    10  H    0.210900
    11  N    0.350830
    12  N    0.762096
    13  O   -1.530469
    14  O   -1.370978
    15  O   -1.366282
    16  O   -1.526283
 Sum of Mulliken charges =  -0.00000

 Dipole moment (field-independent basis, Debye):
    X=              3.5257    Y=             -1.8287    Z=              1.6709  Tot=              4.3089

 Test job not archived.
 1\1\GINC-SE186\SP\RHF\Aug-CC-pVDZ\C4H6N2O4\OHZDE\08-Apr-2025\0\\#t hf
 aug-cc-pvdz iop(5/13=1,5/36=2,99/5=2) pseudo=read geom=check guess=(re
 ad,tcheck) scf=(maxcycle=1)\\title\\0,1\C,0,1.14068,-0.0218694,0.01123
 9\C,0,-0.908103,1.23921,-0.0824582\C,0,-1.53622,-0.00179656,0.450503\C
 ,0,-0.905393,-1.26127,-0.0952191\H,0,1.61832,-0.887312,1.79582\H,0,1.9
 1236,0.687723,1.67306\H,0,2.94604,-0.741571,-0.508159\H,0,2.2974,0.161
 392,-1.65553\H,0,-1.46981,-0.0656146,1.55926\H,0,-2.57898,0.0199883,0.
 0893339\N,0,1.24107,-0.0234182,1.43183\N,0,2.3804,0.0878758,-0.653634\

 Normal termination of Gaussian 16 at Tue Apr  8 22:09:21 2025.
