 Gaussian 16, Revision C.01,

 ----------------------------------------------------------------------
 #t hf aug-cc-pvdz symm=none int=(grid=ultrafine) guess=(read,tcheck) s
 table=(opt,rrhf)
 ----------------------------------------------------------------------
 -----
 title
 -----
 Symbolic Z-matrix:
 Charge =  0 Multiplicity = 1

 SCF Done:  E(RHF) =  -908.379440737     A.U. after   14 cycles
 Normal termination of Gaussian 16 at Tue Apr  8 21:08:29 2025.
 Gaussian 16:  ES64L-G16RevC.01  3-Jul-2019

 ----------------------------------------------------------------------
 #t hf aug-cc-pvdz iop(5/13=1,5/36=2,99/5=2) pseudo=read geom=check gue
 ss=(read,tcheck) scf=(maxcycle=1)
 ----------------------------------------------------------------------
 -----
 title
 -----
 Structure from the checkpoint file:  "ANI1ccx_1761_conf6_mol1.chk"
 Charge =  0 Multiplicity = 1

                         Standard orientation:
 ---------------------------------------------------------------------
 Center     Atomic      Atomic             Coordinates (Angstroms)
 Number     Number       Type             X           Y           Z
 ---------------------------------------------------------------------
      1          6           0        2.241960   -0.088017   -0.683709
      2          6           0       -2.946981    0.885947    0.894531
      3          6           0       -2.071090   -0.147621    1.601519
      4          6           0       -1.872679   -1.531011   -0.552528
      5          6           0       -2.208122    1.950488    0.083025
      6          6           0        3.976140   -0.706224    1.075419
      7          6           0        3.198409    0.387196    0.377457
      8          6           0        1.129440   -0.996044   -0.121644
      9          6           0       -1.166040   -1.002001    0.711023
     10          1           0       -0.914405   -1.962801    1.206759
     11          1           0       -3.136439   -2.684042   -1.130981
     12          1           0       -0.601610    2.920139    0.029378
     13          1           0       -3.673181    0.401477    0.201939
     14          1           0       -3.570351    1.401808    1.669239
     15          1           0       -2.760370   -0.829138    2.149849
     16          1           0       -1.399121    0.304084    2.355299
     17          1           0        0.052427    0.534760   -0.030141
     18          1           0        4.738000   -0.306948    1.749999
     19          1           0        4.537300   -1.305567    0.323143
     20          1           0        3.319531   -1.407948    1.598979
     21          1           0        4.842549    0.812927   -0.616027
     22          1           0        2.670889    0.975388    1.141259
     23          1           0        2.791350   -0.720962   -1.414111
     24          1           0        2.285878    1.721041   -1.648611
     25          1           0        1.084279    0.714841   -2.183191
     26          7           0        1.564349    1.055131   -1.343761
     27          7           0        0.029061   -0.376781    0.331641
     28          8           0        1.247631   -2.242709   -0.005355
     29          8           0        4.134029    1.325263   -0.176990
     30          8           0       -1.746640   -1.181871   -1.667201
     31          8           0       -2.677962    2.596158   -0.821423
     32          8           0       -1.004212    2.231959    0.585771
     33          8           0       -2.841199   -2.458022   -0.243371
 ---------------------------------------------------------------------

 SCF Done:  E(RHF) =  -909.293640268     A.U. after    2 cycles

 The electronic state is 1-A.
 Alpha  occ. eigenvalues --  -20.61197 -20.60000 -20.56470 -20.55398 -20.54338
 Alpha  occ. eigenvalues --  -20.50934 -15.52325 -15.51410 -11.40419 -11.39766
 Alpha  occ. eigenvalues --  -11.36128 -11.30762 -11.30674 -11.29423 -11.27973
 Alpha  occ. eigenvalues --  -11.27439 -11.23833  -1.56707  -1.56552  -1.46768
 Alpha  occ. eigenvalues --   -1.46092  -1.45877  -1.43793  -1.27829  -1.20373
 Alpha  occ. eigenvalues --   -1.11231  -1.05995  -1.02624  -0.95368  -0.91339
 Alpha  occ. eigenvalues --   -0.87284  -0.84337  -0.82595  -0.81604  -0.74641
 Alpha  occ. eigenvalues --   -0.72474  -0.72087  -0.71744  -0.70368  -0.69453
 Alpha  occ. eigenvalues --   -0.67991  -0.67635  -0.66901  -0.65394  -0.64549
 Alpha  occ. eigenvalues --   -0.62975  -0.61929  -0.61158  -0.60301  -0.59456
 Alpha  occ. eigenvalues --   -0.58053  -0.56906  -0.55164  -0.54562  -0.53953
 Alpha  occ. eigenvalues --   -0.53297  -0.52206  -0.50211  -0.49099  -0.48117
 Alpha  occ. eigenvalues --   -0.47482  -0.46196  -0.45053  -0.44762  -0.42231
 Alpha  occ. eigenvalues --   -0.41378
 Alpha virt. eigenvalues --    0.02977   0.03208   0.03641   0.03745   0.04083
 Alpha virt. eigenvalues --    0.04357   0.05199   0.05501   0.06034   0.07171
 Alpha virt. eigenvalues --    0.07532   0.07858   0.08402   0.09406   0.10114

 Mulliken charges:
               1
     1  C   -1.036242
     2  C   -0.824289
     3  C   -0.021775
     4  C    3.247122
     5  C    2.523620
     6  C   -0.317193
     7  C    1.045973
     8  C    0.917216
     9  C   -2.937575
    10  H    0.144566
    11  H    0.321583
    12  H    0.466715
    13  H    0.297383
    14  H    0.285926
    15  H    0.174256
    16  H    0.213566
    17  H    0.204338
    18  H    0.144493
    19  H    0.178498
    20  H    0.217970
    21  H    0.352532
    22  H    0.130553
    23  H    0.153416
    24  H    0.200371
    25  H    0.318725
    26  N    0.253921
    27  N    1.978930
    28  O   -1.575918
    29  O   -1.491881
    30  O   -1.336812
    31  O   -1.371852
    32  O   -1.499184
    33  O   -1.358952
 Sum of Mulliken charges =  -0.00000

 Dipole moment (field-independent basis, Debye):
    X=              1.2142    Y=              0.5314    Z=              1.5186  Tot=              2.0157

 Test job not archived.
 1\1\GINC-SE092\SP\RHF\Aug-CC-pVDZ\C9H16N2O6\OHZDE\08-Apr-2025\0\\#t hf
  aug-cc-pvdz iop(5/13=1,5/36=2,99/5=2) pseudo=read geom=check guess=(r
 ead,tcheck) scf=(maxcycle=1)\\title\\0,1\C,0,2.24196,-0.0880187,-0.683
 708\C,0,-2.94698,0.885949,0.894532\C,0,-2.07109,-0.14762,1.60152\C,0,-
 1.87268,-1.53101,-0.552527\C,0,-2.20812,1.95049,0.083026\C,0,3.97614,-
 0.706226,1.07542\C,0,3.19841,0.387194,0.377458\C,0,1.12944,-0.996045,-
 0.121643\C,0,-1.16604,-1.002,0.711024\H,0,-0.914406,-1.9628,1.20676\H,
 0,-3.13644,-2.68404,-1.13098\H,0,-0.601608,2.92014,0.029379\H,0,-3.673

 Normal termination of Gaussian 16 at Tue Apr  8 21:09:20 2025.
