 Gaussian 16, Revision C.01,

 ----------------------------------------------------------------------
 #t hf aug-cc-pvdz symm=none int=(grid=ultrafine) guess=(read,tcheck) s
 table=(opt,rrhf)
 ----------------------------------------------------------------------
 -----
 title
 -----
 Symbolic Z-matrix:
 Charge =  0 Multiplicity = 1

 SCF Done:  E(RHF) =  -794.387760072     A.U. after   14 cycles
 Normal termination of Gaussian 16 at Tue Apr  8 20:15:11 2025.
 Gaussian 16:  ES64L-G16RevC.01  3-Jul-2019

 ----------------------------------------------------------------------
 #t hf aug-cc-pvdz iop(5/13=1,5/36=2,99/5=2) pseudo=read geom=check gue
 ss=(read,tcheck) scf=(maxcycle=1)
 ----------------------------------------------------------------------
 -----
 title
 -----
 Structure from the checkpoint file:  "ANI1ccx_1592_conf24_mol1.chk"
 Charge =  0 Multiplicity = 1

                         Standard orientation:
 ---------------------------------------------------------------------
 Center     Atomic      Atomic             Coordinates (Angstroms)
 Number     Number       Type             X           Y           Z
 ---------------------------------------------------------------------
      1          6           0       -0.792020    0.589301    0.342646
      2          6           0        0.364843    1.462919   -0.028157
      3          6           0       -2.144598    1.248590    0.151330
      4          6           0       -3.411639    0.341511    0.455015
      5          6           0       -3.343579   -0.746422   -0.493232
      6          6           0        2.174681   -0.362908    0.591471
      7          6           0        3.488751   -0.625254   -0.284434
      8          6           0        1.351481   -1.564301    0.516499
      9          1           0        2.691361    0.736514   -1.290970
     10          1           0        0.313263   -1.287351    0.912870
     11          1           0        1.302250   -2.112431   -0.399659
     12          1           0        1.871500   -2.196591    1.261610
     13          1           0        2.561461   -0.258172    1.587370
     14          1           0        2.251502    1.805828    0.349414
     15          1           0       -3.008230   -2.532400   -0.778788
     16          1           0       -4.424989    0.823202    0.352650
     17          1           0       -3.353009   -0.104157    1.425620
     18          1           0       -2.053248    2.087180    0.849386
     19          1           0       -2.269718    1.593270   -0.824121
     20          1           0       -0.772033   -0.277872   -0.347712
     21          1           0       -1.390089   -0.216891    2.253920
     22          1           0       -0.072406    0.684145    2.319050
     23          7           0       -0.648956    0.126167    1.722890
     24          7           0        1.668221    0.958312    0.113963
     25          8           0        0.377208    2.614709   -0.405827
     26          8           0       -3.268899   -0.532198   -1.707540
     27          8           0       -3.355330   -1.969130   -0.034605
     28          8           0        4.420201   -1.291132    0.028883
     29          8           0        3.463071    0.128219   -1.385340
 ---------------------------------------------------------------------

 SCF Done:  E(RHF) =  -795.187098478     A.U. after    2 cycles

 The electronic state is 1-A.
 Alpha  occ. eigenvalues --  -20.63085 -20.58220 -20.55054 -20.54121 -20.53233
 Alpha  occ. eigenvalues --  -15.55541 -15.52212 -11.40633 -11.39709 -11.38750
 Alpha  occ. eigenvalues --  -11.32126 -11.31317 -11.28037 -11.26434 -11.24099
 Alpha  occ. eigenvalues --   -1.58379  -1.54171  -1.50453  -1.45698  -1.45101
 Alpha  occ. eigenvalues --   -1.26318  -1.23197  -1.10845  -1.08145  -1.03551
 Alpha  occ. eigenvalues --   -0.94238  -0.90064  -0.83834  -0.82300  -0.80469
 Alpha  occ. eigenvalues --   -0.76685  -0.75580  -0.74277  -0.73799  -0.72557
 Alpha  occ. eigenvalues --   -0.71666  -0.68719  -0.68291  -0.66160  -0.65037
 Alpha  occ. eigenvalues --   -0.63737  -0.62907  -0.60267  -0.59860  -0.58619
 Alpha  occ. eigenvalues --   -0.57659  -0.56671  -0.55952  -0.54499  -0.53256
 Alpha  occ. eigenvalues --   -0.51359  -0.47742  -0.47236  -0.46741  -0.46480
 Alpha  occ. eigenvalues --   -0.45674  -0.44829  -0.41272
 Alpha virt. eigenvalues --    0.01887   0.02697   0.02956   0.03716   0.04593
 Alpha virt. eigenvalues --    0.04796   0.05635   0.05725   0.06161   0.07586
 Alpha virt. eigenvalues --    0.08229   0.08538   0.08985   0.09533   0.10111

 Mulliken charges:
               1
     1  C   -1.248750
     2  C    0.632828
     3  C    0.259261
     4  C   -0.620821
     5  C    2.664235
     6  C   -1.589326
     7  C    2.612854
     8  C   -0.168581
     9  H    0.623844
    10  H    0.427704
    11  H    0.115376
    12  H    0.238475
    13  H   -0.047698
    14  H    0.308675
    15  H    0.314058
    16  H    0.296638
    17  H    0.084800
    18  H    0.221274
    19  H    0.041604
    20  H    0.187486
    21  H    0.047212
    22  H    0.328149
    23  N    0.163890
    24  N    0.974924
    25  O   -1.439988
    26  O   -1.403676
    27  O   -1.314217
    28  O   -1.313990
    29  O   -1.396239
 Sum of Mulliken charges =  -0.00000

 Dipole moment (field-independent basis, Debye):
    X=             -4.9638    Y=             -0.2382    Z=              4.8445  Tot=              6.9401

 Test job not archived.
 1\1\GINC-SE247\SP\RHF\Aug-CC-pVDZ\C8H14N2O5\OHZDE\08-Apr-2025\0\\#t hf
  aug-cc-pvdz iop(5/13=1,5/36=2,99/5=2) pseudo=read geom=check guess=(r
 ead,tcheck) scf=(maxcycle=1)\\title\\0,1\C,0,-0.792021,0.589302,0.3426
 46\C,0,0.364841,1.46292,-0.0281564\C,0,-2.1446,1.24859,0.15133\C,0,-3.
 41164,0.341511,0.455015\C,0,-3.34358,-0.746422,-0.493232\C,0,2.17468,-
 0.362906,0.591471\C,0,3.48875,-0.625252,-0.284434\C,0,1.35148,-1.5643,
 0.516499\H,0,2.69136,0.736516,-1.29097\H,0,0.313262,-1.28735,0.91287\H
 ,0,1.30225,-2.11243,-0.399659\H,0,1.8715,-2.19659,1.26161\H,0,2.56146,

 Normal termination of Gaussian 16 at Tue Apr  8 20:15:45 2025.
