 Gaussian 16, Revision C.01,

 ----------------------------------------------------------------------
 #t hf aug-cc-pvdz symm=none int=(grid=ultrafine) guess=(read,tcheck) s
 table=(opt,rrhf)
 ----------------------------------------------------------------------
 -----
 title
 -----
 Symbolic Z-matrix:
 Charge =  0 Multiplicity = 1

 SCF Done:  E(RHF) =  -404.736201262     A.U. after   15 cycles
 Normal termination of Gaussian 16 at Tue Apr  8 21:45:48 2025.
 Gaussian 16:  ES64L-G16RevC.01  3-Jul-2019

 ----------------------------------------------------------------------
 #t hf aug-cc-pvdz iop(5/13=1,5/36=2,99/5=2) pseudo=read geom=check gue
 ss=(read,tcheck) scf=(maxcycle=1)
 ----------------------------------------------------------------------
 -----
 title
 -----
 Structure from the checkpoint file:  "ANI1ccx_523_conf5_mol1.chk"
 Charge =  0 Multiplicity = 1

                         Standard orientation:
 ---------------------------------------------------------------------
 Center     Atomic      Atomic             Coordinates (Angstroms)
 Number     Number       Type             X           Y           Z
 ---------------------------------------------------------------------
      1          6           0        1.217091   -0.289185   -0.097822
      2          6           0       -1.131359   -0.373193    0.061174
      3          1           0        2.655381   -1.639819    0.487407
      4          1           0        3.095681   -0.015435    0.426359
      5          1           0       -2.387889   -1.915748   -0.072522
      6          1           0       -3.025299   -0.245738   -0.150947
      7          7           0        2.490421   -0.726254    0.014799
      8          7           0        1.028381    1.066971   -0.054780
      9          7           0       -0.169553    1.695561    0.012910
     10          7           0       -1.202179    1.028002    0.037319
     11          7           0       -2.347149   -0.905610    0.094600
     12          7           0        0.078327   -1.045669   -0.172050
 ---------------------------------------------------------------------

 SCF Done:  E(RHF) =  -405.136505214     A.U. after    2 cycles

 The electronic state is 1-A.
 Alpha  occ. eigenvalues --  -15.61350 -15.56032 -15.55137 -15.54029 -15.52411
 Alpha  occ. eigenvalues --  -15.50700 -11.39751 -11.38641  -1.42698  -1.30484
 Alpha  occ. eigenvalues --   -1.29441  -1.19979  -1.16955  -0.99767  -0.94412
 Alpha  occ. eigenvalues --   -0.85469  -0.81498  -0.76089  -0.74283  -0.69709
 Alpha  occ. eigenvalues --   -0.68088  -0.66577  -0.59317  -0.57379  -0.56596
 Alpha  occ. eigenvalues --   -0.47563  -0.45971  -0.43387  -0.40853
 Alpha virt. eigenvalues --    0.02362   0.03497   0.04431   0.05274   0.06224
 Alpha virt. eigenvalues --    0.08691   0.09359   0.10380   0.11372   0.12153
 Alpha virt. eigenvalues --    0.12632   0.13642   0.14097   0.15801   0.16278

 Mulliken charges:
               1
     1  C   -0.948895
     2  C   -0.936132
     3  H    0.178565
     4  H    0.253183
     5  H    0.176536
     6  H    0.192339
     7  N    0.586771
     8  N    0.160070
     9  N   -0.498259
    10  N   -0.068996
    11  N    0.584370
    12  N    0.320449
 Sum of Mulliken charges =  -0.00000

 Dipole moment (field-independent basis, Debye):
    X=             -0.7195    Y=             -4.5833    Z=              1.0748  Tot=              4.7623

 Test job not archived.
 1\1\GINC-SE090\SP\RHF\Aug-CC-pVDZ\C2H4N6\OHZDE\08-Apr-2025\0\\#t hf au
 g-cc-pvdz iop(5/13=1,5/36=2,99/5=2) pseudo=read geom=check guess=(read
 ,tcheck) scf=(maxcycle=1)\\title\\0,1\C,0,1.21709,-0.289186,-0.0978221
 \C,0,-1.13136,-0.373195,0.0611739\H,0,2.65538,-1.63982,0.487407\H,0,3.
 09568,-0.0154356,0.426359\H,0,-2.38789,-1.91575,-0.0725223\H,0,-3.0253
 ,-0.24574,-0.150947\N,0,2.49042,-0.726255,0.0147986\N,0,1.02838,1.0669
 7,-0.0547797\N,0,-0.169555,1.69556,0.01291\N,0,-1.20218,1.028,0.037319
 3\N,0,-2.34715,-0.905612,0.0946001\N,0,0.0783257,-1.04567,-0.17205\\Ve

 Normal termination of Gaussian 16 at Tue Apr  8 21:45:53 2025.
