 Gaussian 16, Revision C.01,

 ----------------------------------------------------------------------
 #t hf aug-cc-pvdz symm=none int=(grid=ultrafine) guess=(read,tcheck) s
 table=(opt,rrhf)
 ----------------------------------------------------------------------
 -----
 title
 -----
 Symbolic Z-matrix:
 Charge =  0 Multiplicity = 1

 SCF Done:  E(RHF) =  -513.862266383     A.U. after   14 cycles
 Normal termination of Gaussian 16 at Tue Apr  8 19:24:40 2025.
 Gaussian 16:  ES64L-G16RevC.01  3-Jul-2019

 ----------------------------------------------------------------------
 #t hf aug-cc-pvdz iop(5/13=1,5/36=2,99/5=2) pseudo=read geom=check gue
 ss=(read,tcheck) scf=(maxcycle=1)
 ----------------------------------------------------------------------
 -----
 title
 -----
 Structure from the checkpoint file:  "ANI1ccx_1231_conf1_mol1.chk"
 Charge =  0 Multiplicity = 1

                         Standard orientation:
 ---------------------------------------------------------------------
 Center     Atomic      Atomic             Coordinates (Angstroms)
 Number     Number       Type             X           Y           Z
 ---------------------------------------------------------------------
      1          6           0        0.814446    0.467851    0.417465
      2          6           0        0.029058    1.068770   -0.845099
      3          6           0       -1.386210    1.423170   -0.527523
      4          6           0       -2.424400    0.278021   -0.574911
      5          6           0       -2.402530   -0.537897    0.743944
      6          6           0        1.759200   -0.639456   -0.123762
      7          1           0        0.197595   -1.591860   -0.337179
      8          1           0       -1.546300   -2.320380    0.999085
      9          1           0       -2.104150    0.068765    1.598340
     10          1           0       -3.352370   -1.089300    0.895250
     11          1           0       -2.265900   -0.398046   -1.408570
     12          1           0       -3.380700    0.815351   -0.685377
     13          1           0       -1.420640    1.927820    0.452649
     14          1           0        0.519071    1.962210   -1.292160
     15          1           0        0.011992    0.285324   -1.572530
     16          1           0        0.092495   -0.002310    1.092050
     17          1           0        2.431800    1.576120    0.588383
     18          1           0        1.113970    2.397840    1.100390
     19          1           0       -1.691910    2.307000   -1.170660
     20          7           0        1.595450    1.500660    1.137560
     21          8           0        1.153040   -1.682120   -0.661130
     22          8           0       -1.352510   -1.469470    0.512223
     23          8           0        2.935660   -0.449150   -0.196503
 ---------------------------------------------------------------------

 SCF Done:  E(RHF) =  -514.392605853     A.U. after    2 cycles

 The electronic state is 1-A.
 Alpha  occ. eigenvalues --  -20.59283 -20.58264 -20.51386 -15.48011 -11.37040
 Alpha  occ. eigenvalues --  -11.31853 -11.27644 -11.25446 -11.24801 -11.24098
 Alpha  occ. eigenvalues --   -1.53424  -1.49066  -1.44209  -1.18154  -1.09577
 Alpha  occ. eigenvalues --   -1.01488  -0.94336  -0.87547  -0.81607  -0.80124
 Alpha  occ. eigenvalues --   -0.74383  -0.73230  -0.68894  -0.66829  -0.65141
 Alpha  occ. eigenvalues --   -0.64198  -0.63179  -0.62633  -0.58849  -0.57979
 Alpha  occ. eigenvalues --   -0.57245  -0.54722  -0.53266  -0.51095  -0.50129
 Alpha  occ. eigenvalues --   -0.48085  -0.47582  -0.45432  -0.42302  -0.41063
 Alpha virt. eigenvalues --    0.01911   0.02666   0.03283   0.03830   0.05524
 Alpha virt. eigenvalues --    0.05744   0.05950   0.06669   0.07353   0.08760
 Alpha virt. eigenvalues --    0.09046   0.09474   0.09910   0.11905   0.12236

 Mulliken charges:
               1
     1  C   -1.630407
     2  C   -0.112834
     3  C   -0.175804
     4  C   -0.317510
     5  C    0.648334
     6  C    2.474598
     7  H    0.734097
     8  H    0.390474
     9  H    0.147455
    10  H    0.025942
    11  H    0.092435
    12  H    0.172966
    13  H    0.166155
    14  H    0.124626
    15  H    0.044887
    16  H    0.228953
    17  H    0.298713
    18  H    0.152068
    19  H    0.052858
    20  N    0.566945
    21  O   -1.396803
    22  O   -1.306039
    23  O   -1.382109
 Sum of Mulliken charges =  -0.00000

 Dipole moment (field-independent basis, Debye):
    X=             -7.3147    Y=              0.5676    Z=              0.4897  Tot=              7.3531

 Test job not archived.
 1\1\GINC-SE163\SP\RHF\Aug-CC-pVDZ\C6H13N1O3\OHZDE\08-Apr-2025\0\\#t hf
  aug-cc-pvdz iop(5/13=1,5/36=2,99/5=2) pseudo=read geom=check guess=(r
 ead,tcheck) scf=(maxcycle=1)\\title\\0,1\C,0,0.814446,0.467851,0.41746
 5\C,0,0.0290577,1.06877,-0.845099\C,0,-1.38621,1.42317,-0.527523\C,0,-
 2.4244,0.278021,-0.574911\C,0,-2.40253,-0.537897,0.743944\C,0,1.7592,-
 0.639456,-0.123762\H,0,0.197595,-1.59186,-0.337179\H,0,-1.5463,-2.3203
 8,0.999085\H,0,-2.10415,0.0687649,1.59834\H,0,-3.35237,-1.0893,0.89525
 \H,0,-2.2659,-0.398046,-1.40857\H,0,-3.3807,0.81535,-0.685377\H,0,-1.4

 Normal termination of Gaussian 16 at Tue Apr  8 19:24:55 2025.
