 Gaussian 16, Revision C.01,

 ----------------------------------------------------------------------
 #t hf aug-cc-pvdz symm=none int=(grid=ultrafine) guess=(read,tcheck) s
 table=(opt,rrhf)
 ----------------------------------------------------------------------
 -----
 title
 -----
 Symbolic Z-matrix:
 Charge =  0 Multiplicity = 1

 SCF Done:  E(RHF) =  -424.679327977     A.U. after   15 cycles
 Normal termination of Gaussian 16 at Tue Apr  8 21:44:47 2025.
 Gaussian 16:  ES64L-G16RevC.01  3-Jul-2019

 ----------------------------------------------------------------------
 #t hf aug-cc-pvdz iop(5/13=1,5/36=2,99/5=2) pseudo=read geom=check gue
 ss=(read,tcheck) scf=(maxcycle=1)
 ----------------------------------------------------------------------
 -----
 title
 -----
 Structure from the checkpoint file:  "ANI1ccx_507_conf6_mol1.chk"
 Charge =  0 Multiplicity = 1

                         Standard orientation:
 ---------------------------------------------------------------------
 Center     Atomic      Atomic             Coordinates (Angstroms)
 Number     Number       Type             X           Y           Z
 ---------------------------------------------------------------------
      1          6           0       -1.228298   -0.467369   -0.086680
      2          6           0       -0.278418    1.543120   -0.011373
      3          1           0       -2.261787   -2.017311    0.592522
      4          1           0       -3.136687   -0.653856    0.728686
      5          1           0        1.432101    2.207571    0.468165
      6          7           0       -2.441857   -1.155321    0.188563
      7          7           0       -1.335758    0.909476    0.019133
      8          7           0        0.566473    2.402161    0.006886
      9          7           0        2.441222   -0.467543   -0.195149
     10          7           0        2.933793   -1.257828    0.385968
     11          8           0       -0.267555   -1.125940   -0.504858
 ---------------------------------------------------------------------

 SCF Done:  E(RHF) =  -425.097402493     A.U. after    2 cycles

 The electronic state is 1-A.
 Alpha  occ. eigenvalues --  -20.52818 -15.61428 -15.61272 -15.55403 -15.54408
 Alpha  occ. eigenvalues --  -15.52934 -11.41913 -11.41871  -1.48794  -1.47404
 Alpha  occ. eigenvalues --   -1.33543  -1.27269  -1.21775  -0.94872  -0.84252
 Alpha  occ. eigenvalues --   -0.81446  -0.77844  -0.73067  -0.68289  -0.68204
 Alpha  occ. eigenvalues --   -0.67743  -0.66472  -0.66322  -0.62476  -0.59171
 Alpha  occ. eigenvalues --   -0.53793  -0.47801  -0.45692  -0.44657
 Alpha virt. eigenvalues --    0.02803   0.04194   0.05813   0.06870   0.08912
 Alpha virt. eigenvalues --    0.09611   0.09666   0.10183   0.10708   0.11163
 Alpha virt. eigenvalues --    0.11382   0.12526   0.13263   0.13940   0.14658

 Mulliken charges:
               1
     1  C    0.280902
     2  C   -1.394648
     3  H    0.160884
     4  H    0.075038
     5  H    0.231255
     6  N    0.521246
     7  N    0.507691
     8  N    0.860713
     9  N    0.095191
    10  N   -0.155233
    11  O   -1.183038
 Sum of Mulliken charges =  -0.00000

 Dipole moment (field-independent basis, Debye):
    X=             -0.2007    Y=              0.5872    Z=              2.8469  Tot=              2.9137

 Test job not archived.
 1\1\GINC-SE041\SP\RHF\Aug-CC-pVDZ\C2H3N5O1\OHZDE\08-Apr-2025\0\\#t hf
 aug-cc-pvdz iop(5/13=1,5/36=2,99/5=2) pseudo=read geom=check guess=(re
 ad,tcheck) scf=(maxcycle=1)\\title\\0,1\C,0,-1.2283,-0.467369,-0.08668
 02\C,0,-0.278419,1.54312,-0.0113727\H,0,-2.26179,-2.01731,0.592522\H,0
 ,-3.13669,-0.653854,0.728686\H,0,1.4321,2.20757,0.468165\N,0,-2.44186,
 -1.15532,0.188563\N,0,-1.33576,0.909477,0.0191332\N,0,0.566472,2.40216
 ,0.00688556\N,0,2.44122,-0.467545,-0.195149\N,0,2.93379,-1.25783,0.385
 968\O,0,-0.267558,-1.12594,-0.504858\\Version=ES64L-G16RevC.01\State=1

 Normal termination of Gaussian 16 at Tue Apr  8 21:44:52 2025.
