 Gaussian 16, Revision C.01,

 ----------------------------------------------------------------------
 #t hf aug-cc-pvdz symm=none int=(grid=ultrafine) guess=(read,tcheck) s
 table=(opt,rrhf)
 ----------------------------------------------------------------------
 -----
 title
 -----
 Symbolic Z-matrix:
 Charge =  0 Multiplicity = 1

 SCF Done:  E(RHF) =  -339.587230005     A.U. after   14 cycles
 Normal termination of Gaussian 16 at Tue Apr  8 21:36:41 2025.
 Gaussian 16:  ES64L-G16RevC.01  3-Jul-2019

 ----------------------------------------------------------------------
 #t hf aug-cc-pvdz iop(5/13=1,5/36=2,99/5=2) pseudo=read geom=check gue
 ss=(read,tcheck) scf=(maxcycle=1)
 ----------------------------------------------------------------------
 -----
 title
 -----
 Structure from the checkpoint file:  "ANI1ccx_409_conf5_mol1.chk"
 Charge =  0 Multiplicity = 1

                         Standard orientation:
 ---------------------------------------------------------------------
 Center     Atomic      Atomic             Coordinates (Angstroms)
 Number     Number       Type             X           Y           Z
 ---------------------------------------------------------------------
      1          6           0        1.304859    0.020212    0.295807
      2          1           0       -2.227400   -1.343780   -0.063279
      3          1           0       -1.520361    0.800743    0.665140
      4          1           0        2.330840   -1.602569    0.124106
      5          1           0        0.801461   -0.557529    1.109000
      6          8           0       -2.675000   -0.491964    0.025188
      7          8           0       -1.569281    0.383320   -0.200841
      8          8           0        2.298030   -0.705254   -0.229690
      9          8           0        1.044539    1.136631   -0.045883
 ---------------------------------------------------------------------

 SCF Done:  E(RHF) =  -339.918773848     A.U. after    2 cycles

 The electronic state is 1-A.
 Alpha  occ. eigenvalues --  -20.61987 -20.61698 -20.61642 -20.55276 -11.41220
 Alpha  occ. eigenvalues --   -1.59645  -1.56221  -1.47295  -1.27486  -0.88478
 Alpha  occ. eigenvalues --   -0.80081  -0.71302  -0.70875  -0.67797  -0.63869
 Alpha  occ. eigenvalues --   -0.60648  -0.59300  -0.51202  -0.48402  -0.46705
 Alpha  occ. eigenvalues --   -0.46087
 Alpha virt. eigenvalues --    0.01751   0.04272   0.04728   0.06912   0.09550
 Alpha virt. eigenvalues --    0.11139   0.13044   0.14247   0.15077   0.17408
 Alpha virt. eigenvalues --    0.18675   0.20007   0.20797   0.21235   0.22270

 Mulliken charges:
               1
     1  C    1.454847
     2  H    0.439621
     3  H    0.468940
     4  H    0.398537
     5  H    0.124690
     6  O   -0.506925
     7  O   -0.385904
     8  O   -1.000226
     9  O   -0.993581
 Sum of Mulliken charges =   0.00000

 Dipole moment (field-independent basis, Debye):
    X=              1.0574    Y=             -4.4388    Z=              2.9866  Tot=              5.4535

 Test job not archived.
 1\1\GINC-SE453\SP\RHF\Aug-CC-pVDZ\C1H4O4\OHZDE\08-Apr-2025\0\\#t hf au
 g-cc-pvdz iop(5/13=1,5/36=2,99/5=2) pseudo=read geom=check guess=(read
 ,tcheck) scf=(maxcycle=1)\\title\\0,1\C,0,1.30486,0.0202109,0.295807\H
 ,0,-2.2274,-1.34378,-0.0632789\H,0,-1.52036,0.800743,0.66514\H,0,2.330
 84,-1.60257,0.124106\H,0,0.801461,-0.55753,1.109\O,0,-2.675,-0.491964,
 0.025188\O,0,-1.56928,0.38332,-0.200841\O,0,2.29803,-0.705255,-0.22969
 \O,0,1.04454,1.13663,-0.0458833\\Version=ES64L-G16RevC.01\State=1-A\HF
 =-339.9187738\RMSD=7.318e-03\Dipole=0.4160319,-1.7463557,1.1750042\Qua

 Normal termination of Gaussian 16 at Tue Apr  8 21:36:43 2025.
