 Gaussian 16, Revision C.01,

 ----------------------------------------------------------------------
 #t hf aug-cc-pvdz symm=none int=(grid=ultrafine) guess=(read,tcheck) s
 table=(opt,rrhf)
 ----------------------------------------------------------------------
 -----
 title
 -----
 Symbolic Z-matrix:
 Charge =  0 Multiplicity = 1

 SCF Done:  E(RHF) =  -557.491308612     A.U. after   16 cycles
 Normal termination of Gaussian 16 at Tue Apr  8 19:29:05 2025.
 Gaussian 16:  ES64L-G16RevC.01  3-Jul-2019

 ----------------------------------------------------------------------
 #t hf aug-cc-pvdz iop(5/13=1,5/36=2,99/5=2) pseudo=read geom=check gue
 ss=(read,tcheck) scf=(maxcycle=1)
 ----------------------------------------------------------------------
 -----
 title
 -----
 Structure from the checkpoint file:  "ANI1ccx_1322_conf8_mol2.chk"
 Charge =  0 Multiplicity = 1

                         Standard orientation:
 ---------------------------------------------------------------------
 Center     Atomic      Atomic             Coordinates (Angstroms)
 Number     Number       Type             X           Y           Z
 ---------------------------------------------------------------------
      1          6           0       -1.903160   -0.541272    0.041283
      2          6           0       -0.624053    1.310800   -0.029692
      3          6           0        0.511994    0.459495    0.073462
      4          6           0        2.788610    0.209538   -0.039070
      5          6           0        2.599361   -1.169089   -0.078597
      6          6           0        0.344624   -0.956530    0.058420
      7          1           0        3.481731   -1.803948   -0.055748
      8          1           0        3.770150    0.729096   -0.014442
      9          1           0        0.581211    2.909761    0.171132
     10          1           0       -1.160641    3.213560    0.276526
     11          1           0       -3.215619   -2.085381   -0.125209
     12          1           0       -3.973790   -0.483859   -0.189826
     13          7           0       -3.146119   -1.094061    0.036236
     14          7           0       -1.836860    0.817011   -0.126974
     15          7           0       -0.359851    2.663890   -0.034327
     16          7           0        1.726590    1.045611    0.043937
     17          7           0        1.415701   -1.777769    0.004540
     18          7           0       -0.911931   -1.419950    0.045549
 ---------------------------------------------------------------------

 SCF Done:  E(RHF) =  -558.044236983     A.U. after    2 cycles

 The electronic state is 1-A.
 Alpha  occ. eigenvalues --  -15.55295 -15.53362 -15.52429 -15.52382 -15.50543
 Alpha  occ. eigenvalues --  -15.47525 -11.36529 -11.35603 -11.32682 -11.30652
 Alpha  occ. eigenvalues --  -11.29065 -11.28058  -1.34467  -1.29565  -1.26877
 Alpha  occ. eigenvalues --   -1.22132  -1.19087  -1.17887  -1.05686  -0.95879
 Alpha  occ. eigenvalues --   -0.93639  -0.89050  -0.81918  -0.81547  -0.78048
 Alpha  occ. eigenvalues --   -0.75249  -0.71440  -0.69639  -0.68091  -0.65603
 Alpha  occ. eigenvalues --   -0.65376  -0.61225  -0.58601  -0.56834  -0.55650
 Alpha  occ. eigenvalues --   -0.53530  -0.49289  -0.48658  -0.45816  -0.43124
 Alpha  occ. eigenvalues --   -0.42618  -0.33709
 Alpha virt. eigenvalues --    0.01237   0.02874   0.03975   0.04308   0.04365
 Alpha virt. eigenvalues --    0.06076   0.07212   0.08523   0.08937   0.10096
 Alpha virt. eigenvalues --    0.10441   0.10543   0.11033   0.11432   0.12139

 Mulliken charges:
               1
     1  C   -1.197646
     2  C   -1.893547
     3  C   -0.772130
     4  C   -0.166251
     5  C   -0.220884
     6  C   -1.736107
     7  H   -0.119758
     8  H   -0.133010
     9  H    0.209139
    10  H    0.108227
    11  H    0.116303
    12  H    0.172780
    13  N    0.668282
    14  N    0.771911
    15  N    0.925780
    16  N    1.195667
    17  N    1.294430
    18  N    0.776815
 Sum of Mulliken charges =  -0.00000

 Dipole moment (field-independent basis, Debye):
    X=              0.6573    Y=              2.6016    Z=              0.3477  Tot=              2.7058

 Test job not archived.
 1\1\GINC-SE220\SP\RHF\Aug-CC-pVDZ\C6H6N6\OHZDE\08-Apr-2025\0\\#t hf au
 g-cc-pvdz iop(5/13=1,5/36=2,99/5=2) pseudo=read geom=check guess=(read
 ,tcheck) scf=(maxcycle=1)\\title\\0,1\C,0,-1.90316,-0.541272,0.0412826
 \C,0,-0.624053,1.3108,-0.029692\C,0,0.511994,0.459494,0.0734622\C,0,2.
 78861,0.209536,-0.0390697\C,0,2.59936,-1.16909,-0.0785968\C,0,0.344623
 ,-0.956531,0.0584201\H,0,3.48173,-1.80395,-0.0557477\H,0,3.77015,0.729
 094,-0.014442\H,0,0.581212,2.90976,0.171132\H,0,-1.16064,3.21356,0.276
 526\H,0,-3.21562,-2.08538,-0.125209\H,0,-3.97379,-0.483858,-0.189826\N

 Normal termination of Gaussian 16 at Tue Apr  8 19:29:17 2025.
