 Gaussian 16, Revision C.01,

 ----------------------------------------------------------------------
 #t hf aug-cc-pvdz symm=none int=(grid=ultrafine) guess=(read,tcheck) s
 table=(opt,rrhf)
 ----------------------------------------------------------------------
 -----
 title
 -----
 Symbolic Z-matrix:
 Charge =  0 Multiplicity = 1

 SCF Done:  E(RHF) =  -537.841148326     A.U. after   16 cycles
 Normal termination of Gaussian 16 at Tue Apr  8 22:17:10 2025.
 Gaussian 16:  ES64L-G16RevC.01  3-Jul-2019

 ----------------------------------------------------------------------
 #t hf aug-cc-pvdz iop(5/13=1,5/36=2,99/5=2) pseudo=read geom=check gue
 ss=(read,tcheck) scf=(maxcycle=1)
 ----------------------------------------------------------------------
 -----
 title
 -----
 Structure from the checkpoint file:  "ANI1ccx_988_conf12_mol1.chk"
 Charge =  0 Multiplicity = 1

                         Standard orientation:
 ---------------------------------------------------------------------
 Center     Atomic      Atomic             Coordinates (Angstroms)
 Number     Number       Type             X           Y           Z
 ---------------------------------------------------------------------
      1          6           0       -2.281840   -0.352883   -0.152660
      2          6           0       -0.797473    1.550600    0.557661
      3          6           0        0.646021    1.776641    0.089208
      4          6           0        1.414269    0.504494    0.138865
      5          1           0        3.292509    0.832677   -0.929306
      6          1           0        1.122658    2.492931    0.773483
      7          1           0        0.609189    2.323291   -0.837935
      8          1           0       -0.841595    1.109200    1.516040
      9          1           0       -1.341182    2.510489    0.738841
     10          1           0       -3.184690   -0.234790   -1.784900
     11          1           0       -0.938064   -1.135570    1.171010
     12          1           0       -2.466109   -1.893611    1.016480
     13          1           0       -1.657621    1.199349   -1.300540
     14          7           0        2.904530   -1.034768   -0.417372
     15          7           0       -1.926620   -1.028441    1.013020
     16          7           0       -3.322090   -0.759425   -0.875121
     17          7           0       -1.477421    0.725432   -0.453688
     18          7           0        0.899039   -0.674757    0.442079
     19          7           0        1.889240   -1.585349    0.035983
     20          7           0        2.678899    0.346296   -0.339420
 ---------------------------------------------------------------------

 SCF Done:  E(RHF) =  -538.387851751     A.U. after    2 cycles

 The electronic state is 1-A.
 Alpha  occ. eigenvalues --  -15.61525 -15.61132 -15.59870 -15.55378 -15.51941
 Alpha  occ. eigenvalues --  -15.49016 -15.44587 -11.36706 -11.34415 -11.29990
 Alpha  occ. eigenvalues --  -11.29275  -1.48693  -1.28861  -1.26645  -1.24336
 Alpha  occ. eigenvalues --   -1.18431  -1.11781  -1.07682  -0.95603  -0.94190
 Alpha  occ. eigenvalues --   -0.89341  -0.84476  -0.82826  -0.76152  -0.73046
 Alpha  occ. eigenvalues --   -0.71101  -0.69061  -0.66263  -0.65073  -0.63048
 Alpha  occ. eigenvalues --   -0.61235  -0.60001  -0.56869  -0.56063  -0.54462
 Alpha  occ. eigenvalues --   -0.52494  -0.51453  -0.47492  -0.46406  -0.44639
 Alpha  occ. eigenvalues --   -0.37390
 Alpha virt. eigenvalues --    0.01520   0.02614   0.02757   0.04218   0.05015
 Alpha virt. eigenvalues --    0.06249   0.06644   0.07506   0.08046   0.09129
 Alpha virt. eigenvalues --    0.09687   0.10249   0.11124   0.11768   0.12207

 Mulliken charges:
               1
     1  C   -2.053095
     2  C   -0.282151
     3  C    0.120383
     4  C   -1.439083
     5  H    0.042435
     6  H    0.263718
     7  H    0.104722
     8  H    0.004031
     9  H    0.051520
    10  H    0.167440
    11  H    0.071350
    12  H    0.234571
    13  H    0.166838
    14  N   -0.224357
    15  N    0.643930
    16  N    0.648646
    17  N    0.489465
    18  N    0.551955
    19  N   -0.239678
    20  N    0.677362
 Sum of Mulliken charges =  -0.00000

 Dipole moment (field-independent basis, Debye):
    X=              4.7768    Y=              7.5105    Z=             -0.5435  Tot=              8.9175

 Test job not archived.
 1\1\GINC-SE457\SP\RHF\Aug-CC-pVDZ\C4H9N7\OHZDE\08-Apr-2025\0\\#t hf au
 g-cc-pvdz iop(5/13=1,5/36=2,99/5=2) pseudo=read geom=check guess=(read
 ,tcheck) scf=(maxcycle=1)\\title\\0,1\C,0,-2.28184,-0.352882,-0.15266\
 C,0,-0.797472,1.5506,0.557661\C,0,0.646023,1.77664,0.0892076\C,0,1.414
 27,0.504493,0.138865\H,0,3.29251,0.832675,-0.929306\H,0,1.12266,2.4929
 3,0.773483\H,0,0.609191,2.32329,-0.837935\H,0,-0.841594,1.1092,1.51604
 \H,0,-1.34118,2.51049,0.738841\H,0,-3.18469,-0.234788,-1.7849\H,0,-0.9
 38064,-1.13557,1.17101\H,0,-2.46611,-1.89361,1.01648\H,0,-1.65762,1.19

 Normal termination of Gaussian 16 at Tue Apr  8 22:17:23 2025.
