 Gaussian 16, Revision C.01,

 ----------------------------------------------------------------------
 #t hf aug-cc-pvdz symm=none int=(grid=ultrafine) guess=(read,tcheck) s
 table=(opt,rrhf)
 ----------------------------------------------------------------------
 -----
 title
 -----
 Symbolic Z-matrix:
 Charge =  0 Multiplicity = 1

 SCF Done:  E(RHF) =  -318.056157407     A.U. after   13 cycles
 Normal termination of Gaussian 16 at Tue Apr  8 21:47:00 2025.
 Gaussian 16:  ES64L-G16RevC.01  3-Jul-2019

 ----------------------------------------------------------------------
 #t hf aug-cc-pvdz iop(5/13=1,5/36=2,99/5=2) pseudo=read geom=check gue
 ss=(read,tcheck) scf=(maxcycle=1)
 ----------------------------------------------------------------------
 -----
 title
 -----
 Structure from the checkpoint file:  "ANI1ccx_569_conf1_mol1.chk"
 Charge =  0 Multiplicity = 1

                         Standard orientation:
 ---------------------------------------------------------------------
 Center     Atomic      Atomic             Coordinates (Angstroms)
 Number     Number       Type             X           Y           Z
 ---------------------------------------------------------------------
      1          6           0        2.191851   -0.253350    0.102872
      2          6           0       -2.358719   -0.493818   -0.126754
      3          1           0        2.014401    1.715510   -0.362949
      4          1           0        0.684086    1.024500    0.480414
      5          1           0        1.563741   -1.022230    0.583997
      6          1           0       -1.349769    0.784295    1.022680
      7          1           0       -0.683739   -0.743415    0.949940
      8          1           0       -2.259259   -1.493170   -0.544016
      9          1           0       -3.429899    1.076290   -0.015864
     10          7           0        1.470391    0.878901   -0.138944
     11          7           0       -1.189629   -0.022873    0.441677
     12          7           0       -3.464149    0.106020   -0.333062
     13          8           0        3.343171   -0.449139   -0.219827
 ---------------------------------------------------------------------

 SCF Done:  E(RHF) =  -318.384641636     A.U. after    2 cycles

 The electronic state is 1-A.
 Alpha  occ. eigenvalues --  -20.52789 -15.54839 -15.53665 -15.49086 -11.37073
 Alpha  occ. eigenvalues --  -11.33503  -1.47020  -1.28247  -1.23250  -1.17382
 Alpha  occ. eigenvalues --   -0.87787  -0.87380  -0.78575  -0.76594  -0.74577
 Alpha  occ. eigenvalues --   -0.69676  -0.62681  -0.61926  -0.59871  -0.58501
 Alpha  occ. eigenvalues --   -0.48857  -0.45542  -0.44424  -0.43335
 Alpha virt. eigenvalues --    0.01776   0.03738   0.04555   0.04638   0.06209
 Alpha virt. eigenvalues --    0.06367   0.07991   0.09298   0.09940   0.11254
 Alpha virt. eigenvalues --    0.12531   0.13227   0.13711   0.14549   0.15206

 Mulliken charges:
               1
     1  C    0.524269
     2  C   -1.171306
     3  H    0.148940
     4  H   -0.016939
     5  H    0.032307
     6  H    0.068245
     7  H    0.142860
     8  H   -0.074988
     9  H    0.059226
    10  N    0.383010
    11  N    0.370006
    12  N    0.590753
    13  O   -1.056383
 Sum of Mulliken charges =  -0.00000

 Dipole moment (field-independent basis, Debye):
    X=             -0.7941    Y=              1.4754    Z=              3.5166  Tot=              3.8954

 Test job not archived.
 1\1\GINC-SE455\SP\RHF\Aug-CC-pVDZ\C2H7N3O1\OHZDE\08-Apr-2025\0\\#t hf
 aug-cc-pvdz iop(5/13=1,5/36=2,99/5=2) pseudo=read geom=check guess=(re
 ad,tcheck) scf=(maxcycle=1)\\title\\0,1\C,0,2.19185,-0.25335,0.102872\
 C,0,-2.35872,-0.493818,-0.126754\H,0,2.0144,1.71551,-0.362949\H,0,0.68
 4085,1.0245,0.480414\H,0,1.56374,-1.02223,0.583997\H,0,-1.34977,0.7842
 95,1.02268\H,0,-0.68374,-0.743415,0.94994\H,0,-2.25926,-1.49317,-0.544
 016\H,0,-3.4299,1.07629,-0.0158643\N,0,1.47039,0.878901,-0.138944\N,0,
 -1.18963,-0.0228735,0.441677\N,0,-3.46415,0.10602,-0.333062\O,0,3.3431

 Normal termination of Gaussian 16 at Tue Apr  8 21:47:03 2025.
