 Gaussian 16, Revision C.01,

 ----------------------------------------------------------------------
 #t hf aug-cc-pvdz symm=none int=(grid=ultrafine) guess=(read,tcheck) s
 table=(opt,rrhf)
 ----------------------------------------------------------------------
 -----
 title
 -----
 Symbolic Z-matrix:
 Charge =  0 Multiplicity = 1

 SCF Done:  E(RHF) =  -428.587218035     A.U. after   13 cycles
 Normal termination of Gaussian 16 at Tue Apr  8 21:37:49 2025.
 Gaussian 16:  ES64L-G16RevC.01  3-Jul-2019

 ----------------------------------------------------------------------
 #t hf aug-cc-pvdz iop(5/13=1,5/36=2,99/5=2) pseudo=read geom=check gue
 ss=(read,tcheck) scf=(maxcycle=1)
 ----------------------------------------------------------------------
 -----
 title
 -----
 Structure from the checkpoint file:  "ANI1ccx_419_conf1_mol2.chk"
 Charge =  0 Multiplicity = 1

                         Standard orientation:
 ---------------------------------------------------------------------
 Center     Atomic      Atomic             Coordinates (Angstroms)
 Number     Number       Type             X           Y           Z
 ---------------------------------------------------------------------
      1          6           0       -0.135732   -0.300053    0.054265
      2          1           0        1.936759    1.312892   -0.044596
      3          1           0       -0.707242    1.581579   -0.298694
      4          1           0       -1.619408   -1.608242    0.277906
      5          1           0       -2.975010    0.484535    0.324316
      6          1           0        2.537782   -1.581837   -0.155498
      7          7           0        0.117420    1.001680   -0.376231
      8          7           0       -1.449889   -0.618456    0.442015
      9          7           0        0.723428   -1.245919    0.116470
     10          8           0        1.127878    1.641641    0.376749
     11          8           0       -2.388200    0.098693   -0.340953
     12          8           0        1.998421   -0.784052   -0.248896
 ---------------------------------------------------------------------

 SCF Done:  E(RHF) =  -429.015818350     A.U. after    2 cycles

 The electronic state is 1-A.
 Alpha  occ. eigenvalues --  -20.61633 -20.58944 -20.58787 -15.58832 -15.57140
 Alpha  occ. eigenvalues --  -15.54565 -11.35326  -1.52829  -1.51025  -1.48861
 Alpha  occ. eigenvalues --   -1.25818  -1.13688  -1.11138  -0.84820  -0.79995
 Alpha  occ. eigenvalues --   -0.75772  -0.72778  -0.70067  -0.68187  -0.66230
 Alpha  occ. eigenvalues --   -0.64662  -0.62232  -0.54131  -0.52882  -0.52021
 Alpha  occ. eigenvalues --   -0.48253  -0.45202  -0.38764
 Alpha virt. eigenvalues --    0.03153   0.04871   0.05278   0.05861   0.06791
 Alpha virt. eigenvalues --    0.11063   0.11923   0.12858   0.13087   0.14533
 Alpha virt. eigenvalues --    0.15215   0.16566   0.17094   0.17763   0.19028

 Mulliken charges:
               1
     1  C   -1.435101
     2  H    0.374925
     3  H    0.187841
     4  H    0.225225
     5  H    0.336310
     6  H    0.321757
     7  N    1.093189
     8  N    1.025397
     9  N    1.323065
    10  O   -1.143445
    11  O   -1.124895
    12  O   -1.184269
 Sum of Mulliken charges =  -0.00000

 Dipole moment (field-independent basis, Debye):
    X=             -1.3626    Y=             -0.1163    Z=              0.2813  Tot=              1.3962

 Test job not archived.
 1\1\GINC-SE364\SP\RHF\Aug-CC-pVDZ\C1H5N3O3\OHZDE\08-Apr-2025\0\\#t hf
 aug-cc-pvdz iop(5/13=1,5/36=2,99/5=2) pseudo=read geom=check guess=(re
 ad,tcheck) scf=(maxcycle=1)\\title\\0,1\C,0,-0.135732,-0.300053,0.0542
 652\H,0,1.93676,1.31289,-0.0445956\H,0,-0.707241,1.58158,-0.298694\H,0
 ,-1.61941,-1.60824,0.277906\H,0,-2.97501,0.484538,0.324316\H,0,2.53778
 ,-1.58184,-0.155498\N,0,0.117421,1.00168,-0.376231\N,0,-1.44989,-0.618
 455,0.442015\N,0,0.723427,-1.24592,0.11647\O,0,1.12788,1.64164,0.37674
 9\O,0,-2.3882,0.0986954,-0.340953\O,0,1.99842,-0.784054,-0.248896\\Ver

 Normal termination of Gaussian 16 at Tue Apr  8 21:37:54 2025.
