 Gaussian 16, Revision C.01,

 ----------------------------------------------------------------------
 #t hf aug-cc-pvdz symm=none int=(grid=ultrafine) guess=(read,tcheck) s
 table=(opt,rrhf)
 ----------------------------------------------------------------------
 -----
 title
 -----
 Symbolic Z-matrix:
 Charge =  0 Multiplicity = 1

 SCF Done:  E(RHF) =  -425.780699371     A.U. after   14 cycles
 Normal termination of Gaussian 16 at Tue Apr  8 21:46:13 2025.
 Gaussian 16:  ES64L-G16RevC.01  3-Jul-2019

 ----------------------------------------------------------------------
 #t hf aug-cc-pvdz iop(5/13=1,5/36=2,99/5=2) pseudo=read geom=check gue
 ss=(read,tcheck) scf=(maxcycle=1)
 ----------------------------------------------------------------------
 -----
 title
 -----
 Structure from the checkpoint file:  "ANI1ccx_543_conf1_mol2.chk"
 Charge =  0 Multiplicity = 1

                         Standard orientation:
 ---------------------------------------------------------------------
 Center     Atomic      Atomic             Coordinates (Angstroms)
 Number     Number       Type             X           Y           Z
 ---------------------------------------------------------------------
      1          6           0        1.296840   -0.064712    0.003099
      2          6           0       -0.785744    0.781636    0.012079
      3          1           0        3.003459   -1.085315   -0.260426
      4          1           0        3.200061    0.313733    0.666688
      5          1           0       -2.369272   -1.335607    0.834704
      6          1           0       -2.424771   -1.036447   -0.735866
      7          1           0        0.902610    2.072978   -0.020450
      8          7           0        2.675950   -0.120821   -0.091590
      9          7           0        0.509161   -1.124981    0.012439
     10          7           0       -0.731063   -0.617588    0.026345
     11          7           0       -1.837992   -1.450918   -0.017290
     12          7           0        0.577606    1.097299    0.020611
     13          8           0       -1.716787    1.536022   -0.028665
 ---------------------------------------------------------------------

 SCF Done:  E(RHF) =  -426.209912393     A.U. after    2 cycles

 The electronic state is 1-A.
 Alpha  occ. eigenvalues --  -20.51800 -15.58429 -15.57076 -15.54392 -15.54276
 Alpha  occ. eigenvalues --  -15.52834 -11.39436 -11.36489  -1.48769  -1.41190
 Alpha  occ. eigenvalues --   -1.29847  -1.22980  -1.20079  -1.05388  -0.92204
 Alpha  occ. eigenvalues --   -0.88643  -0.80844  -0.75858  -0.74616  -0.72553
 Alpha  occ. eigenvalues --   -0.71738  -0.66842  -0.64866  -0.56303  -0.55317
 Alpha  occ. eigenvalues --   -0.53545  -0.50778  -0.48709  -0.45182  -0.35300
 Alpha virt. eigenvalues --    0.02171   0.04256   0.04873   0.05163   0.06968
 Alpha virt. eigenvalues --    0.09516   0.09712   0.10958   0.11382   0.12139
 Alpha virt. eigenvalues --    0.13227   0.14012   0.15028   0.15222   0.15908

 Mulliken charges:
               1
     1  C   -1.452410
     2  C    0.990437
     3  H    0.243228
     4  H    0.181219
     5  H    0.197712
     6  H    0.168088
     7  H    0.141348
     8  N    0.552409
     9  N    0.041911
    10  N   -0.995883
    11  N    0.703770
    12  N    0.403868
    13  O   -1.175698
 Sum of Mulliken charges =  -0.00000

 Dipole moment (field-independent basis, Debye):
    X=              3.3631    Y=              1.3294    Z=              1.1740  Tot=              3.8021

 Test job not archived.
 1\1\GINC-SE074\SP\RHF\Aug-CC-pVDZ\C2H5N5O1\OHZDE\08-Apr-2025\0\\#t hf
 aug-cc-pvdz iop(5/13=1,5/36=2,99/5=2) pseudo=read geom=check guess=(re
 ad,tcheck) scf=(maxcycle=1)\\title\\0,1\C,0,1.29684,-0.0647096,0.00309
 886\C,0,-0.785746,0.781635,0.0120786\H,0,3.00346,-1.08531,-0.260426\H,
 0,3.20006,0.313738,0.666688\H,0,-2.36927,-1.33561,0.834704\H,0,-2.4247
 7,-1.03645,-0.735866\H,0,0.902606,2.07298,-0.0204502\N,0,2.67595,-0.12
 0816,-0.0915902\N,0,0.509162,-1.12498,0.0124392\N,0,-0.731062,-0.61758
 9,0.0263451\N,0,-1.83799,-1.45092,-0.0172904\N,0,0.577604,1.0973,0.020

 Normal termination of Gaussian 16 at Tue Apr  8 21:46:18 2025.
