 Gaussian 16, Revision C.01,

 ----------------------------------------------------------------------
 #t hf aug-cc-pvdz symm=none int=(grid=ultrafine) guess=(read,tcheck) s
 table=(opt,rrhf)
 ----------------------------------------------------------------------
 -----
 title
 -----
 Symbolic Z-matrix:
 Charge =  0 Multiplicity = 1

 SCF Done:  E(RHF) =  -982.049119376     A.U. after   15 cycles
 Normal termination of Gaussian 16 at Tue Apr  8 20:50:33 2025.
 Gaussian 16:  ES64L-G16RevC.01  3-Jul-2019

 ----------------------------------------------------------------------
 #t hf aug-cc-pvdz iop(5/13=1,5/36=2,99/5=2) pseudo=read geom=check gue
 ss=(read,tcheck) scf=(maxcycle=1)
 ----------------------------------------------------------------------
 -----
 title
 -----
 Structure from the checkpoint file:  "ANI1ccx_1743_conf33_mol1.chk"
 Charge =  0 Multiplicity = 1

                         Standard orientation:
 ---------------------------------------------------------------------
 Center     Atomic      Atomic             Coordinates (Angstroms)
 Number     Number       Type             X           Y           Z
 ---------------------------------------------------------------------
      1          6           0        1.612251    1.653789    0.418743
      2          6           0        0.342220    1.809699   -0.511680
      3          6           0        2.764711    1.194609   -0.528483
      4          6           0        2.770210   -0.234920   -1.055500
      5          6           0        2.799550   -1.137901    0.129758
      6          6           0       -0.897301   -0.349090    0.280946
      7          6           0       -1.164590   -1.471951   -0.725068
      8          6           0       -2.074000   -0.090822    1.315350
      9          6           0       -3.330750    0.363621    0.554213
     10          1           0        0.375008   -2.361831   -0.380945
     11          1           0       -5.227990    0.080535    0.801112
     12          1           0       -1.641540    0.689001    2.021650
     13          1           0       -2.183000   -0.996098    1.923560
     14          1           0       -0.125921   -0.596277    0.995588
     15          1           0       -1.340169    0.926048   -1.350800
     16          1           0        3.760830   -1.511862    1.675600
     17          1           0        3.699780   -0.455901   -1.710260
     18          1           0        1.770330   -0.389164   -1.517690
     19          1           0        2.711161    1.848639   -1.344200
     20          1           0        3.661311    1.371978    0.028137
     21          1           0        1.895551    2.714349    0.625521
     22          1           0        2.304330    0.439356    2.070260
     23          1           0        0.954141    1.426509    2.420860
     24          7           0        1.421190    0.867232    1.656810
     25          7           0       -0.615648    0.797270   -0.621328
     26          8           0        0.313758    2.785629   -1.206410
     27          8           0        2.023570   -2.043281    0.264065
     28          8           0        3.744060   -0.770359    1.070400
     29          8           0       -2.109980   -1.337890   -1.523860
     30          8           0       -3.297619    1.090750   -0.397467
     31          8           0       -4.411080   -0.314982    1.089300
     32          8           0       -0.411012   -2.567241   -0.893087
 ---------------------------------------------------------------------

 SCF Done:  E(RHF) =  -983.016616840     A.U. after    2 cycles

 The electronic state is 1-A.
 Alpha  occ. eigenvalues --  -20.64169 -20.60272 -20.59100 -20.58438 -20.54703
 Alpha  occ. eigenvalues --  -20.51497 -20.51443 -15.52891 -15.52598 -11.43592
 Alpha  occ. eigenvalues --  -11.40792 -11.38925 -11.36553 -11.31458 -11.30702
 Alpha  occ. eigenvalues --  -11.28707 -11.28273 -11.26071  -1.58671  -1.53909
 Alpha  occ. eigenvalues --   -1.53772  -1.50415  -1.47643  -1.46634  -1.41907
 Alpha  occ. eigenvalues --   -1.23155  -1.19776  -1.11117  -1.07195  -0.99863
 Alpha  occ. eigenvalues --   -0.95972  -0.89480  -0.84933  -0.83916  -0.82133
 Alpha  occ. eigenvalues --   -0.79907  -0.76495  -0.74223  -0.73781  -0.72250
 Alpha  occ. eigenvalues --   -0.71071  -0.70600  -0.68871  -0.67599  -0.66589
 Alpha  occ. eigenvalues --   -0.65576  -0.64919  -0.64237  -0.63320  -0.62512
 Alpha  occ. eigenvalues --   -0.61401  -0.60597  -0.59967  -0.58522  -0.57398
 Alpha  occ. eigenvalues --   -0.57170  -0.54786  -0.54024  -0.53812  -0.52211
 Alpha  occ. eigenvalues --   -0.51761  -0.48786  -0.48027  -0.46130  -0.45388
 Alpha  occ. eigenvalues --   -0.44684  -0.42830  -0.41113  -0.40893
 Alpha virt. eigenvalues --    0.01585   0.02584   0.03156   0.03579   0.04273
 Alpha virt. eigenvalues --    0.04625   0.05343   0.06079   0.06313   0.07649
 Alpha virt. eigenvalues --    0.08281   0.08627   0.09107   0.09810   0.10293

 Mulliken charges:
               1
     1  C   -1.201470
     2  C    0.753159
     3  C   -0.012478
     4  C   -0.672567
     5  C    2.734178
     6  C   -0.344701
     7  C    2.270941
     8  C   -0.920455
     9  C    2.684351
    10  H    0.566644
    11  H    0.384168
    12  H    0.372743
    13  H    0.082247
    14  H    0.154261
    15  H    0.427371
    16  H    0.298933
    17  H    0.333434
    18  H    0.260930
    19  H    0.072097
    20  H    0.153604
    21  H    0.233752
    22  H    0.156987
    23  H    0.263603
    24  N    0.366748
    25  N    0.395286
    26  O   -1.463337
    27  O   -1.530725
    28  O   -1.456394
    29  O   -1.410132
    30  O   -1.262951
    31  O   -1.351507
    32  O   -1.338721
 Sum of Mulliken charges =   0.00000

 Dipole moment (field-independent basis, Debye):
    X=              5.5940    Y=             -0.2397    Z=              6.7505  Tot=              8.7704

 Test job not archived.
 1\1\GINC-SE332\SP\RHF\Aug-CC-pVDZ\C9H14N2O7\OHZDE\08-Apr-2025\0\\#t hf
  aug-cc-pvdz iop(5/13=1,5/36=2,99/5=2) pseudo=read geom=check guess=(r
 ead,tcheck) scf=(maxcycle=1)\\title\\0,1\C,0,1.61225,1.65379,0.418743\
 C,0,0.342219,1.8097,-0.51168\C,0,2.76471,1.19461,-0.528483\C,0,2.77021
 ,-0.234919,-1.0555\C,0,2.79955,-1.1379,0.129758\C,0,-0.897301,-0.34908
 9,0.280946\C,0,-1.16459,-1.47195,-0.725068\C,0,-2.074,-0.0908219,1.315
 35\C,0,-3.33075,0.363621,0.554213\H,0,0.375008,-2.36183,-0.380945\H,0,
 -5.22799,0.0805344,0.801112\H,0,-1.64154,0.689001,2.02165\H,0,-2.183,-

 Normal termination of Gaussian 16 at Tue Apr  8 20:51:17 2025.
