 Gaussian 16, Revision C.01,

 ----------------------------------------------------------------------
 #t hf aug-cc-pvdz symm=none int=(grid=ultrafine) guess=(read,tcheck) s
 table=(opt,rrhf)
 ----------------------------------------------------------------------
 -----
 title
 -----
 Symbolic Z-matrix:
 Charge =  0 Multiplicity = 1

 SCF Done:  E(RHF) =  -460.247806890     A.U. after   16 cycles
 Normal termination of Gaussian 16 at Tue Apr  8 21:24:37 2025.
 Gaussian 16:  ES64L-G16RevC.01  3-Jul-2019

 ----------------------------------------------------------------------
 #t hf aug-cc-pvdz iop(5/13=1,5/36=2,99/5=2) pseudo=read geom=check gue
 ss=(read,tcheck) scf=(maxcycle=1)
 ----------------------------------------------------------------------
 -----
 title
 -----
 Structure from the checkpoint file:  "ANI1ccx_373_conf12_mol1.chk"
 Charge =  0 Multiplicity = 1

                         Standard orientation:
 ---------------------------------------------------------------------
 Center     Atomic      Atomic             Coordinates (Angstroms)
 Number     Number       Type             X           Y           Z
 ---------------------------------------------------------------------
      1          6           0       -0.030895   -0.070167   -0.172511
      2          1           0       -2.637150    1.275650   -0.124746
      3          7           0        1.413310    0.016690   -0.065122
      4          7           0       -0.824142   -1.111040    0.040461
      5          7           0       -2.048759   -0.658937    0.227193
      6          7           0       -1.931350    0.579316   -0.019329
      7          7           0       -0.635431    1.026070   -0.213797
      8          8           0        1.973781   -1.083539   -0.088536
      9          8           0        1.902110    1.106121    0.260283
 ---------------------------------------------------------------------

 SCF Done:  E(RHF) =  -460.696584985     A.U. after    2 cycles

 The electronic state is 1-A.
 Alpha  occ. eigenvalues --  -20.62367 -20.62236 -15.82499 -15.68926 -15.66877
 Alpha  occ. eigenvalues --  -15.61210 -15.59006 -11.38988  -1.68644  -1.56400
 Alpha  occ. eigenvalues --   -1.52953  -1.33054  -1.29296  -1.11207  -1.03803
 Alpha  occ. eigenvalues --   -0.93922  -0.88183  -0.81940  -0.79755  -0.76534
 Alpha  occ. eigenvalues --   -0.75447  -0.69477  -0.61755  -0.56714  -0.54032
 Alpha  occ. eigenvalues --   -0.52917  -0.52477  -0.51401  -0.46852
 Alpha virt. eigenvalues --    0.00033   0.01911   0.02859   0.07297   0.09840
 Alpha virt. eigenvalues --    0.10266   0.10939   0.11278   0.12623   0.13086
 Alpha virt. eigenvalues --    0.13845   0.14584   0.15263   0.16543   0.18852

 Mulliken charges:
               1
     1  C   -0.655650
     2  H    0.088915
     3  N    2.488581
     4  N    0.290700
     5  N   -0.237143
     6  N    0.127195
     7  N    0.441274
     8  O   -1.316548
     9  O   -1.227325
 Sum of Mulliken charges =  -0.00000

 Dipole moment (field-independent basis, Debye):
    X=             -3.9291    Y=              2.1441    Z=             -0.6470  Tot=              4.5225

 Test job not archived.
 1\1\GINC-SE342\SP\RHF\Aug-CC-pVDZ\C1H1N5O2\OHZDE\08-Apr-2025\0\\#t hf
 aug-cc-pvdz iop(5/13=1,5/36=2,99/5=2) pseudo=read geom=check guess=(re
 ad,tcheck) scf=(maxcycle=1)\\title\\0,1\C,0,-0.0308956,-0.0701672,-0.1
 72511\H,0,-2.63715,1.27565,-0.124746\N,0,1.41331,0.016689,-0.0651224\N
 ,0,-0.824143,-1.11104,0.0404614\N,0,-2.04876,-0.658937,0.227193\N,0,-1
 .93135,0.579316,-0.0193294\N,0,-0.635431,1.02607,-0.213797\O,0,1.97378
 ,-1.08354,-0.0885363\O,0,1.90211,1.10612,0.260283\\Version=ES64L-G16Re
 vC.01\State=1-A\HF=-460.696585\RMSD=3.946e-02\Dipole=-1.5458122,0.8435

 Normal termination of Gaussian 16 at Tue Apr  8 21:24:40 2025.
