 Gaussian 16, Revision C.01,

 ----------------------------------------------------------------------
 #t hf aug-cc-pvdz symm=none int=(grid=ultrafine) guess=(read,tcheck) s
 table=(opt,rrhf)
 ----------------------------------------------------------------------
 -----
 title
 -----
 Symbolic Z-matrix:
 Charge =  0 Multiplicity = 1

 SCF Done:  E(RHF) =  -541.266378392     A.U. after   15 cycles
 Normal termination of Gaussian 16 at Tue Apr  8 21:59:19 2025.
 Gaussian 16:  ES64L-G16RevC.01  3-Jul-2019

 ----------------------------------------------------------------------
 #t hf aug-cc-pvdz iop(5/13=1,5/36=2,99/5=2) pseudo=read geom=check gue
 ss=(read,tcheck) scf=(maxcycle=1)
 ----------------------------------------------------------------------
 -----
 title
 -----
 Structure from the checkpoint file:  "ANI1ccx_869_conf13_mol2.chk"
 Charge =  0 Multiplicity = 1

                         Standard orientation:
 ---------------------------------------------------------------------
 Center     Atomic      Atomic             Coordinates (Angstroms)
 Number     Number       Type             X           Y           Z
 ---------------------------------------------------------------------
      1          6           0       -1.200010    0.143994   -0.022742
      2          6           0       -0.331203    1.349759   -0.043097
      3          6           0        1.682771   -0.161715    0.034427
      4          6           0       -0.565341   -1.233661   -0.024884
      5          1           0       -2.845228   -0.687550    0.007991
      6          1           0        1.654957    1.838903    0.095266
      7          1           0        1.190285   -2.243208   -0.093833
      8          7           0       -2.470070    0.258503    0.054260
      9          7           0        1.031729    1.063301    0.043296
     10          7           0        0.813929   -1.283179   -0.046441
     11          8           0       -0.714290    2.496578   -0.032006
     12          8           0        2.888961   -0.261873    0.008950
     13          8           0       -1.317976   -2.205803    0.019374
 ---------------------------------------------------------------------

 SCF Done:  E(RHF) =  -541.789059972     A.U. after    2 cycles

 The electronic state is 1-A.
 Alpha  occ. eigenvalues --  -20.58109 -20.57493 -20.57222 -15.61157 -15.59710
 Alpha  occ. eigenvalues --  -15.57553 -11.46467 -11.43368 -11.42251 -11.34889
 Alpha  occ. eigenvalues --   -1.53569  -1.51649  -1.51631  -1.34251  -1.28277
 Alpha  occ. eigenvalues --   -1.28006  -1.04129  -0.96748  -0.94963  -0.86229
 Alpha  occ. eigenvalues --   -0.82654  -0.76213  -0.72982  -0.72316  -0.71700
 Alpha  occ. eigenvalues --   -0.68194  -0.67056  -0.63943  -0.61138  -0.55638
 Alpha  occ. eigenvalues --   -0.52071  -0.51566  -0.50822  -0.49522  -0.47421
 Alpha  occ. eigenvalues --   -0.46524
 Alpha virt. eigenvalues --   -0.01347   0.02836   0.04369   0.04950   0.07505
 Alpha virt. eigenvalues --    0.07880   0.08704   0.09197   0.10193   0.11033
 Alpha virt. eigenvalues --    0.11935   0.12218   0.12619   0.12852   0.12984

 Mulliken charges:
               1
     1  C   -1.687776
     2  C    1.281413
     3  C    0.331321
     4  C    1.221259
     5  H    0.186244
     6  H    0.269475
     7  H    0.287036
     8  N    1.060240
     9  N    0.555999
    10  N    0.487253
    11  O   -1.388429
    12  O   -1.179350
    13  O   -1.424684
 Sum of Mulliken charges =   0.00000

 Dipole moment (field-independent basis, Debye):
    X=              1.4337    Y=             -1.7405    Z=             -0.1570  Tot=              2.2604

 Test job not archived.
 1\1\GINC-SE097\SP\RHF\Aug-CC-pVDZ\C4H3N3O3\OHZDE\08-Apr-2025\0\\#t hf
 aug-cc-pvdz iop(5/13=1,5/36=2,99/5=2) pseudo=read geom=check guess=(re
 ad,tcheck) scf=(maxcycle=1)\\title\\0,1\C,0,-1.20001,0.143996,-0.02274
 21\C,0,-0.331201,1.34976,-0.043097\C,0,1.68277,-0.161718,0.0344273\C,0
 ,-0.565344,-1.23366,-0.024884\H,0,-2.84523,-0.687545,0.00799089\H,0,1.
 65496,1.8389,0.0952658\H,0,1.19028,-2.24321,-0.093833\N,0,-2.47007,0.2
 58508,0.0542597\N,0,1.03173,1.0633,0.043296\N,0,0.813926,-1.28318,-0.0
 464407\O,0,-0.714286,2.49658,-0.0320057\O,0,2.88896,-0.261878,0.008949

 Normal termination of Gaussian 16 at Tue Apr  8 21:59:25 2025.
