 Gaussian 16, Revision C.01,

 ----------------------------------------------------------------------
 #t hf aug-cc-pvdz symm=none int=(grid=ultrafine) guess=(read,tcheck) s
 table=(opt,rrhf)
 ----------------------------------------------------------------------
 -----
 title
 -----
 Symbolic Z-matrix:
 Charge =  0 Multiplicity = 1

 SCF Done:  E(RHF) =  -298.819538392     A.U. after   14 cycles
 Normal termination of Gaussian 16 at Tue Apr  8 21:35:40 2025.
 Gaussian 16:  ES64L-G16RevC.01  3-Jul-2019

 ----------------------------------------------------------------------
 #t hf aug-cc-pvdz iop(5/13=1,5/36=2,99/5=2) pseudo=read geom=check gue
 ss=(read,tcheck) scf=(maxcycle=1)
 ----------------------------------------------------------------------
 -----
 title
 -----
 Structure from the checkpoint file:  "ANI1ccx_398_conf19_mol1.chk"
 Charge =  0 Multiplicity = 1

                         Standard orientation:
 ---------------------------------------------------------------------
 Center     Atomic      Atomic             Coordinates (Angstroms)
 Number     Number       Type             X           Y           Z
 ---------------------------------------------------------------------
      1          6           0       -0.448326    0.094367   -0.003035
      2          1           0       -1.798810   -1.403520   -0.294653
      3          1           0       -2.474350    0.168209   -0.128030
      4          1           0        0.542146   -1.645310    0.415368
      5          1           0        1.454710    0.822082    0.303122
      6          7           0       -1.679210   -0.467171    0.130549
      7          7           0        0.647216   -0.781737   -0.173019
      8          8           0       -0.329672    1.321370   -0.043560
      9          8           0        1.853450   -0.042033    0.046022
 ---------------------------------------------------------------------

 SCF Done:  E(RHF) =  -299.116581979     A.U. after    2 cycles

 The electronic state is 1-A.
 Alpha  occ. eigenvalues --  -20.59518 -20.53415 -15.59469 -15.55421 -11.40874
 Alpha  occ. eigenvalues --   -1.51657  -1.46183  -1.25552  -1.14814  -0.86410
 Alpha  occ. eigenvalues --   -0.80865  -0.75268  -0.70857  -0.65807  -0.63836
 Alpha  occ. eigenvalues --   -0.58003  -0.56792  -0.47538  -0.46729  -0.44083
 Alpha virt. eigenvalues --    0.02179   0.04700   0.05638   0.06642   0.10283
 Alpha virt. eigenvalues --    0.11081   0.12242   0.14121   0.14682   0.15720
 Alpha virt. eigenvalues --    0.16475   0.16631   0.17974   0.19024   0.20472

 Mulliken charges:
               1
     1  C    0.007647
     2  H    0.122751
     3  H    0.212890
     4  H    0.193227
     5  H    0.385424
     6  N    0.431286
     7  N    0.882269
     8  O   -1.169167
     9  O   -1.066326
 Sum of Mulliken charges =  -0.00000

 Dipole moment (field-independent basis, Debye):
    X=             -2.7602    Y=             -2.6905    Z=              0.4271  Tot=              3.8781

 Test job not archived.
 1\1\GINC-SE460\SP\RHF\Aug-CC-pVDZ\C1H4N2O2\OHZDE\08-Apr-2025\0\\#t hf
 aug-cc-pvdz iop(5/13=1,5/36=2,99/5=2) pseudo=read geom=check guess=(re
 ad,tcheck) scf=(maxcycle=1)\\title\\0,1\C,0,-0.448326,0.0943672,-0.003
 03486\H,0,-1.79881,-1.40352,-0.294653\H,0,-2.47435,0.168209,-0.12803\H
 ,0,0.542146,-1.64531,0.415368\H,0,1.45471,0.822083,0.303122\N,0,-1.679
 21,-0.467171,0.130549\N,0,0.647216,-0.781737,-0.173019\O,0,-0.329672,1
 .32137,-0.0435601\O,0,1.85345,-0.0420319,0.0460216\\Version=ES64L-G16R
 evC.01\State=1-A\HF=-299.116582\RMSD=1.564e-02\Dipole=-1.0859402,-1.05

 Normal termination of Gaussian 16 at Tue Apr  8 21:35:43 2025.
