 Gaussian 16, Revision C.01,

 ----------------------------------------------------------------------
 #t hf aug-cc-pvdz symm=none int=(grid=ultrafine) guess=(read,tcheck) s
 table=(opt,rrhf)
 ----------------------------------------------------------------------
 -----
 title
 -----
 Symbolic Z-matrix:
 Charge =  0 Multiplicity = 1

 SCF Done:  E(RHF) =  -659.115294171     A.U. after   14 cycles
 Normal termination of Gaussian 16 at Tue Apr  8 19:33:32 2025.
 Gaussian 16:  ES64L-G16RevC.01  3-Jul-2019

 ----------------------------------------------------------------------
 #t hf aug-cc-pvdz iop(5/13=1,5/36=2,99/5=2) pseudo=read geom=check gue
 ss=(read,tcheck) scf=(maxcycle=1)
 ----------------------------------------------------------------------
 -----
 title
 -----
 Structure from the checkpoint file:  "ANI1ccx_1265_conf4_mol2.chk"
 Charge =  0 Multiplicity = 1

                         Standard orientation:
 ---------------------------------------------------------------------
 Center     Atomic      Atomic             Coordinates (Angstroms)
 Number     Number       Type             X           Y           Z
 ---------------------------------------------------------------------
      1          6           0       -2.018230    0.166327   -0.604554
      2          6           0       -0.616889    2.003340    0.224924
      3          6           0        0.790435    1.807500   -0.250268
      4          6           0        1.720561    1.231359    0.839223
      5          6           0        2.533760    0.018564    0.377676
      6          6           0        1.753590   -1.229981    0.036590
      7          1           0       -0.117822   -0.426985    0.623934
      8          1           0        3.714330   -0.511331   -1.179900
      9          1           0        4.218841    0.907090   -0.470226
     10          1           0        3.039720   -0.276760    1.330980
     11          1           0        1.077971    0.946372    1.672960
     12          1           0        2.414982    1.989479    1.197750
     13          1           0        0.810093    1.149930   -1.126620
     14          1           0        1.200812    2.787749   -0.562098
     15          1           0       -0.533274    2.521930    1.207840
     16          1           0       -1.268568    2.615251   -0.411366
     17          1           0       -1.829159    0.676394    1.310920
     18          1           0       -3.843529    0.654656   -0.105844
     19          1           0       -3.543489    0.658595   -1.699600
     20          1           0       -1.393209    0.352453   -1.516110
     21          1           0       -1.419281   -1.773969   -0.465734
     22          1           0       -2.365211   -1.855099    1.502340
     23          1           0       -3.617671   -2.198698    0.619379
     24          7           0       -2.975791   -1.408928    0.792119
     25          7           0       -2.310050   -1.245549   -0.462606
     26          7           0       -3.180199    0.990977   -0.814879
     27          7           0       -1.197469    0.683774    0.528610
     28          7           0        3.413411    0.357883   -0.737846
     29          8           0        0.517365   -1.337380    0.496643
     30          8           0        2.260859   -2.143471   -0.597633
 ---------------------------------------------------------------------

 SCF Done:  E(RHF) =  -659.802929813     A.U. after    2 cycles

 The electronic state is 1-A.
 Alpha  occ. eigenvalues --  -20.55056 -20.50571 -15.53995 -15.52915 -15.52736
 Alpha  occ. eigenvalues --  -15.49900 -15.48514 -11.36865 -11.33114 -11.27671
 Alpha  occ. eigenvalues --  -11.27398 -11.23938 -11.23553  -1.49963  -1.40823
 Alpha  occ. eigenvalues --   -1.31674  -1.24010  -1.18934  -1.18060  -1.07888
 Alpha  occ. eigenvalues --   -1.05739  -0.98680  -0.90559  -0.87259  -0.82124
 Alpha  occ. eigenvalues --   -0.80014  -0.76213  -0.73821  -0.72790  -0.71390
 Alpha  occ. eigenvalues --   -0.70166  -0.68024  -0.67789  -0.65938  -0.64462
 Alpha  occ. eigenvalues --   -0.64304  -0.61292  -0.59822  -0.58134  -0.55677
 Alpha  occ. eigenvalues --   -0.54850  -0.53573  -0.50966  -0.50845  -0.50299
 Alpha  occ. eigenvalues --   -0.49003  -0.47848  -0.46211  -0.44982  -0.43610
 Alpha  occ. eigenvalues --   -0.42402  -0.40863
 Alpha virt. eigenvalues --    0.02949   0.03233   0.03549   0.03811   0.04773
 Alpha virt. eigenvalues --    0.05013   0.05287   0.05769   0.06584   0.07135
 Alpha virt. eigenvalues --    0.07521   0.07929   0.08378   0.09210   0.10045

 Mulliken charges:
               1
     1  C   -2.413770
     2  C   -0.351472
     3  C   -0.178248
     4  C    0.051104
     5  C   -1.748249
     6  C    2.440936
     7  H    1.215288
     8  H    0.232591
     9  H    0.187641
    10  H    0.306905
    11  H    0.131441
    12  H    0.068626
    13  H    0.134654
    14  H    0.140802
    15  H    0.083584
    16  H    0.089973
    17  H    0.649463
    18  H    0.316296
    19  H    0.369540
    20  H   -0.077066
    21  H    0.327546
    22  H    0.136962
    23  H    0.168509
    24  N    0.065078
    25  N    0.328332
    26  N    0.494188
    27  N   -0.359407
    28  N    0.496262
    29  O   -1.863058
    30  O   -1.444452
 Sum of Mulliken charges =   0.00000

 Dipole moment (field-independent basis, Debye):
    X=             -2.0783    Y=              2.8034    Z=              2.6321  Tot=              4.3711

 Test job not archived.
 1\1\GINC-SE187\SP\RHF\Aug-CC-pVDZ\C6H17N5O2\OHZDE\08-Apr-2025\0\\#t hf
  aug-cc-pvdz iop(5/13=1,5/36=2,99/5=2) pseudo=read geom=check guess=(r
 ead,tcheck) scf=(maxcycle=1)\\title\\0,1\C,0,-2.01823,0.166326,-0.6045
 54\C,0,-0.616891,2.00334,0.224924\C,0,0.790434,1.8075,-0.250268\C,0,1.
 72056,1.23136,0.839223\C,0,2.53376,0.0185658,0.377676\C,0,1.75359,-1.2
 2998,0.0365899\H,0,-0.117822,-0.426985,0.623934\H,0,3.71433,-0.511329,
 -1.1799\H,0,4.21884,0.907093,-0.470226\H,0,3.03972,-0.276758,1.33098\H
 ,0,1.07797,0.946373,1.67296\H,0,2.41498,1.98948,1.19775\H,0,0.810092,1

 Normal termination of Gaussian 16 at Tue Apr  8 19:34:08 2025.
