 Gaussian 16, Revision C.01,

 ----------------------------------------------------------------------
 #t hf aug-cc-pvdz symm=none int=(grid=ultrafine) guess=(read,tcheck) s
 table=(opt,rrhf)
 ----------------------------------------------------------------------
 -----
 title
 -----
 Symbolic Z-matrix:
 Charge =  0 Multiplicity = 1

 SCF Done:  E(RHF) =  -851.518176346     A.U. after   14 cycles
 Normal termination of Gaussian 16 at Tue Apr  8 22:07:57 2025.
 Gaussian 16:  ES64L-G16RevC.01  3-Jul-2019

 ----------------------------------------------------------------------
 #t hf aug-cc-pvdz iop(5/13=1,5/36=2,99/5=2) pseudo=read geom=check gue
 ss=(read,tcheck) scf=(maxcycle=1)
 ----------------------------------------------------------------------
 -----
 title
 -----
 Structure from the checkpoint file:  "ANI1ccx_63_conf1_mol1.chk"
 Charge =  0 Multiplicity = 1

                         Standard orientation:
 ---------------------------------------------------------------------
 Center     Atomic      Atomic             Coordinates (Angstroms)
 Number     Number       Type             X           Y           Z
 ---------------------------------------------------------------------
      1          6           0        0.290365    2.001030    0.648278
      2          6           0       -2.570090    0.300736   -1.341701
      3          6           0       -2.921250   -1.100540    0.554887
      4          6           0       -0.592139   -1.580240    0.595880
      5          6           0       -1.576010   -0.418979    0.683946
      6          6           0       -3.152150   -1.033510   -0.954438
      7          6           0        2.186810    0.652924   -0.589602
      8          6           0        1.442230    0.973765    0.720569
      9          6           0       -0.792569    1.654220   -0.431481
     10          6           0        3.102180   -0.565092   -0.453244
     11          1           0       -2.925110   -2.141070    0.952667
     12          1           0        1.056370   -1.852940   -0.484284
     13          1           0       -3.271920    1.110020   -1.385301
     14          1           0       -2.112770    0.311879   -2.338911
     15          1           0       -2.646900   -1.824110   -1.500991
     16          1           0       -4.268950   -1.030020   -1.238261
     17          1           0       -3.714240   -0.522906    1.063709
     18          1           0       -1.403470    0.134769    1.600309
     19          1           0        1.479920    0.379989   -1.393891
     20          1           0        4.838180    0.629951   -0.263888
     21          1           0        2.809440    1.512400   -0.897437
     22          1           0        2.168910    1.241830    1.480409
     23          1           0        1.043510    0.089520    1.209769
     24          1           0        0.631393    2.991410    0.360282
     25          1           0        0.435994    2.378280    2.729059
     26          1           0       -1.053640    2.736720    2.086419
     27          1           0        5.015110   -1.167210   -0.261171
     28          7           0       -0.265945    2.094480    2.025329
     29          7           0        4.465380   -0.328549   -0.424846
     30          7           0       -1.551930    0.548725   -0.354554
     31          8           0       -0.657122   -2.433510    1.430369
     32          8           0       -0.829605    2.358920   -1.393701
     33          8           0        2.728950   -1.706770   -0.340004
     34          8           0        0.117945   -1.529520   -0.576489
 ---------------------------------------------------------------------

 SCF Done:  E(RHF) =  -852.377732172     A.U. after    2 cycles

 The electronic state is 1-A.
 Alpha  occ. eigenvalues --  -20.56433 -20.54240 -20.52972 -20.50538 -15.55017
 Alpha  occ. eigenvalues --  -15.51582 -15.50869 -11.38789 -11.37803 -11.34876
 Alpha  occ. eigenvalues --  -11.29368 -11.27275 -11.26848 -11.26395 -11.25281
 Alpha  occ. eigenvalues --  -11.23700 -11.23593  -1.51649  -1.50327  -1.47665
 Alpha  occ. eigenvalues --   -1.44282  -1.28182  -1.22955  -1.19804  -1.08900
 Alpha  occ. eigenvalues --   -1.08164  -1.02921  -0.97739  -0.91450  -0.87611
 Alpha  occ. eigenvalues --   -0.84648  -0.82866  -0.81591  -0.77816  -0.76869
 Alpha  occ. eigenvalues --   -0.72511  -0.71405  -0.71066  -0.69191  -0.68257
 Alpha  occ. eigenvalues --   -0.67283  -0.65479  -0.64164  -0.63743  -0.62538
 Alpha  occ. eigenvalues --   -0.62021  -0.60706  -0.59112  -0.58679  -0.57613
 Alpha  occ. eigenvalues --   -0.56841  -0.54053  -0.53359  -0.51903  -0.51806
 Alpha  occ. eigenvalues --   -0.50412  -0.49699  -0.47693  -0.46976  -0.46387
 Alpha  occ. eigenvalues --   -0.45121  -0.44359  -0.43977  -0.41699  -0.38159
 Alpha virt. eigenvalues --    0.01757   0.02723   0.03848   0.03929   0.04463
 Alpha virt. eigenvalues --    0.04931   0.05203   0.05567   0.06133   0.06754
 Alpha virt. eigenvalues --    0.07033   0.07679   0.08515   0.08766   0.09556

 Mulliken charges:
               1
     1  C   -1.370260
     2  C    0.338915
     3  C   -0.237331
     4  C    2.857020
     5  C   -1.449264
     6  C   -0.495053
     7  C   -0.675302
     8  C    0.610860
     9  C    0.729808
    10  C    0.324288
    11  H    0.192457
    12  H    0.741200
    13  H   -0.101811
    14  H    0.129491
    15  H    0.016008
    16  H    0.262448
    17  H    0.086354
    18  H    0.057999
    19  H    0.337081
    20  H    0.104053
    21  H    0.086018
    22  H    0.035436
    23  H    0.146187
    24  H   -0.077241
    25  H    0.226553
    26  H    0.209626
    27  H    0.108916
    28  N    0.432286
    29  N    0.951827
    30  N    1.634507
    31  O   -1.504971
    32  O   -1.485362
    33  O   -1.514457
    34  O   -1.708283
 Sum of Mulliken charges =  -0.00000

 Dipole moment (field-independent basis, Debye):
    X=              3.2546    Y=              3.5558    Z=              1.3948  Tot=              5.0181

 Test job not archived.
 1\1\GINC-SE132\SP\RHF\Aug-CC-pVDZ\C10H17N3O4\OHZDE\08-Apr-2025\0\\#t h
 f aug-cc-pvdz iop(5/13=1,5/36=2,99/5=2) pseudo=read geom=check guess=(
 read,tcheck) scf=(maxcycle=1)\\title\\0,1\C,0,0.290365,2.00103,0.64827
 9\C,0,-2.57009,0.300736,-1.3417\C,0,-2.92125,-1.10054,0.554888\C,0,-0.
 592139,-1.58024,0.595881\C,0,-1.57601,-0.418979,0.683947\C,0,-3.15215,
 -1.03351,-0.954437\C,0,2.18681,0.652924,-0.589601\C,0,1.44223,0.973765
 ,0.72057\C,0,-0.792569,1.65422,-0.43148\C,0,3.10218,-0.565092,-0.45324
 3\H,0,-2.92511,-2.14107,0.952668\H,0,1.05637,-1.85294,-0.484283\H,0,-3

 Normal termination of Gaussian 16 at Tue Apr  8 22:08:54 2025.
