 Gaussian 16, Revision C.01,

 ----------------------------------------------------------------------
 #t hf aug-cc-pvdz symm=none int=(grid=ultrafine) guess=(read,tcheck) s
 table=(opt,rrhf)
 ----------------------------------------------------------------------
 -----
 title
 -----
 Symbolic Z-matrix:
 Charge =  0 Multiplicity = 1

 SCF Done:  E(RHF) =  -379.680281722     A.U. after   14 cycles
 Normal termination of Gaussian 16 at Tue Apr  8 21:48:05 2025.
 Gaussian 16:  ES64L-G16RevC.01  3-Jul-2019

 ----------------------------------------------------------------------
 #t hf aug-cc-pvdz iop(5/13=1,5/36=2,99/5=2) pseudo=read geom=check gue
 ss=(read,tcheck) scf=(maxcycle=1)
 ----------------------------------------------------------------------
 -----
 title
 -----
 Structure from the checkpoint file:  "ANI1ccx_594_conf1_mol2.chk"
 Charge =  0 Multiplicity = 1

                         Standard orientation:
 ---------------------------------------------------------------------
 Center     Atomic      Atomic             Coordinates (Angstroms)
 Number     Number       Type             X           Y           Z
 ---------------------------------------------------------------------
      1          6           0       -2.742539    1.133321    0.028514
      2          6           0       -2.749209   -0.387190   -0.095630
      3          1           0        3.707321   -0.496317   -0.568403
      4          1           0        0.998129    0.508725   -0.570868
      5          1           0       -3.786639    1.473151   -0.010989
      6          1           0       -2.194479    1.613161   -0.797608
      7          1           0       -2.276049    1.461481    0.948845
      8          1           0       -3.418719   -0.803801    0.661943
      9          1           0       -3.132879   -0.683805   -1.093060
     10          1           0       -0.866154   -0.750147   -0.542348
     11          8           0        3.395721    0.377228   -0.278784
     12          8           0        2.363861    0.089601    0.602024
     13          8           0        1.232971   -0.332232   -0.174681
     14          8           0       -1.502559   -0.984501    0.148338
 ---------------------------------------------------------------------

 SCF Done:  E(RHF) =  -380.064814054     A.U. after    2 cycles

 The electronic state is 1-A.
 Alpha  occ. eigenvalues --  -20.69418 -20.64158 -20.64002 -20.53835 -11.28147
 Alpha  occ. eigenvalues --  -11.22900  -1.69192  -1.47227  -1.44227  -1.20609
 Alpha  occ. eigenvalues --   -1.01399  -0.84782  -0.79007  -0.69593  -0.68813
 Alpha  occ. eigenvalues --   -0.68172  -0.66928  -0.62720  -0.60427  -0.55066
 Alpha  occ. eigenvalues --   -0.53036  -0.52081  -0.51199  -0.48781  -0.47580
 Alpha  occ. eigenvalues --   -0.43146
 Alpha virt. eigenvalues --    0.03376   0.04133   0.04502   0.04782   0.05834
 Alpha virt. eigenvalues --    0.07621   0.08522   0.09183   0.12178   0.12765
 Alpha virt. eigenvalues --    0.14022   0.14825   0.15494   0.16292   0.16872

 Mulliken charges:
               1
     1  C   -0.472251
     2  C    0.593644
     3  H    0.460242
     4  H    0.493725
     5  H    0.176465
     6  H    0.119286
     7  H    0.175370
     8  H    0.032660
     9  H    0.139684
    10  H    0.371893
    11  O   -0.454530
    12  O    0.142827
    13  O   -0.620618
    14  O   -1.158396
 Sum of Mulliken charges =  -0.00000

 Dipole moment (field-independent basis, Debye):
    X=              0.0236    Y=              0.8405    Z=             -2.4536  Tot=              2.5937

 Test job not archived.
 1\1\GINC-SE221\SP\RHF\Aug-CC-pVDZ\C2H8O4\OHZDE\08-Apr-2025\0\\#t hf au
 g-cc-pvdz iop(5/13=1,5/36=2,99/5=2) pseudo=read geom=check guess=(read
 ,tcheck) scf=(maxcycle=1)\\title\\0,1\C,0,-2.74254,1.13332,0.0285138\C
 ,0,-2.74921,-0.387191,-0.0956297\H,0,3.70732,-0.496317,-0.568403\H,0,0
 .998128,0.508725,-0.570868\H,0,-3.78664,1.47315,-0.0109888\H,0,-2.1944
 8,1.61316,-0.797608\H,0,-2.27605,1.46148,0.948845\H,0,-3.41872,-0.8038
 02,0.661943\H,0,-3.13288,-0.683806,-1.09306\H,0,-0.866155,-0.750147,-0
 .542348\O,0,3.39572,0.377228,-0.278784\O,0,2.36386,0.0896014,0.602024\

 Normal termination of Gaussian 16 at Tue Apr  8 21:48:08 2025.
