 Gaussian 16, Revision C.01,

 ----------------------------------------------------------------------
 #t hf aug-cc-pvdz symm=none int=(grid=ultrafine) guess=(read,tcheck) s
 table=(opt,rrhf)
 ----------------------------------------------------------------------
 -----
 title
 -----
 Symbolic Z-matrix:
 Charge =  0 Multiplicity = 1

 SCF Done:  E(RHF) =  -456.277922083     A.U. after   11 cycles
 Normal termination of Gaussian 16 at Tue Apr  8 21:08:46 2025.
 Gaussian 16:  ES64L-G16RevC.01  3-Jul-2019

 ----------------------------------------------------------------------
 #t hf aug-cc-pvdz iop(5/13=1,5/36=2,99/5=2) pseudo=read geom=check gue
 ss=(read,tcheck) scf=(maxcycle=1)
 ----------------------------------------------------------------------
 -----
 title
 -----
 Structure from the checkpoint file:  "ANI1ccx_1844_conf42_mol1.chk"
 Charge =  0 Multiplicity = 1

                         Standard orientation:
 ---------------------------------------------------------------------
 Center     Atomic      Atomic             Coordinates (Angstroms)
 Number     Number       Type             X           Y           Z
 ---------------------------------------------------------------------
      1          1           0        2.350130    0.506325   -0.535236
      2          1           0       -2.284991   -1.689848   -1.316080
      3          1           0       -2.485200   -0.415727   -0.435662
      4          1           0        2.736849   -1.674413   -1.164030
      5          1           0        1.637119   -1.475582   -0.040225
      6          1           0       -0.008181   -1.929490    1.576500
      7          1           0        2.815042    1.818807    0.173918
      8          1           0       -0.809818   -1.520350    0.317747
      9          1           0       -0.085782    0.468018    1.078200
     10          1           0        0.654058    1.593369    0.289488
     11          1           0       -1.496889    1.409711   -0.036087
     12          1           0       -3.034559    1.775432    0.073430
     13          8           0        2.572819   -1.250542   -0.283537
     14          8           0       -0.109496    1.429270    0.914133
     15          8           0       -2.350431   -1.406068   -0.393885
     16          8           0        0.063374   -1.392010    0.767820
     17          8           0        2.217901    1.495238   -0.544177
     18          8           0       -2.392639    1.265832   -0.458101
 ---------------------------------------------------------------------

 SCF Done:  E(RHF) =  -456.751366776     A.U. after    2 cycles

 The electronic state is 1-A.
 Alpha  occ. eigenvalues --  -20.57588 -20.56446 -20.55722 -20.55045 -20.54612
 Alpha  occ. eigenvalues --  -20.53135  -1.46576  -1.44150  -1.43621  -1.42688
 Alpha  occ. eigenvalues --   -1.41880  -1.40225  -0.73506  -0.71918  -0.71776
 Alpha  occ. eigenvalues --   -0.70264  -0.69556  -0.68996  -0.63060  -0.60209
 Alpha  occ. eigenvalues --   -0.58669  -0.58367  -0.56344  -0.54373  -0.51292
 Alpha  occ. eigenvalues --   -0.49893  -0.49728  -0.48739  -0.48303  -0.46853
 Alpha virt. eigenvalues --    0.03044   0.04371   0.04549   0.05123   0.06133
 Alpha virt. eigenvalues --    0.07893   0.08540   0.09019   0.09133   0.10250
 Alpha virt. eigenvalues --    0.10564   0.12672   0.16574   0.18680   0.19729

 Mulliken charges:
               1
     1  H    0.698802
     2  H    0.322642
     3  H    0.723581
     4  H    0.357980
     5  H    0.775964
     6  H    0.437248
     7  H    0.371700
     8  H    0.870965
     9  H    0.674836
    10  H    0.673060
    11  H    0.793500
    12  H    0.317261
    13  O   -1.005996
    14  O   -1.332348
    15  O   -1.032642
    16  O   -1.501686
    17  O   -1.051134
    18  O   -1.093733
 Sum of Mulliken charges =  -0.00000

 Dipole moment (field-independent basis, Debye):
    X=              0.0306    Y=             -2.5846    Z=              0.0060  Tot=              2.5848

 Test job not archived.
 1\1\GINC-SE095\SP\RHF\Aug-CC-pVDZ\H12O6\OHZDE\08-Apr-2025\0\\#t hf aug
 -cc-pvdz iop(5/13=1,5/36=2,99/5=2) pseudo=read geom=check guess=(read,
 tcheck) scf=(maxcycle=1)\\title\\0,1\H,0,2.35013,0.506327,-0.535236\H,
 0,-2.28499,-1.68985,-1.31608\H,0,-2.4852,-0.415729,-0.435662\H,0,2.736
 85,-1.67441,-1.16403\H,0,1.63712,-1.47558,-0.0402251\H,0,-0.0081798,-1
 .92949,1.5765\H,0,2.81504,1.81881,0.173918\H,0,-0.809817,-1.52035,0.31
 7747\H,0,-0.0857821,0.468018,1.0782\H,0,0.654057,1.59337,0.289488\H,0,
 -1.49689,1.40971,-0.0360874\H,0,-3.03456,1.77543,0.0734299\O,0,2.57282

 Normal termination of Gaussian 16 at Tue Apr  8 21:08:51 2025.
