 Gaussian 16, Revision C.01,

 ----------------------------------------------------------------------
 #t hf aug-cc-pvdz symm=none int=(grid=ultrafine) guess=(read,tcheck) s
 table=(opt,rrhf)
 ----------------------------------------------------------------------
 -----
 title
 -----
 Symbolic Z-matrix:
 Charge =  0 Multiplicity = 1

 SCF Done:  E(RHF) =  -752.385077009     A.U. after   15 cycles
 Normal termination of Gaussian 16 at Tue Apr  8 20:05:28 2025.
 Gaussian 16:  ES64L-G16RevC.01  3-Jul-2019

 ----------------------------------------------------------------------
 #t hf aug-cc-pvdz iop(5/13=1,5/36=2,99/5=2) pseudo=read geom=check gue
 ss=(read,tcheck) scf=(maxcycle=1)
 ----------------------------------------------------------------------
 -----
 title
 -----
 Structure from the checkpoint file:  "ANI1ccx_1572_conf10_mol1.chk"
 Charge =  0 Multiplicity = 1

                         Standard orientation:
 ---------------------------------------------------------------------
 Center     Atomic      Atomic             Coordinates (Angstroms)
 Number     Number       Type             X           Y           Z
 ---------------------------------------------------------------------
      1          6           0        2.198279   -2.376510   -0.235838
      2          6           0        1.662400   -0.984063   -0.548331
      3          6           0        0.090934    0.822117   -0.196528
      4          6           0        1.233291    1.810600    0.197201
      5          6           0       -1.173089    1.308411    0.440988
      6          6           0       -2.292880    0.369471    0.321878
      7          6           0       -3.478790    0.614871   -0.374433
      8          6           0       -3.281340   -1.491098    0.130823
      9          1           0        2.445971    3.115400   -0.515790
     10          1           0       -5.020560   -0.854051   -0.766886
     11          1           0       -3.474591   -2.615978    0.107473
     12          1           0       -3.736089    1.589212   -0.818007
     13          1           0       -1.403299    2.375501    0.179837
     14          1           0       -0.831671    1.432701    1.456510
     15          1           0       -0.035783    0.654729   -1.286840
     16          1           0        0.024743   -1.138560    0.630764
     17          1           0        2.427489   -2.865910   -1.155460
     18          1           0        1.433349   -3.024420    0.408254
     19          1           0        3.304630   -2.253301    1.553760
     20          1           0        3.945590   -1.311021    0.247433
     21          7           0        3.437670   -2.123351    0.576062
     22          7           0        0.659870   -0.444005    0.265167
     23          7           0       -2.177290   -0.973434    0.526273
     24          7           0       -4.115060   -0.660837   -0.362806
     25          8           0        2.352710   -0.195793   -1.182350
     26          8           0        1.709771    1.899080    1.322020
     27          8           0        1.753901    2.529750   -0.825728
 ---------------------------------------------------------------------

 SCF Done:  E(RHF) =  -753.145169033     A.U. after    2 cycles

 The electronic state is 1-A.
 Alpha  occ. eigenvalues --  -20.57881 -20.52152 -20.50501 -15.58406 -15.51301
 Alpha  occ. eigenvalues --  -15.49322 -15.47828 -11.38614 -11.34915 -11.31998
 Alpha  occ. eigenvalues --  -11.29730 -11.28531 -11.28516 -11.27668 -11.25558
 Alpha  occ. eigenvalues --   -1.52457  -1.45563  -1.42439  -1.38198  -1.23430
 Alpha  occ. eigenvalues --   -1.20726  -1.16293  -1.09199  -1.02729  -0.95779
 Alpha  occ. eigenvalues --   -0.92043  -0.88595  -0.83546  -0.82557  -0.78977
 Alpha  occ. eigenvalues --   -0.78459  -0.72203  -0.72178  -0.69255  -0.68254
 Alpha  occ. eigenvalues --   -0.66518  -0.66090  -0.64765  -0.63651  -0.62664
 Alpha  occ. eigenvalues --   -0.61609  -0.59950  -0.58491  -0.57405  -0.56214
 Alpha  occ. eigenvalues --   -0.54857  -0.54087  -0.50787  -0.49332  -0.46136
 Alpha  occ. eigenvalues --   -0.45251  -0.43909  -0.43120  -0.41625  -0.39938
 Alpha  occ. eigenvalues --   -0.34920
 Alpha virt. eigenvalues --    0.01708   0.03354   0.03459   0.04589   0.05050
 Alpha virt. eigenvalues --    0.05097   0.05393   0.06067   0.06900   0.07272
 Alpha virt. eigenvalues --    0.08127   0.09075   0.09633   0.10026   0.10775

 Mulliken charges:
               1
     1  C   -0.593580
     2  C    0.258319
     3  C   -1.417110
     4  C    3.185716
     5  C    0.057420
     6  C   -0.461150
     7  C   -0.349602
     8  C   -1.149188
     9  H    0.337902
    10  H    0.016696
    11  H   -0.027295
    12  H   -0.148644
    13  H    0.161248
    14  H    0.215694
    15  H   -0.021162
    16  H    0.258607
    17  H    0.021880
    18  H    0.265254
    19  H    0.138143
    20  H    0.130844
    21  N    0.267025
    22  N    1.029656
    23  N    1.237293
    24  N    0.822093
    25  O   -1.350387
    26  O   -1.449426
    27  O   -1.436247
 Sum of Mulliken charges =  -0.00000

 Dipole moment (field-independent basis, Debye):
    X=             -7.5473    Y=             -0.9987    Z=             -1.7741  Tot=              7.8171

 Test job not archived.
 1\1\GINC-SE081\SP\RHF\Aug-CC-pVDZ\C8H12N4O3\OHZDE\08-Apr-2025\0\\#t hf
  aug-cc-pvdz iop(5/13=1,5/36=2,99/5=2) pseudo=read geom=check guess=(r
 ead,tcheck) scf=(maxcycle=1)\\title\\0,1\C,0,2.19828,-2.37651,-0.23583
 8\C,0,1.6624,-0.984063,-0.548331\C,0,0.0909337,0.822117,-0.196528\C,0,
 1.23329,1.8106,0.197201\C,0,-1.17309,1.30841,0.440988\C,0,-2.29288,0.3
 6947,0.321878\C,0,-3.47879,0.614869,-0.374433\C,0,-3.28134,-1.4911,0.1
 30823\H,0,2.44597,3.1154,-0.51579\H,0,-5.02056,-0.854053,-0.766886\H,0
 ,-3.47459,-2.61598,0.107473\H,0,-3.73609,1.58921,-0.818007\H,0,-1.4033

 Normal termination of Gaussian 16 at Tue Apr  8 20:05:57 2025.
