 Gaussian 16, Revision C.01,

 ----------------------------------------------------------------------
 #t hf aug-cc-pvdz symm=none int=(grid=ultrafine) guess=(read,tcheck) s
 table=(opt,rrhf)
 ----------------------------------------------------------------------
 -----
 title
 -----
 Symbolic Z-matrix:
 Charge =  0 Multiplicity = 1

 SCF Done:  E(RHF) =  -380.232174300     A.U. after   11 cycles
 Normal termination of Gaussian 16 at Tue Apr  8 21:01:26 2025.
 Gaussian 16:  ES64L-G16RevC.01  3-Jul-2019

 ----------------------------------------------------------------------
 #t hf aug-cc-pvdz iop(5/13=1,5/36=2,99/5=2) pseudo=read geom=check gue
 ss=(read,tcheck) scf=(maxcycle=1)
 ----------------------------------------------------------------------
 -----
 title
 -----
 Structure from the checkpoint file:  "ANI1ccx_1843_conf14_mol1.chk"
 Charge =  0 Multiplicity = 1

                         Standard orientation:
 ---------------------------------------------------------------------
 Center     Atomic      Atomic             Coordinates (Angstroms)
 Number     Number       Type             X           Y           Z
 ---------------------------------------------------------------------
      1          1           0       -0.825563    0.513120    1.518650
      2          1           0       -1.961611   -0.144387    0.766041
      3          1           0        1.094289    1.169440    0.147646
      4          1           0        0.358664    2.580030    0.245460
      5          1           0       -0.294334   -1.435400    0.561759
      6          1           0       -0.212691   -1.428440   -0.928522
      7          1           0       -1.853791    0.490713   -2.155000
      8          1           0       -0.859203    0.841873   -1.042810
      9          1           0        1.729699   -0.760921   -0.194535
     10          1           0        2.851769   -0.087122    0.646837
     11          8           0       -1.373001   -0.294756    1.513510
     12          8           0        0.202200    1.616640    0.217397
     13          8           0        0.305869   -1.714850   -0.162475
     14          8           0       -1.499531    0.147865   -1.338700
     15          8           0        2.361059    0.027739   -0.175424
 ---------------------------------------------------------------------

 SCF Done:  E(RHF) =  -380.627863753     A.U. after    2 cycles

 The electronic state is 1-A.
 Alpha  occ. eigenvalues --  -20.57389 -20.56270 -20.55433 -20.54344 -20.53670
 Alpha  occ. eigenvalues --   -1.46101  -1.44332  -1.43535  -1.42941  -1.41374
 Alpha  occ. eigenvalues --   -0.73722  -0.72458  -0.70505  -0.69757  -0.68517
 Alpha  occ. eigenvalues --   -0.62079  -0.60621  -0.59045  -0.57539  -0.54586
 Alpha  occ. eigenvalues --   -0.51430  -0.50631  -0.49734  -0.48474  -0.47184
 Alpha virt. eigenvalues --    0.02749   0.03908   0.05053   0.06481   0.07718
 Alpha virt. eigenvalues --    0.08052   0.08370   0.09164   0.09519   0.11119
 Alpha virt. eigenvalues --    0.16339   0.18712   0.19690   0.20594   0.21661

 Mulliken charges:
               1
     1  H    0.608802
     2  H    0.526734
     3  H    0.820144
     4  H    0.468362
     5  H    0.674295
     6  H    0.571666
     7  H    0.406840
     8  H    0.720672
     9  H    0.666163
    10  H    0.364683
    11  O   -1.051033
    12  O   -1.457476
    13  O   -1.347904
    14  O   -1.002425
    15  O   -0.969523
 Sum of Mulliken charges =  -0.00000

 Dipole moment (field-independent basis, Debye):
    X=              0.0889    Y=              3.6887    Z=             -0.9328  Tot=              3.8059

 Test job not archived.
 1\1\GINC-SE044\SP\RHF\Aug-CC-pVDZ\H10O5\OHZDE\08-Apr-2025\0\\#t hf aug
 -cc-pvdz iop(5/13=1,5/36=2,99/5=2) pseudo=read geom=check guess=(read,
 tcheck) scf=(maxcycle=1)\\title\\0,1\H,0,-0.825562,0.51312,1.51865\H,0
 ,-1.96161,-0.144387,0.766041\H,0,1.09429,1.16944,0.147646\H,0,0.358665
 ,2.58003,0.24546\H,0,-0.294333,-1.4354,0.561759\H,0,-0.21269,-1.42844,
 -0.928522\H,0,-1.85379,0.490713,-2.155\H,0,-0.859202,0.841873,-1.04281
 \H,0,1.7297,-0.760921,-0.194535\H,0,2.85177,-0.087122,0.646837\O,0,-1.
 373,-0.294756,1.51351\O,0,0.202201,1.61664,0.217397\O,0,0.30587,-1.714

 Normal termination of Gaussian 16 at Tue Apr  8 21:01:29 2025.
