 Gaussian 16, Revision C.01,

 ----------------------------------------------------------------------
 #t hf aug-cc-pvdz symm=none int=(grid=ultrafine) guess=(read,tcheck) s
 table=(opt,rrhf)
 ----------------------------------------------------------------------
 -----
 title
 -----
 Symbolic Z-matrix:
 Charge =  0 Multiplicity = 1

 SCF Done:  E(RHF) =  -923.173187900     A.U. after   15 cycles
 Normal termination of Gaussian 16 at Tue Apr  8 20:14:51 2025.
 Gaussian 16:  ES64L-G16RevC.01  3-Jul-2019

 ----------------------------------------------------------------------
 #t hf aug-cc-pvdz iop(5/13=1,5/36=2,99/5=2) pseudo=read geom=check gue
 ss=(read,tcheck) scf=(maxcycle=1)
 ----------------------------------------------------------------------
 -----
 title
 -----
 Structure from the checkpoint file:  "ANI1ccx_1584_conf25_mol1.chk"
 Charge =  0 Multiplicity = 1

                         Standard orientation:
 ---------------------------------------------------------------------
 Center     Atomic      Atomic             Coordinates (Angstroms)
 Number     Number       Type             X           Y           Z
 ---------------------------------------------------------------------
      1          6           0       -1.498680   -1.622729   -0.400100
      2          6           0       -0.168399   -1.033510    0.112896
      3          6           0       -2.816420   -1.034158    0.451518
      4          6           0       -2.871899    0.448818    0.197695
      5          6           0        1.948721    0.097358   -0.662882
      6          6           0        2.983641   -0.771660   -0.093664
      7          6           0        1.818382    1.415359    0.162571
      8          6           0        0.667620    2.237270   -0.157478
      9          1           0        1.776300   -0.879171    1.419800
     10          1           0        1.249623    3.623349    1.114220
     11          1           0       -0.356630    3.793160    0.672486
     12          1           0        2.782382    1.998048    0.025269
     13          1           0        1.761322    1.055669    1.203860
     14          1           0        2.269511    0.341100   -1.685870
     15          1           0        0.221949   -0.306737   -1.725030
     16          1           0       -2.750928    1.580302   -1.169440
     17          1           0       -3.790460   -1.405838    0.060408
     18          1           0       -2.604690   -1.351168    1.512400
     19          1           0       -1.654120   -1.295119   -1.362960
     20          1           0       -0.792153   -3.668139   -0.249678
     21          1           0       -2.213361   -3.400769    0.502540
     22          7           0       -1.699541   -3.146559   -0.309605
     23          7           0        0.642699   -0.563600   -0.895621
     24          7           0        0.347640    3.089290    0.891175
     25          8           0        0.030644   -1.026600    1.344620
     26          8           0       -2.698398    1.294292    0.957338
     27          8           0       -2.998119    0.643096   -1.137930
     28          8           0        4.051420   -1.074682   -0.629973
     29          8           0       -0.019944    2.159610   -1.166930
     30          8           0        2.720380   -1.265602    1.160000
 ---------------------------------------------------------------------

 SCF Done:  E(RHF) =  -924.086704717     A.U. after    2 cycles

 The electronic state is 1-A.
 Alpha  occ. eigenvalues --  -20.60353 -20.59034 -20.56279 -20.55763 -20.55186
 Alpha  occ. eigenvalues --  -20.54302 -15.57431 -15.55234 -15.51915 -11.40761
 Alpha  occ. eigenvalues --  -11.40327 -11.39629 -11.39500 -11.33372 -11.31507
 Alpha  occ. eigenvalues --  -11.29555 -11.28200  -1.57824  -1.52119  -1.49963
 Alpha  occ. eigenvalues --   -1.49187  -1.48496  -1.43120  -1.29366  -1.24531
 Alpha  occ. eigenvalues --   -1.18908  -1.11634  -1.05201  -1.00859  -0.95176
 Alpha  occ. eigenvalues --   -0.88105  -0.83523  -0.81496  -0.80447  -0.77156
 Alpha  occ. eigenvalues --   -0.76082  -0.74682  -0.73309  -0.71984  -0.71349
 Alpha  occ. eigenvalues --   -0.69681  -0.69098  -0.67497  -0.66604  -0.66202
 Alpha  occ. eigenvalues --   -0.65200  -0.63737  -0.62482  -0.61025  -0.59404
 Alpha  occ. eigenvalues --   -0.59049  -0.58315  -0.57053  -0.56005  -0.55238
 Alpha  occ. eigenvalues --   -0.52118  -0.50224  -0.49247  -0.48530  -0.47708
 Alpha  occ. eigenvalues --   -0.46577  -0.45957  -0.45265  -0.44269  -0.43671
 Alpha virt. eigenvalues --    0.01971   0.03408   0.03835   0.03979   0.04598
 Alpha virt. eigenvalues --    0.05146   0.05550   0.05905   0.06625   0.07622
 Alpha virt. eigenvalues --    0.07861   0.08445   0.08973   0.09373   0.10113

 Mulliken charges:
               1
     1  C   -0.588623
     2  C   -0.086642
     3  C   -0.551936
     4  C    2.688360
     5  C   -0.913675
     6  C    2.507525
     7  C   -0.740755
     8  C    0.650979
     9  H    0.770683
    10  H    0.293770
    11  H    0.092989
    12  H    0.287484
    13  H    0.293593
    14  H    0.016646
    15  H    0.259091
    16  H    0.428938
    17  H    0.275392
    18  H    0.232478
    19  H   -0.115628
    20  H    0.144507
    21  H    0.204990
    22  N    0.325063
    23  N    1.554498
    24  N    0.508637
    25  O   -1.402563
    26  O   -1.330690
    27  O   -1.400298
    28  O   -1.423486
    29  O   -1.467476
    30  O   -1.513849
 Sum of Mulliken charges =   0.00000

 Dipole moment (field-independent basis, Debye):
    X=             -2.2202    Y=              3.8679    Z=             -0.5313  Tot=              4.4914

 Test job not archived.
 1\1\GINC-SE249\SP\RHF\Aug-CC-pVDZ\C8H13N3O6\OHZDE\08-Apr-2025\0\\#t hf
  aug-cc-pvdz iop(5/13=1,5/36=2,99/5=2) pseudo=read geom=check guess=(r
 ead,tcheck) scf=(maxcycle=1)\\title\\0,1\C,0,-1.49868,-1.62273,-0.4001
 \C,0,-0.168399,-1.03351,0.112896\C,0,-2.81642,-1.03416,0.451518\C,0,-2
 .8719,0.448816,0.197695\C,0,1.94872,0.0973594,-0.662882\C,0,2.98364,-0
 .771658,-0.0936641\C,0,1.81838,1.41536,0.162571\C,0,0.667618,2.23727,-
 0.157478\H,0,1.7763,-0.87917,1.4198\H,0,1.24962,3.62335,1.11422\H,0,-0
 .356633,3.79316,0.672486\H,0,2.78238,1.99805,0.0252691\H,0,1.76132,1.0

 Normal termination of Gaussian 16 at Tue Apr  8 20:15:33 2025.
