 Gaussian 16, Revision C.01,

 ----------------------------------------------------------------------
 #t hf aug-cc-pvdz symm=none int=(grid=ultrafine) guess=(read,tcheck) s
 table=(opt,rrhf)
 ----------------------------------------------------------------------
 -----
 title
 -----
 Symbolic Z-matrix:
 Charge =  0 Multiplicity = 1

 SCF Done:  E(RHF) =  -449.652116665     A.U. after   14 cycles
 Normal termination of Gaussian 16 at Tue Apr  8 21:39:00 2025.
 Gaussian 16:  ES64L-G16RevC.01  3-Jul-2019

 ----------------------------------------------------------------------
 #t hf aug-cc-pvdz iop(5/13=1,5/36=2,99/5=2) pseudo=read geom=check gue
 ss=(read,tcheck) scf=(maxcycle=1)
 ----------------------------------------------------------------------
 -----
 title
 -----
 Structure from the checkpoint file:  "ANI1ccx_428_conf1_mol1.chk"
 Charge =  0 Multiplicity = 1

                         Standard orientation:
 ---------------------------------------------------------------------
 Center     Atomic      Atomic             Coordinates (Angstroms)
 Number     Number       Type             X           Y           Z
 ---------------------------------------------------------------------
      1          6           0       -0.047122   -0.096036   -0.222778
      2          1           0        3.863559   -0.432637   -0.516197
      3          1           0        2.983099   -0.027213    0.650787
      4          1           0       -2.640791   -1.178779    0.051814
      5          1           0       -0.410437   -2.004629   -0.653143
      6          1           0       -0.090300    1.813161    0.253427
      7          1           0       -2.588421    1.131641    0.244386
      8          7           0       -0.921183   -1.138149   -0.473040
      9          7           0       -0.620041    1.009931    0.311023
     10          8           0        3.840149    0.179245    0.220567
     11          8           0       -1.853941   -1.262769    0.604805
     12          8           0        1.137259   -0.246062   -0.282430
     13          8           0       -1.879141    1.601111   -0.237978
 ---------------------------------------------------------------------

 SCF Done:  E(RHF) =  -450.103237530     A.U. after    2 cycles

 The electronic state is 1-A.
 Alpha  occ. eigenvalues --  -20.63692 -20.63160 -20.55006 -20.52200 -15.59710
 Alpha  occ. eigenvalues --  -15.59555 -11.41418  -1.54880  -1.51609  -1.49423
 Alpha  occ. eigenvalues --   -1.39957  -1.23302  -1.17647  -0.91338  -0.78501
 Alpha  occ. eigenvalues --   -0.76181  -0.74409  -0.70811  -0.69939  -0.66936
 Alpha  occ. eigenvalues --   -0.64851  -0.62038  -0.55588  -0.55384  -0.54209
 Alpha  occ. eigenvalues --   -0.49456  -0.48939  -0.46466  -0.45388
 Alpha virt. eigenvalues --    0.02437   0.04170   0.04931   0.05865   0.06620
 Alpha virt. eigenvalues --    0.07669   0.10222   0.12118   0.12520   0.13004
 Alpha virt. eigenvalues --    0.13294   0.13875   0.15452   0.16379   0.17230

 Mulliken charges:
               1
     1  C    0.166837
     2  H    0.358488
     3  H    0.506583
     4  H    0.330354
     5  H    0.234325
     6  H    0.207158
     7  H    0.351102
     8  N    1.009397
     9  N    1.021675
    10  O   -0.829227
    11  O   -1.036498
    12  O   -1.275363
    13  O   -1.044831
 Sum of Mulliken charges =  -0.00000

 Dipole moment (field-independent basis, Debye):
    X=             -5.3278    Y=             -1.7632    Z=             -0.8468  Tot=              5.6755

 Test job not archived.
 1\1\GINC-SE221\SP\RHF\Aug-CC-pVDZ\C1H6N2O4\OHZDE\08-Apr-2025\0\\#t hf
 aug-cc-pvdz iop(5/13=1,5/36=2,99/5=2) pseudo=read geom=check guess=(re
 ad,tcheck) scf=(maxcycle=1)\\title\\0,1\C,0,-0.0471208,-0.0960362,-0.2
 22778\H,0,3.86356,-0.432637,-0.516197\H,0,2.9831,-0.0272128,0.650787\H
 ,0,-2.64079,-1.17878,0.0518144\H,0,-0.410435,-2.00463,-0.653143\H,0,-0
 .0902993,1.81316,0.253427\H,0,-2.58842,1.13164,0.244386\N,0,-0.921182,
 -1.13815,-0.47304\N,0,-0.62004,1.00993,0.311023\O,0,3.84015,0.179245,0
 .220567\O,0,-1.85394,-1.26277,0.604805\O,0,1.13726,-0.246062,-0.28243\

 Normal termination of Gaussian 16 at Tue Apr  8 21:39:04 2025.
