 Gaussian 16, Revision C.01,

 ----------------------------------------------------------------------
 #t hf aug-cc-pvdz symm=none int=(grid=ultrafine) guess=(read,tcheck) s
 table=(opt,rrhf)
 ----------------------------------------------------------------------
 -----
 title
 -----
 Symbolic Z-matrix:
 Charge =  0 Multiplicity = 1

 SCF Done:  E(RHF) =  -764.568053485     A.U. after   12 cycles
 Normal termination of Gaussian 16 at Tue Apr  8 22:19:11 2025.
 Gaussian 16:  ES64L-G16RevC.01  3-Jul-2019

 ----------------------------------------------------------------------
 #t hf aug-cc-pvdz iop(5/13=1,5/36=2,99/5=2) pseudo=read geom=check gue
 ss=(read,tcheck) scf=(maxcycle=1)
 ----------------------------------------------------------------------
 -----
 title
 -----
 Structure from the checkpoint file:  "ANI1ccx_92_conf1_mol1.chk"
 Charge =  0 Multiplicity = 1

                         Standard orientation:
 ---------------------------------------------------------------------
 Center     Atomic      Atomic             Coordinates (Angstroms)
 Number     Number       Type             X           Y           Z
 ---------------------------------------------------------------------
      1          6           0       -0.317501   -2.780689    0.254785
      2          6           0        2.910406   -1.223442   -0.394447
      3          6           0        1.775743    0.673577    0.741225
      4          6           0        1.849799    2.127042    0.821077
      5          6           0        0.063855    2.201289   -0.772896
      6          6           0        1.742652   -2.190227   -0.636445
      7          6           0       -2.738037    0.683730   -0.524502
      8          6           0       -3.216272   -0.584035    0.181316
      9          6           0       -1.078046   -1.529116    0.145495
     10          6           0       -1.217120    2.455104    0.057037
     11          1           0        0.135190    1.127599   -0.870519
     12          1           0        1.158873   -1.753415   -1.413870
     13          1           0        2.052548   -3.214228   -1.071740
     14          1           0        3.701495   -1.258285   -1.085990
     15          1           0        3.199944   -1.542713    0.592907
     16          1           0        0.733668    0.446833    0.743974
     17          1           0        2.214882    0.318577    1.707130
     18          1           0        2.924250    2.376858    0.910337
     19          1           0        1.302389    2.333795    1.798790
     20          1           0        0.144063    2.571429   -1.864150
     21          1           0       -2.361348    0.500609   -1.559050
     22          1           0       -1.957047    3.223007   -0.370541
     23          1           0       -3.603404    1.384594   -0.760435
     24          1           0       -3.203081   -0.229572    1.255820
     25          1           0       -4.252453   -0.800420   -0.011567
     26          1           0       -0.936331   -0.983846    1.185590
     27          1           0       -0.552307   -0.940156   -0.669091
     28          1           0       -0.653202   -3.348198    1.171620
     29          1           0       -0.383944   -3.420429   -0.680701
     30          1           0       -0.867306    2.922743    1.032800
     31          8           0        2.449111    0.130140   -0.429946
     32          8           0       -2.498566   -1.725941   -0.143457
     33          8           0       -1.871095    1.296187    0.407391
     34          8           0        1.271061    2.782115   -0.328362
     35          8           0        0.968270   -2.321774    0.584727
 ---------------------------------------------------------------------

 SCF Done:  E(RHF) =  -765.355562808     A.U. after    2 cycles

 The electronic state is 1-A.
 Alpha  occ. eigenvalues --  -20.55691 -20.55469 -20.55384 -20.54462 -20.54432
 Alpha  occ. eigenvalues --  -11.29717 -11.29619 -11.29395 -11.29223 -11.28929
 Alpha  occ. eigenvalues --  -11.28529 -11.28467 -11.28426 -11.28221 -11.27698
 Alpha  occ. eigenvalues --   -1.49125  -1.47590  -1.46088  -1.45519  -1.43663
 Alpha  occ. eigenvalues --   -1.06174  -1.04984  -1.01916  -0.99252  -0.95422
 Alpha  occ. eigenvalues --   -0.88472  -0.84869  -0.83783  -0.81792  -0.78783
 Alpha  occ. eigenvalues --   -0.72121  -0.70256  -0.69862  -0.68880  -0.68376
 Alpha  occ. eigenvalues --   -0.67394  -0.66022  -0.64024  -0.63245  -0.62604
 Alpha  occ. eigenvalues --   -0.60899  -0.60499  -0.58228  -0.57937  -0.55620
 Alpha  occ. eigenvalues --   -0.55295  -0.53439  -0.53259  -0.51604  -0.50614
 Alpha  occ. eigenvalues --   -0.49835  -0.48330  -0.47985  -0.46701  -0.44878
 Alpha  occ. eigenvalues --   -0.44099  -0.43915  -0.41774  -0.40662  -0.39685
 Alpha virt. eigenvalues --    0.02833   0.03165   0.03558   0.03799   0.04684
 Alpha virt. eigenvalues --    0.04856   0.05271   0.05539   0.05873   0.07167
 Alpha virt. eigenvalues --    0.07394   0.07703   0.08009   0.08747   0.08913

 Mulliken charges:
               1
     1  C   -0.025582
     2  C    0.504017
     3  C    0.689515
     4  C    0.098138
     5  C    0.868640
     6  C    0.479007
     7  C    0.433150
     8  C    0.412721
     9  C    0.263243
    10  C    0.267505
    11  H    0.012994
    12  H    0.215229
    13  H    0.124223
    14  H   -0.142301
    15  H    0.241371
    16  H   -0.003882
    17  H    0.139707
    18  H    0.073256
    19  H    0.368220
    20  H    0.121366
    21  H    0.276328
    22  H    0.250957
    23  H    0.012672
    24  H    0.384421
    25  H   -0.105963
    26  H    0.593991
    27  H    0.235901
    28  H    0.071436
    29  H    0.346002
    30  H    0.099742
    31  O   -1.424732
    32  O   -1.494808
    33  O   -1.468331
    34  O   -1.527161
    35  O   -1.390993
 Sum of Mulliken charges =   0.00000

 Dipole moment (field-independent basis, Debye):
    X=             -0.4194    Y=             -0.8041    Z=              0.0142  Tot=              0.9070

 Test job not archived.
 1\1\GINC-SE340\SP\RHF\Aug-CC-pVDZ\C10H20O5\OHZDE\08-Apr-2025\0\\#t hf
 aug-cc-pvdz iop(5/13=1,5/36=2,99/5=2) pseudo=read geom=check guess=(re
 ad,tcheck) scf=(maxcycle=1)\\title\\0,1\C,0,-0.31749,-2.78069,0.254785
 \C,0,2.91041,-1.22343,-0.394447\C,0,1.77574,0.673584,0.741225\C,0,1.84
 979,2.12705,0.821077\C,0,0.063846,2.20129,-0.772896\C,0,1.74266,-2.190
 22,-0.636445\C,0,-2.73804,0.68372,-0.524502\C,0,-3.21627,-0.584047,0.1
 81316\C,0,-1.07804,-1.52912,0.145495\C,0,-1.21713,2.4551,0.0570371\H,0
 ,0.135185,1.1276,-0.870519\H,0,1.15888,-1.75341,-1.41387\H,0,2.05256,-

 Normal termination of Gaussian 16 at Tue Apr  8 22:19:54 2025.
