 Gaussian 16, Revision C.01,

 ----------------------------------------------------------------------
 #t hf aug-cc-pvdz symm=none int=(grid=ultrafine) guess=(read,tcheck) s
 table=(opt,rrhf)
 ----------------------------------------------------------------------
 -----
 title
 -----
 Symbolic Z-matrix:
 Charge =  0 Multiplicity = 1

 SCF Done:  E(RHF) =  -380.221871063     A.U. after   11 cycles
 Normal termination of Gaussian 16 at Tue Apr  8 21:06:28 2025.
 Gaussian 16:  ES64L-G16RevC.01  3-Jul-2019

 ----------------------------------------------------------------------
 #t hf aug-cc-pvdz iop(5/13=1,5/36=2,99/5=2) pseudo=read geom=check gue
 ss=(read,tcheck) scf=(maxcycle=1)
 ----------------------------------------------------------------------
 -----
 title
 -----
 Structure from the checkpoint file:  "ANI1ccx_1843_conf79_mol1.chk"
 Charge =  0 Multiplicity = 1

                         Standard orientation:
 ---------------------------------------------------------------------
 Center     Atomic      Atomic             Coordinates (Angstroms)
 Number     Number       Type             X           Y           Z
 ---------------------------------------------------------------------
      1          1           0        0.831232    1.292912   -0.084766
      2          1           0        0.223597    2.758821    0.087289
      3          1           0        1.922309   -0.662985   -0.303069
      4          1           0        2.642588    0.277765    0.746723
      5          1           0        0.402133   -2.735608   -0.421358
      6          1           0        0.018578   -1.439759    0.517640
      7          1           0       -1.696501   -0.406029    0.718447
      8          1           0       -0.722891    0.391471    1.611690
      9          1           0       -0.902633   -0.446755   -1.290400
     10          1           0       -1.363882    0.982360   -0.841067
     11          8           0       -0.014120    1.838671    0.140398
     12          8           0        2.224138    0.249822   -0.169842
     13          8           0        0.439158   -1.750298   -0.325687
     14          8           0       -1.132801   -0.489024    1.495330
     15          8           0       -1.685692    0.149305   -1.232840
 ---------------------------------------------------------------------

 SCF Done:  E(RHF) =  -380.617295474     A.U. after    2 cycles

 The electronic state is 1-A.
 Alpha  occ. eigenvalues --  -20.57625 -20.57110 -20.56098 -20.55167 -20.52575
 Alpha  occ. eigenvalues --   -1.45911  -1.44427  -1.43841  -1.42657  -1.40119
 Alpha  occ. eigenvalues --   -0.74049  -0.72389  -0.72298  -0.70407  -0.68566
 Alpha  occ. eigenvalues --   -0.62194  -0.59118  -0.58741  -0.57127  -0.54008
 Alpha  occ. eigenvalues --   -0.51361  -0.51159  -0.49453  -0.49169  -0.46540
 Alpha virt. eigenvalues --    0.02893   0.03693   0.04947   0.06294   0.07666
 Alpha virt. eigenvalues --    0.08118   0.08454   0.09215   0.09521   0.10748
 Alpha virt. eigenvalues --    0.16238   0.18444   0.19544   0.21118   0.21901

 Mulliken charges:
               1
     1  H    0.804214
     2  H    0.419346
     3  H    0.599380
     4  H    0.429819
     5  H    0.445972
     6  H    0.720018
     7  H    0.584307
     8  H    0.495361
     9  H    0.527087
    10  H    0.641455
    11  O   -1.244081
    12  O   -1.031639
    13  O   -1.230926
    14  O   -1.108405
    15  O   -1.051906
 Sum of Mulliken charges =  -0.00000

 Dipole moment (field-independent basis, Debye):
    X=              3.2327    Y=             -0.1372    Z=              1.6348  Tot=              3.6252

 Test job not archived.
 1\1\GINC-SE038\SP\RHF\Aug-CC-pVDZ\H10O5\OHZDE\08-Apr-2025\0\\#t hf aug
 -cc-pvdz iop(5/13=1,5/36=2,99/5=2) pseudo=read geom=check guess=(read,
 tcheck) scf=(maxcycle=1)\\title\\0,1\H,0,0.831235,1.29291,-0.0847655\H
 ,0,0.223601,2.75882,0.0872895\H,0,1.92231,-0.662988,-0.303069\H,0,2.64
 259,0.277761,0.746723\H,0,0.402132,-2.73561,-0.421358\H,0,0.0185781,-1
 .43976,0.51764\H,0,-1.6965,-0.406029,0.718447\H,0,-0.722889,0.39147,1.
 61169\H,0,-0.902632,-0.446755,-1.2904\H,0,-1.36388,0.98236,-0.841067\O
 ,0,-0.0141175,1.83867,0.140398\O,0,2.22414,0.249819,-0.169842\O,0,0.43

 Normal termination of Gaussian 16 at Tue Apr  8 21:06:32 2025.
