 Gaussian 16, Revision C.01,

 ----------------------------------------------------------------------
 #t hf aug-cc-pvdz symm=none int=(grid=ultrafine) guess=(read,tcheck) s
 table=(opt,rrhf)
 ----------------------------------------------------------------------
 -----
 title
 -----
 Symbolic Z-matrix:
 Charge =  0 Multiplicity = 1

 SCF Done:  E(RHF) =  -371.976479100     A.U. after   13 cycles
 Normal termination of Gaussian 16 at Tue Apr  8 21:47:09 2025.
 Gaussian 16:  ES64L-G16RevC.01  3-Jul-2019

 ----------------------------------------------------------------------
 #t hf aug-cc-pvdz iop(5/13=1,5/36=2,99/5=2) pseudo=read geom=check gue
 ss=(read,tcheck) scf=(maxcycle=1)
 ----------------------------------------------------------------------
 -----
 title
 -----
 Structure from the checkpoint file:  "ANI1ccx_554_conf2_mol2.chk"
 Charge =  0 Multiplicity = 1

                         Standard orientation:
 ---------------------------------------------------------------------
 Center     Atomic      Atomic             Coordinates (Angstroms)
 Number     Number       Type             X           Y           Z
 ---------------------------------------------------------------------
      1          6           0        1.182869    0.078053   -0.054373
      2          6           0       -1.319491   -0.166213    0.004384
      3          1           0        3.126510   -0.473978    0.196914
      4          1           0        1.986750   -1.709439    0.563121
      5          1           0        2.205948    1.629691   -0.296071
      6          1           0        0.098366   -1.554430   -0.125083
      7          1           0       -2.321012    1.527679   -0.016043
      8          1           0       -0.593856    1.723269    0.016562
      9          7           0        2.176320   -0.867302    0.068182
     10          7           0        1.216539    1.342640   -0.199060
     11          7           0       -0.021400   -0.589870    0.022715
     12          7           0       -1.416341    1.179929    0.291899
     13          8           0       -2.171100   -1.008951   -0.165702
 ---------------------------------------------------------------------

 SCF Done:  E(RHF) =  -372.356748345     A.U. after    2 cycles

 The electronic state is 1-A.
 Alpha  occ. eigenvalues --  -20.50583 -15.55236 -15.53499 -15.50860 -15.48762
 Alpha  occ. eigenvalues --  -11.38516 -11.38188  -1.47203  -1.33945  -1.23870
 Alpha  occ. eigenvalues --   -1.19214  -1.18513  -0.93715  -0.84376  -0.80816
 Alpha  occ. eigenvalues --   -0.77274  -0.73580  -0.69977  -0.66805  -0.66529
 Alpha  occ. eigenvalues --   -0.62597  -0.58871  -0.51550  -0.48218  -0.45925
 Alpha  occ. eigenvalues --   -0.44182  -0.42290
 Alpha virt. eigenvalues --    0.01848   0.04171   0.04817   0.05388   0.07107
 Alpha virt. eigenvalues --    0.08632   0.10392   0.10441   0.11454   0.11783
 Alpha virt. eigenvalues --    0.13286   0.14141   0.14450   0.14689   0.15656

 Mulliken charges:
               1
     1  C   -1.670858
     2  C    0.073077
     3  H    0.228933
     4  H    0.038983
     5  H    0.173732
     6  H    0.270059
     7  H    0.264457
     8  H    0.144968
     9  N    0.515330
    10  N    0.670321
    11  N    0.189012
    12  N    0.345553
    13  O   -1.243569
 Sum of Mulliken charges =  -0.00000

 Dipole moment (field-independent basis, Debye):
    X=              5.0226    Y=             -0.3989    Z=              0.3491  Tot=              5.0505

 Test job not archived.
 1\1\GINC-SE048\SP\RHF\Aug-CC-pVDZ\C2H6N4O1\OHZDE\08-Apr-2025\0\\#t hf
 aug-cc-pvdz iop(5/13=1,5/36=2,99/5=2) pseudo=read geom=check guess=(re
 ad,tcheck) scf=(maxcycle=1)\\title\\0,1\C,0,1.18287,0.0780522,-0.05437
 31\C,0,-1.31949,-0.166212,0.00438363\H,0,3.12651,-0.47398,0.196914\H,0
 ,1.98675,-1.70944,0.563121\H,0,2.20595,1.62969,-0.296071\H,0,0.0983658
 ,-1.55443,-0.125083\H,0,-2.32101,1.52768,-0.0160433\H,0,-0.593854,1.72
 327,0.016562\N,0,2.17632,-0.867303,0.0681822\N,0,1.21654,1.34264,-0.19
 906\N,0,-0.0213994,-0.58987,0.0227146\N,0,-1.41634,1.17993,0.291899\O,

 Normal termination of Gaussian 16 at Tue Apr  8 21:47:13 2025.
