 Gaussian 16, Revision C.01,

 ----------------------------------------------------------------------
 #t hf aug-cc-pvdz symm=none int=(grid=ultrafine) guess=(read,tcheck) s
 table=(opt,rrhf)
 ----------------------------------------------------------------------
 -----
 title
 -----
 Symbolic Z-matrix:
 Charge =  0 Multiplicity = 1

 SCF Done:  E(RHF) =  -764.586726893     A.U. after   12 cycles
 Normal termination of Gaussian 16 at Tue Apr  8 22:21:56 2025.
 Gaussian 16:  ES64L-G16RevC.01  3-Jul-2019

 ----------------------------------------------------------------------
 #t hf aug-cc-pvdz iop(5/13=1,5/36=2,99/5=2) pseudo=read geom=check gue
 ss=(read,tcheck) scf=(maxcycle=1)
 ----------------------------------------------------------------------
 -----
 title
 -----
 Structure from the checkpoint file:  "ANI1ccx_92_conf1_mol2.chk"
 Charge =  0 Multiplicity = 1

                         Standard orientation:
 ---------------------------------------------------------------------
 Center     Atomic      Atomic             Coordinates (Angstroms)
 Number     Number       Type             X           Y           Z
 ---------------------------------------------------------------------
      1          6           0       -0.246864   -2.745450   -0.038492
      2          6           0       -3.107422   -0.600859    0.226464
      3          6           0       -1.735638    1.026183   -0.882044
      4          6           0       -1.222545    2.460502   -0.765039
      5          6           0        0.486315    2.178998    0.886830
      6          6           0       -2.224454   -1.709636    0.751627
      7          6           0        2.843240    0.132080    0.443665
      8          6           0        3.083167   -1.221737   -0.196335
      9          6           0        0.794711   -1.702913   -0.409280
     10          6           0        1.817524    2.213505    0.053331
     11          1           0        0.224628    1.169399    1.041960
     12          1           0       -1.536553   -1.380268    1.610940
     13          1           0       -2.847716   -2.467885    1.167660
     14          1           0       -4.179232   -0.544371    0.735738
     15          1           0       -3.437482   -0.791235   -0.865546
     16          1           0       -0.832610    0.334064   -1.030460
     17          1           0       -2.422209    0.899572   -1.688070
     18          1           0       -2.125424    3.068254   -1.007070
     19          1           0       -0.552601    2.503150   -1.639450
     20          1           0        0.696176    2.536558    1.860310
     21          1           0        2.435269   -0.162939    1.437160
     22          1           0        2.644755    2.489544    0.662711
     23          1           0        3.787201    0.630954    0.645062
     24          1           0        3.338127   -1.170798   -1.280980
     25          1           0        3.872646   -1.730349    0.318667
     26          1           0        0.789408   -1.388483   -1.437410
     27          1           0        0.450396   -0.791317    0.124508
     28          1           0       -0.288524   -3.567200   -0.781677
     29          1           0       -0.111460   -3.080281    0.972228
     30          1           0        1.677926    2.896436   -0.779950
     31          8           0       -2.495619    0.671766    0.339534
     32          8           0        2.048965   -2.199775    0.000264
     33          8           0        2.040891    0.915402   -0.441119
     34          8           0       -0.586727    2.901560    0.345167
     35          8           0       -1.571375   -2.243558   -0.305182
 ---------------------------------------------------------------------

 SCF Done:  E(RHF) =  -765.374947769     A.U. after    2 cycles

 The electronic state is 1-A.
 Alpha  occ. eigenvalues --  -20.55718 -20.55214 -20.54496 -20.53707 -20.53651
 Alpha  occ. eigenvalues --  -11.30136 -11.28947 -11.28793 -11.28758 -11.28474
 Alpha  occ. eigenvalues --  -11.28351 -11.28108 -11.27792 -11.27573 -11.27512
 Alpha  occ. eigenvalues --   -1.48875  -1.47985  -1.47579  -1.46001  -1.43286
 Alpha  occ. eigenvalues --   -1.05790  -1.04731  -1.00919  -0.99447  -0.94861
 Alpha  occ. eigenvalues --   -0.89306  -0.85277  -0.83287  -0.82395  -0.80307
 Alpha  occ. eigenvalues --   -0.72037  -0.70562  -0.69338  -0.69086  -0.68850
 Alpha  occ. eigenvalues --   -0.67737  -0.65402  -0.65151  -0.63893  -0.62400
 Alpha  occ. eigenvalues --   -0.61802  -0.60650  -0.58966  -0.58440  -0.56750
 Alpha  occ. eigenvalues --   -0.55069  -0.55004  -0.52496  -0.51920  -0.50775
 Alpha  occ. eigenvalues --   -0.50224  -0.48391  -0.47936  -0.47066  -0.45085
 Alpha  occ. eigenvalues --   -0.43694  -0.42970  -0.42060  -0.39429  -0.38469
 Alpha virt. eigenvalues --    0.02716   0.03163   0.03598   0.03989   0.04763
 Alpha virt. eigenvalues --    0.04786   0.05190   0.05541   0.05883   0.07019
 Alpha virt. eigenvalues --    0.07434   0.07613   0.08054   0.08528   0.09166

 Mulliken charges:
               1
     1  C    0.198777
     2  C    0.004309
     3  C    0.534811
     4  C    0.191226
     5  C    1.254974
     6  C    0.702748
     7  C    0.478008
     8  C    0.371778
     9  C    0.904145
    10  C    0.188728
    11  H   -0.047575
    12  H    0.344882
    13  H   -0.101416
    14  H    0.125510
    15  H    0.352851
    16  H    0.282951
    17  H   -0.041254
    18  H    0.070858
    19  H    0.313069
    20  H   -0.060206
    21  H    0.340827
    22  H    0.206417
    23  H   -0.096566
    24  H    0.207837
    25  H   -0.086713
    26  H    0.189600
    27  H    0.092936
    28  H    0.017056
    29  H    0.191534
    30  H   -0.076786
    31  O   -1.361275
    32  O   -1.572306
    33  O   -1.228623
    34  O   -1.499128
    35  O   -1.393981
 Sum of Mulliken charges =  -0.00000

 Dipole moment (field-independent basis, Debye):
    X=              2.1456    Y=              0.0673    Z=              0.1117  Tot=              2.1496

 Test job not archived.
 1\1\GINC-SE403\SP\RHF\Aug-CC-pVDZ\C10H20O5\OHZDE\08-Apr-2025\0\\#t hf
 aug-cc-pvdz iop(5/13=1,5/36=2,99/5=2) pseudo=read geom=check guess=(re
 ad,tcheck) scf=(maxcycle=1)\\title\\0,1\C,0,-0.246858,-2.74545,-0.0384
 922\C,0,-3.10742,-0.600865,0.226464\C,0,-1.73564,1.02618,-0.882044\C,0
 ,-1.22255,2.4605,-0.765039\C,0,0.486311,2.179,0.88683\C,0,-2.22445,-1.
 70964,0.751627\C,0,2.84324,0.132087,0.443665\C,0,3.08317,-1.22173,-0.1
 96335\C,0,0.794715,-1.70291,-0.40928\C,0,1.81752,2.21351,0.053331\H,0,
 0.224626,1.1694,1.04196\H,0,-1.53655,-1.38027,1.61094\H,0,-2.84771,-2.

 Normal termination of Gaussian 16 at Tue Apr  8 22:22:47 2025.
