 Gaussian 16, Revision C.01,

 ----------------------------------------------------------------------
 #t hf aug-cc-pvdz symm=none int=(grid=ultrafine) guess=(read,tcheck) s
 table=(opt,rrhf)
 ----------------------------------------------------------------------
 -----
 title
 -----
 Symbolic Z-matrix:
 Charge =  0 Multiplicity = 1

 SCF Done:  E(RHF) =  -849.418805794     A.U. after   15 cycles
 Normal termination of Gaussian 16 at Tue Apr  8 20:31:29 2025.
 Gaussian 16:  ES64L-G16RevC.01  3-Jul-2019

 ----------------------------------------------------------------------
 #t hf aug-cc-pvdz iop(5/13=1,5/36=2,99/5=2) pseudo=read geom=check gue
 ss=(read,tcheck) scf=(maxcycle=1)
 ----------------------------------------------------------------------
 -----
 title
 -----
 Structure from the checkpoint file:  "ANI1ccx_1611_conf16_mol1.chk"
 Charge =  0 Multiplicity = 1

                         Standard orientation:
 ---------------------------------------------------------------------
 Center     Atomic      Atomic             Coordinates (Angstroms)
 Number     Number       Type             X           Y           Z
 ---------------------------------------------------------------------
      1          6           0       -2.005219    0.570821    0.254093
      2          6           0       -1.177530   -0.617156   -0.112260
      3          6           0       -3.554459    0.200236    0.534330
      4          6           0       -4.325120   -0.203307   -0.690023
      5          6           0        1.076730    0.107257    0.805917
      6          6           0        1.555491    1.376139    0.217930
      7          6           0        2.158190   -0.850851    1.136720
      8          6           0        3.034310   -1.052041   -0.128168
      9          1           0       -0.001928    1.529440   -0.739925
     10          1           0        4.940990   -1.124372   -0.733783
     11          1           0        4.619490   -0.033160    0.573323
     12          1           0        2.832900   -0.582894    1.947710
     13          1           0        1.760050   -1.903381    1.303590
     14          1           0        0.548019    0.380983    1.637870
     15          1           0        0.604115   -1.245590   -0.624834
     16          1           0       -4.430659    0.741750   -1.223150
     17          1           0       -5.304040   -0.536111   -0.366682
     18          1           0       -3.752710   -0.925770   -1.233970
     19          1           0       -3.162180   -1.668819    0.683499
     20          1           0       -3.935829    1.092951    1.077010
     21          1           0       -1.719239    1.011060    1.203480
     22          1           0       -2.156809    2.416370   -0.568453
     23          1           0       -1.972529    1.260440   -1.716270
     24          7           0       -1.644979    1.565610   -0.788969
     25          7           0        0.198977   -0.494855   -0.116038
     26          7           0        4.312930   -0.563299   -0.219639
     27          8           0       -1.562910   -1.569340   -0.744321
     28          8           0       -3.307360   -0.947937    1.327540
     29          8           0        2.649601    1.844239    0.704064
     30          8           0        2.551030   -1.384921   -1.218930
     31          8           0        0.980576    1.913999   -0.750613
 ---------------------------------------------------------------------

 SCF Done:  E(RHF) =  -850.278592121     A.U. after    2 cycles

 The electronic state is 1-A.
 Alpha  occ. eigenvalues --  -20.58291 -20.56016 -20.53376 -20.51607 -20.49704
 Alpha  occ. eigenvalues --  -15.55578 -15.51974 -15.51616 -11.38030 -11.37379
 Alpha  occ. eigenvalues --  -11.36905 -11.32520 -11.31270 -11.29930 -11.28039
 Alpha  occ. eigenvalues --  -11.24354  -1.55338  -1.50425  -1.46901  -1.45936
 Alpha  occ. eigenvalues --   -1.38917  -1.27781  -1.24325  -1.21521  -1.09269
 Alpha  occ. eigenvalues --   -1.05909  -1.00059  -0.97108  -0.88620  -0.83696
 Alpha  occ. eigenvalues --   -0.82320  -0.81533  -0.78316  -0.77724  -0.75298
 Alpha  occ. eigenvalues --   -0.72664  -0.71767  -0.69178  -0.67849  -0.67590
 Alpha  occ. eigenvalues --   -0.66708  -0.66340  -0.63618  -0.62859  -0.61299
 Alpha  occ. eigenvalues --   -0.60606  -0.59154  -0.58494  -0.57830  -0.56794
 Alpha  occ. eigenvalues --   -0.56248  -0.54540  -0.54432  -0.51384  -0.49935
 Alpha  occ. eigenvalues --   -0.45723  -0.45312  -0.43635  -0.43041  -0.42506
 Alpha  occ. eigenvalues --   -0.41966  -0.40181
 Alpha virt. eigenvalues --    0.01932   0.03090   0.03337   0.03669   0.04254
 Alpha virt. eigenvalues --    0.04677   0.05280   0.06136   0.06716   0.06795
 Alpha virt. eigenvalues --    0.07462   0.08437   0.08843   0.09224   0.09866

 Mulliken charges:
               1
     1  C   -0.700458
     2  C    0.500752
     3  C    0.890234
     4  C   -0.248540
     5  C   -0.283393
     6  C    2.577954
     7  C   -0.465555
     8  C    0.378691
     9  H    0.886614
    10  H    0.157306
    11  H    0.177739
    12  H   -0.017518
    13  H    0.372104
    14  H   -0.056287
    15  H    0.394233
    16  H    0.256434
    17  H    0.164280
    18  H    0.107254
    19  H    0.425045
    20  H    0.148238
    21  H    0.174976
    22  H    0.350726
    23  H    0.412976
    24  N   -0.384237
    25  N    0.533225
    26  N    0.749147
    27  O   -1.463726
    28  O   -1.486230
    29  O   -1.589064
    30  O   -1.419974
    31  O   -1.542948
 Sum of Mulliken charges =  -0.00000

 Dipole moment (field-independent basis, Debye):
    X=             -4.0770    Y=             -0.0591    Z=              2.2234  Tot=              4.6443

 Test job not archived.
 1\1\GINC-SE127\SP\RHF\Aug-CC-pVDZ\C8H15N3O5\OHZDE\08-Apr-2025\0\\#t hf
  aug-cc-pvdz iop(5/13=1,5/36=2,99/5=2) pseudo=read geom=check guess=(r
 ead,tcheck) scf=(maxcycle=1)\\title\\0,1\C,0,-2.00522,0.570821,0.25409
 3\C,0,-1.17753,-0.617156,-0.11226\C,0,-3.55446,0.200235,0.53433\C,0,-4
 .32512,-0.203308,-0.690023\C,0,1.07673,0.107258,0.805917\C,0,1.55549,1
 .37614,0.21793\C,0,2.15819,-0.85085,1.13672\C,0,3.03431,-1.05204,-0.12
 8168\H,0,-0.00192858,1.52944,-0.739925\H,0,4.94099,-1.12437,-0.733783\
 H,0,4.61949,-0.0331588,0.573323\H,0,2.8329,-0.582893,1.94771\H,0,1.760

 Normal termination of Gaussian 16 at Tue Apr  8 20:32:12 2025.
