 Gaussian 16, Revision C.01,

 ----------------------------------------------------------------------
 #t hf aug-cc-pvdz symm=none int=(grid=ultrafine) guess=(read,tcheck) s
 table=(opt,rrhf)
 ----------------------------------------------------------------------
 -----
 title
 -----
 Symbolic Z-matrix:
 Charge =  0 Multiplicity = 1

 SCF Done:  E(RHF) =  -386.361691518     A.U. after   16 cycles
 Normal termination of Gaussian 16 at Tue Apr  8 21:48:56 2025.
 Gaussian 16:  ES64L-G16RevC.01  3-Jul-2019

 ----------------------------------------------------------------------
 #t hf aug-cc-pvdz iop(5/13=1,5/36=2,99/5=2) pseudo=read geom=check gue
 ss=(read,tcheck) scf=(maxcycle=1)
 ----------------------------------------------------------------------
 -----
 title
 -----
 Structure from the checkpoint file:  "ANI1ccx_651_conf1_mol1.chk"
 Charge =  0 Multiplicity = 1

                         Standard orientation:
 ---------------------------------------------------------------------
 Center     Atomic      Atomic             Coordinates (Angstroms)
 Number     Number       Type             X           Y           Z
 ---------------------------------------------------------------------
      1          6           0        1.913881   -0.020762    0.045791
      2          6           0        0.509739   -0.016495    0.098788
      3          6           0       -1.389888    1.099092   -0.082024
      4          1           0       -1.785818    2.046802   -0.146667
      5          7           0        3.036581    0.058836   -0.108999
      6          7           0       -0.067790    1.102431    0.112909
      7          7           0       -2.063049    0.010845   -0.032151
      8          7           0       -1.425729   -1.162018   -0.013997
      9          7           0       -0.110953   -1.212639    0.009572
 ---------------------------------------------------------------------

 SCF Done:  E(RHF) =  -386.737413834     A.U. after    2 cycles

 The electronic state is 1-A.
 Alpha  occ. eigenvalues --  -15.66827 -15.61567 -15.59781 -15.57961 -15.55839
 Alpha  occ. eigenvalues --  -11.40546 -11.38062 -11.31097  -1.48156  -1.34264
 Alpha  occ. eigenvalues --   -1.30520  -1.27861  -1.08966  -1.07073  -0.90195
 Alpha  occ. eigenvalues --   -0.89617  -0.75760  -0.73114  -0.70353  -0.64759
 Alpha  occ. eigenvalues --   -0.63055  -0.59783  -0.55632  -0.55020  -0.54677
 Alpha  occ. eigenvalues --   -0.51890  -0.50476
 Alpha virt. eigenvalues --   -0.02981  -0.00418   0.02566   0.06038   0.07482
 Alpha virt. eigenvalues --    0.07689   0.08042   0.10292   0.10682   0.12651
 Alpha virt. eigenvalues --    0.12692   0.13029   0.13956   0.15133   0.15810

 Mulliken charges:
               1
     1  C   -1.613030
     2  C   -0.633796
     3  C   -0.098326
     4  H   -0.164052
     5  N    1.147500
     6  N    0.908727
     7  N    0.325501
     8  N   -0.400637
     9  N    0.528113
 Sum of Mulliken charges =  -0.00000

 Dipole moment (field-independent basis, Debye):
    X=             -2.5646    Y=              2.6728    Z=              0.1506  Tot=              3.7073

 Test job not archived.
 1\1\GINC-SE424\SP\RHF\Aug-CC-pVDZ\C3H1N5\OHZDE\08-Apr-2025\0\\#t hf au
 g-cc-pvdz iop(5/13=1,5/36=2,99/5=2) pseudo=read geom=check guess=(read
 ,tcheck) scf=(maxcycle=1)\\title\\0,1\C,0,1.91388,-0.0207622,0.045791\
 C,0,0.509738,-0.0164957,0.0987878\C,0,-1.38989,1.09909,-0.0820237\H,0,
 -1.78582,2.0468,-0.146667\N,0,3.03658,0.0588361,-0.108999\N,0,-0.06779
 16,1.10243,0.112909\N,0,-2.06305,0.0108428,-0.0321507\N,0,-1.42573,-1.
 16202,-0.0139971\N,0,-0.110954,-1.21264,0.0095718\\Version=ES64L-G16Re
 vC.01\State=1-A\HF=-386.7374138\RMSD=8.834e-02\Dipole=-1.0089902,1.051

 Normal termination of Gaussian 16 at Tue Apr  8 21:49:00 2025.
