 Gaussian 16, Revision C.01,

 ----------------------------------------------------------------------
 #t hf aug-cc-pvdz symm=none int=(grid=ultrafine) guess=(read,tcheck) s
 table=(opt,rrhf)
 ----------------------------------------------------------------------
 -----
 title
 -----
 Symbolic Z-matrix:
 Charge =  0 Multiplicity = 1

 SCF Done:  E(RHF) =  -355.482715634     A.U. after   16 cycles
 Normal termination of Gaussian 16 at Tue Apr  8 21:11:20 2025.
 Gaussian 16:  ES64L-G16RevC.01  3-Jul-2019

 ----------------------------------------------------------------------
 #t hf aug-cc-pvdz iop(5/13=1,5/36=2,99/5=2) pseudo=read geom=check gue
 ss=(read,tcheck) scf=(maxcycle=1)
 ----------------------------------------------------------------------
 -----
 title
 -----
 Structure from the checkpoint file:  "ANI1ccx_1871_conf2_mol1.chk"
 Charge =  0 Multiplicity = 1

                         Standard orientation:
 ---------------------------------------------------------------------
 Center     Atomic      Atomic             Coordinates (Angstroms)
 Number     Number       Type             X           Y           Z
 ---------------------------------------------------------------------
      1          1           0       -3.121931   -0.497592   -0.558604
      2          1           0       -0.914142    0.312567   -0.174604
      3          1           0        2.122139    1.445610    0.563678
      4          7           0        1.677799   -0.304269    0.454166
      5          8           0       -2.555121   -0.409273    0.231251
      6          8           0       -1.763681    0.732537   -0.134118
      7          8           0        1.783489    0.904260   -0.170812
      8          8           0        1.306479   -1.118860   -0.302525
 ---------------------------------------------------------------------

 SCF Done:  E(RHF) =  -355.823987609     A.U. after    2 cycles

 The electronic state is 1-A.
 Alpha  occ. eigenvalues --  -20.65055 -20.64889 -20.61637 -20.61415 -15.74139
 Alpha  occ. eigenvalues --   -1.70431  -1.58924  -1.53328  -1.27543  -0.98880
 Alpha  occ. eigenvalues --   -0.82909  -0.76968  -0.73041  -0.70701  -0.70309
 Alpha  occ. eigenvalues --   -0.63703  -0.60207  -0.53574  -0.50645  -0.48151
 Alpha  occ. eigenvalues --   -0.46689
 Alpha virt. eigenvalues --    0.03307   0.04799   0.05465   0.08753   0.11776
 Alpha virt. eigenvalues --    0.12519   0.14910   0.16805   0.16980   0.18142
 Alpha virt. eigenvalues --    0.19131   0.19919   0.21353   0.21850   0.22021

 Mulliken charges:
               1
     1  H    0.455629
     2  H    0.554900
     3  H    0.349301
     4  N    1.644600
     5  O   -0.474880
     6  O   -0.547718
     7  O   -1.051211
     8  O   -0.930621
 Sum of Mulliken charges =   0.00000

 Dipole moment (field-independent basis, Debye):
    X=              1.4390    Y=              0.7882    Z=             -0.2773  Tot=              1.6640

 Test job not archived.
 1\1\GINC-SE150\SP\RHF\Aug-CC-pVDZ\H3N1O4\OHZDE\08-Apr-2025\0\\#t hf au
 g-cc-pvdz iop(5/13=1,5/36=2,99/5=2) pseudo=read geom=check guess=(read
 ,tcheck) scf=(maxcycle=1)\\title\\0,1\H,0,-3.12193,-0.497592,-0.558604
 \H,0,-0.914141,0.312567,-0.174604\H,0,2.12214,1.44561,0.563678\N,0,1.6
 778,-0.304269,0.454166\O,0,-2.55512,-0.409273,0.231251\O,0,-1.76368,0.
 732537,-0.134118\O,0,1.78349,0.90426,-0.170812\O,0,1.30648,-1.11886,-0
 .302525\\Version=ES64L-G16RevC.01\State=1-A\HF=-355.8239876\RMSD=1.054
 e-02\Dipole=0.5661554,0.3101042,-0.1091017\Quadrupole=2.5841136,-0.964

 Normal termination of Gaussian 16 at Tue Apr  8 21:11:23 2025.
