 Gaussian 16, Revision C.01,

 ----------------------------------------------------------------------
 #t hf aug-cc-pvdz symm=none int=(grid=ultrafine) guess=(read,tcheck) s
 table=(opt,rrhf)
 ----------------------------------------------------------------------
 -----
 title
 -----
 Symbolic Z-matrix:
 Charge =  0 Multiplicity = 1

 SCF Done:  E(RHF) =  -279.018893785     A.U. after   13 cycles
 Normal termination of Gaussian 16 at Tue Apr  8 21:37:42 2025.
 Gaussian 16:  ES64L-G16RevC.01  3-Jul-2019

 ----------------------------------------------------------------------
 #t hf aug-cc-pvdz iop(5/13=1,5/36=2,99/5=2) pseudo=read geom=check gue
 ss=(read,tcheck) scf=(maxcycle=1)
 ----------------------------------------------------------------------
 -----
 title
 -----
 Structure from the checkpoint file:  "ANI1ccx_417_conf5_mol2.chk"
 Charge =  0 Multiplicity = 1

                         Standard orientation:
 ---------------------------------------------------------------------
 Center     Atomic      Atomic             Coordinates (Angstroms)
 Number     Number       Type             X           Y           Z
 ---------------------------------------------------------------------
      1          6           0        0.619325   -0.077769    0.000951
      2          1           0       -2.388861    0.126229   -0.739671
      3          1           0       -2.269901   -0.191124    0.887026
      4          1           0       -0.659568   -1.730591    0.032327
      5          1           0        1.481319    1.750670   -0.025775
      6          1           0       -0.254844    1.784579   -0.014738
      7          7           0       -1.729401    0.133051    0.064690
      8          7           0       -0.659940   -0.716572   -0.126348
      9          7           0        0.598415    1.316660   -0.004975
     10          8           0        1.614049   -0.800640    0.040194
 ---------------------------------------------------------------------

 SCF Done:  E(RHF) =  -279.303522893     A.U. after    2 cycles

 The electronic state is 1-A.
 Alpha  occ. eigenvalues --  -20.49625 -15.55331 -15.54428 -15.51578 -11.38472
 Alpha  occ. eigenvalues --   -1.44536  -1.30886  -1.20824  -1.07241  -0.85238
 Alpha  occ. eigenvalues --   -0.78720  -0.76338  -0.73634  -0.70103  -0.61136
 Alpha  occ. eigenvalues --   -0.59349  -0.51018  -0.46118  -0.43086  -0.41747
 Alpha virt. eigenvalues --    0.02458   0.04712   0.05312   0.05610   0.06533
 Alpha virt. eigenvalues --    0.11028   0.11462   0.12767   0.14288   0.14865
 Alpha virt. eigenvalues --    0.15820   0.17076   0.17984   0.18394   0.19237

 Mulliken charges:
               1
     1  C    0.252636
     2  H    0.194442
     3  H    0.214224
     4  H    0.159723
     5  H    0.145073
     6  H    0.070239
     7  N   -0.386208
     8  N    0.075385
     9  N    0.403650
    10  O   -1.129164
 Sum of Mulliken charges =  -0.00000

 Dipole moment (field-independent basis, Debye):
    X=             -4.2515    Y=              1.3371    Z=              0.2301  Tot=              4.4627

 Test job not archived.
 1\1\GINC-SE404\SP\RHF\Aug-CC-pVDZ\C1H5N3O1\OHZDE\08-Apr-2025\0\\#t hf
 aug-cc-pvdz iop(5/13=1,5/36=2,99/5=2) pseudo=read geom=check guess=(re
 ad,tcheck) scf=(maxcycle=1)\\title\\0,1\C,0,0.619326,-0.0777685,0.0009
 51\H,0,-2.38886,0.12623,-0.739671\H,0,-2.2699,-0.191123,0.887026\H,0,-
 0.659567,-1.73059,0.0323275\H,0,1.48132,1.75067,-0.0257745\H,0,-0.2548
 43,1.78458,-0.0147381\N,0,-1.7294,0.133052,0.0646905\N,0,-0.659939,-0.
 716571,-0.126348\N,0,0.598416,1.31666,-0.00497489\O,0,1.61405,-0.80064
 ,0.0401942\\Version=ES64L-G16RevC.01\State=1-A\HF=-279.3035229\RMSD=1.

 Normal termination of Gaussian 16 at Tue Apr  8 21:37:45 2025.
