 Gaussian 16, Revision C.01,

 ----------------------------------------------------------------------
 #t hf aug-cc-pvdz symm=none int=(grid=ultrafine) guess=(read,tcheck) s
 table=(opt,rrhf)
 ----------------------------------------------------------------------
 -----
 title
 -----
 Symbolic Z-matrix:
 Charge =  0 Multiplicity = 1

 SCF Done:  E(RHF) =  -723.903579736     A.U. after   15 cycles
 Normal termination of Gaussian 16 at Tue Apr  8 22:11:03 2025.
 Gaussian 16:  ES64L-G16RevC.01  3-Jul-2019

 ----------------------------------------------------------------------
 #t hf aug-cc-pvdz iop(5/13=1,5/36=2,99/5=2) pseudo=read geom=check gue
 ss=(read,tcheck) scf=(maxcycle=1)
 ----------------------------------------------------------------------
 -----
 title
 -----
 Structure from the checkpoint file:  "ANI1ccx_85_conf11_mol2.chk"
 Charge =  0 Multiplicity = 1

                         Standard orientation:
 ---------------------------------------------------------------------
 Center     Atomic      Atomic             Coordinates (Angstroms)
 Number     Number       Type             X           Y           Z
 ---------------------------------------------------------------------
      1          6           0       -1.557039    0.285568   -0.339061
      2          6           0        3.636501    0.998185   -1.182790
      3          6           0        2.681351    1.032580    0.047299
      4          6           0        1.887551   -1.485360   -0.031994
      5          6           0        1.471171   -0.015156   -0.042987
      6          6           0        2.217530    2.431820    0.371109
      7          6           0       -3.883599   -0.573526    0.466753
      8          6           0       -3.034929    0.578931   -0.065122
      9          6           0       -0.772244    0.187243    1.018770
     10          6           0       -3.799209    1.096189   -1.349860
     11          1           0        0.842757    0.106259   -0.919834
     12          1           0        0.366564   -1.791630   -1.188390
     13          1           0        1.507360    2.441840    1.205350
     14          1           0        3.028710    3.134770    0.518351
     15          1           0        1.749750    2.810910   -0.571615
     16          1           0        3.033151    1.262960   -2.074170
     17          1           0        4.464650    1.675260   -1.104430
     18          1           0        4.014231   -0.022678   -1.349070
     19          1           0        3.213611    0.702237    0.985630
     20          1           0        0.971409    0.039189    1.960110
     21          1           0       -4.748790    1.582939   -1.092570
     22          1           0       -4.003139    0.228655   -1.974230
     23          1           0       -3.532929   -0.922667    1.425020
     24          1           0       -4.955889   -0.270796    0.561078
     25          1           0       -3.869969   -1.406941   -0.260533
     26          1           0       -3.174460    1.427409    0.598699
     27          1           0       -1.180769    1.022920   -1.056120
     28          1           0       -1.844069   -1.134760   -1.859370
     29          1           0       -1.551379   -1.745690   -0.380388
     30          1           0       -3.191950    1.808379   -1.890910
     31          7           0       -1.238379   -0.986924   -1.011200
     32          7           0        0.601786    0.140806    1.038610
     33          8           0        2.921941   -1.862370    0.498091
     34          8           0       -1.426509    0.087107    2.035500
     35          8           0        1.033921   -2.255310   -0.668238
 ---------------------------------------------------------------------

 SCF Done:  E(RHF) =  -724.653796867     A.U. after    2 cycles

 The electronic state is 1-A.
 Alpha  occ. eigenvalues --  -20.58283 -20.52560 -20.52501 -15.54266 -15.53880
 Alpha  occ. eigenvalues --  -11.38600 -11.37681 -11.30785 -11.29619 -11.25649
 Alpha  occ. eigenvalues --  -11.25216 -11.24042 -11.23498 -11.23289 -11.23144
 Alpha  occ. eigenvalues --   -1.54262  -1.48061  -1.44055  -1.27872  -1.23192
 Alpha  occ. eigenvalues --   -1.08797  -1.08529  -1.00108  -0.97051  -0.94043
 Alpha  occ. eigenvalues --   -0.93870  -0.85997  -0.85383  -0.80420  -0.79199
 Alpha  occ. eigenvalues --   -0.76925  -0.75806  -0.69457  -0.68722  -0.67376
 Alpha  occ. eigenvalues --   -0.66104  -0.65340  -0.63473  -0.62509  -0.61476
 Alpha  occ. eigenvalues --   -0.60753  -0.59443  -0.58458  -0.57642  -0.56456
 Alpha  occ. eigenvalues --   -0.55279  -0.54804  -0.54168  -0.53128  -0.50833
 Alpha  occ. eigenvalues --   -0.49773  -0.49687  -0.48406  -0.47335  -0.46710
 Alpha  occ. eigenvalues --   -0.46001  -0.45203  -0.43110  -0.40253
 Alpha virt. eigenvalues --    0.02212   0.02745   0.03117   0.03622   0.03945
 Alpha virt. eigenvalues --    0.04415   0.04938   0.05578   0.06042   0.06951
 Alpha virt. eigenvalues --    0.07001   0.07300   0.07812   0.08251   0.09021

 Mulliken charges:
               1
     1  C   -0.861246
     2  C   -0.092572
     3  C   -1.009595
     4  C    2.552793
     5  C   -0.734705
     6  C    0.003041
     7  C   -0.076725
     8  C   -0.587103
     9  C    0.515405
    10  C    0.061650
    11  H    0.058019
    12  H    0.718675
    13  H    0.214036
    14  H    0.048789
    15  H    0.335464
    16  H    0.245753
    17  H    0.089296
    18  H    0.199188
    19  H    0.266238
    20  H    0.272439
    21  H    0.132384
    22  H    0.207271
    23  H    0.125080
    24  H    0.168515
    25  H    0.246801
    26  H    0.104770
    27  H   -0.043803
    28  H    0.352935
    29  H    0.354199
    30  H    0.116376
    31  N   -0.256161
    32  N    0.620803
    33  O   -1.475109
    34  O   -1.428354
    35  O   -1.444549
 Sum of Mulliken charges =  -0.00000

 Dipole moment (field-independent basis, Debye):
    X=             -3.3154    Y=              3.0865    Z=             -3.7098  Tot=              5.8549

 Test job not archived.
 1\1\GINC-SE250\SP\RHF\Aug-CC-pVDZ\C10H20N2O3\OHZDE\08-Apr-2025\0\\#t h
 f aug-cc-pvdz iop(5/13=1,5/36=2,99/5=2) pseudo=read geom=check guess=(
 read,tcheck) scf=(maxcycle=1)\\title\\0,1\C,0,-1.55704,0.285568,-0.339
 061\C,0,3.6365,0.998185,-1.18279\C,0,2.68135,1.03258,0.047299\C,0,1.88
 755,-1.48536,-0.0319935\C,0,1.47117,-0.0151561,-0.0429866\C,0,2.21753,
 2.43182,0.371109\C,0,-3.8836,-0.573525,0.466753\C,0,-3.03493,0.578932,
 -0.0651217\C,0,-0.772245,0.187243,1.01877\C,0,-3.79921,1.09619,-1.3498
 6\H,0,0.842756,0.106259,-0.919834\H,0,0.366563,-1.79163,-1.18839\H,0,1

 Normal termination of Gaussian 16 at Tue Apr  8 22:11:48 2025.
