 Gaussian 16, Revision C.01,

 ----------------------------------------------------------------------
 #t hf aug-cc-pvdz symm=none int=(grid=ultrafine) guess=(read,tcheck) s
 table=(opt,rrhf)
 ----------------------------------------------------------------------
 -----
 title
 -----
 Symbolic Z-matrix:
 Charge =  0 Multiplicity = 1

 SCF Done:  E(RHF) =  -241.018760283     A.U. after   14 cycles
 Normal termination of Gaussian 16 at Tue Apr  8 21:12:20 2025.
 Gaussian 16:  ES64L-G16RevC.01  3-Jul-2019

 ----------------------------------------------------------------------
 #t hf aug-cc-pvdz iop(5/13=1,5/36=2,99/5=2) pseudo=read geom=check gue
 ss=(read,tcheck) scf=(maxcycle=1)
 ----------------------------------------------------------------------
 -----
 title
 -----
 Structure from the checkpoint file:  "ANI1ccx_1892_conf12_mol2.chk"
 Charge =  0 Multiplicity = 1

                         Standard orientation:
 ---------------------------------------------------------------------
 Center     Atomic      Atomic             Coordinates (Angstroms)
 Number     Number       Type             X           Y           Z
 ---------------------------------------------------------------------
      1          1           0       -3.335419   -0.225152   -0.078827
      2          1           0       -1.514269   -0.746037    1.061340
      3          1           0       -1.237819   -0.982056   -0.554185
      4          1           0        2.860281    1.069070    0.515999
      5          1           0        1.031351    0.303389    0.236346
      6          7           0       -1.392919   -0.257744    0.157101
      7          7           0        2.914311    0.171347   -0.013701
      8          7           0        1.777411   -0.305249   -0.161294
      9          8           0       -2.611969    0.415289   -0.131927
 ---------------------------------------------------------------------

 SCF Done:  E(RHF) =  -241.263107414     A.U. after    2 cycles

 The electronic state is 1-A.
 Alpha  occ. eigenvalues --  -20.59072 -15.57182 -15.56554 -15.56535  -1.48901
 Alpha  occ. eigenvalues --   -1.35505  -1.10547  -0.94248  -0.79482  -0.74160
 Alpha  occ. eigenvalues --   -0.73077  -0.62289  -0.60091  -0.55926  -0.49463
 Alpha  occ. eigenvalues --   -0.48216  -0.44713
 Alpha virt. eigenvalues --    0.02620   0.04319   0.05366   0.06219   0.07012
 Alpha virt. eigenvalues --    0.08483   0.14729   0.15589   0.16106   0.17501
 Alpha virt. eigenvalues --    0.18047   0.18672   0.19141   0.20465   0.20919

 Mulliken charges:
               1
     1  H    0.265389
     2  H    0.105859
     3  H    0.099175
     4  H    0.119917
     5  H    0.125112
     6  N    0.447954
     7  N   -0.045152
     8  N   -0.164827
     9  O   -0.953427
 Sum of Mulliken charges =  -0.00000

 Dipole moment (field-independent basis, Debye):
    X=             -2.7678    Y=             -0.5211    Z=              1.8712  Tot=              3.3814

 Test job not archived.
 1\1\GINC-SE393\SP\RHF\Aug-CC-pVDZ\H5N3O1\OHZDE\08-Apr-2025\0\\#t hf au
 g-cc-pvdz iop(5/13=1,5/36=2,99/5=2) pseudo=read geom=check guess=(read
 ,tcheck) scf=(maxcycle=1)\\title\\0,1\H,0,-3.33542,-0.225152,-0.078827
 5\H,0,-1.51427,-0.746037,1.06134\H,0,-1.23782,-0.982056,-0.554185\H,0,
 2.86028,1.06907,0.515999\H,0,1.03135,0.303389,0.236346\N,0,-1.39292,-0
 .257744,0.157101\N,0,2.91431,0.171347,-0.0137014\N,0,1.77741,-0.305249
 ,-0.161294\O,0,-2.61197,0.415289,-0.131927\\Version=ES64L-G16RevC.01\S
 tate=1-A\HF=-241.2631074\RMSD=2.917e-02\Dipole=-1.088931,-0.2050225,0.

 Normal termination of Gaussian 16 at Tue Apr  8 21:12:22 2025.
