 Gaussian 16, Revision C.01,

 ----------------------------------------------------------------------
 #t hf aug-cc-pvdz symm=none int=(grid=ultrafine) guess=(read,tcheck) s
 table=(opt,rrhf)
 ----------------------------------------------------------------------
 -----
 title
 -----
 Symbolic Z-matrix:
 Charge =  0 Multiplicity = 1

 SCF Done:  E(RHF) =  -524.038554174     A.U. after   16 cycles
 Normal termination of Gaussian 16 at Tue Apr  8 19:16:21 2025.
 Gaussian 16:  ES64L-G16RevC.01  3-Jul-2019

 ----------------------------------------------------------------------
 #t hf aug-cc-pvdz iop(5/13=1,5/36=2,99/5=2) pseudo=read geom=check gue
 ss=(read,tcheck) scf=(maxcycle=1)
 ----------------------------------------------------------------------
 -----
 title
 -----
 Structure from the checkpoint file:  "ANI1ccx_1064_conf8_mol1.chk"
 Charge =  0 Multiplicity = 1

                         Standard orientation:
 ---------------------------------------------------------------------
 Center     Atomic      Atomic             Coordinates (Angstroms)
 Number     Number       Type             X           Y           Z
 ---------------------------------------------------------------------
      1          6           0        0.465957    1.148340    0.231432
      2          6           0       -1.562690    0.172865   -0.126759
      3          6           0       -0.633095   -1.016839    0.259056
      4          6           0        0.703580   -0.232771    0.602616
      5          6           0        1.842069   -0.692051   -0.158572
      6          1           0       -1.326069    2.193371   -0.226139
      7          1           0        0.935449   -0.304414    1.688260
      8          7           0       -0.828213    1.295021   -0.171960
      9          7           0        2.809279   -0.984908   -0.735289
     10          8           0        1.309391    2.029620    0.182617
     11          8           0       -2.763071    0.128904   -0.444705
     12          8           0       -0.842791   -2.200649    0.267336
 ---------------------------------------------------------------------

 SCF Done:  E(RHF) =  -524.540968806     A.U. after    2 cycles

 The electronic state is 1-A.
 Alpha  occ. eigenvalues --  -20.64061 -20.59115 -20.59070 -15.62657 -15.55752
 Alpha  occ. eigenvalues --  -11.44061 -11.44050 -11.43920 -11.36536 -11.32429
 Alpha  occ. eigenvalues --   -1.56099  -1.53456  -1.50970  -1.37203  -1.26659
 Alpha  occ. eigenvalues --   -1.16823  -1.02179  -0.96080  -0.87743  -0.80240
 Alpha  occ. eigenvalues --   -0.78704  -0.74626  -0.72477  -0.70465  -0.68860
 Alpha  occ. eigenvalues --   -0.67789  -0.63843  -0.61750  -0.56682  -0.55849
 Alpha  occ. eigenvalues --   -0.53807  -0.53208  -0.49574  -0.48636  -0.46346
 Alpha virt. eigenvalues --    0.00109   0.01623   0.03131   0.06299   0.06547
 Alpha virt. eigenvalues --    0.07486   0.07651   0.08469   0.09075   0.09496
 Alpha virt. eigenvalues --    0.10960   0.11724   0.12218   0.12777   0.13252

 Mulliken charges:
               1
     1  C    0.873199
     2  C    0.731763
     3  C    1.547853
     4  C   -0.054766
     5  C   -1.654114
     6  H    0.199309
     7  H    0.394110
     8  N    0.768511
     9  N    1.004139
    10  O   -1.304362
    11  O   -1.257968
    12  O   -1.247675
 Sum of Mulliken charges =  -0.00000

 Dipole moment (field-independent basis, Debye):
    X=             -2.2722    Y=              2.1973    Z=              3.1882  Tot=              4.4895

 Test job not archived.
 1\1\GINC-SE092\SP\RHF\Aug-CC-pVDZ\C5H2N2O3\OHZDE\08-Apr-2025\0\\#t hf
 aug-cc-pvdz iop(5/13=1,5/36=2,99/5=2) pseudo=read geom=check guess=(re
 ad,tcheck) scf=(maxcycle=1)\\title\\0,1\C,0,0.465957,1.14834,0.231432\
 C,0,-1.56269,0.172864,-0.126759\C,0,-0.633094,-1.01684,0.259056\C,0,0.
 703581,-0.232771,0.602616\C,0,1.84207,-0.69205,-0.158572\H,0,-1.32607,
 2.19337,-0.226139\H,0,0.93545,-0.304414,1.68826\N,0,-0.828213,1.29502,
 -0.17196\N,0,2.80928,-0.984907,-0.735289\O,0,1.30939,2.02962,0.182617\
 O,0,-2.76307,0.128902,-0.444705\O,0,-0.842789,-2.20065,0.267336\\Versi

 Normal termination of Gaussian 16 at Tue Apr  8 19:16:28 2025.
