 Gaussian 16, Revision C.01,

 ----------------------------------------------------------------------
 #t hf aug-cc-pvdz symm=none int=(grid=ultrafine) guess=(read,tcheck) s
 table=(opt,rrhf)
 ----------------------------------------------------------------------
 -----
 title
 -----
 Symbolic Z-matrix:
 Charge =  0 Multiplicity = 1

 SCF Done:  E(RHF) =  -380.231025080     A.U. after   11 cycles
 Normal termination of Gaussian 16 at Tue Apr  8 21:01:26 2025.
 Gaussian 16:  ES64L-G16RevC.01  3-Jul-2019

 ----------------------------------------------------------------------
 #t hf aug-cc-pvdz iop(5/13=1,5/36=2,99/5=2) pseudo=read geom=check gue
 ss=(read,tcheck) scf=(maxcycle=1)
 ----------------------------------------------------------------------
 -----
 title
 -----
 Structure from the checkpoint file:  "ANI1ccx_1843_conf16_mol1.chk"
 Charge =  0 Multiplicity = 1

                         Standard orientation:
 ---------------------------------------------------------------------
 Center     Atomic      Atomic             Coordinates (Angstroms)
 Number     Number       Type             X           Y           Z
 ---------------------------------------------------------------------
      1          1           0       -0.082183    1.503191    0.370382
      2          1           0        0.981766    2.015460    1.375600
      3          1           0       -1.847050    0.502992   -0.325615
      4          1           0       -1.540430    1.699831   -1.268690
      5          1           0       -2.545951   -1.595558    0.410004
      6          1           0       -1.052041   -1.382179    0.011697
      7          1           0        1.104709   -1.319930    0.029606
      8          1           0        0.499392   -0.563331    1.182210
      9          1           0        3.152979   -0.391965   -0.537572
     10          1           0        1.902990    0.476950   -0.456263
     11          8           0        0.822243    1.310770    0.751196
     12          8           0       -1.630860    1.486931   -0.340164
     13          8           0       -1.986811   -1.210238   -0.293430
     14          8           0        0.442566   -1.421730    0.745956
     15          8           0        2.281089   -0.283916   -0.962477
 ---------------------------------------------------------------------

 SCF Done:  E(RHF) =  -380.626449095     A.U. after    2 cycles

 The electronic state is 1-A.
 Alpha  occ. eigenvalues --  -20.57007 -20.55841 -20.55662 -20.54634 -20.54216
 Alpha  occ. eigenvalues --   -1.46458  -1.44090  -1.43973  -1.42807  -1.41343
 Alpha  occ. eigenvalues --   -0.73650  -0.71604  -0.70844  -0.69995  -0.69836
 Alpha  occ. eigenvalues --   -0.63074  -0.60404  -0.58939  -0.57484  -0.54832
 Alpha  occ. eigenvalues --   -0.51353  -0.49764  -0.49201  -0.48851  -0.47929
 Alpha virt. eigenvalues --    0.03065   0.04556   0.05058   0.05106   0.07802
 Alpha virt. eigenvalues --    0.08192   0.08561   0.09087   0.10268   0.11634
 Alpha virt. eigenvalues --    0.16882   0.18002   0.19646   0.20059   0.21174

 Mulliken charges:
               1
     1  H    0.852648
     2  H    0.408717
     3  H    0.716968
     4  H    0.335346
     5  H    0.330708
     6  H    0.780166
     7  H    0.625354
     8  H    0.608030
     9  H    0.369722
    10  H    0.674411
    11  O   -1.372924
    12  O   -1.062142
    13  O   -1.062821
    14  O   -1.298549
    15  O   -0.905634
 Sum of Mulliken charges =  -0.00000

 Dipole moment (field-independent basis, Debye):
    X=              1.1709    Y=              2.0595    Z=              1.6117  Tot=              2.8653

 Test job not archived.
 1\1\GINC-SE088\SP\RHF\Aug-CC-pVDZ\H10O5\OHZDE\08-Apr-2025\0\\#t hf aug
 -cc-pvdz iop(5/13=1,5/36=2,99/5=2) pseudo=read geom=check guess=(read,
 tcheck) scf=(maxcycle=1)\\title\\0,1\H,0,-0.0821835,1.50319,0.370382\H
 ,0,0.981765,2.01546,1.3756\H,0,-1.84705,0.502991,-0.325615\H,0,-1.5404
 3,1.69983,-1.26869\H,0,-2.54595,-1.59556,0.410004\H,0,-1.05204,-1.3821
 8,0.011697\H,0,1.10471,-1.31993,0.0296064\H,0,0.499393,-0.563331,1.182
 21\H,0,3.15298,-0.391964,-0.537572\H,0,1.90299,0.476951,-0.456263\O,0,
 0.822243,1.31077,0.751196\O,0,-1.63086,1.48693,-0.340164\O,0,-1.98681,

 Normal termination of Gaussian 16 at Tue Apr  8 21:01:29 2025.
