 Gaussian 16, Revision C.01,

 ----------------------------------------------------------------------
 #t hf aug-cc-pvdz symm=none int=(grid=ultrafine) guess=(read,tcheck) s
 table=(opt,rrhf)
 ----------------------------------------------------------------------
 -----
 title
 -----
 Symbolic Z-matrix:
 Charge =  0 Multiplicity = 1

 SCF Done:  E(RHF) =  -604.213749131     A.U. after   15 cycles
 Normal termination of Gaussian 16 at Tue Apr  8 22:10:43 2025.
 Gaussian 16:  ES64L-G16RevC.01  3-Jul-2019

 ----------------------------------------------------------------------
 #t hf aug-cc-pvdz iop(5/13=1,5/36=2,99/5=2) pseudo=read geom=check gue
 ss=(read,tcheck) scf=(maxcycle=1)
 ----------------------------------------------------------------------
 -----
 title
 -----
 Structure from the checkpoint file:  "ANI1ccx_934_conf4_mol1.chk"
 Charge =  0 Multiplicity = 1

                         Standard orientation:
 ---------------------------------------------------------------------
 Center     Atomic      Atomic             Coordinates (Angstroms)
 Number     Number       Type             X           Y           Z
 ---------------------------------------------------------------------
      1          6           0        0.621293   -0.819874    0.286364
      2          6           0       -0.558464   -0.575772   -0.654104
      3          6           0       -1.293160    0.740399   -0.283857
      4          6           0        1.701220    0.176193   -0.011039
      5          1           0       -0.507138   -1.269669    1.662590
      6          1           0        0.985366   -1.843139    0.069136
      7          1           0       -0.271676   -0.506234   -1.702890
      8          1           0       -2.289380   -1.514339   -0.440421
      9          1           0       -2.900700    1.429441    0.088648
     10          1           0        2.792970   -1.179109   -0.892936
     11          8           0        0.267597   -0.663390    1.578670
     12          8           0       -1.369110   -1.767349   -0.336233
     13          8           0       -2.601530    0.463988   -0.067114
     14          8           0       -0.850110    1.800981   -0.095356
     15          8           0        2.743630   -0.205728   -0.793780
     16          8           0        1.730180    1.341171    0.362773
 ---------------------------------------------------------------------

 SCF Done:  E(RHF) =  -604.806558428     A.U. after    2 cycles

 The electronic state is 1-A.
 Alpha  occ. eigenvalues --  -20.62690 -20.60748 -20.59538 -20.58385 -20.56181
 Alpha  occ. eigenvalues --  -20.52948 -11.41491 -11.39367 -11.35234 -11.34027
 Alpha  occ. eigenvalues --   -1.58575  -1.54398  -1.51636  -1.49202  -1.47169
 Alpha  occ. eigenvalues --   -1.43256  -1.08825  -0.97009  -0.85903  -0.82381
 Alpha  occ. eigenvalues --   -0.78497  -0.74794  -0.73543  -0.72061  -0.70638
 Alpha  occ. eigenvalues --   -0.66577  -0.64873  -0.63655  -0.62898  -0.60052
 Alpha  occ. eigenvalues --   -0.59682  -0.58323  -0.54871  -0.52957  -0.50000
 Alpha  occ. eigenvalues --   -0.47980  -0.46975  -0.44900  -0.43094
 Alpha virt. eigenvalues --    0.02590   0.02998   0.03851   0.04692   0.06002
 Alpha virt. eigenvalues --    0.06522   0.08803   0.10604   0.11290   0.11349
 Alpha virt. eigenvalues --    0.12633   0.13140   0.13396   0.13756   0.14555

 Mulliken charges:
               1
     1  C    1.121978
     2  C    0.133212
     3  C    2.469997
     4  C    2.441742
     5  H    0.340883
     6  H    0.118026
     7  H    0.212355
     8  H    0.344080
     9  H    0.373428
    10  H    0.402301
    11  O   -1.464770
    12  O   -1.320311
    13  O   -1.303437
    14  O   -1.200584
    15  O   -1.344026
    16  O   -1.324875
 Sum of Mulliken charges =  -0.00000

 Dipole moment (field-independent basis, Debye):
    X=             -3.3319    Y=             -4.3846    Z=             -2.0007  Tot=              5.8591

 Test job not archived.
 1\1\GINC-SE036\SP\RHF\Aug-CC-pVDZ\C4H6O6\OHZDE\08-Apr-2025\0\\#t hf au
 g-cc-pvdz iop(5/13=1,5/36=2,99/5=2) pseudo=read geom=check guess=(read
 ,tcheck) scf=(maxcycle=1)\\title\\0,1\C,0,0.621293,-0.819875,0.286364\
 C,0,-0.558464,-0.575773,-0.654104\C,0,-1.29316,0.740398,-0.283857\C,0,
 1.70122,0.176192,-0.0110396\H,0,-0.507138,-1.26967,1.66259\H,0,0.98536
 6,-1.84314,0.069136\H,0,-0.271676,-0.506235,-1.70289\H,0,-2.28938,-1.5
 1434,-0.440421\H,0,-2.9007,1.42944,0.0886474\H,0,2.79297,-1.17911,-0.8
 92936\O,0,0.267597,-0.663391,1.57867\O,0,-1.36911,-1.76735,-0.336233\O

 Normal termination of Gaussian 16 at Tue Apr  8 22:10:52 2025.
