 Gaussian 16, Revision C.01,

 ----------------------------------------------------------------------
 #t hf aug-cc-pvdz symm=none int=(grid=ultrafine) guess=(read,tcheck) s
 table=(opt,rrhf)
 ----------------------------------------------------------------------
 -----
 title
 -----
 Symbolic Z-matrix:
 Charge =  0 Multiplicity = 1

 SCF Done:  E(RHF) =  -280.718972572     A.U. after   14 cycles
 Normal termination of Gaussian 16 at Tue Apr  8 21:11:18 2025.
 Gaussian 16:  ES64L-G16RevC.01  3-Jul-2019

 ----------------------------------------------------------------------
 #t hf aug-cc-pvdz iop(5/13=1,5/36=2,99/5=2) pseudo=read geom=check gue
 ss=(read,tcheck) scf=(maxcycle=1)
 ----------------------------------------------------------------------
 -----
 title
 -----
 Structure from the checkpoint file:  "ANI1ccx_1870_conf5_mol1.chk"
 Charge =  0 Multiplicity = 1

                         Standard orientation:
 ---------------------------------------------------------------------
 Center     Atomic      Atomic             Coordinates (Angstroms)
 Number     Number       Type             X           Y           Z
 ---------------------------------------------------------------------
      1          1           0        2.052740   -0.012979    0.022306
      2          1           0        3.230710    0.692648    0.613150
      3          1           0       -2.789860    0.632044   -0.282343
      4          7           0       -1.364410   -0.520641   -0.171284
      5          8           0        2.971700    0.170640   -0.143629
      6          8           0       -1.880260    0.693798    0.046248
      7          8           0       -0.209279   -0.572842    0.203115
 ---------------------------------------------------------------------

 SCF Done:  E(RHF) =  -280.991166583     A.U. after    2 cycles

 The electronic state is 1-A.
 Alpha  occ. eigenvalues --  -20.66178 -20.64148 -20.54067 -15.74575  -1.68029
 Alpha  occ. eigenvalues --   -1.53218  -1.42680  -1.00271  -0.82938  -0.76609
 Alpha  occ. eigenvalues --   -0.71667  -0.69342  -0.62693  -0.56624  -0.52859
 Alpha  occ. eigenvalues --   -0.48743  -0.48274
 Alpha virt. eigenvalues --    0.02682   0.04476   0.05245   0.08543   0.12622
 Alpha virt. eigenvalues --    0.14041   0.16021   0.16784   0.17607   0.18505
 Alpha virt. eigenvalues --    0.19809   0.21056   0.21379   0.23984   0.25141

 Mulliken charges:
               1
     1  H    0.478468
     2  H    0.321117
     3  H    0.347720
     4  N    1.617927
     5  O   -0.793824
     6  O   -1.033654
     7  O   -0.937754
 Sum of Mulliken charges =   0.00000

 Dipole moment (field-independent basis, Debye):
    X=             -3.8683    Y=              1.2153    Z=              0.9069  Tot=              4.1549

 Test job not archived.
 1\1\GINC-SE083\SP\RHF\Aug-CC-pVDZ\H3N1O3\OHZDE\08-Apr-2025\0\\#t hf au
 g-cc-pvdz iop(5/13=1,5/36=2,99/5=2) pseudo=read geom=check guess=(read
 ,tcheck) scf=(maxcycle=1)\\title\\0,1\H,0,2.05274,-0.0129792,0.0223059
 \H,0,3.23071,0.692648,0.61315\H,0,-2.78986,0.632044,-0.282343\N,0,-1.3
 6441,-0.520641,-0.171284\O,0,2.9717,0.17064,-0.143629\O,0,-1.88026,0.6
 93798,0.0462483\O,0,-0.209279,-0.572842,0.203115\\Version=ES64L-G16Rev
 C.01\State=1-A\HF=-280.9911666\RMSD=1.128e-02\Dipole=-1.5219175,0.4781
 289,0.3568013\Quadrupole=2.2004429,-1.6684187,-0.5320242,0.3183078,4.7

 Normal termination of Gaussian 16 at Tue Apr  8 21:11:19 2025.
