 Gaussian 16, Revision C.01,

 ----------------------------------------------------------------------
 #t hf aug-cc-pvdz symm=none int=(grid=ultrafine) guess=(read,tcheck) s
 table=(opt,rrhf)
 ----------------------------------------------------------------------
 -----
 title
 -----
 Symbolic Z-matrix:
 Charge =  0 Multiplicity = 1

 SCF Done:  E(RHF) =  -460.227317266     A.U. after   17 cycles
 Normal termination of Gaussian 16 at Tue Apr  8 21:25:37 2025.
 Gaussian 16:  ES64L-G16RevC.01  3-Jul-2019

 ----------------------------------------------------------------------
 #t hf aug-cc-pvdz iop(5/13=1,5/36=2,99/5=2) pseudo=read geom=check gue
 ss=(read,tcheck) scf=(maxcycle=1)
 ----------------------------------------------------------------------
 -----
 title
 -----
 Structure from the checkpoint file:  "ANI1ccx_373_conf16_mol1.chk"
 Charge =  0 Multiplicity = 1

                         Standard orientation:
 ---------------------------------------------------------------------
 Center     Atomic      Atomic             Coordinates (Angstroms)
 Number     Number       Type             X           Y           Z
 ---------------------------------------------------------------------
      1          6           0        0.000283   -0.077290   -0.064290
      2          1           0       -2.701948    1.356431   -0.023094
      3          7           0        1.405571    0.006885   -0.098838
      4          7           0       -0.744199   -1.215170   -0.203323
      5          7           0       -2.027839   -0.693703   -0.027672
      6          7           0       -1.937989    0.592937    0.188887
      7          7           0       -0.690836    1.072990    0.042625
      8          8           0        1.871262    1.152608   -0.101879
      9          8           0        1.962150   -1.057642    0.239014
 ---------------------------------------------------------------------

 SCF Done:  E(RHF) =  -460.662874565     A.U. after    2 cycles

 The electronic state is 1-A.
 Alpha  occ. eigenvalues --  -20.62437 -20.62313 -15.82250 -15.70494 -15.66365
 Alpha  occ. eigenvalues --  -15.62147 -15.61979 -11.39973  -1.68365  -1.52812
 Alpha  occ. eigenvalues --   -1.52560  -1.30229  -1.27107  -1.11891  -1.01232
 Alpha  occ. eigenvalues --   -0.91178  -0.86365  -0.80596  -0.78715  -0.76430
 Alpha  occ. eigenvalues --   -0.74348  -0.67449  -0.60391  -0.59179  -0.53886
 Alpha  occ. eigenvalues --   -0.52443  -0.51643  -0.49729  -0.46841
 Alpha virt. eigenvalues --   -0.01528   0.00735   0.01699   0.07330   0.09864
 Alpha virt. eigenvalues --    0.10451   0.10848   0.11177   0.11940   0.12721
 Alpha virt. eigenvalues --    0.13710   0.15165   0.16099   0.16772   0.17195

 Mulliken charges:
               1
     1  C   -0.504307
     2  H    0.246125
     3  N    2.475715
     4  N    0.357112
     5  N   -0.230341
     6  N   -0.204296
     7  N    0.381076
     8  O   -1.265542
     9  O   -1.255542
 Sum of Mulliken charges =   0.00000

 Dipole moment (field-independent basis, Debye):
    X=             -3.8962    Y=              2.4042    Z=             -0.2625  Tot=              4.5858

 Test job not archived.
 1\1\GINC-SE342\SP\RHF\Aug-CC-pVDZ\C1H1N5O2\OHZDE\08-Apr-2025\0\\#t hf
 aug-cc-pvdz iop(5/13=1,5/36=2,99/5=2) pseudo=read geom=check guess=(re
 ad,tcheck) scf=(maxcycle=1)\\title\\0,1\C,0,0.00028177,-0.0772893,-0.0
 642902\H,0,-2.70195,1.35643,-0.0230944\N,0,1.40557,0.00688658,-0.09883
 76\N,0,-0.744199,-1.21517,-0.203323\N,0,-2.02784,-0.693703,-0.0276721\
 N,0,-1.93799,0.592937,0.188887\N,0,-0.690838,1.07299,0.0426249\O,0,1.8
 7126,1.15261,-0.101879\O,0,1.96215,-1.05764,0.239014\\Version=ES64L-G1
 6RevC.01\State=1-A\HF=-460.6628746\RMSD=3.647e-02\Dipole=-1.5328984,0.

 Normal termination of Gaussian 16 at Tue Apr  8 21:25:40 2025.
