 Gaussian 16, Revision C.01,

 ----------------------------------------------------------------------
 #t hf aug-cc-pvdz symm=none int=(grid=ultrafine) guess=(read,tcheck) s
 table=(opt,rrhf)
 ----------------------------------------------------------------------
 -----
 title
 -----
 Symbolic Z-matrix:
 Charge =  0 Multiplicity = 1

 SCF Done:  E(RHF) =  -648.975553562     A.U. after   14 cycles
 Normal termination of Gaussian 16 at Tue Apr  8 22:10:39 2025.
 Gaussian 16:  ES64L-G16RevC.01  3-Jul-2019

 ----------------------------------------------------------------------
 #t hf aug-cc-pvdz iop(5/13=1,5/36=2,99/5=2) pseudo=read geom=check gue
 ss=(read,tcheck) scf=(maxcycle=1)
 ----------------------------------------------------------------------
 -----
 title
 -----
 Structure from the checkpoint file:  "ANI1ccx_84_conf1_mol1.chk"
 Charge =  0 Multiplicity = 1

                         Standard orientation:
 ---------------------------------------------------------------------
 Center     Atomic      Atomic             Coordinates (Angstroms)
 Number     Number       Type             X           Y           Z
 ---------------------------------------------------------------------
      1          6           0       -3.545322   -2.225398   -0.273779
      2          6           0        2.216929   -0.473309   -0.904237
      3          6           0        1.198280    0.657971   -0.605239
      4          6           0        1.558240    1.523939    0.531744
      5          6           0        0.520671    2.578349    0.898445
      6          6           0        2.419838   -1.564552    0.139586
      7          6           0       -1.081800    1.531670   -1.036490
      8          6           0       -0.759086   -0.371023    0.529886
      9          6           0       -3.178301   -0.756079   -0.260797
     10          6           0       -0.556698    2.811510   -0.257018
     11          1           0        0.961121    3.492169    1.203540
     12          1           0        3.899998   -2.751962    0.469716
     13          1           0        2.560559   -1.022052    1.155310
     14          1           0        1.647028   -2.280381    0.258142
     15          1           0        3.171969   -0.051618   -1.049170
     16          1           0        1.823239   -0.876421   -1.819940
     17          1           0        1.224730    1.105579   -1.665450
     18          1           0        1.665260    0.928865    1.468440
     19          1           0        2.510250    1.945318    0.292488
     20          1           0       -0.043560    2.215910    1.762500
     21          1           0       -2.144750    1.392331   -0.886192
     22          1           0       -1.331449    3.311751    0.265695
     23          1           0       -0.922128    1.733230   -2.106760
     24          1           0       -2.255271   -1.000109    1.574570
     25          1           0       -2.828111   -0.425480   -1.248250
     26          1           0       -3.981831   -0.141436   -0.010259
     27          1           0       -3.969022   -2.604338    0.758412
     28          1           0       -4.303062   -2.537638   -0.961635
     29          1           0       -2.629972   -2.739899   -0.480313
     30          1           0       -0.147411    3.528820   -1.034850
     31          7           0       -2.105861   -0.514015    0.724633
     32          7           0       -0.352914    0.287258   -0.588940
     33          8           0        0.092908   -0.782294    1.344540
     34          8           0        3.600508   -2.206932   -0.278092
 ---------------------------------------------------------------------

 SCF Done:  E(RHF) =  -649.656062267     A.U. after    2 cycles

 The electronic state is 1-A.
 Alpha  occ. eigenvalues --  -20.52641 -20.48559 -15.51433 -15.51333 -11.36832
 Alpha  occ. eigenvalues --  -11.28125 -11.27938 -11.27495 -11.25542 -11.24403
 Alpha  occ. eigenvalues --  -11.23699 -11.22517 -11.21217 -11.21139  -1.43772
 Alpha  occ. eigenvalues --   -1.43050  -1.25404  -1.20605  -1.08093  -1.04029
 Alpha  occ. eigenvalues --   -1.03481  -0.98428  -0.92553  -0.88656  -0.86323
 Alpha  occ. eigenvalues --   -0.82684  -0.80700  -0.75036  -0.70242  -0.68799
 Alpha  occ. eigenvalues --   -0.67668  -0.66474  -0.64462  -0.64014  -0.63243
 Alpha  occ. eigenvalues --   -0.62430  -0.60025  -0.58904  -0.57751  -0.57278
 Alpha  occ. eigenvalues --   -0.55763  -0.54407  -0.53531  -0.52259  -0.51844
 Alpha  occ. eigenvalues --   -0.51171  -0.50561  -0.47831  -0.47015  -0.45653
 Alpha  occ. eigenvalues --   -0.43479  -0.42608  -0.41387  -0.41058  -0.39538
 Alpha virt. eigenvalues --    0.03096   0.03375   0.03520   0.03765   0.04235
 Alpha virt. eigenvalues --    0.04454   0.04555   0.04898   0.05486   0.07059
 Alpha virt. eigenvalues --    0.07510   0.07623   0.08423   0.08929   0.09361

 Mulliken charges:
               1
     1  C   -0.432601
     2  C   -0.208117
     3  C   -1.391117
     4  C    0.042279
     5  C   -0.284596
     6  C    1.091653
     7  C   -0.604383
     8  C   -0.422382
     9  C    0.041761
    10  C   -0.270472
    11  H    0.018142
    12  H    0.326193
    13  H    0.303848
    14  H   -0.021521
    15  H    0.050591
    16  H    0.157227
    17  H    0.254735
    18  H    0.377424
    19  H    0.063387
    20  H    0.164800
    21  H   -0.074733
    22  H    0.083933
    23  H    0.141044
    24  H    0.318782
    25  H    0.092097
    26  H   -0.053895
    27  H    0.302390
    28  H    0.039808
    29  H    0.149211
    30  H    0.257076
    31  N    0.298000
    32  N    2.072180
    33  O   -1.468411
    34  O   -1.414331
 Sum of Mulliken charges =  -0.00000

 Dipole moment (field-independent basis, Debye):
    X=             -3.3482    Y=              1.4679    Z=             -0.5703  Tot=              3.7001

 Test job not archived.
 1\1\GINC-SE232\SP\RHF\Aug-CC-pVDZ\C10H20N2O2\OHZDE\08-Apr-2025\0\\#t h
 f aug-cc-pvdz iop(5/13=1,5/36=2,99/5=2) pseudo=read geom=check guess=(
 read,tcheck) scf=(maxcycle=1)\\title\\0,1\C,0,-3.54532,-2.2254,-0.2737
 79\C,0,2.21693,-0.473308,-0.904237\C,0,1.19828,0.657972,-0.605239\C,0,
 1.55824,1.52394,0.531744\C,0,0.52067,2.57835,0.898445\C,0,2.41984,-1.5
 6455,0.139586\C,0,-1.0818,1.53167,-1.03649\C,0,-0.759085,-0.371023,0.5
 29886\C,0,-3.1783,-0.756081,-0.260797\C,0,-0.556699,2.81151,-0.257018\
 H,0,0.96112,3.49217,1.20354\H,0,3.9,-2.75196,0.469716\H,0,2.56056,-1.0

 Normal termination of Gaussian 16 at Tue Apr  8 22:11:24 2025.
