 Gaussian 16, Revision C.01,

 ----------------------------------------------------------------------
 #t hf aug-cc-pvdz symm=none int=(grid=ultrafine) guess=(read,tcheck) s
 table=(opt,rrhf)
 ----------------------------------------------------------------------
 -----
 title
 -----
 Symbolic Z-matrix:
 Charge =  0 Multiplicity = 1

 SCF Done:  E(RHF) =  -601.274743895     A.U. after   14 cycles
 Normal termination of Gaussian 16 at Tue Apr  8 19:18:22 2025.
 Gaussian 16:  ES64L-G16RevC.01  3-Jul-2019

 ----------------------------------------------------------------------
 #t hf aug-cc-pvdz iop(5/13=1,5/36=2,99/5=2) pseudo=read geom=check gue
 ss=(read,tcheck) scf=(maxcycle=1)
 ----------------------------------------------------------------------
 -----
 title
 -----
 Structure from the checkpoint file:  "ANI1ccx_1119_conf6_mol1.chk"
 Charge =  0 Multiplicity = 1

                         Standard orientation:
 ---------------------------------------------------------------------
 Center     Atomic      Atomic             Coordinates (Angstroms)
 Number     Number       Type             X           Y           Z
 ---------------------------------------------------------------------
      1          6           0       -1.933421   -0.226692   -0.176272
      2          6           0       -0.813407   -0.281088    0.903539
      3          6           0        0.111974   -1.404339    0.919470
      4          6           0        1.343200   -1.041478    0.056529
      5          6           0        0.919236    1.419331   -0.039349
      6          1           0       -0.618657    1.968960    1.300220
      7          1           0        2.478169    0.330839   -0.752766
      8          1           0        0.523176   -1.626449    1.889060
      9          1           0       -1.120411   -0.091311    1.972630
     10          1           0       -0.521987   -0.959105   -1.265600
     11          1           0       -0.211392   -2.333330    0.547497
     12          7           0        1.646539    0.282235   -0.225399
     13          7           0       -0.123904    1.172210    0.810684
     14          8           0        2.037871   -1.943758   -0.357829
     15          8           0       -1.438930   -0.631256   -1.389120
     16          8           0       -3.014741    0.264282   -0.084701
     17          8           0        1.296697    2.527592   -0.389795
 ---------------------------------------------------------------------

 SCF Done:  E(RHF) =  -601.863316588     A.U. after    2 cycles

 The electronic state is 1-A.
 Alpha  occ. eigenvalues --  -20.63136 -20.57181 -20.56895 -20.53935 -15.58238
 Alpha  occ. eigenvalues --  -15.56992 -11.43340 -11.42485 -11.41840 -11.36369
 Alpha  occ. eigenvalues --  -11.30768  -1.56970  -1.52156  -1.49155  -1.48836
 Alpha  occ. eigenvalues --   -1.32597  -1.23735  -1.14132  -0.99156  -0.95958
 Alpha  occ. eigenvalues --   -0.87809  -0.85068  -0.80059  -0.78105  -0.72186
 Alpha  occ. eigenvalues --   -0.71521  -0.69941  -0.69155  -0.67391  -0.66961
 Alpha  occ. eigenvalues --   -0.63397  -0.62905  -0.61176  -0.59929  -0.56413
 Alpha  occ. eigenvalues --   -0.50931  -0.49638  -0.47471  -0.47394  -0.46526
 Alpha  occ. eigenvalues --   -0.45004
 Alpha virt. eigenvalues --    0.01857   0.03490   0.04100   0.04215   0.05274
 Alpha virt. eigenvalues --    0.06513   0.07871   0.08280   0.08750   0.09104
 Alpha virt. eigenvalues --    0.10513   0.11401   0.11810   0.12554   0.12966

 Mulliken charges:
               1
     1  C    2.251708
     2  C   -0.272207
     3  C   -0.095078
     4  C    0.684023
     5  C    0.251214
     6  H    0.203367
     7  H    0.177676
     8  H    0.151549
     9  H    0.131283
    10  H    0.648065
    11  H    0.025472
    12  N    0.710975
    13  N    0.365307
    14  O   -1.382109
    15  O   -1.401993
    16  O   -1.262620
    17  O   -1.186631
 Sum of Mulliken charges =  -0.00000

 Dipole moment (field-independent basis, Debye):
    X=              0.5944    Y=             -2.6933    Z=              3.6809  Tot=              4.5996

 Test job not archived.
 1\1\GINC-SE132\SP\RHF\Aug-CC-pVDZ\C5H6N2O4\OHZDE\08-Apr-2025\0\\#t hf
 aug-cc-pvdz iop(5/13=1,5/36=2,99/5=2) pseudo=read geom=check guess=(re
 ad,tcheck) scf=(maxcycle=1)\\title\\0,1\C,0,-1.93342,-0.226691,-0.1762
 72\C,0,-0.813406,-0.281088,0.903539\C,0,0.111974,-1.40434,0.91947\C,0,
 1.3432,-1.04148,0.0565286\C,0,0.919238,1.41933,-0.0393489\H,0,-0.61865
 4,1.96896,1.30022\H,0,2.47817,0.330836,-0.752766\H,0,0.523176,-1.62645
 ,1.88906\H,0,-1.12041,-0.0913108,1.97263\H,0,-0.521987,-0.959105,-1.26
 56\H,0,-0.211393,-2.33333,0.547497\N,0,1.64654,0.282233,-0.225399\N,0,

 Normal termination of Gaussian 16 at Tue Apr  8 19:18:32 2025.
