 Gaussian 16, Revision C.01,

 ----------------------------------------------------------------------
 #t hf aug-cc-pvdz symm=none int=(grid=ultrafine) guess=(read,tcheck) s
 table=(opt,rrhf)
 ----------------------------------------------------------------------
 -----
 title
 -----
 Symbolic Z-matrix:
 Charge =  0 Multiplicity = 1

 SCF Done:  E(RHF) =  -451.127094188     A.U. after   16 cycles
 Normal termination of Gaussian 16 at Tue Apr  8 21:11:25 2025.
 Gaussian 16:  ES64L-G16RevC.01  3-Jul-2019

 ----------------------------------------------------------------------
 #t hf aug-cc-pvdz iop(5/13=1,5/36=2,99/5=2) pseudo=read geom=check gue
 ss=(read,tcheck) scf=(maxcycle=1)
 ----------------------------------------------------------------------
 -----
 title
 -----
 Structure from the checkpoint file:  "ANI1ccx_1886_conf6_mol1.chk"
 Charge =  0 Multiplicity = 1

                         Standard orientation:
 ---------------------------------------------------------------------
 Center     Atomic      Atomic             Coordinates (Angstroms)
 Number     Number       Type             X           Y           Z
 ---------------------------------------------------------------------
      1          1           0       -0.241704   -0.650146   -0.167154
      2          1           0       -3.323120    0.403969    0.587427
      3          1           0        0.980505    1.334550    0.968033
      4          1           0        3.373800    0.319316   -0.793414
      5          8           0       -0.909803   -0.535948    0.527451
      6          8           0       -2.044880   -0.612802   -0.277475
      7          8           0       -2.836780    0.560607   -0.229925
      8          8           0        1.033860    1.004040    0.031844
      9          8           0        1.582740   -0.322849   -0.047278
     10          8           0        3.076180   -0.269007   -0.078978
 ---------------------------------------------------------------------

 SCF Done:  E(RHF) =  -451.561563467     A.U. after    2 cycles

 The electronic state is 1-A.
 Alpha  occ. eigenvalues --  -20.71483 -20.66530 -20.65475 -20.65022 -20.62628
 Alpha  occ. eigenvalues --  -20.61386  -1.67122  -1.65199  -1.46737  -1.45577
 Alpha  occ. eigenvalues --   -1.23573  -1.17682  -0.78513  -0.76381  -0.70780
 Alpha  occ. eigenvalues --   -0.68944  -0.67453  -0.66791  -0.65517  -0.61625
 Alpha  occ. eigenvalues --   -0.54019  -0.53187  -0.50768  -0.50114  -0.48963
 Alpha  occ. eigenvalues --   -0.44557
 Alpha virt. eigenvalues --    0.03672   0.04386   0.05511   0.07598   0.12064
 Alpha virt. eigenvalues --    0.12454   0.14740   0.15699   0.17916   0.19061
 Alpha virt. eigenvalues --    0.19889   0.19967   0.21153   0.21882   0.22238

 Mulliken charges:
               1
     1  H    0.729221
     2  H    0.445324
     3  H    0.476317
     4  H    0.456402
     5  O   -0.723084
     6  O    0.054417
     7  O   -0.447338
     8  O   -0.511914
     9  O    0.011219
    10  O   -0.490564
 Sum of Mulliken charges =  -0.00000

 Dipole moment (field-independent basis, Debye):
    X=              1.4626    Y=              1.8226    Z=              0.8255  Tot=              2.4784

 Test job not archived.
 1\1\GINC-SE072\SP\RHF\Aug-CC-pVDZ\H4O6\OHZDE\08-Apr-2025\0\\#t hf aug-
 cc-pvdz iop(5/13=1,5/36=2,99/5=2) pseudo=read geom=check guess=(read,t
 check) scf=(maxcycle=1)\\title\\0,1\H,0,-0.241704,-0.650146,-0.167154\
 H,0,-3.32312,0.403969,0.587427\H,0,0.980505,1.33455,0.968033\H,0,3.373
 8,0.319316,-0.793414\O,0,-0.909803,-0.535948,0.527451\O,0,-2.04488,-0.
 612802,-0.277475\O,0,-2.83678,0.560607,-0.229925\O,0,1.03386,1.00404,0
 .0318445\O,0,1.58274,-0.322849,-0.0472782\O,0,3.07618,-0.269007,-0.078
 9783\\Version=ES64L-G16RevC.01\State=1-A\HF=-451.5615635\RMSD=7.463e-0

 Normal termination of Gaussian 16 at Tue Apr  8 21:11:27 2025.
