 Gaussian 16, Revision C.01,

 ----------------------------------------------------------------------
 #t hf aug-cc-pvdz symm=none int=(grid=ultrafine) guess=(read,tcheck) s
 table=(opt,rrhf)
 ----------------------------------------------------------------------
 -----
 title
 -----
 Symbolic Z-matrix:
 Charge =  0 Multiplicity = 1

 SCF Done:  E(RHF) =  -311.843036353     A.U. after   15 cycles
 Normal termination of Gaussian 16 at Tue Apr  8 21:35:35 2025.
 Gaussian 16:  ES64L-G16RevC.01  3-Jul-2019

 ----------------------------------------------------------------------
 #t hf aug-cc-pvdz iop(5/13=1,5/36=2,99/5=2) pseudo=read geom=check gue
 ss=(read,tcheck) scf=(maxcycle=1)
 ----------------------------------------------------------------------
 -----
 title
 -----
 Structure from the checkpoint file:  "ANI1ccx_392_conf3_mol1.chk"
 Charge =  0 Multiplicity = 1

                         Standard orientation:
 ---------------------------------------------------------------------
 Center     Atomic      Atomic             Coordinates (Angstroms)
 Number     Number       Type             X           Y           Z
 ---------------------------------------------------------------------
      1          6           0        0.619134   -0.038401    0.015238
      2          1           0        2.486510    0.850531    0.034463
      3          1           0        2.516199   -0.910650    0.043208
      4          1           0       -2.218541   -1.066787    0.036329
      5          7           0        1.995619   -0.028643   -0.021112
      6          7           0       -0.096300    1.129181    0.008544
      7          7           0       -1.343240    0.769423   -0.010526
      8          7           0       -1.344491   -0.558121   -0.002984
      9          7           0       -0.140014   -1.117939   -0.003267
 ---------------------------------------------------------------------

 SCF Done:  E(RHF) =  -312.154871295     A.U. after    2 cycles

 The electronic state is 1-A.
 Alpha  occ. eigenvalues --  -15.63129 -15.61283 -15.54755 -15.54162 -15.52827
 Alpha  occ. eigenvalues --  -11.34500  -1.48921  -1.27836  -1.25184  -1.15725
 Alpha  occ. eigenvalues --   -0.96323  -0.91205  -0.83498  -0.74028  -0.72815
 Alpha  occ. eigenvalues --   -0.71728  -0.63052  -0.55395  -0.55101  -0.52317
 Alpha  occ. eigenvalues --   -0.50097  -0.39454
 Alpha virt. eigenvalues --    0.02837   0.04515   0.05887   0.07141   0.09734
 Alpha virt. eigenvalues --    0.11735   0.12099   0.13080   0.13776   0.14299
 Alpha virt. eigenvalues --    0.15563   0.15900   0.17041   0.17375   0.19889

 Mulliken charges:
               1
     1  C   -1.070876
     2  H    0.075644
     3  H    0.111184
     4  H    0.076597
     5  N    0.496746
     6  N    0.143068
     7  N   -0.213218
     8  N    0.204375
     9  N    0.176482
 Sum of Mulliken charges =  -0.00000

 Dipole moment (field-independent basis, Debye):
    X=              1.0787    Y=             -1.8283    Z=              0.2892  Tot=              2.1424

 Test job not archived.
 1\1\GINC-SE041\SP\RHF\Aug-CC-pVDZ\C1H3N5\OHZDE\08-Apr-2025\0\\#t hf au
 g-cc-pvdz iop(5/13=1,5/36=2,99/5=2) pseudo=read geom=check guess=(read
 ,tcheck) scf=(maxcycle=1)\\title\\0,1\C,0,0.619135,-0.0384012,0.015237
 6\H,0,2.48651,0.850532,0.0344632\H,0,2.5162,-0.910649,0.0432084\H,0,-2
 .21854,-1.06679,0.0363288\N,0,1.99562,-0.0286418,-0.0211124\N,0,-0.096
 3007,1.12918,0.00854371\N,0,-1.34324,0.769421,-0.010526\N,0,-1.34449,-
 0.558123,-0.00298445\N,0,-0.140012,-1.11794,-0.00326744\\Version=ES64L
 -G16RevC.01\State=1-A\HF=-312.1548713\RMSD=4.390e-02\Dipole=0.4243977,

 Normal termination of Gaussian 16 at Tue Apr  8 21:35:38 2025.
