 Gaussian 16, Revision C.01,

 ----------------------------------------------------------------------
 #t hf aug-cc-pvdz symm=none int=(grid=ultrafine) guess=(read,tcheck) s
 table=(opt,rrhf)
 ----------------------------------------------------------------------
 -----
 title
 -----
 Symbolic Z-matrix:
 Charge =  0 Multiplicity = 1

 SCF Done:  E(RHF) =  -537.874160359     A.U. after   15 cycles
 Normal termination of Gaussian 16 at Tue Apr  8 22:18:13 2025.
 Gaussian 16:  ES64L-G16RevC.01  3-Jul-2019

 ----------------------------------------------------------------------
 #t hf aug-cc-pvdz iop(5/13=1,5/36=2,99/5=2) pseudo=read geom=check gue
 ss=(read,tcheck) scf=(maxcycle=1)
 ----------------------------------------------------------------------
 -----
 title
 -----
 Structure from the checkpoint file:  "ANI1ccx_988_conf1_mol1.chk"
 Charge =  0 Multiplicity = 1

                         Standard orientation:
 ---------------------------------------------------------------------
 Center     Atomic      Atomic             Coordinates (Angstroms)
 Number     Number       Type             X           Y           Z
 ---------------------------------------------------------------------
      1          6           0        2.140739   -0.421952   -0.017544
      2          6           0        0.789257    1.514870    0.634491
      3          6           0       -0.556223    1.742060    0.052316
      4          6           0       -1.432481    0.560970   -0.024392
      5          1           0       -0.218367   -1.099880    0.770177
      6          1           0       -0.463847    2.164790   -0.959018
      7          1           0       -1.115712    2.477209    0.634915
      8          1           0        1.224648    2.501820    0.851871
      9          1           0        0.747043    0.999679    1.590930
     10          1           0        1.898530   -2.093819    0.979587
     11          1           0        3.427490   -1.744649   -0.846533
     12          1           0        3.949879   -0.120694   -0.964641
     13          1           0        2.070828    1.267051   -1.090430
     14          7           0       -2.135901   -1.471591    0.112866
     15          7           0        3.171859   -0.760971   -0.873465
     16          7           0        1.537399   -1.154300    0.908552
     17          7           0        1.753699    0.857194   -0.231566
     18          7           0       -2.603401    0.499702   -0.561449
     19          7           0       -3.040811   -0.777049   -0.453297
     20          7           0       -1.135451   -0.725441    0.407490
 ---------------------------------------------------------------------

 SCF Done:  E(RHF) =  -538.426878762     A.U. after    2 cycles

 The electronic state is 1-A.
 Alpha  occ. eigenvalues --  -15.56786 -15.55642 -15.55351 -15.54722 -15.53983
 Alpha  occ. eigenvalues --  -15.50154 -15.48530 -11.39071 -11.30069 -11.29487
 Alpha  occ. eigenvalues --  -11.26385  -1.46476  -1.33527  -1.23916  -1.22404
 Alpha  occ. eigenvalues --   -1.18766  -1.16841  -1.07518  -0.95115  -0.91454
 Alpha  occ. eigenvalues --   -0.87484  -0.86372  -0.81151  -0.78009  -0.77279
 Alpha  occ. eigenvalues --   -0.70659  -0.69871  -0.68692  -0.66445  -0.66343
 Alpha  occ. eigenvalues --   -0.59541  -0.58577  -0.57530  -0.53804  -0.51089
 Alpha  occ. eigenvalues --   -0.49413  -0.49280  -0.48028  -0.46891  -0.42822
 Alpha  occ. eigenvalues --   -0.41058
 Alpha virt. eigenvalues --    0.01287   0.02906   0.03422   0.04008   0.04765
 Alpha virt. eigenvalues --    0.05297   0.06055   0.07236   0.08137   0.09070
 Alpha virt. eigenvalues --    0.11141   0.11575   0.12487   0.13341   0.13617

 Mulliken charges:
               1
     1  C   -2.131545
     2  C   -0.579981
     3  C    0.248780
     4  C   -1.461259
     5  H    0.132374
     6  H    0.249391
     7  H    0.257831
     8  H    0.054621
     9  H    0.193949
    10  H    0.075798
    11  H    0.203390
    12  H    0.120238
    13  H    0.169769
    14  N   -0.199668
    15  N    0.572252
    16  N    0.599397
    17  N    0.640503
    18  N    0.622575
    19  N   -0.298290
    20  N    0.529876
 Sum of Mulliken charges =  -0.00000

 Dipole moment (field-independent basis, Debye):
    X=             10.2249    Y=              2.9391    Z=             -0.0069  Tot=             10.6389

 Test job not archived.
 1\1\GINC-SE094\SP\RHF\Aug-CC-pVDZ\C4H9N7\OHZDE\08-Apr-2025\0\\#t hf au
 g-cc-pvdz iop(5/13=1,5/36=2,99/5=2) pseudo=read geom=check guess=(read
 ,tcheck) scf=(maxcycle=1)\\title\\0,1\C,0,2.14074,-0.421953,-0.0175442
 \C,0,0.789259,1.51487,0.634491\C,0,-0.556221,1.74206,0.0523164\C,0,-1.
 43248,0.560971,-0.0243919\H,0,-0.218366,-1.09988,0.770177\H,0,-0.46384
 5,2.16479,-0.959018\H,0,-1.11571,2.47721,0.634915\H,0,1.22465,2.50182,
 0.851871\H,0,0.747045,0.999679,1.59093\H,0,1.89853,-2.09382,0.979587\H
 ,0,3.42749,-1.74465,-0.846533\H,0,3.94988,-0.120695,-0.964641\H,0,2.07

 Normal termination of Gaussian 16 at Tue Apr  8 22:18:25 2025.
