 Gaussian 16, Revision C.01,

 ----------------------------------------------------------------------
 #t hf aug-cc-pvdz symm=none int=(grid=ultrafine) guess=(read,tcheck) s
 table=(opt,rrhf)
 ----------------------------------------------------------------------
 -----
 title
 -----
 Symbolic Z-matrix:
 Charge =  0 Multiplicity = 1

 SCF Done:  E(RHF) =  -946.782740630     A.U. after   14 cycles
 Normal termination of Gaussian 16 at Tue Apr  8 21:37:26 2025.
 Gaussian 16:  ES64L-G16RevC.01  3-Jul-2019

 ----------------------------------------------------------------------
 #t hf aug-cc-pvdz iop(5/13=1,5/36=2,99/5=2) pseudo=read geom=check gue
 ss=(read,tcheck) scf=(maxcycle=1)
 ----------------------------------------------------------------------
 -----
 title
 -----
 Structure from the checkpoint file:  "ANI1ccx_207_conf2_mol2.chk"
 Charge =  0 Multiplicity = 1

                         Standard orientation:
 ---------------------------------------------------------------------
 Center     Atomic      Atomic             Coordinates (Angstroms)
 Number     Number       Type             X           Y           Z
 ---------------------------------------------------------------------
      1          6           0        0.797326   -2.433140    0.674430
      2          6           0       -0.509858    1.984340   -0.909773
      3          6           0       -1.763040    1.191360   -1.138150
      4          6           0       -3.418740   -0.527722   -0.326837
      5          6           0       -2.013760    0.086336   -0.074141
      6          6           0       -0.633767    2.905010    0.298288
      7          6           0        2.960900   -0.129586   -0.429700
      8          6           0        3.087010   -1.637359   -0.318213
      9          6           0        1.759341   -2.413339   -0.526505
     10          6           0       -0.004552   -1.067070    0.787106
     11          6           0        4.346430    0.550485   -0.396387
     12          1           0        3.775160    2.289421   -1.339000
     13          1           0       -4.336679   -2.050170   -0.523744
     14          1           0       -0.141863    3.042240    2.249320
     15          1           0        0.330792    1.608040    1.498680
     16          1           0        0.352383    1.333540   -0.797387
     17          1           0       -0.291753    2.627660   -1.781530
     18          1           0       -2.671840    1.829360   -1.165700
     19          1           0       -1.657760    0.658477   -2.099270
     20          1           0       -2.071390    0.489418    0.947622
     21          1           0       -1.266589   -1.805480   -0.558878
     22          1           0        3.784720    2.380341    0.345287
     23          1           0        4.974730    0.169217   -1.217130
     24          1           0       -0.813735   -3.591050    1.304100
     25          1           0        2.412280    0.259763    0.422196
     26          1           0        2.412800    0.138151   -1.373030
     27          1           0        3.587151   -1.968039    0.625823
     28          1           0        3.805741   -2.015949   -1.070850
     29          1           0        1.230161   -2.067249   -1.432630
     30          1           0        1.932511   -3.474989   -0.738860
     31          1           0        1.352611   -2.462839    1.628500
     32          1           0        4.930190    0.234609    0.484647
     33          1           0        0.257615   -4.404370    0.511259
     34          7           0       -0.201474   -3.500970    0.491027
     35          7           0        4.223710    1.998591   -0.485141
     36          7           0       -0.981131   -0.951749   -0.147225
     37          7           0        0.084032    2.558640    1.388110
     38          8           0       -4.471130    0.080091   -0.251666
     39          8           0       -1.353300    3.892840    0.345201
     40          8           0        0.275111   -0.257479    1.639500
     41          8           0       -3.376549   -1.841400   -0.543970
 ---------------------------------------------------------------------

 SCF Done:  E(RHF) =  -947.754374890     A.U. after    2 cycles

 The electronic state is 1-A.
 Alpha  occ. eigenvalues --  -20.63268 -20.55763 -20.53962 -20.49234 -15.54296
 Alpha  occ. eigenvalues --  -15.52360 -15.49801 -15.47787 -11.41894 -11.37873
 Alpha  occ. eigenvalues --  -11.34278 -11.31845 -11.29990 -11.26088 -11.25938
 Alpha  occ. eigenvalues --  -11.25615 -11.25016 -11.24779 -11.23397  -1.58395
 Alpha  occ. eigenvalues --   -1.49751  -1.46810  -1.44056  -1.27793  -1.21560
 Alpha  occ. eigenvalues --   -1.20911  -1.17831  -1.10158  -1.08297  -1.02297
 Alpha  occ. eigenvalues --   -1.00204  -0.92634  -0.89719  -0.86588  -0.84941
 Alpha  occ. eigenvalues --   -0.83350  -0.81400  -0.80074  -0.76351  -0.74584
 Alpha  occ. eigenvalues --   -0.72967  -0.71664  -0.70969  -0.70214  -0.69126
 Alpha  occ. eigenvalues --   -0.67277  -0.66836  -0.66415  -0.64062  -0.63330
 Alpha  occ. eigenvalues --   -0.63059  -0.62591  -0.61705  -0.59954  -0.59030
 Alpha  occ. eigenvalues --   -0.58310  -0.57803  -0.56804  -0.55110  -0.53364
 Alpha  occ. eigenvalues --   -0.52915  -0.52667  -0.52051  -0.50945  -0.49814
 Alpha  occ. eigenvalues --   -0.49396  -0.48117  -0.47610  -0.46798  -0.44150
 Alpha  occ. eigenvalues --   -0.43527  -0.41708  -0.40989  -0.40442
 Alpha virt. eigenvalues --    0.01904   0.02599   0.02830   0.03572   0.03677
 Alpha virt. eigenvalues --    0.04136   0.04719   0.05043   0.05575   0.06584
 Alpha virt. eigenvalues --    0.06827   0.07376   0.07743   0.07981   0.08274

 Mulliken charges:
               1
     1  C   -1.438519
     2  C   -0.103156
     3  C   -0.417914
     4  C    3.430716
     5  C   -1.984506
     6  C    0.351152
     7  C   -0.133320
     8  C   -0.189254
     9  C    0.148522
    10  C    0.859977
    11  C   -0.996120
    12  H    0.138702
    13  H    0.453005
    14  H    0.148293
    15  H   -0.028876
    16  H    0.143048
    17  H    0.153584
    18  H    0.135639
    19  H    0.208790
    20  H    0.206700
    21  H    0.440248
    22  H    0.173034
    23  H    0.065467
    24  H    0.208713
    25  H   -0.033963
    26  H    0.209543
    27  H    0.172975
    28  H    0.128833
    29  H    0.258620
    30  H    0.064957
    31  H   -0.003619
    32  H    0.085763
    33  H    0.159833
    34  N    0.731711
    35  N    0.472840
    36  N    0.844699
    37  N    1.010992
    38  O   -1.459565
    39  O   -1.472355
    40  O   -1.688171
    41  O   -1.457019
 Sum of Mulliken charges =  -0.00000

 Dipole moment (field-independent basis, Debye):
    X=              1.2108    Y=             -8.4269    Z=             -0.4320  Tot=              8.5244

 Test job not archived.
 1\1\GINC-SE044\SP\RHF\Aug-CC-pVDZ\C11H22N4O4\OHZDE\08-Apr-2025\0\\#t h
 f aug-cc-pvdz iop(5/13=1,5/36=2,99/5=2) pseudo=read geom=check guess=(
 read,tcheck) scf=(maxcycle=1)\\title\\0,1\C,0,0.797325,-2.43314,0.6744
 3\C,0,-0.509858,1.98434,-0.909773\C,0,-1.76304,1.19136,-1.13815\C,0,-3
 .41874,-0.527722,-0.326837\C,0,-2.01376,0.0863354,-0.0741406\C,0,-0.63
 3767,2.90501,0.298288\C,0,2.9609,-0.129587,-0.4297\C,0,3.08701,-1.6373
 6,-0.318213\C,0,1.75934,-2.41334,-0.526505\C,0,-0.00455239,-1.06707,0.
 787106\C,0,4.34643,0.550484,-0.396387\H,0,3.77516,2.28942,-1.339\H,0,-

 Normal termination of Gaussian 16 at Tue Apr  8 21:38:53 2025.
