 Gaussian 16, Revision C.01,

 ----------------------------------------------------------------------
 #t hf aug-cc-pvdz symm=none int=(grid=ultrafine) guess=(read,tcheck) s
 table=(opt,rrhf)
 ----------------------------------------------------------------------
 -----
 title
 -----
 Symbolic Z-matrix:
 Charge =  0 Multiplicity = 1

 SCF Done:  E(RHF) =  -635.453298199     A.U. after   17 cycles

 1\1\GINC-SE252\Stability\RHF\Aug-CC-pVDZ\C8H10N6\OHZDE\08-Apr-2025\0\\
 #t hf aug-cc-pvdz symm=none int=(grid=ultrafine) guess=(read,tcheck) s
 table=(opt,rrhf)\\title\\0,1\C,0,1.3455,0.740764,0.00244797\C,0,-1.103
 59,0.66887,0.0132082\C,0,-2.33662,1.31812,-0.0487871\C,0,-3.52123,0.62
 6276,-0.0642291\C,0,-3.45709,-0.766153,0.0278107\C,0,-2.25722,-1.44264
 ,0.00396645\C,0,-1.05076,-0.706161,0.0486029\C,0,1.37283,-0.730573,-0.
 0542282\H,0,3.43533,-2.97598,-0.171828\H,0,2.21236,-2.97959,0.932224\H
 ,0,0.236566,-2.36257,-0.197641\H,0,-2.25025,-2.54162,0.0973304\H,0,-4.

 Normal termination of Gaussian 16 at Tue Apr  8 20:01:21 2025.
 Gaussian 16:  ES64L-G16RevC.01  3-Jul-2019

 ----------------------------------------------------------------------
 #t hf aug-cc-pvdz iop(5/13=1,5/36=2,99/5=2) pseudo=read geom=check gue
 ss=(read,tcheck) scf=(maxcycle=1)
 ----------------------------------------------------------------------
 -----
 title
 -----
 Structure from the checkpoint file:  "ANI1ccx_1548_conf3_mol1.chk"
 Charge =  0 Multiplicity = 1

                         Standard orientation:
 ---------------------------------------------------------------------
 Center     Atomic      Atomic             Coordinates (Angstroms)
 Number     Number       Type             X           Y           Z
 ---------------------------------------------------------------------
      1          6           0        1.345501    0.740764    0.002448
      2          6           0       -1.103589    0.668871    0.013208
      3          6           0       -2.336619    1.318122   -0.048787
      4          6           0       -3.521229    0.626279   -0.064229
      5          6           0       -3.457090   -0.766150    0.027811
      6          6           0       -2.257221   -1.442638    0.003966
      7          6           0       -1.050760   -0.706160    0.048603
      8          6           0        1.372830   -0.730573   -0.054228
      9          1           0        3.435328   -2.975982   -0.171828
     10          1           0        2.212358   -2.979591    0.932224
     11          1           0        0.236565   -2.362570   -0.197641
     12          1           0       -2.250252   -2.541618    0.097330
     13          1           0       -4.368671   -1.374336    0.077305
     14          1           0       -2.299318    2.422532   -0.116227
     15          1           0        0.198326    2.343020    0.118971
     16          1           0        2.941413    3.313548    0.385344
     17          1           0        2.005323    3.138889   -0.926568
     18          1           0       -4.524849    1.076074    0.001630
     19          7           0        2.505699   -1.317211   -0.172050
     20          7           0        2.081963    2.867879    0.085171
     21          7           0        2.439341    1.442769    0.102622
     22          7           0        0.119309    1.335421   -0.015116
     23          7           0        0.162684   -1.370690    0.094656
     24          7           0        2.471408   -2.716891   -0.062895
 ---------------------------------------------------------------------

 SCF Done:  E(RHF) =  -636.098083581     A.U. after    2 cycles

 The electronic state is 1-A.
 Alpha  occ. eigenvalues --  -15.54974 -15.53901 -15.53166 -15.52568 -15.51384
 Alpha  occ. eigenvalues --  -15.50696 -11.32780 -11.32475 -11.29592 -11.29328
 Alpha  occ. eigenvalues --  -11.25653 -11.25363 -11.24932 -11.24684  -1.34591
 Alpha  occ. eigenvalues --   -1.30089  -1.26297  -1.22347  -1.16414  -1.11070
 Alpha  occ. eigenvalues --   -1.07092  -1.02222  -1.01826  -0.92791  -0.88304
 Alpha  occ. eigenvalues --   -0.86467  -0.79566  -0.76536  -0.75937  -0.74666
 Alpha  occ. eigenvalues --   -0.71252  -0.69978  -0.68396  -0.66037  -0.65591
 Alpha  occ. eigenvalues --   -0.64681  -0.61581  -0.60377  -0.59626  -0.58387
 Alpha  occ. eigenvalues --   -0.55308  -0.54833  -0.52201  -0.51883  -0.47508
 Alpha  occ. eigenvalues --   -0.46163  -0.42100  -0.38481  -0.34203  -0.31037
 Alpha virt. eigenvalues --    0.02942   0.03259   0.03392   0.04499   0.05688
 Alpha virt. eigenvalues --    0.05776   0.06309   0.07141   0.07672   0.07860
 Alpha virt. eigenvalues --    0.08135   0.09788   0.09894   0.10865   0.11141

 Mulliken charges:
               1
     1  C   -2.173866
     2  C   -1.605933
     3  C    1.796763
     4  C   -0.030813
     5  C    0.437354
     6  C    0.610863
     7  C   -1.327881
     8  C   -2.099831
     9  H    0.076399
    10  H    0.224642
    11  H    0.253323
    12  H   -0.272234
    13  H   -0.229896
    14  H   -0.326329
    15  H    0.205234
    16  H    0.073672
    17  H    0.213548
    18  H   -0.179479
    19  N    0.824118
    20  N    0.027385
    21  N    0.756159
    22  N    1.302495
    23  N    1.188878
    24  N    0.255429
 Sum of Mulliken charges =  -0.00000

 Dipole moment (field-independent basis, Debye):
    X=             -3.1552    Y=             -0.2976    Z=              0.2022  Tot=              3.1756

 Test job not archived.
 1\1\GINC-SE252\SP\RHF\Aug-CC-pVDZ\C8H10N6\OHZDE\08-Apr-2025\0\\#t hf a
 ug-cc-pvdz iop(5/13=1,5/36=2,99/5=2) pseudo=read geom=check guess=(rea
 d,tcheck) scf=(maxcycle=1)\\title\\0,1\C,0,1.3455,0.740764,0.00244797\
 C,0,-1.10359,0.66887,0.0132082\C,0,-2.33662,1.31812,-0.0487871\C,0,-3.
 52123,0.626276,-0.0642291\C,0,-3.45709,-0.766153,0.0278107\C,0,-2.2572
 2,-1.44264,0.00396645\C,0,-1.05076,-0.706161,0.0486029\C,0,1.37283,-0.
 730573,-0.0542282\H,0,3.43533,-2.97598,-0.171828\H,0,2.21236,-2.97959,
 0.932224\H,0,0.236566,-2.36257,-0.197641\H,0,-2.25025,-2.54162,0.09733

 Normal termination of Gaussian 16 at Tue Apr  8 20:01:43 2025.
