 Gaussian 16, Revision C.01,

 ----------------------------------------------------------------------
 #t hf aug-cc-pvdz symm=none int=(grid=ultrafine) guess=(read,tcheck) s
 table=(opt,rrhf)
 ----------------------------------------------------------------------
 -----
 title
 -----
 Symbolic Z-matrix:
 Charge =  0 Multiplicity = 1

 SCF Done:  E(RHF) =  -298.823307025     A.U. after   14 cycles
 Normal termination of Gaussian 16 at Tue Apr  8 21:35:39 2025.
 Gaussian 16:  ES64L-G16RevC.01  3-Jul-2019

 ----------------------------------------------------------------------
 #t hf aug-cc-pvdz iop(5/13=1,5/36=2,99/5=2) pseudo=read geom=check gue
 ss=(read,tcheck) scf=(maxcycle=1)
 ----------------------------------------------------------------------
 -----
 title
 -----
 Structure from the checkpoint file:  "ANI1ccx_398_conf16_mol1.chk"
 Charge =  0 Multiplicity = 1

                         Standard orientation:
 ---------------------------------------------------------------------
 Center     Atomic      Atomic             Coordinates (Angstroms)
 Number     Number       Type             X           Y           Z
 ---------------------------------------------------------------------
      1          6           0       -0.461062    0.108445    0.020187
      2          1           0       -1.773940   -1.268121   -0.502991
      3          1           0       -2.416250    0.240603   -0.248592
      4          1           0        0.581715   -1.543781    0.552496
      5          1           0        1.516060    0.854963   -0.161416
      6          7           0       -1.742730   -0.444686    0.115679
      7          7           0        0.622911   -0.798138   -0.126239
      8          8           0       -0.228299    1.311289    0.007396
      9          8           0        1.815490   -0.090610    0.031766
 ---------------------------------------------------------------------

 SCF Done:  E(RHF) =  -299.123521259     A.U. after    2 cycles

 The electronic state is 1-A.
 Alpha  occ. eigenvalues --  -20.58389 -20.54540 -15.58709 -15.55700 -11.41272
 Alpha  occ. eigenvalues --   -1.52901  -1.46851  -1.25560  -1.14667  -0.86733
 Alpha  occ. eigenvalues --   -0.80145  -0.75262  -0.70303  -0.66974  -0.64574
 Alpha  occ. eigenvalues --   -0.58354  -0.56687  -0.49306  -0.47389  -0.42913
 Alpha virt. eigenvalues --    0.02427   0.04961   0.05798   0.06545   0.10231
 Alpha virt. eigenvalues --    0.11234   0.12146   0.13729   0.14501   0.15722
 Alpha virt. eigenvalues --    0.16573   0.16931   0.17640   0.19317   0.20857

 Mulliken charges:
               1
     1  C   -0.071928
     2  H    0.189297
     3  H    0.233000
     4  H    0.184956
     5  H    0.387144
     6  N    0.384883
     7  N    0.959669
     8  O   -1.123092
     9  O   -1.143929
 Sum of Mulliken charges =  -0.00000

 Dipole moment (field-independent basis, Debye):
    X=             -2.4600    Y=             -1.8656    Z=             -0.5797  Tot=              3.1414

 Test job not archived.
 1\1\GINC-SE364\SP\RHF\Aug-CC-pVDZ\C1H4N2O2\OHZDE\08-Apr-2025\0\\#t hf
 aug-cc-pvdz iop(5/13=1,5/36=2,99/5=2) pseudo=read geom=check guess=(re
 ad,tcheck) scf=(maxcycle=1)\\title\\0,1\C,0,-0.461062,0.108446,0.02018
 73\H,0,-1.77394,-1.26812,-0.502991\H,0,-2.41625,0.240604,-0.248592\H,0
 ,0.581715,-1.54378,0.552496\H,0,1.51606,0.854964,-0.161416\N,0,-1.7427
 3,-0.444685,0.115679\N,0,0.622911,-0.798137,-0.126239\O,0,-0.228299,1.
 31129,0.00739557\O,0,1.81549,-0.0906094,0.0317664\\Version=ES64L-G16Re
 vC.01\State=1-A\HF=-299.1235213\RMSD=1.569e-02\Dipole=-0.967851,-0.733

 Normal termination of Gaussian 16 at Tue Apr  8 21:35:41 2025.
