 Gaussian 16, Revision C.01,

 ----------------------------------------------------------------------
 #t hf aug-cc-pvdz symm=none int=(grid=ultrafine) guess=(read,tcheck) s
 table=(opt,rrhf)
 ----------------------------------------------------------------------
 -----
 title
 -----
 Symbolic Z-matrix:
 Charge =  0 Multiplicity = 1

 SCF Done:  E(RHF) =  -1021.09410398     A.U. after   14 cycles
 Normal termination of Gaussian 16 at Tue Apr  8 22:08:30 2025.
 Gaussian 16:  ES64L-G16RevC.01  3-Jul-2019

 ----------------------------------------------------------------------
 #t hf aug-cc-pvdz iop(5/13=1,5/36=2,99/5=2) pseudo=read geom=check gue
 ss=(read,tcheck) scf=(maxcycle=1)
 ----------------------------------------------------------------------
 -----
 title
 -----
 Structure from the checkpoint file:  "ANI1ccx_54_conf10_mol1.chk"
 Charge =  0 Multiplicity = 1

                         Standard orientation:
 ---------------------------------------------------------------------
 Center     Atomic      Atomic             Coordinates (Angstroms)
 Number     Number       Type             X           Y           Z
 ---------------------------------------------------------------------
      1          6           0        1.280869   -0.408657    1.230260
      2          6           0       -4.261481   -0.538907   -0.316521
      3          6           0       -1.874211   -0.592187    0.717896
      4          6           0       -0.969606    1.810030    0.221409
      5          6           0       -1.139691    0.368135   -0.357114
      6          6           0       -3.074431   -1.304089    0.167407
      7          6           0        3.604839    0.191178    0.642198
      8          6           0        2.356389    0.670069    1.288040
      9          6           0        0.994868   -0.935878   -0.193000
     10          6           0        3.731669    0.262447   -0.845320
     11          1           0       -1.882761    0.420177   -1.257320
     12          1           0       -2.986490    1.837261    0.359661
     13          1           0       -5.849501   -0.427146   -1.055040
     14          1           0       -2.816501   -1.875169   -0.744478
     15          1           0       -3.422061   -2.056049    0.841269
     16          1           0       -2.143681   -0.094461    1.613270
     17          1           0       -1.095231   -1.370650    0.966717
     18          1           0        0.133375   -0.433040   -1.924800
     19          1           0        4.871369   -0.268727   -2.171700
     20          1           0        4.509969    0.798888    0.950585
     21          1           0        3.722899   -0.848301    0.850093
     22          1           0        2.582409    0.842876    2.384820
     23          1           0        1.998520    1.626860    0.850200
     24          1           0        0.365625    0.057337    1.797850
     25          1           0        0.869256   -2.143750    2.275080
     26          1           0        2.211869   -2.175520    1.453460
     27          7           0        1.715559   -1.568750    2.071490
     28          7           0        0.103503   -0.224905   -0.888954
     29          8           0        1.576749   -1.922380   -0.586610
     30          8           0        3.235140    1.030420   -1.633670
     31          8           0        4.712599   -0.578946   -1.232000
     32          8           0        0.090698    2.349200    0.277042
     33          8           0       -4.398051    0.669583   -0.206541
     34          8           0       -5.268341   -1.196249   -0.976876
     35          8           0       -2.161020    2.339891    0.508792
 ---------------------------------------------------------------------

 SCF Done:  E(RHF) =  -1022.11107277     A.U. after    2 cycles

 The electronic state is 1-A.
 Alpha  occ. eigenvalues --  -20.64058 -20.59814 -20.58958 -20.58609 -20.54708
 Alpha  occ. eigenvalues --  -20.53175 -20.52439 -15.54611 -15.49040 -11.44813
 Alpha  occ. eigenvalues --  -11.40871 -11.37828 -11.36697 -11.34397 -11.30268
 Alpha  occ. eigenvalues --  -11.29781 -11.28650 -11.24018 -11.23112  -1.59590
 Alpha  occ. eigenvalues --   -1.54905  -1.53554  -1.48894  -1.48561  -1.47228
 Alpha  occ. eigenvalues --   -1.43282  -1.26470  -1.19087  -1.13745  -1.07743
 Alpha  occ. eigenvalues --   -1.03498  -0.97676  -0.94222  -0.89144  -0.85857
 Alpha  occ. eigenvalues --   -0.82633  -0.80557  -0.77586  -0.75663  -0.75283
 Alpha  occ. eigenvalues --   -0.74539  -0.73049  -0.72321  -0.70171  -0.69423
 Alpha  occ. eigenvalues --   -0.68677  -0.67727  -0.66435  -0.65464  -0.64561
 Alpha  occ. eigenvalues --   -0.64456  -0.63355  -0.62167  -0.60641  -0.60034
 Alpha  occ. eigenvalues --   -0.58482  -0.58144  -0.57388  -0.56209  -0.55775
 Alpha  occ. eigenvalues --   -0.53816  -0.52299  -0.51928  -0.50180  -0.49307
 Alpha  occ. eigenvalues --   -0.49103  -0.47894  -0.46145  -0.46110  -0.45949
 Alpha  occ. eigenvalues --   -0.43446  -0.42951  -0.42048
 Alpha virt. eigenvalues --    0.01894   0.02390   0.03286   0.04016   0.04505
 Alpha virt. eigenvalues --    0.04592   0.05112   0.05747   0.06314   0.06957
 Alpha virt. eigenvalues --    0.07519   0.07842   0.08469   0.09119   0.09288

 Mulliken charges:
               1
     1  C   -1.740967
     2  C    2.392166
     3  C    0.236586
     4  C    2.584202
     5  C   -0.951166
     6  C   -0.817138
     7  C   -0.946839
     8  C    0.146074
     9  C    0.750669
    10  C    2.707023
    11  H    0.252132
    12  H    0.607568
    13  H    0.328319
    14  H    0.330190
    15  H    0.142500
    16  H   -0.163375
    17  H    0.248875
    18  H    0.384307
    19  H    0.362989
    20  H    0.342196
    21  H    0.139017
    22  H    0.282517
    23  H    0.228832
    24  H    0.364281
    25  H    0.158147
    26  H    0.253745
    27  N    0.882209
    28  N    0.578564
    29  O   -1.622849
    30  O   -1.445702
    31  O   -1.403001
    32  O   -1.411082
    33  O   -1.348508
    34  O   -1.328160
    35  O   -1.524324
 Sum of Mulliken charges =  -0.00000

 Dipole moment (field-independent basis, Debye):
    X=             -5.9512    Y=             -3.2393    Z=             -0.0871  Tot=              6.7762

 Test job not archived.
 1\1\GINC-SE458\SP\RHF\Aug-CC-pVDZ\C10H16N2O7\OHZDE\08-Apr-2025\0\\#t h
 f aug-cc-pvdz iop(5/13=1,5/36=2,99/5=2) pseudo=read geom=check guess=(
 read,tcheck) scf=(maxcycle=1)\\title\\0,1\C,0,1.28087,-0.408657,1.2302
 6\C,0,-4.26148,-0.538908,-0.316521\C,0,-1.87421,-0.592188,0.717896\C,0
 ,-0.969606,1.81003,0.221409\C,0,-1.13969,0.368135,-0.357114\C,0,-3.074
 43,-1.30409,0.167407\C,0,3.60484,0.191178,0.642198\C,0,2.35639,0.67006
 9,1.28804\C,0,0.994869,-0.935878,-0.193\C,0,3.73167,0.262447,-0.84532\
 H,0,-1.88276,0.420176,-1.25732\H,0,-2.98649,1.83726,0.359661\H,0,-5.84

 Normal termination of Gaussian 16 at Tue Apr  8 22:09:28 2025.
