 Gaussian 16, Revision C.01,

 ----------------------------------------------------------------------
 #t hf aug-cc-pvdz symm=none int=(grid=ultrafine) guess=(read,tcheck) s
 table=(opt,rrhf)
 ----------------------------------------------------------------------
 -----
 title
 -----
 Symbolic Z-matrix:
 Charge =  0 Multiplicity = 1

 SCF Done:  E(RHF) =  -430.234744676     A.U. after   15 cycles
 Normal termination of Gaussian 16 at Tue Apr  8 21:40:47 2025.
 Gaussian 16:  ES64L-G16RevC.01  3-Jul-2019

 ----------------------------------------------------------------------
 #t hf aug-cc-pvdz iop(5/13=1,5/36=2,99/5=2) pseudo=read geom=check gue
 ss=(read,tcheck) scf=(maxcycle=1)
 ----------------------------------------------------------------------
 -----
 title
 -----
 Structure from the checkpoint file:  "ANI1ccx_470_conf1_mol2.chk"
 Charge =  0 Multiplicity = 1

                         Standard orientation:
 ---------------------------------------------------------------------
 Center     Atomic      Atomic             Coordinates (Angstroms)
 Number     Number       Type             X           Y           Z
 ---------------------------------------------------------------------
      1          6           0       -1.114640   -0.175845   -0.044108
      2          6           0        1.084100   -0.184870    0.055752
      3          1           0       -1.081690    1.916231    0.404567
      4          7           0       -0.660493    1.178570   -0.121944
      5          8           0       -2.221321   -0.591958   -0.067820
      6          8           0        0.764277    1.149770    0.074199
      7          8           0        2.227729   -0.576432   -0.134335
      8          8           0       -0.034637   -0.981622    0.175353
 ---------------------------------------------------------------------

 SCF Done:  E(RHF) =  -430.644333802     A.U. after    2 cycles

 The electronic state is 1-A.
 Alpha  occ. eigenvalues --  -20.69655 -20.69244 -20.59297 -20.58863 -15.65155
 Alpha  occ. eigenvalues --  -11.50731 -11.48820  -1.68589  -1.58568  -1.53807
 Alpha  occ. eigenvalues --   -1.50309  -1.23633  -0.96169  -0.94829  -0.83102
 Alpha  occ. eigenvalues --   -0.77903  -0.75321  -0.70740  -0.69228  -0.67002
 Alpha  occ. eigenvalues --   -0.64392  -0.62553  -0.53734  -0.51680  -0.50203
 Alpha  occ. eigenvalues --   -0.48538
 Alpha virt. eigenvalues --    0.02235   0.07573   0.08151   0.08323   0.09899
 Alpha virt. eigenvalues --    0.10579   0.10764   0.11105   0.12577   0.13568
 Alpha virt. eigenvalues --    0.14927   0.15515   0.16117   0.18516   0.21506

 Mulliken charges:
               1
     1  C    1.122970
     2  C    2.208787
     3  H    0.165615
     4  N    0.763598
     5  O   -0.994552
     6  O   -1.145403
     7  O   -1.077314
     8  O   -1.043701
 Sum of Mulliken charges =  -0.00000

 Dipole moment (field-independent basis, Debye):
    X=             -1.3217    Y=              2.6548    Z=              1.2282  Tot=              3.2099

 Test job not archived.
 1\1\GINC-SE127\SP\RHF\Aug-CC-pVDZ\C2H1N1O4\OHZDE\08-Apr-2025\0\\#t hf
 aug-cc-pvdz iop(5/13=1,5/36=2,99/5=2) pseudo=read geom=check guess=(re
 ad,tcheck) scf=(maxcycle=1)\\title\\0,1\C,0,-1.11464,-0.175846,-0.0441
 081\C,0,1.0841,-0.18487,0.0557523\H,0,-1.08169,1.91623,0.404567\N,0,-0
 .660493,1.17857,-0.121944\O,0,-2.22132,-0.591959,-0.0678197\O,0,0.7642
 77,1.14977,0.0741987\O,0,2.22773,-0.576431,-0.134335\O,0,-0.0346366,-0
 .981622,0.175353\\Version=ES64L-G16RevC.01\State=1-A\HF=-430.6443338\R
 MSD=1.128e-02\Dipole=-0.5199851,1.0444709,0.4832149\Quadrupole=-6.4077

 Normal termination of Gaussian 16 at Tue Apr  8 21:40:50 2025.
