 Gaussian 16, Revision C.01,

 ----------------------------------------------------------------------
 #t hf aug-cc-pvdz symm=none int=(grid=ultrafine) guess=(read,tcheck) s
 table=(opt,rrhf)
 ----------------------------------------------------------------------
 -----
 title
 -----
 Symbolic Z-matrix:
 Charge =  0 Multiplicity = 1

 SCF Done:  E(RHF) =  -455.623442185     A.U. after   15 cycles
 Normal termination of Gaussian 16 at Tue Apr  8 22:14:53 2025.
 Gaussian 16:  ES64L-G16RevC.01  3-Jul-2019

 ----------------------------------------------------------------------
 #t hf aug-cc-pvdz iop(5/13=1,5/36=2,99/5=2) pseudo=read geom=check gue
 ss=(read,tcheck) scf=(maxcycle=1)
 ----------------------------------------------------------------------
 -----
 title
 -----
 Structure from the checkpoint file:  "ANI1ccx_972_conf3_mol1.chk"
 Charge =  0 Multiplicity = 1

                         Standard orientation:
 ---------------------------------------------------------------------
 Center     Atomic      Atomic             Coordinates (Angstroms)
 Number     Number       Type             X           Y           Z
 ---------------------------------------------------------------------
      1          6           0        1.666081   -0.579553    1.248311
      2          6           0        1.421661   -0.259659   -0.286717
      3          6           0       -0.091500   -0.380338   -0.672505
      4          6           0       -1.121870    0.586017    0.024107
      5          1           0        0.785101   -0.210797    1.897571
      6          1           0        2.649441   -0.215044    1.601891
      7          1           0        1.652842   -1.689649    1.489781
      8          1           0        2.095841   -0.945906   -0.929334
      9          1           0        1.060599    1.596480   -0.161596
     10          1           0       -0.053668   -0.215454   -1.764909
     11          1           0       -1.039038   -2.103022   -1.254459
     12          1           0       -1.974359   -0.961073    0.290998
     13          8           0        1.753199    1.061811   -0.601570
     14          8           0       -0.630059   -1.688902   -0.457859
     15          8           0       -2.228679   -0.088768    0.572703
     16          8           0       -0.947334    1.784068    0.105589
 ---------------------------------------------------------------------

 SCF Done:  E(RHF) =  -456.080791918     A.U. after    2 cycles

 The electronic state is 1-A.
 Alpha  occ. eigenvalues --  -20.60662 -20.60331 -20.56392 -20.55538 -11.42336
 Alpha  occ. eigenvalues --  -11.34824 -11.33131 -11.25469  -1.54740  -1.50002
 Alpha  occ. eigenvalues --   -1.47393  -1.46048  -1.05359  -0.97185  -0.86464
 Alpha  occ. eigenvalues --   -0.80955  -0.76069  -0.75591  -0.71696  -0.66938
 Alpha  occ. eigenvalues --   -0.63148  -0.62792  -0.61079  -0.59751  -0.57302
 Alpha  occ. eigenvalues --   -0.54925  -0.53905  -0.51699  -0.50918  -0.48741
 Alpha  occ. eigenvalues --   -0.44890  -0.43483
 Alpha virt. eigenvalues --    0.01870   0.03899   0.04003   0.05047   0.06156
 Alpha virt. eigenvalues --    0.06585   0.07580   0.07759   0.09889   0.11509
 Alpha virt. eigenvalues --    0.12059   0.12992   0.13983   0.14270   0.14402

 Mulliken charges:
               1
     1  C   -0.443934
     2  C    0.666661
     3  C    0.609551
     4  C    2.169856
     5  H    0.232612
     6  H    0.144753
     7  H    0.224543
     8  H    0.189245
     9  H    0.424923
    10  H    0.262683
    11  H    0.289362
    12  H    0.477857
    13  O   -1.407885
    14  O   -1.313193
    15  O   -1.265601
    16  O   -1.261432
 Sum of Mulliken charges =  -0.00000

 Dipole moment (field-independent basis, Debye):
    X=              0.1077    Y=             -4.2220    Z=             -1.8423  Tot=              4.6078

 Test job not archived.
 1\1\GINC-SE059\SP\RHF\Aug-CC-pVDZ\C4H8O4\OHZDE\08-Apr-2025\0\\#t hf au
 g-cc-pvdz iop(5/13=1,5/36=2,99/5=2) pseudo=read geom=check guess=(read
 ,tcheck) scf=(maxcycle=1)\\title\\0,1\C,0,1.66608,-0.579554,1.24831\C,
 0,1.42166,-0.259659,-0.286718\C,0,-0.0915011,-0.380337,-0.672506\C,0,-
 1.12187,0.586019,0.0241062\H,0,0.7851,-0.210797,1.89757\H,0,2.64944,-0
 .215046,1.60189\H,0,1.65284,-1.68965,1.48978\H,0,2.09584,-0.945907,-0.
 929335\H,0,1.0606,1.59648,-0.161597\H,0,-0.0536684,-0.215453,-1.76491\
 H,0,-1.03904,-2.10302,-1.25446\H,0,-1.97436,-0.96107,0.290997\O,0,1.75

 Normal termination of Gaussian 16 at Tue Apr  8 22:15:00 2025.
