 Gaussian 16, Revision C.01,

 ----------------------------------------------------------------------
 #t hf aug-cc-pvdz symm=none int=(grid=ultrafine) guess=(read,tcheck) s
 table=(opt,rrhf)
 ----------------------------------------------------------------------
 -----
 title
 -----
 Symbolic Z-matrix:
 Charge =  0 Multiplicity = 1

 SCF Done:  E(RHF) =  -911.520292259     A.U. after   14 cycles
 Normal termination of Gaussian 16 at Tue Apr  8 21:37:59 2025.
 Gaussian 16:  ES64L-G16RevC.01  3-Jul-2019

 ----------------------------------------------------------------------
 #t hf aug-cc-pvdz iop(5/13=1,5/36=2,99/5=2) pseudo=read geom=check gue
 ss=(read,tcheck) scf=(maxcycle=1)
 ----------------------------------------------------------------------
 -----
 title
 -----
 Structure from the checkpoint file:  "ANI1ccx_191_conf16_mol1.chk"
 Charge =  0 Multiplicity = 1

                         Standard orientation:
 ---------------------------------------------------------------------
 Center     Atomic      Atomic             Coordinates (Angstroms)
 Number     Number       Type             X           Y           Z
 ---------------------------------------------------------------------
      1          6           0       -0.979628    2.139550    0.188555
      2          6           0        1.539480   -2.337091   -0.315294
      3          6           0        1.063130   -1.472440    2.090090
      4          6           0        2.019170   -1.420521    0.855449
      5          6           0        3.187671    0.178365   -0.695630
      6          6           0        0.018091   -2.191230   -0.635119
      7          6           0       -3.634470   -0.717602   -0.341121
      8          6           0       -2.718519    0.298341    0.429987
      9          6           0       -1.952879    1.165671   -0.579873
     10          6           0        0.090158    1.392450    0.965195
     11          6           0        2.168921    0.120007    0.399928
     12          1           0        1.085899   -2.533400    2.427310
     13          1           0        3.533230   -0.215132   -2.483080
     14          1           0       -0.577934   -2.653900    0.172028
     15          1           0       -0.318410   -1.126860   -0.808180
     16          1           0       -0.217541   -2.761960   -1.572950
     17          1           0        2.124920   -2.064551   -1.104220
     18          1           0        1.814669   -3.408031   -0.061370
     19          1           0        1.405940   -0.813420    2.896280
     20          1           0        0.047109   -1.143650    1.862250
     21          1           0        3.002170   -1.857511    1.205480
     22          1           0       -5.026080   -1.814908   -0.381165
     23          1           0        0.829902    0.850049   -0.935595
     24          1           0       -3.368589    0.905118    1.053360
     25          1           0       -1.831610   -0.135783    1.045270
     26          1           0       -2.581049    1.852331   -1.157450
     27          1           0       -1.395579    0.507018   -1.371630
     28          1           0       -1.577458    2.639901    0.934030
     29          1           0        0.013234    2.817160   -1.429590
     30          1           0        0.318163    3.620400   -0.233142
     31          1           0        2.607461    0.677133    1.250280
     32          7           0       -0.465283    3.159040   -0.647606
     33          7           0        0.968178    0.820133    0.081783
     34          8           0        4.362451    0.243890   -0.471668
     35          8           0        0.165727    1.322840    2.205650
     36          8           0       -3.688870   -0.702074   -1.564790
     37          8           0       -4.584600   -1.368558    0.368227
     38          8           0        2.718361   -0.011999   -1.977440
 ---------------------------------------------------------------------

 SCF Done:  E(RHF) =  -912.447012064     A.U. after    2 cycles

 The electronic state is 1-A.
 Alpha  occ. eigenvalues --  -20.62455 -20.61658 -20.56011 -20.54998 -20.53029
 Alpha  occ. eigenvalues --  -15.54995 -15.50570 -11.41387 -11.41358 -11.37421
 Alpha  occ. eigenvalues --  -11.30686 -11.28598 -11.28515 -11.26851 -11.26512
 Alpha  occ. eigenvalues --  -11.24258 -11.23934 -11.22688  -1.56747  -1.56128
 Alpha  occ. eigenvalues --   -1.47397  -1.45824  -1.45300  -1.28037  -1.23036
 Alpha  occ. eigenvalues --   -1.10377  -1.08482  -1.03019  -0.98011  -0.97050
 Alpha  occ. eigenvalues --   -0.89891  -0.88201  -0.85112  -0.84256  -0.80501
 Alpha  occ. eigenvalues --   -0.78479  -0.75692  -0.72911  -0.72485  -0.71698
 Alpha  occ. eigenvalues --   -0.71166  -0.69618  -0.68938  -0.67051  -0.65816
 Alpha  occ. eigenvalues --   -0.64462  -0.63729  -0.62676  -0.61295  -0.60948
 Alpha  occ. eigenvalues --   -0.59815  -0.58657  -0.58119  -0.56084  -0.55454
 Alpha  occ. eigenvalues --   -0.53474  -0.53231  -0.52530  -0.52351  -0.51776
 Alpha  occ. eigenvalues --   -0.50953  -0.49420  -0.48313  -0.48057  -0.47983
 Alpha  occ. eigenvalues --   -0.46710  -0.46292  -0.45532  -0.42376  -0.40882
 Alpha virt. eigenvalues --    0.02463   0.02966   0.03343   0.03757   0.04304
 Alpha virt. eigenvalues --    0.04712   0.04972   0.05189   0.05547   0.06851
 Alpha virt. eigenvalues --    0.07425   0.07703   0.08280   0.08479   0.08754

 Mulliken charges:
               1
     1  C   -1.342547
     2  C   -0.032499
     3  C   -0.178892
     4  C   -0.554903
     5  C    2.754228
     6  C   -0.422213
     7  C    2.427844
     8  C   -0.586581
     9  C   -0.303758
    10  C    0.457821
    11  C   -1.678906
    12  H    0.183295
    13  H    0.371007
    14  H    0.259700
    15  H    0.121888
    16  H    0.108075
    17  H   -0.058846
    18  H    0.201519
    19  H    0.206880
    20  H   -0.131081
    21  H    0.141299
    22  H    0.348257
    23  H    0.166862
    24  H    0.143745
    25  H    0.336785
    26  H    0.087757
    27  H    0.378537
    28  H   -0.050929
    29  H    0.128442
    30  H    0.286500
    31  H   -0.099501
    32  N    0.931229
    33  N    2.503508
    34  O   -1.366944
    35  O   -1.643740
    36  O   -1.239829
    37  O   -1.354576
    38  O   -1.499432
 Sum of Mulliken charges =   0.00000

 Dipole moment (field-independent basis, Debye):
    X=              0.0484    Y=             -1.4551    Z=             -2.0557  Tot=              2.5191

 Test job not archived.
 1\1\GINC-SE116\SP\RHF\Aug-CC-pVDZ\C11H20N2O5\OHZDE\08-Apr-2025\0\\#t h
 f aug-cc-pvdz iop(5/13=1,5/36=2,99/5=2) pseudo=read geom=check guess=(
 read,tcheck) scf=(maxcycle=1)\\title\\0,1\C,0,-0.979629,2.13955,0.1885
 55\C,0,1.53948,-2.33709,-0.315294\C,0,1.06313,-1.47244,2.09009\C,0,2.0
 1917,-1.42052,0.855449\C,0,3.18767,0.178366,-0.69563\C,0,0.018091,-2.1
 9123,-0.635119\C,0,-3.63447,-0.717604,-0.341121\C,0,-2.71852,0.29834,0
 .429987\C,0,-1.95288,1.16567,-0.579873\C,0,0.0901572,1.39245,0.965195\
 C,0,2.16892,0.120008,0.399928\H,0,1.0859,-2.5334,2.42731\H,0,3.53323,-

 Normal termination of Gaussian 16 at Tue Apr  8 21:39:15 2025.
