 Gaussian 16, Revision C.01,

 ----------------------------------------------------------------------
 #t hf aug-cc-pvdz symm=none int=(grid=ultrafine) guess=(read,tcheck) s
 table=(opt,rrhf)
 ----------------------------------------------------------------------
 -----
 title
 -----
 Symbolic Z-matrix:
 Charge =  0 Multiplicity = 1

 SCF Done:  E(RHF) =  -465.437070951     A.U. after   14 cycles
 Normal termination of Gaussian 16 at Tue Apr  8 21:43:55 2025.
 Gaussian 16:  ES64L-G16RevC.01  3-Jul-2019

 ----------------------------------------------------------------------
 #t hf aug-cc-pvdz iop(5/13=1,5/36=2,99/5=2) pseudo=read geom=check gue
 ss=(read,tcheck) scf=(maxcycle=1)
 ----------------------------------------------------------------------
 -----
 title
 -----
 Structure from the checkpoint file:  "ANI1ccx_503_conf1_mol2.chk"
 Charge =  0 Multiplicity = 1

                         Standard orientation:
 ---------------------------------------------------------------------
 Center     Atomic      Atomic             Coordinates (Angstroms)
 Number     Number       Type             X           Y           Z
 ---------------------------------------------------------------------
      1          6           0        1.417109   -0.013292   -0.044714
      2          6           0       -0.742964    0.752366    0.097198
      3          1           0       -2.272139   -1.591302    0.333169
      4          1           0        0.928606   -1.846189    0.632386
      5          1           0        0.962300    2.047801   -0.165242
      6          7           0       -0.744516   -0.617504    0.383440
      7          7           0        0.542948   -1.102249    0.055724
      8          7           0        0.597279    1.118471   -0.066443
      9          8           0       -1.708289   -1.283332   -0.388998
     10          8           0        2.634300   -0.053579   -0.090759
     11          8           0       -1.730212    1.482438    0.014224
 ---------------------------------------------------------------------

 SCF Done:  E(RHF) =  -465.891790697     A.U. after    2 cycles

 The electronic state is 1-A.
 Alpha  occ. eigenvalues --  -20.63513 -20.55825 -20.55377 -15.65369 -15.59764
 Alpha  occ. eigenvalues --  -15.59183 -11.43786 -11.43574  -1.56842  -1.50339
 Alpha  occ. eigenvalues --   -1.48759  -1.38466  -1.26343  -1.14414  -0.94819
 Alpha  occ. eigenvalues --   -0.91254  -0.83453  -0.79877  -0.74917  -0.72518
 Alpha  occ. eigenvalues --   -0.68557  -0.68366  -0.65894  -0.60151  -0.57459
 Alpha  occ. eigenvalues --   -0.54776  -0.50118  -0.47235  -0.46959  -0.45546
 Alpha virt. eigenvalues --    0.02484   0.04493   0.04734   0.08688   0.09246
 Alpha virt. eigenvalues --    0.09720   0.10053   0.10820   0.11013   0.12031
 Alpha virt. eigenvalues --    0.13579   0.13952   0.14581   0.15798   0.17431

 Mulliken charges:
               1
     1  C    0.559084
     2  C    0.733362
     3  H    0.302914
     4  H    0.214117
     5  H    0.101227
     6  N    0.747516
     7  N    0.214568
     8  N    0.456157
     9  O   -1.086194
    10  O   -1.101883
    11  O   -1.140868
 Sum of Mulliken charges =  -0.00000

 Dipole moment (field-independent basis, Debye):
    X=             -0.5136    Y=             -1.4523    Z=              1.8270  Tot=              2.3898

 Test job not archived.
 1\1\GINC-SE404\SP\RHF\Aug-CC-pVDZ\C2H3N3O3\OHZDE\08-Apr-2025\0\\#t hf
 aug-cc-pvdz iop(5/13=1,5/36=2,99/5=2) pseudo=read geom=check guess=(re
 ad,tcheck) scf=(maxcycle=1)\\title\\0,1\C,0,1.41711,-0.0132942,-0.0447
 142\C,0,-0.742963,0.752367,0.0971984\H,0,-2.27214,-1.5913,0.333169\H,0
 ,0.928604,-1.84619,0.632386\H,0,0.962303,2.0478,-0.165242\N,0,-0.74451
 6,-0.617503,0.38344\N,0,0.542947,-1.10225,0.0557236\N,0,0.597281,1.118
 47,-0.0664433\O,0,-1.70829,-1.28333,-0.388998\O,0,2.6343,-0.053582,-0.
 0907586\O,0,-1.73021,1.48244,0.0142237\\Version=ES64L-G16RevC.01\State

 Normal termination of Gaussian 16 at Tue Apr  8 21:44:00 2025.
