 Gaussian 16, Revision C.01,

 ----------------------------------------------------------------------
 #t hf aug-cc-pvdz symm=none int=(grid=ultrafine) guess=(read,tcheck) s
 table=(opt,rrhf)
 ----------------------------------------------------------------------
 -----
 title
 -----
 Symbolic Z-matrix:
 Charge =  0 Multiplicity = 1

 SCF Done:  E(RHF) =  -433.495041340     A.U. after   15 cycles
 Normal termination of Gaussian 16 at Tue Apr  8 22:06:05 2025.
 Gaussian 16:  ES64L-G16RevC.01  3-Jul-2019

 ----------------------------------------------------------------------
 #t hf aug-cc-pvdz iop(5/13=1,5/36=2,99/5=2) pseudo=read geom=check gue
 ss=(read,tcheck) scf=(maxcycle=1)
 ----------------------------------------------------------------------
 -----
 title
 -----
 Structure from the checkpoint file:  "ANI1ccx_898_conf1_mol2.chk"
 Charge =  0 Multiplicity = 1

                         Standard orientation:
 ---------------------------------------------------------------------
 Center     Atomic      Atomic             Coordinates (Angstroms)
 Number     Number       Type             X           Y           Z
 ---------------------------------------------------------------------
      1          6           0        1.106830   -0.523467    0.000294
      2          6           0        1.348487    0.962477   -0.303282
      3          6           0        0.215439    1.593952    0.337647
      4          6           0       -1.288130   -0.281403    0.042176
      5          1           0        2.384137    1.218176    0.082864
      6          1           0        1.377487    1.203464   -1.431940
      7          1           0        0.198441    1.428572    1.377650
      8          1           0        0.184263    2.659602    0.262509
      9          1           0       -0.345470   -1.928429    0.534518
     10          7           0       -0.145322   -0.942170    0.394874
     11          8           0        2.022512   -1.322325   -0.097000
     12          8           0       -1.091893    1.094459   -0.166704
     13          8           0       -2.315289   -0.834078   -0.242637
 ---------------------------------------------------------------------

 SCF Done:  E(RHF) =  -433.924761325     A.U. after    2 cycles

 The electronic state is 1-A.
 Alpha  occ. eigenvalues --  -20.61401 -20.55084 -20.54883 -15.58097 -11.44407
 Alpha  occ. eigenvalues --  -11.40226 -11.32653 -11.29656  -1.54896  -1.49306
 Alpha  occ. eigenvalues --   -1.47244  -1.29869  -1.11724  -0.94934  -0.93488
 Alpha  occ. eigenvalues --   -0.84323  -0.76255  -0.73766  -0.70949  -0.67471
 Alpha  occ. eigenvalues --   -0.65625  -0.63971  -0.62416  -0.60510  -0.56312
 Alpha  occ. eigenvalues --   -0.53056  -0.49527  -0.48236  -0.45694  -0.45076
 Alpha virt. eigenvalues --    0.02603   0.03688   0.04274   0.04543   0.05997
 Alpha virt. eigenvalues --    0.08877   0.09025   0.10226   0.10518   0.11184
 Alpha virt. eigenvalues --    0.12804   0.13254   0.13836   0.14133   0.14290

 Mulliken charges:
               1
     1  C    0.626439
     2  C   -0.502785
     3  C    0.640500
     4  C    1.407353
     5  H    0.250375
     6  H    0.319080
     7  H    0.152948
     8  H   -0.044595
     9  H    0.142997
    10  N    0.742095
    11  O   -1.277630
    12  O   -1.303215
    13  O   -1.153562
 Sum of Mulliken charges =  -0.00000

 Dipole moment (field-independent basis, Debye):
    X=              2.2076    Y=              2.9075    Z=              1.2793  Tot=              3.8682

 Test job not archived.
 1\1\GINC-SE038\SP\RHF\Aug-CC-pVDZ\C4H5N1O3\OHZDE\08-Apr-2025\0\\#t hf
 aug-cc-pvdz iop(5/13=1,5/36=2,99/5=2) pseudo=read geom=check guess=(re
 ad,tcheck) scf=(maxcycle=1)\\title\\0,1\C,0,1.10683,-0.523471,0.000293
 86\C,0,1.34849,0.962473,-0.303282\C,0,0.215443,1.59395,0.337647\C,0,-1
 .28813,-0.281402,0.0421761\H,0,2.38414,1.21817,0.0828639\H,0,1.37749,1
 .20346,-1.43194\H,0,0.198445,1.42857,1.37765\H,0,0.184269,2.6596,0.262
 509\H,0,-0.345473,-1.92843,0.534518\N,0,-0.145323,-0.942171,0.394874\O
 ,0,2.02251,-1.32233,-0.0970002\O,0,-1.09189,1.09446,-0.166704\O,0,-2.3

 Normal termination of Gaussian 16 at Tue Apr  8 22:06:10 2025.
