 Gaussian 16, Revision C.01,

 ----------------------------------------------------------------------
 #t hf aug-cc-pvdz symm=none int=(grid=ultrafine) guess=(read,tcheck) s
 table=(opt,rrhf)
 ----------------------------------------------------------------------
 -----
 title
 -----
 Symbolic Z-matrix:
 Charge =  0 Multiplicity = 1

 SCF Done:  E(RHF) =  -489.711502908     A.U. after   14 cycles
 Normal termination of Gaussian 16 at Tue Apr  8 22:13:39 2025.
 Gaussian 16:  ES64L-G16RevC.01  3-Jul-2019

 ----------------------------------------------------------------------
 #t hf aug-cc-pvdz iop(5/13=1,5/36=2,99/5=2) pseudo=read geom=check gue
 ss=(read,tcheck) scf=(maxcycle=1)
 ----------------------------------------------------------------------
 -----
 title
 -----
 Structure from the checkpoint file:  "ANI1ccx_957_conf12_mol2.chk"
 Charge =  0 Multiplicity = 1

                         Standard orientation:
 ---------------------------------------------------------------------
 Center     Atomic      Atomic             Coordinates (Angstroms)
 Number     Number       Type             X           Y           Z
 ---------------------------------------------------------------------
      1          6           0       -0.496017    0.186551   -0.294547
      2          6           0       -1.888640   -0.219065    0.084478
      3          6           0        0.623856   -0.528612    0.575399
      4          6           0        2.077750   -0.320492    0.072220
      5          1           0       -3.443720   -0.970416   -0.720171
      6          1           0        1.614810    1.623839   -0.342799
      7          1           0        0.428464   -0.086024    1.563619
      8          1           0        0.552196   -1.683231    0.563426
      9          1           0        3.312690    1.114319   -0.587514
     10          1           0       -0.965204    2.119819   -0.859060
     11          1           0       -0.524993    2.013009    0.677532
     12          1           0       -0.369920   -0.129658   -1.305041
     13          7           0       -0.318926    1.645799   -0.250146
     14          7           0        2.423840    0.928755   -0.159807
     15          8           0        2.834530   -1.290181    0.024489
     16          8           0       -2.538300    0.191427    1.003929
     17          8           0       -2.451280   -0.992974   -0.871623
 ---------------------------------------------------------------------

 SCF Done:  E(RHF) =  -490.204464061     A.U. after    2 cycles

 The electronic state is 1-A.
 Alpha  occ. eigenvalues --  -20.61785 -20.55841 -20.50088 -15.53405 -15.52029
 Alpha  occ. eigenvalues --  -11.40946 -11.35531 -11.31177 -11.27495  -1.56536
 Alpha  occ. eigenvalues --   -1.46907  -1.44300  -1.24300  -1.21918  -1.05380
 Alpha  occ. eigenvalues --   -0.95823  -0.83550  -0.81470  -0.76260  -0.74796
 Alpha  occ. eigenvalues --   -0.72452  -0.71442  -0.67556  -0.66096  -0.64413
 Alpha  occ. eigenvalues --   -0.60613  -0.59131  -0.58444  -0.55004  -0.52060
 Alpha  occ. eigenvalues --   -0.50696  -0.48996  -0.45735  -0.42667  -0.41400
 Alpha virt. eigenvalues --    0.02493   0.03419   0.04530   0.04880   0.05718
 Alpha virt. eigenvalues --    0.06321   0.06687   0.07777   0.09631   0.11284
 Alpha virt. eigenvalues --    0.11523   0.11582   0.13287   0.13740   0.14379

 Mulliken charges:
               1
     1  C   -0.916695
     2  C    2.497782
     3  C   -0.487694
     4  C    0.487608
     5  H    0.367968
     6  H    0.221328
     7  H    0.313522
     8  H    0.233458
     9  H    0.090587
    10  H    0.265901
    11  H    0.327183
    12  H    0.009149
    13  N   -0.208119
    14  N    0.688177
    15  O   -1.335493
    16  O   -1.280206
    17  O   -1.274455
 Sum of Mulliken charges =  -0.00000

 Dipole moment (field-independent basis, Debye):
    X=             -3.3029    Y=              3.2786    Z=             -1.8288  Tot=              5.0003

 Test job not archived.
 1\1\GINC-SE029\SP\RHF\Aug-CC-pVDZ\C4H8N2O3\OHZDE\08-Apr-2025\0\\#t hf
 aug-cc-pvdz iop(5/13=1,5/36=2,99/5=2) pseudo=read geom=check guess=(re
 ad,tcheck) scf=(maxcycle=1)\\title\\0,1\C,0,-0.496017,0.186552,-0.2945
 46\C,0,-1.88864,-0.219064,0.0844785\C,0,0.623856,-0.528611,0.5754\C,0,
 2.07775,-0.320491,0.0722205\H,0,-3.44372,-0.970416,-0.72017\H,0,1.6148
 1,1.62384,-0.342798\H,0,0.428464,-0.0860236,1.56362\H,0,0.552196,-1.68
 323,0.563427\H,0,3.31269,1.11432,-0.587513\H,0,-0.965204,2.11982,-0.85
 9059\H,0,-0.524993,2.01301,0.677533\H,0,-0.36992,-0.129657,-1.30504\N,

 Normal termination of Gaussian 16 at Tue Apr  8 22:13:46 2025.
