 Gaussian 16, Revision C.01,

 ----------------------------------------------------------------------
 #t hf aug-cc-pvdz symm=none int=(grid=ultrafine) guess=(read,tcheck) s
 table=(opt,rrhf)
 ----------------------------------------------------------------------
 -----
 title
 -----
 Symbolic Z-matrix:
 Charge =  0 Multiplicity = 1

 SCF Done:  E(RHF) =  -277.903974578     A.U. after   15 cycles
 Normal termination of Gaussian 16 at Tue Apr  8 21:34:38 2025.
 Gaussian 16:  ES64L-G16RevC.01  3-Jul-2019

 ----------------------------------------------------------------------
 #t hf aug-cc-pvdz iop(5/13=1,5/36=2,99/5=2) pseudo=read geom=check gue
 ss=(read,tcheck) scf=(maxcycle=1)
 ----------------------------------------------------------------------
 -----
 title
 -----
 Structure from the checkpoint file:  "ANI1ccx_389_conf1_mol1.chk"
 Charge =  0 Multiplicity = 1

                         Standard orientation:
 ---------------------------------------------------------------------
 Center     Atomic      Atomic             Coordinates (Angstroms)
 Number     Number       Type             X           Y           Z
 ---------------------------------------------------------------------
      1          6           0        1.040658   -0.177272    0.219808
      2          1           0        1.108278    1.719419   -0.529601
      3          1           0       -0.399215    1.266529    0.210065
      4          1           0        0.328091   -0.735314    0.854446
      5          7           0        0.519060    1.014529   -0.122600
      6          7           0       -1.946092    0.235142    0.262613
      7          7           0       -2.055661   -0.705204   -0.309964
      8          8           0        2.137219   -0.624785   -0.083013
 ---------------------------------------------------------------------

 SCF Done:  E(RHF) =  -278.175718369     A.U. after    2 cycles

 The electronic state is 1-A.
 Alpha  occ. eigenvalues --  -20.51629 -15.65486 -15.65041 -15.53413 -11.36329
 Alpha  occ. eigenvalues --   -1.51848  -1.45320  -1.23832  -0.88221  -0.86572
 Alpha  occ. eigenvalues --   -0.79376  -0.71239  -0.70216  -0.69402  -0.68853
 Alpha  occ. eigenvalues --   -0.61201  -0.58789  -0.44072  -0.42876
 Alpha virt. eigenvalues --    0.03287   0.05106   0.05924   0.06473   0.06885
 Alpha virt. eigenvalues --    0.09721   0.11549   0.11868   0.12952   0.14128
 Alpha virt. eigenvalues --    0.15031   0.16387   0.17189   0.17960   0.19300

 Mulliken charges:
               1
     1  C    0.396625
     2  H    0.069493
     3  H    0.076275
     4  H    0.092433
     5  N    0.446412
     6  N   -0.061027
     7  N    0.020892
     8  O   -1.041104
 Sum of Mulliken charges =  -0.00000

 Dipole moment (field-independent basis, Debye):
    X=             -3.5540    Y=              2.2741    Z=              0.6908  Tot=              4.2755

 Test job not archived.
 1\1\GINC-SE455\SP\RHF\Aug-CC-pVDZ\C1H3N3O1\OHZDE\08-Apr-2025\0\\#t hf
 aug-cc-pvdz iop(5/13=1,5/36=2,99/5=2) pseudo=read geom=check guess=(re
 ad,tcheck) scf=(maxcycle=1)\\title\\0,1\C,0,1.04066,-0.177271,0.219808
 \H,0,1.10828,1.71942,-0.529601\H,0,-0.399213,1.26653,0.210065\H,0,0.32
 8092,-0.735313,0.854446\N,0,0.519062,1.01453,-0.1226\N,0,-1.94609,0.23
 5144,0.262613\N,0,-2.05566,-0.705202,-0.309964\O,0,2.13722,-0.624785,-
 0.0830129\\Version=ES64L-G16RevC.01\State=1-A\HF=-278.1757184\RMSD=3.5
 92e-02\Dipole=-1.398255,0.8947183,0.2717842\Quadrupole=-4.1189023,2.91

 Normal termination of Gaussian 16 at Tue Apr  8 21:34:40 2025.
