 Gaussian 16, Revision C.01,

 ----------------------------------------------------------------------
 #t hf aug-cc-pvdz symm=none int=(grid=ultrafine) guess=(read,tcheck) s
 table=(opt,rrhf)
 ----------------------------------------------------------------------
 -----
 title
 -----
 Symbolic Z-matrix:
 Charge =  0 Multiplicity = 1

 SCF Done:  E(RHF) =  -456.232798542     A.U. after   11 cycles
 Normal termination of Gaussian 16 at Tue Apr  8 21:07:42 2025.
 Gaussian 16:  ES64L-G16RevC.01  3-Jul-2019

 ----------------------------------------------------------------------
 #t hf aug-cc-pvdz iop(5/13=1,5/36=2,99/5=2) pseudo=read geom=check gue
 ss=(read,tcheck) scf=(maxcycle=1)
 ----------------------------------------------------------------------
 -----
 title
 -----
 Structure from the checkpoint file:  "ANI1ccx_1844_conf324_mol1.chk"
 Charge =  0 Multiplicity = 1

                         Standard orientation:
 ---------------------------------------------------------------------
 Center     Atomic      Atomic             Coordinates (Angstroms)
 Number     Number       Type             X           Y           Z
 ---------------------------------------------------------------------
      1          1           0        2.565570    0.240135   -0.508779
      2          1           0       -2.063430   -1.399440   -1.284880
      3          1           0       -2.633890   -0.227638   -0.205276
      4          1           0        1.943170   -1.643011   -1.459600
      5          1           0        1.343880   -1.436071    0.018765
      6          1           0       -0.080905   -1.488411    1.904760
      7          1           0        3.197581    1.431958    0.165996
      8          1           0       -1.055080   -1.247561    0.614046
      9          1           0        0.051173    0.494606    1.079780
     10          1           0        0.850327    1.528909    0.315665
     11          1           0       -1.308459    1.416349   -0.238876
     12          1           0       -2.886179    1.758380   -0.101998
     13          8           0        2.211610   -1.441801   -0.457236
     14          8           0        0.043574    1.454099    0.905024
     15          8           0       -2.406730   -1.258430   -0.308087
     16          8           0       -0.092484   -1.162551    0.951351
     17          8           0        2.473770    1.186928   -0.458905
     18          8           0       -2.220209    1.293230   -0.669596
 ---------------------------------------------------------------------

 SCF Done:  E(RHF) =  -456.704471220     A.U. after    2 cycles

 The electronic state is 1-A.
 Alpha  occ. eigenvalues --  -20.57949 -20.56520 -20.56445 -20.56176 -20.54396
 Alpha  occ. eigenvalues --  -20.52352  -1.45885  -1.43778  -1.43601  -1.41491
 Alpha  occ. eigenvalues --   -1.40662  -1.39541  -0.72966  -0.70816  -0.70569
 Alpha  occ. eigenvalues --   -0.70106  -0.69132  -0.68415  -0.62691  -0.60080
 Alpha  occ. eigenvalues --   -0.59044  -0.57804  -0.56501  -0.54387  -0.50558
 Alpha  occ. eigenvalues --   -0.49434  -0.49297  -0.48140  -0.48063  -0.46523
 Alpha virt. eigenvalues --    0.03080   0.04057   0.04320   0.05079   0.06760
 Alpha virt. eigenvalues --    0.07813   0.08292   0.08462   0.08758   0.10170
 Alpha virt. eigenvalues --    0.10624   0.12530   0.15689   0.18736   0.19192

 Mulliken charges:
               1
     1  H    0.630262
     2  H    0.414215
     3  H    0.771969
     4  H    0.399387
     5  H    0.857624
     6  H    0.495686
     7  H    0.380024
     8  H    0.949846
     9  H    0.823044
    10  H    0.606948
    11  H    0.728978
    12  H    0.390531
    13  O   -1.117394
    14  O   -1.284171
    15  O   -1.239995
    16  O   -1.754962
    17  O   -0.957615
    18  O   -1.094376
 Sum of Mulliken charges =  -0.00000

 Dipole moment (field-independent basis, Debye):
    X=             -0.4820    Y=             -1.5338    Z=              0.6366  Tot=              1.7292

 Test job not archived.
 1\1\GINC-SE454\SP\RHF\Aug-CC-pVDZ\H12O6\OHZDE\08-Apr-2025\0\\#t hf aug
 -cc-pvdz iop(5/13=1,5/36=2,99/5=2) pseudo=read geom=check guess=(read,
 tcheck) scf=(maxcycle=1)\\title\\0,1\H,0,2.56557,0.240137,-0.508779\H,
 0,-2.06343,-1.39944,-1.28488\H,0,-2.63389,-0.227638,-0.205276\H,0,1.94
 317,-1.64301,-1.4596\H,0,1.34388,-1.43607,0.0187651\H,0,-0.0809049,-1.
 48841,1.90476\H,0,3.19758,1.43196,0.165996\H,0,-1.05508,-1.24756,0.614
 046\H,0,0.0511729,0.494607,1.07978\H,0,0.850326,1.52891,0.315665\H,0,-
 1.30846,1.41635,-0.238876\H,0,-2.88618,1.75838,-0.101998\O,0,2.21161,-

 Normal termination of Gaussian 16 at Tue Apr  8 21:07:47 2025.
