 Gaussian 16, Revision C.01,

 ----------------------------------------------------------------------
 #t hf aug-cc-pvdz symm=none int=(grid=ultrafine) guess=(read,tcheck) s
 table=(opt,rrhf)
 ----------------------------------------------------------------------
 -----
 title
 -----
 Symbolic Z-matrix:
 Charge =  0 Multiplicity = 1

 SCF Done:  E(RHF) =  -456.193577530     A.U. after   11 cycles
 Normal termination of Gaussian 16 at Tue Apr  8 21:08:46 2025.
 Gaussian 16:  ES64L-G16RevC.01  3-Jul-2019

 ----------------------------------------------------------------------
 #t hf aug-cc-pvdz iop(5/13=1,5/36=2,99/5=2) pseudo=read geom=check gue
 ss=(read,tcheck) scf=(maxcycle=1)
 ----------------------------------------------------------------------
 -----
 title
 -----
 Structure from the checkpoint file:  "ANI1ccx_1844_conf660_mol1.chk"
 Charge =  0 Multiplicity = 1

                         Standard orientation:
 ---------------------------------------------------------------------
 Center     Atomic      Atomic             Coordinates (Angstroms)
 Number     Number       Type             X           Y           Z
 ---------------------------------------------------------------------
      1          1           0       -0.158211   -0.052152    1.757880
      2          1           0        1.696668    0.627801   -0.948139
      3          1           0        1.740903    2.414385   -0.867706
      4          1           0       -2.131512    0.607376    0.828792
      5          1           0       -1.388468   -0.862694    0.474078
      6          1           0        0.287829   -1.463859   -1.088810
      7          1           0        0.899323    1.073812    1.084610
      8          1           0       -1.017555   -2.075443   -1.863040
      9          1           0       -1.479941    0.397244   -1.228490
     10          1           0       -0.598963    1.621508   -0.716937
     11          1           0        2.397974   -1.759214   -0.169004
     12          1           0        1.525262   -0.699540    0.641178
     13          8           0       -1.808180   -0.285877    1.298730
     14          8           0       -1.484304    1.335006   -0.983628
     15          8           0        1.258435    1.505983   -0.627375
     16          8           0       -0.711625   -1.649062   -0.972798
     17          8           0        0.822507    0.253312    1.810200
     18          8           0        1.701503   -1.138015   -0.263177
 ---------------------------------------------------------------------

 SCF Done:  E(RHF) =  -456.665227090     A.U. after    2 cycles

 The electronic state is 1-A.
 Alpha  occ. eigenvalues --  -20.59927 -20.57607 -20.57603 -20.53781 -20.53566
 Alpha  occ. eigenvalues --  -20.53106  -1.47369  -1.44323  -1.42827  -1.41385
 Alpha  occ. eigenvalues --   -1.38359  -1.36111  -0.76506  -0.72419  -0.71736
 Alpha  occ. eigenvalues --   -0.71036  -0.66665  -0.65805  -0.60769  -0.60270
 Alpha  occ. eigenvalues --   -0.58319  -0.56997  -0.53996  -0.53293  -0.52017
 Alpha  occ. eigenvalues --   -0.50905  -0.50141  -0.46798  -0.46468  -0.45153
 Alpha virt. eigenvalues --    0.02193   0.03177   0.04147   0.06142   0.07352
 Alpha virt. eigenvalues --    0.07663   0.08310   0.08944   0.09194   0.10347
 Alpha virt. eigenvalues --    0.10807   0.11170   0.15621   0.17454   0.18124

 Mulliken charges:
               1
     1  H    0.656500
     2  H    0.773846
     3  H    0.554177
     4  H    0.566662
     5  H    0.830619
     6  H    0.793833
     7  H    0.744187
     8  H    0.499332
     9  H    0.583082
    10  H    0.659581
    11  H    0.407257
    12  H    0.858704
    13  O   -1.354545
    14  O   -1.093435
    15  O   -1.522714
    16  O   -1.251240
    17  O   -1.358236
    18  O   -1.347610
 Sum of Mulliken charges =  -0.00000

 Dipole moment (field-independent basis, Debye):
    X=              4.4472    Y=             -0.5484    Z=             -4.4488  Tot=              6.3143

 Test job not archived.
 1\1\GINC-SE454\SP\RHF\Aug-CC-pVDZ\H12O6\OHZDE\08-Apr-2025\0\\#t hf aug
 -cc-pvdz iop(5/13=1,5/36=2,99/5=2) pseudo=read geom=check guess=(read,
 tcheck) scf=(maxcycle=1)\\title\\0,1\H,0,-0.158211,-0.0521516,1.75788\
 H,0,1.69667,0.627796,-0.948139\H,0,1.74091,2.41438,-0.867706\H,0,-2.13
 151,0.607382,0.828792\H,0,-1.38847,-0.86269,0.474078\H,0,0.287825,-1.4
 6386,-1.08881\H,0,0.899326,1.07381,1.08461\H,0,-1.01756,-2.07544,-1.86
 304\H,0,-1.47994,0.397248,-1.22849\H,0,-0.598958,1.62151,-0.716937\H,0
 ,2.39797,-1.75922,-0.169004\H,0,1.52526,-0.699544,0.641178\O,0,-1.8081

 Normal termination of Gaussian 16 at Tue Apr  8 21:08:51 2025.
