 Gaussian 16, Revision C.01,

 ----------------------------------------------------------------------
 #t hf aug-cc-pvdz symm=none int=(grid=ultrafine) guess=(read,tcheck) s
 table=(opt,rrhf)
 ----------------------------------------------------------------------
 -----
 title
 -----
 Symbolic Z-matrix:
 Charge =  0 Multiplicity = 1

 SCF Done:  E(RHF) =  -444.038971156     A.U. after   17 cycles
 Normal termination of Gaussian 16 at Tue Apr  8 22:16:27 2025.
 Gaussian 16:  ES64L-G16RevC.01  3-Jul-2019

 ----------------------------------------------------------------------
 #t hf aug-cc-pvdz iop(5/13=1,5/36=2,99/5=2) pseudo=read geom=check gue
 ss=(read,tcheck) scf=(maxcycle=1)
 ----------------------------------------------------------------------
 -----
 title
 -----
 Structure from the checkpoint file:  "ANI1ccx_993_conf2_mol1.chk"
 Charge =  0 Multiplicity = 1

                         Standard orientation:
 ---------------------------------------------------------------------
 Center     Atomic      Atomic             Coordinates (Angstroms)
 Number     Number       Type             X           Y           Z
 ---------------------------------------------------------------------
      1          6           0        1.594838   -1.063684    0.069759
      2          6           0        0.635071   -0.028420    0.006924
      3          6           0       -0.675630    0.110763    0.141726
      4          6           0       -1.838751   -0.754050   -0.000263
      5          7           0        2.477046   -1.811897   -0.033098
      6          7           0        1.189975    1.235567   -0.076089
      7          7           0        0.261986    2.108530   -0.035447
      8          7           0       -2.638594   -1.607662   -0.072882
      9          8           0       -0.915757    1.367573    0.026717
 ---------------------------------------------------------------------

 SCF Done:  E(RHF) =  -444.457513512     A.U. after    2 cycles

 The electronic state is 1-A.
 Alpha  occ. eigenvalues --  -20.72015 -15.70748 -15.64397 -15.59942 -15.56857
 Alpha  occ. eigenvalues --  -11.43888 -11.37824 -11.36084 -11.33165  -1.70598
 Alpha  occ. eigenvalues --   -1.41077  -1.29325  -1.27752  -1.21800  -1.03242
 Alpha  occ. eigenvalues --   -0.98938  -0.92780  -0.82848  -0.79054  -0.72068
 Alpha  occ. eigenvalues --   -0.67605  -0.66793  -0.64987  -0.60795  -0.59928
 Alpha  occ. eigenvalues --   -0.59430  -0.56195  -0.55280  -0.54606  -0.46252
 Alpha virt. eigenvalues --   -0.01829   0.03478   0.04135   0.06091   0.06660
 Alpha virt. eigenvalues --    0.07547   0.07984   0.09989   0.10356   0.10861
 Alpha virt. eigenvalues --    0.11448   0.11668   0.13061   0.13531   0.14126

 Mulliken charges:
               1
     1  C   -1.911009
     2  C    0.669070
     3  C    1.823119
     4  C   -1.764285
     5  N    1.009740
     6  N   -0.103952
     7  N    0.797539
     8  N    0.858760
     9  O   -1.378981
 Sum of Mulliken charges =  -0.00000

 Dipole moment (field-independent basis, Debye):
    X=             -1.7983    Y=              2.1811    Z=              0.5882  Tot=              2.8874

 Test job not archived.
 1\1\GINC-SE186\SP\RHF\Aug-CC-pVDZ\C4N4O1\OHZDE\08-Apr-2025\0\\#t hf au
 g-cc-pvdz iop(5/13=1,5/36=2,99/5=2) pseudo=read geom=check guess=(read
 ,tcheck) scf=(maxcycle=1)\\title\\0,1\C,0,1.59484,-1.06368,0.0697588\C
 ,0,0.63507,-0.0284187,0.00692446\C,0,-0.675632,0.110761,0.141726\C,0,-
 1.83875,-0.754056,-0.00026329\N,0,2.47705,-1.81189,-0.033098\N,0,1.189
 97,1.23557,-0.0760885\N,0,0.261978,2.10853,-0.0354467\N,0,-2.63859,-1.
 60767,-0.0728824\O,0,-0.915762,1.36757,0.0267167\\Version=ES64L-G16Rev
 C.01\State=1-A\HF=-444.4575135\RMSD=6.793e-02\Dipole=-0.7075272,0.8580

 Normal termination of Gaussian 16 at Tue Apr  8 22:16:32 2025.
