 Gaussian 16, Revision C.01,

 ----------------------------------------------------------------------
 #t hf aug-cc-pvdz symm=none int=(grid=ultrafine) guess=(read,tcheck) s
 table=(opt,rrhf)
 ----------------------------------------------------------------------
 -----
 title
 -----
 Symbolic Z-matrix:
 Charge =  0 Multiplicity = 1

 SCF Done:  E(RHF) =  -908.304820491     A.U. after   14 cycles
 Normal termination of Gaussian 16 at Tue Apr  8 21:06:20 2025.
 Gaussian 16:  ES64L-G16RevC.01  3-Jul-2019

 ----------------------------------------------------------------------
 #t hf aug-cc-pvdz iop(5/13=1,5/36=2,99/5=2) pseudo=read geom=check gue
 ss=(read,tcheck) scf=(maxcycle=1)
 ----------------------------------------------------------------------
 -----
 title
 -----
 Structure from the checkpoint file:  "ANI1ccx_1761_conf44_mol1.chk"
 Charge =  0 Multiplicity = 1

                         Standard orientation:
 ---------------------------------------------------------------------
 Center     Atomic      Atomic             Coordinates (Angstroms)
 Number     Number       Type             X           Y           Z
 ---------------------------------------------------------------------
      1          6           0        2.392700    0.399906    0.823120
      2          6           0       -3.065960    0.455971   -0.831067
      3          6           0       -1.745780    1.254740   -0.704538
      4          6           0       -0.528409   -0.705305   -0.760284
      5          6           0       -3.622770   -0.054522    0.468319
      6          6           0        4.053130   -1.396949    0.631919
      7          6           0        2.979460   -0.630267   -0.180954
      8          6           0        1.905740    1.562090   -0.040871
      9          6           0       -0.489723    0.631416   -0.036819
     10          1           0       -0.714014    0.645804    1.037000
     11          1           0       -1.133020   -2.368270   -0.878374
     12          1           0       -3.550970    0.000516    2.251650
     13          1           0       -3.126410   -0.456010   -1.422540
     14          1           0       -3.932740    0.975506   -1.222440
     15          1           0       -1.543230    1.416540   -1.780930
     16          1           0       -1.904440    2.278050   -0.297911
     17          1           0        0.328031    2.367390   -0.968549
     18          1           0        3.684160   -1.775320    1.608400
     19          1           0        4.267640   -2.290579   -0.002398
     20          1           0        5.041100   -0.835161    0.874633
     21          1           0        1.671970   -1.420220   -1.511700
     22          1           0        3.299480   -0.175280   -1.105280
     23          1           0        3.270620    0.753091    1.326890
     24          1           0        1.754730   -0.783557    2.375450
     25          1           0        0.849232   -0.805638    1.148540
     26          7           0        1.435960   -0.162055    1.704630
     27          7           0        0.599540    1.533470   -0.519436
     28          8           0        2.652740    2.538200   -0.212529
     29          8           0        1.987660   -1.605140   -0.616857
     30          8           0       -0.096020   -0.844330   -1.863480
     31          8           0       -4.256250   -1.087350    0.582630
     32          8           0       -3.275720    0.636033    1.552890
     33          8           0       -1.235030   -1.666070   -0.185376
 ---------------------------------------------------------------------

 SCF Done:  E(RHF) =  -909.218383333     A.U. after    2 cycles

 The electronic state is 1-A.
 Alpha  occ. eigenvalues --  -20.62979 -20.61638 -20.55274 -20.54785 -20.53977
 Alpha  occ. eigenvalues --  -20.51709 -15.54364 -15.49875 -11.41854 -11.40111
 Alpha  occ. eigenvalues --  -11.36643 -11.32701 -11.30367 -11.28588 -11.27823
 Alpha  occ. eigenvalues --  -11.27816 -11.24761  -1.59345  -1.57022  -1.48516
 Alpha  occ. eigenvalues --   -1.45202  -1.44910  -1.44414  -1.25759  -1.21851
 Alpha  occ. eigenvalues --   -1.11939  -1.05084  -1.03566  -0.96088  -0.92382
 Alpha  occ. eigenvalues --   -0.85557  -0.83980  -0.82076  -0.81507  -0.75254
 Alpha  occ. eigenvalues --   -0.75188  -0.73564  -0.72671  -0.72333  -0.69935
 Alpha  occ. eigenvalues --   -0.69495  -0.68828  -0.67601  -0.67245  -0.65409
 Alpha  occ. eigenvalues --   -0.63021  -0.61282  -0.60834  -0.59733  -0.58399
 Alpha  occ. eigenvalues --   -0.57577  -0.56567  -0.55130  -0.54563  -0.54313
 Alpha  occ. eigenvalues --   -0.52985  -0.52591  -0.50387  -0.49390  -0.48051
 Alpha  occ. eigenvalues --   -0.47596  -0.46562  -0.45179  -0.44591  -0.43154
 Alpha  occ. eigenvalues --   -0.39820
 Alpha virt. eigenvalues --    0.02908   0.03268   0.03535   0.03944   0.04238
 Alpha virt. eigenvalues --    0.04593   0.04806   0.05526   0.06462   0.07014
 Alpha virt. eigenvalues --    0.07621   0.08087   0.08167   0.09497   0.09676

 Mulliken charges:
               1
     1  C   -0.878748
     2  C   -0.699600
     3  C    0.084518
     4  C    3.845248
     5  C    2.297385
     6  C   -0.681278
     7  C    1.289020
     8  C    0.785288
     9  C   -2.247560
    10  H    0.036131
    11  H    0.222778
    12  H    0.350379
    13  H    0.226974
    14  H    0.173703
    15  H    0.310789
    16  H    0.121434
    17  H    0.239707
    18  H    0.148736
    19  H    0.190307
    20  H    0.287216
    21  H    0.405780
    22  H   -0.103745
    23  H   -0.080360
    24  H    0.224306
    25  H    0.164089
    26  N    0.862758
    27  N    1.150330
    28  O   -1.496327
    29  O   -1.464484
    30  O   -1.686201
    31  O   -1.320544
    32  O   -1.342790
    33  O   -1.415239
 Sum of Mulliken charges =  -0.00000

 Dipole moment (field-independent basis, Debye):
    X=             -1.3628    Y=             -1.1789    Z=              0.3230  Tot=              1.8306

 Test job not archived.
 1\1\GINC-SE186\SP\RHF\Aug-CC-pVDZ\C9H16N2O6\OHZDE\08-Apr-2025\0\\#t hf
  aug-cc-pvdz iop(5/13=1,5/36=2,99/5=2) pseudo=read geom=check guess=(r
 ead,tcheck) scf=(maxcycle=1)\\title\\0,1\C,0,2.3927,0.399906,0.82312\C
 ,0,-3.06596,0.455971,-0.831067\C,0,-1.74578,1.25474,-0.704538\C,0,-0.5
 28409,-0.705305,-0.760284\C,0,-3.62277,-0.0545214,0.468319\C,0,4.05313
 ,-1.39695,0.631919\C,0,2.97946,-0.630267,-0.180954\C,0,1.90574,1.56209
 ,-0.0408712\C,0,-0.489723,0.631416,-0.0368191\H,0,-0.714014,0.645804,1
 .037\H,0,-1.13302,-2.36827,-0.878374\H,0,-3.55097,0.00051618,2.25165\H

 Normal termination of Gaussian 16 at Tue Apr  8 21:07:13 2025.
