 Gaussian 16, Revision C.01,

 ----------------------------------------------------------------------
 #t hf aug-cc-pvdz symm=none int=(grid=ultrafine) guess=(read,tcheck) s
 table=(opt,rrhf)
 ----------------------------------------------------------------------
 -----
 title
 -----
 Symbolic Z-matrix:
 Charge =  0 Multiplicity = 1

 SCF Done:  E(RHF) =  -911.565440436     A.U. after   15 cycles
 Normal termination of Gaussian 16 at Tue Apr  8 21:34:38 2025.
 Gaussian 16:  ES64L-G16RevC.01  3-Jul-2019

 ----------------------------------------------------------------------
 #t hf aug-cc-pvdz iop(5/13=1,5/36=2,99/5=2) pseudo=read geom=check gue
 ss=(read,tcheck) scf=(maxcycle=1)
 ----------------------------------------------------------------------
 -----
 title
 -----
 Structure from the checkpoint file:  "ANI1ccx_191_conf10_mol2.chk"
 Charge =  0 Multiplicity = 1

                         Standard orientation:
 ---------------------------------------------------------------------
 Center     Atomic      Atomic             Coordinates (Angstroms)
 Number     Number       Type             X           Y           Z
 ---------------------------------------------------------------------
      1          6           0        1.803681    0.540180   -0.434837
      2          6           0       -4.161049   -1.163491    0.555998
      3          6           0       -2.503399   -0.238427    2.151070
      4          6           0       -2.641189   -0.912251    0.759733
      5          6           0       -2.476369    1.310969   -0.285649
      6          6           0       -4.561639   -2.145711   -0.611519
      7          6           0        4.643081   -0.624341    0.125187
      8          6           0        3.659851    0.047012    1.033430
      9          6           0        2.218451   -0.287411    0.769138
     10          6           0        0.454185    0.038930   -1.026820
     11          6           0       -1.914109   -0.128314   -0.327181
     12          1           0       -1.492969    0.096503    2.483690
     13          1           0       -3.829149    2.376109   -0.894613
     14          1           0       -5.694809   -2.189051   -0.764269
     15          1           0       -4.172779   -1.786741   -1.565050
     16          1           0       -4.147259   -3.171291   -0.356293
     17          1           0       -4.545909   -1.614611    1.490760
     18          1           0       -4.645779   -0.198831    0.373807
     19          1           0       -2.862419   -0.994685    2.895360
     20          1           0       -3.185419    0.590231    2.213850
     21          1           0       -2.085509   -1.876601    0.801186
     22          1           0        6.337281   -0.665519   -0.439599
     23          1           0       -0.361537    0.691919    0.738999
     24          1           0        3.977371   -0.234437    2.027470
     25          1           0        3.836961    1.104460    0.895841
     26          1           0        1.570361   -0.054524    1.604390
     27          1           0        2.131101   -1.372610    0.505074
     28          1           0        2.562931    0.500399   -1.226370
     29          1           0        1.647841    2.597360   -0.728894
     30          1           0        0.952389    2.028780    0.613763
     31          1           0       -2.098889   -0.634660   -1.305820
     32          7           0        1.756201    1.936360    0.035237
     33          7           0       -0.531687    0.027809   -0.055702
     34          8           0       -1.943379    2.166819    0.376472
     35          8           0        0.296254   -0.416046   -2.115750
     36          8           0        4.401991   -1.492780   -0.716692
     37          8           0        5.889291   -0.189694    0.283899
     38          8           0       -3.593449    1.486169   -1.011840
 ---------------------------------------------------------------------

 SCF Done:  E(RHF) =  -912.493841063     A.U. after    2 cycles

 The electronic state is 1-A.
 Alpha  occ. eigenvalues --  -20.62116 -20.60500 -20.55906 -20.53283 -20.51940
 Alpha  occ. eigenvalues --  -15.52614 -15.50207 -11.40965 -11.39395 -11.35533
 Alpha  occ. eigenvalues --  -11.29924 -11.28036 -11.25948 -11.25020 -11.24752
 Alpha  occ. eigenvalues --  -11.24689 -11.24455 -11.24063  -1.57856  -1.55880
 Alpha  occ. eigenvalues --   -1.48400  -1.47946  -1.43544  -1.26126  -1.20828
 Alpha  occ. eigenvalues --   -1.10960  -1.09056  -1.01838  -0.98582  -0.96945
 Alpha  occ. eigenvalues --   -0.89314  -0.87744  -0.85772  -0.81615  -0.79688
 Alpha  occ. eigenvalues --   -0.78586  -0.75663  -0.73706  -0.72552  -0.71180
 Alpha  occ. eigenvalues --   -0.69798  -0.69279  -0.68766  -0.66987  -0.65969
 Alpha  occ. eigenvalues --   -0.63475  -0.62369  -0.62097  -0.61080  -0.60580
 Alpha  occ. eigenvalues --   -0.59562  -0.58655  -0.57406  -0.56870  -0.56470
 Alpha  occ. eigenvalues --   -0.53975  -0.52577  -0.52416  -0.51730  -0.51063
 Alpha  occ. eigenvalues --   -0.50495  -0.49503  -0.48735  -0.48502  -0.47729
 Alpha  occ. eigenvalues --   -0.46595  -0.45881  -0.44241  -0.42588  -0.40549
 Alpha virt. eigenvalues --    0.02743   0.03034   0.03307   0.03869   0.04065
 Alpha virt. eigenvalues --    0.04223   0.04518   0.05595   0.05936   0.06638
 Alpha virt. eigenvalues --    0.07010   0.07326   0.07719   0.08125   0.08880

 Mulliken charges:
               1
     1  C   -0.696687
     2  C   -0.235415
     3  C   -0.231640
     4  C   -0.356466
     5  C    3.296020
     6  C   -0.458439
     7  C    2.322708
     8  C   -0.668420
     9  C    0.060050
    10  C    1.011680
    11  C   -3.633337
    12  H    0.029642
    13  H    0.269472
    14  H    0.206160
    15  H    0.153471
    16  H    0.259295
    17  H    0.185389
    18  H    0.224151
    19  H    0.202647
    20  H    0.245973
    21  H    0.118245
    22  H    0.358176
    23  H    0.496614
    24  H    0.214968
    25  H    0.324658
    26  H    0.088316
    27  H    0.217574
    28  H   -0.000661
    29  H    0.298658
    30  H    0.205932
    31  H   -0.118351
    32  N    0.378829
    33  N    2.043779
    34  O   -1.406946
    35  O   -1.433410
    36  O   -1.309494
    37  O   -1.327960
    38  O   -1.335180
 Sum of Mulliken charges =  -0.00000

 Dipole moment (field-independent basis, Debye):
    X=             -2.4829    Y=              1.7233    Z=              2.6403  Tot=              4.0132

 Test job not archived.
 1\1\GINC-SE088\SP\RHF\Aug-CC-pVDZ\C11H20N2O5\OHZDE\08-Apr-2025\0\\#t h
 f aug-cc-pvdz iop(5/13=1,5/36=2,99/5=2) pseudo=read geom=check guess=(
 read,tcheck) scf=(maxcycle=1)\\title\\0,1\C,0,1.80368,0.54018,-0.43483
 7\C,0,-4.16105,-1.16349,0.555998\C,0,-2.5034,-0.238426,2.15107\C,0,-2.
 64119,-0.91225,0.759733\C,0,-2.47637,1.31097,-0.285649\C,0,-4.56164,-2
 .14571,-0.611519\C,0,4.64308,-0.624341,0.125187\C,0,3.65985,0.0470128,
 1.03343\C,0,2.21845,-0.287411,0.769138\C,0,0.454184,0.0389301,-1.02682
 \C,0,-1.91411,-0.128313,-0.327181\H,0,-1.49297,0.0965031,2.48369\H,0,-

 Normal termination of Gaussian 16 at Tue Apr  8 21:35:44 2025.
