 Gaussian 16, Revision C.01,

 ----------------------------------------------------------------------
 #t hf aug-cc-pvdz symm=none int=(grid=ultrafine) guess=(read,tcheck) s
 table=(opt,rrhf)
 ----------------------------------------------------------------------
 -----
 title
 -----
 Symbolic Z-matrix:
 Charge =  0 Multiplicity = 1

 SCF Done:  E(RHF) =  -311.840132788     A.U. after   15 cycles
 Normal termination of Gaussian 16 at Tue Apr  8 21:35:42 2025.
 Gaussian 16:  ES64L-G16RevC.01  3-Jul-2019

 ----------------------------------------------------------------------
 #t hf aug-cc-pvdz iop(5/13=1,5/36=2,99/5=2) pseudo=read geom=check gue
 ss=(read,tcheck) scf=(maxcycle=1)
 ----------------------------------------------------------------------
 -----
 title
 -----
 Structure from the checkpoint file:  "ANI1ccx_392_conf7_mol1.chk"
 Charge =  0 Multiplicity = 1

                         Standard orientation:
 ---------------------------------------------------------------------
 Center     Atomic      Atomic             Coordinates (Angstroms)
 Number     Number       Type             X           Y           Z
 ---------------------------------------------------------------------
      1          6           0       -0.643021   -0.020948   -0.023356
      2          1           0       -2.610309    0.797332    0.176193
      3          1           0       -2.487269   -0.898370    0.132095
      4          1           0        2.168161   -1.094189    0.145130
      5          7           0       -2.013419   -0.040297   -0.030972
      6          7           0        0.128466    1.149890    0.005364
      7          7           0        1.350601    0.729885   -0.005343
      8          7           0        1.357561   -0.551077    0.000827
      9          7           0        0.146440   -1.099700   -0.014631
 ---------------------------------------------------------------------

 SCF Done:  E(RHF) =  -312.154370433     A.U. after    2 cycles

 The electronic state is 1-A.
 Alpha  occ. eigenvalues --  -15.63091 -15.60555 -15.54270 -15.54155 -15.53456
 Alpha  occ. eigenvalues --  -11.35204  -1.49939  -1.27297  -1.25707  -1.16706
 Alpha  occ. eigenvalues --   -0.96490  -0.91789  -0.83999  -0.75064  -0.73217
 Alpha  occ. eigenvalues --   -0.71203  -0.63051  -0.56029  -0.54246  -0.51484
 Alpha  occ. eigenvalues --   -0.49522  -0.39831
 Alpha virt. eigenvalues --    0.02757   0.04453   0.05747   0.08224   0.09865
 Alpha virt. eigenvalues --    0.11821   0.12046   0.12959   0.13626   0.14379
 Alpha virt. eigenvalues --    0.15414   0.16113   0.16919   0.17310   0.19199

 Mulliken charges:
               1
     1  C   -0.942626
     2  H    0.118590
     3  H    0.079606
     4  H    0.055343
     5  N    0.505760
     6  N    0.231043
     7  N   -0.368280
     8  N    0.154827
     9  N    0.165737
 Sum of Mulliken charges =  -0.00000

 Dipole moment (field-independent basis, Debye):
    X=             -1.3513    Y=             -1.8518    Z=              0.8156  Tot=              2.4332

 Test job not archived.
 1\1\GINC-SE110\SP\RHF\Aug-CC-pVDZ\C1H3N5\OHZDE\08-Apr-2025\0\\#t hf au
 g-cc-pvdz iop(5/13=1,5/36=2,99/5=2) pseudo=read geom=check guess=(read
 ,tcheck) scf=(maxcycle=1)\\title\\0,1\C,0,-0.643022,-0.0209477,-0.0233
 563\H,0,-2.61031,0.797333,0.176193\H,0,-2.48727,-0.898369,0.132095\H,0
 ,2.16816,-1.09419,0.14513\N,0,-2.01342,-0.0402968,-0.0309723\N,0,0.128
 466,1.14989,0.00536407\N,0,1.3506,0.729884,-0.00534263\N,0,1.35756,-0.
 551078,0.00082712\N,0,0.146439,-1.0997,-0.0146305\\Version=ES64L-G16Re
 vC.01\State=1-A\HF=-312.1543704\RMSD=4.747e-02\Dipole=-0.5316588,-0.72

 Normal termination of Gaussian 16 at Tue Apr  8 21:35:45 2025.
