 Gaussian 16, Revision C.01,

 ----------------------------------------------------------------------
 #t hf aug-cc-pvdz symm=none int=(grid=ultrafine) guess=(read,tcheck) s
 table=(opt,rrhf)
 ----------------------------------------------------------------------
 -----
 title
 -----
 Symbolic Z-matrix:
 Charge =  0 Multiplicity = 1

 SCF Done:  E(RHF) =  -376.949205201     A.U. after   13 cycles
 Normal termination of Gaussian 16 at Tue Apr  8 21:54:03 2025.
 Gaussian 16:  ES64L-G16RevC.01  3-Jul-2019

 ----------------------------------------------------------------------
 #t hf aug-cc-pvdz iop(5/13=1,5/36=2,99/5=2) pseudo=read geom=check gue
 ss=(read,tcheck) scf=(maxcycle=1)
 ----------------------------------------------------------------------
 -----
 title
 -----
 Structure from the checkpoint file:  "ANI1ccx_763_conf1_mol1.chk"
 Charge =  0 Multiplicity = 1

                         Standard orientation:
 ---------------------------------------------------------------------
 Center     Atomic      Atomic             Coordinates (Angstroms)
 Number     Number       Type             X           Y           Z
 ---------------------------------------------------------------------
      1          6           0        0.085090   -0.307681   -0.180750
      2          6           0        2.423671   -0.341109    0.129255
      3          6           0        1.820051    1.095479    0.248103
      4          1           0       -3.109509    0.350596    0.195713
      5          1           0       -4.468419   -0.590342    0.274103
      6          1           0        1.096081   -2.094531    0.101608
      7          1           0        3.106451   -0.523596    0.975949
      8          1           0        2.945701   -0.528027   -0.876541
      9          1           0        2.499201    1.832939   -0.237700
     10          1           0        1.666401    1.474919    1.257960
     11          1           0       -0.245611    1.573520   -0.208268
     12          7           0        1.163531   -1.097481    0.129115
     13          7           0        0.565020    0.969651   -0.470244
     14          8           0       -4.097479    0.336136    0.177981
     15          8           0       -1.097899   -0.746237   -0.212302
 ---------------------------------------------------------------------

 SCF Done:  E(RHF) =  -377.336250426     A.U. after    2 cycles

 The electronic state is 1-A.
 Alpha  occ. eigenvalues --  -20.52299 -20.51405 -15.54366 -15.53568 -11.39464
 Alpha  occ. eigenvalues --  -11.31363 -11.30422  -1.44381  -1.38106  -1.31225
 Alpha  occ. eigenvalues --   -1.20166  -1.03135  -0.89418  -0.86973  -0.74337
 Alpha  occ. eigenvalues --   -0.71778  -0.68947  -0.67103  -0.64788  -0.61470
 Alpha  occ. eigenvalues --   -0.59902  -0.57830  -0.55076  -0.52086  -0.46078
 Alpha  occ. eigenvalues --   -0.45723  -0.43808  -0.42658
 Alpha virt. eigenvalues --    0.02634   0.03606   0.03920   0.04095   0.05475
 Alpha virt. eigenvalues --    0.06155   0.06398   0.09340   0.09969   0.10640
 Alpha virt. eigenvalues --    0.11951   0.13560   0.13731   0.14133   0.14336

 Mulliken charges:
               1
     1  C    0.217523
     2  C   -0.326406
     3  C   -0.340501
     4  H    0.537971
     5  H    0.391478
     6  H    0.059762
     7  H    0.134853
     8  H    0.156199
     9  H    0.162279
    10  H   -0.025175
    11  H    0.313305
    12  N    0.599019
    13  N    0.361268
    14  O   -0.927445
    15  O   -1.314129
 Sum of Mulliken charges =  -0.00000

 Dipole moment (field-independent basis, Debye):
    X=              6.2368    Y=             -0.2140    Z=              1.4125  Tot=              6.3983

 Test job not archived.
 1\1\GINC-SE102\SP\RHF\Aug-CC-pVDZ\C3H8N2O2\OHZDE\08-Apr-2025\0\\#t hf
 aug-cc-pvdz iop(5/13=1,5/36=2,99/5=2) pseudo=read geom=check guess=(re
 ad,tcheck) scf=(maxcycle=1)\\title\\0,1\C,0,0.0850894,-0.307681,-0.180
 75\C,0,2.42367,-0.341108,0.129255\C,0,1.82005,1.09548,0.248103\H,0,-3.
 10951,0.350596,0.195713\H,0,-4.46842,-0.590342,0.274103\H,0,1.09608,-2
 .09453,0.101608\H,0,3.10645,-0.523595,0.975949\H,0,2.9457,-0.528026,-0
 .876541\H,0,2.4992,1.83294,-0.2377\H,0,1.6664,1.47492,1.25796\H,0,-0.2
 45612,1.57352,-0.208268\N,0,1.16353,-1.09748,0.129115\N,0,0.565019,0.9

 Normal termination of Gaussian 16 at Tue Apr  8 21:54:08 2025.
