 Gaussian 16, Revision C.01,

 ----------------------------------------------------------------------
 #t hf aug-cc-pvdz symm=none int=(grid=ultrafine) guess=(read,tcheck) s
 table=(opt,rrhf)
 ----------------------------------------------------------------------
 -----
 title
 -----
 Symbolic Z-matrix:
 Charge =  0 Multiplicity = 1

 SCF Done:  E(RHF) =  -380.173155619     A.U. after   12 cycles
 Normal termination of Gaussian 16 at Tue Apr  8 21:04:26 2025.
 Gaussian 16:  ES64L-G16RevC.01  3-Jul-2019

 ----------------------------------------------------------------------
 #t hf aug-cc-pvdz iop(5/13=1,5/36=2,99/5=2) pseudo=read geom=check gue
 ss=(read,tcheck) scf=(maxcycle=1)
 ----------------------------------------------------------------------
 -----
 title
 -----
 Structure from the checkpoint file:  "ANI1ccx_1843_conf438_mol1.chk"
 Charge =  0 Multiplicity = 1

                         Standard orientation:
 ---------------------------------------------------------------------
 Center     Atomic      Atomic             Coordinates (Angstroms)
 Number     Number       Type             X           Y           Z
 ---------------------------------------------------------------------
      1          1           0       -1.870660   -0.579648   -0.672700
      2          1           0       -2.297130   -1.821731    0.099849
      3          1           0       -1.223640    1.204319   -0.189824
      4          1           0       -2.564460    1.300139    0.390088
      5          1           0        0.417364    2.163949    1.287089
      6          1           0        0.555424    0.532205    1.033999
      7          1           0        1.472740   -1.123802    0.396088
      8          1           0       -0.100537   -1.291451    0.617170
      9          1           0        3.218690   -0.029276   -0.388852
     10          1           0        1.811560    0.623311   -0.551691
     11          8           0       -1.519590   -1.521541   -0.320574
     12          8           0       -2.175570    1.088029   -0.495155
     13          8           0        0.585969    1.403019    0.580367
     14          8           0        0.744711   -1.032472    1.074039
     15          8           0        2.437060   -0.059287   -1.091331
 ---------------------------------------------------------------------

 SCF Done:  E(RHF) =  -380.565693286     A.U. after    2 cycles

 The electronic state is 1-A.
 Alpha  occ. eigenvalues --  -20.58731 -20.57592 -20.56257 -20.55759 -20.54454
 Alpha  occ. eigenvalues --   -1.46294  -1.44932  -1.43322  -1.41096  -1.38958
 Alpha  occ. eigenvalues --   -0.73174  -0.71573  -0.70532  -0.68472  -0.65039
 Alpha  occ. eigenvalues --   -0.63038  -0.60560  -0.59273  -0.56878  -0.55684
 Alpha  occ. eigenvalues --   -0.51146  -0.50659  -0.49291  -0.48683  -0.47558
 Alpha virt. eigenvalues --    0.02208   0.03767   0.04941   0.06310   0.06700
 Alpha virt. eigenvalues --    0.08218   0.08677   0.09196   0.10835   0.11763
 Alpha virt. eigenvalues --    0.15850   0.17882   0.18940   0.19809   0.20994

 Mulliken charges:
               1
     1  H    0.655847
     2  H    0.354011
     3  H    0.682797
     4  H    0.403435
     5  H    0.465548
     6  H    0.859892
     7  H    0.506734
     8  H    0.701736
     9  H    0.411838
    10  H    0.645477
    11  O   -1.065088
    12  O   -1.102272
    13  O   -1.240081
    14  O   -1.281729
    15  O   -0.998145
 Sum of Mulliken charges =   0.00000

 Dipole moment (field-independent basis, Debye):
    X=             -1.8073    Y=              2.0592    Z=              3.7795  Tot=              4.6681

 Test job not archived.
 1\1\GINC-SE393\SP\RHF\Aug-CC-pVDZ\H10O5\OHZDE\08-Apr-2025\0\\#t hf aug
 -cc-pvdz iop(5/13=1,5/36=2,99/5=2) pseudo=read geom=check guess=(read,
 tcheck) scf=(maxcycle=1)\\title\\0,1\H,0,-1.87066,-0.579647,-0.672699\
 H,0,-2.29713,-1.82173,0.0998492\H,0,-1.22364,1.20432,-0.189823\H,0,-2.
 56446,1.30014,0.390089\H,0,0.417363,2.16395,1.28709\H,0,0.555424,0.532
 206,1.034\H,0,1.47274,-1.1238,0.396089\H,0,-0.100537,-1.29145,0.617171
 \H,0,3.21869,-0.0292739,-0.388851\H,0,1.81156,0.623313,-0.55169\O,0,-1
 .51959,-1.52154,-0.320573\O,0,-2.17557,1.08803,-0.495154\O,0,0.585969,

 Normal termination of Gaussian 16 at Tue Apr  8 21:04:30 2025.
