 Gaussian 16, Revision C.01,

 ----------------------------------------------------------------------
 #t hf aug-cc-pvdz symm=none int=(grid=ultrafine) guess=(read,tcheck) s
 table=(opt,rrhf)
 ----------------------------------------------------------------------
 -----
 title
 -----
 Symbolic Z-matrix:
 Charge =  0 Multiplicity = 1

 SCF Done:  E(RHF) =  -583.261890429     A.U. after   16 cycles
 Normal termination of Gaussian 16 at Tue Apr  8 22:06:56 2025.
 Gaussian 16:  ES64L-G16RevC.01  3-Jul-2019

 ----------------------------------------------------------------------
 #t hf aug-cc-pvdz iop(5/13=1,5/36=2,99/5=2) pseudo=read geom=check gue
 ss=(read,tcheck) scf=(maxcycle=1)
 ----------------------------------------------------------------------
 -----
 title
 -----
 Structure from the checkpoint file:  "ANI1ccx_900_conf7_mol2.chk"
 Charge =  0 Multiplicity = 1

                         Standard orientation:
 ---------------------------------------------------------------------
 Center     Atomic      Atomic             Coordinates (Angstroms)
 Number     Number       Type             X           Y           Z
 ---------------------------------------------------------------------
      1          6           0       -2.154411   -0.065323    0.039394
      2          6           0       -1.121621    0.550236   -0.935406
      3          6           0        1.251089    0.710753   -0.027250
      4          6           0        1.453289   -0.824894    0.018090
      5          1           0       -1.118551    0.648549    1.492830
      6          1           0       -0.725846   -0.275132   -1.548501
      7          1           0       -1.664721    1.263111   -1.532191
      8          1           0        0.051522    2.204221   -0.339568
      9          1           0        3.299339   -0.278897    0.145597
     10          7           0       -0.019759    1.204791   -0.199630
     11          8           0       -1.980241    0.236878    1.350760
     12          8           0       -3.088511   -0.742711   -0.375241
     13          8           0        2.192589    1.467181    0.093035
     14          8           0        2.755949   -1.104629    0.128153
     15          8           0        0.586024   -1.634219   -0.120423
 ---------------------------------------------------------------------

 SCF Done:  E(RHF) =  -583.831111183     A.U. after    2 cycles

 The electronic state is 1-A.
 Alpha  occ. eigenvalues --  -20.63419 -20.61161 -20.59267 -20.59169 -20.54426
 Alpha  occ. eigenvalues --  -15.58849 -11.44827 -11.43147 -11.41305 -11.33412
 Alpha  occ. eigenvalues --   -1.58943  -1.54611  -1.53685  -1.50582  -1.45238
 Alpha  occ. eigenvalues --   -1.29625  -1.05230  -0.97950  -0.86864  -0.85106
 Alpha  occ. eigenvalues --   -0.81108  -0.77025  -0.75998  -0.72535  -0.69446
 Alpha  occ. eigenvalues --   -0.68569  -0.66412  -0.64982  -0.62254  -0.61514
 Alpha  occ. eigenvalues --   -0.59886  -0.57294  -0.55510  -0.51477  -0.50373
 Alpha  occ. eigenvalues --   -0.47627  -0.46856  -0.44340
 Alpha virt. eigenvalues --    0.02085   0.03750   0.04059   0.04501   0.05179
 Alpha virt. eigenvalues --    0.05694   0.07682   0.08713   0.09531   0.09874
 Alpha virt. eigenvalues --    0.11705   0.12277   0.12710   0.13688   0.14206

 Mulliken charges:
               1
     1  C    2.169922
     2  C   -0.703346
     3  C    0.428151
     4  C    2.205405
     5  H    0.479862
     6  H    0.340057
     7  H    0.150696
     8  H    0.366033
     9  H    0.442323
    10  N    0.407611
    11  O   -1.278017
    12  O   -1.294463
    13  O   -1.315139
    14  O   -1.273287
    15  O   -1.125809
 Sum of Mulliken charges =  -0.00000

 Dipole moment (field-independent basis, Debye):
    X=              3.3148    Y=              4.3942    Z=             -1.1557  Tot=              5.6242

 Test job not archived.
 1\1\GINC-SE343\SP\RHF\Aug-CC-pVDZ\C4H5N1O5\OHZDE\08-Apr-2025\0\\#t hf
 aug-cc-pvdz iop(5/13=1,5/36=2,99/5=2) pseudo=read geom=check guess=(re
 ad,tcheck) scf=(maxcycle=1)\\title\\0,1\C,0,-2.15441,-0.0653233,0.0393
 943\C,0,-1.12162,0.550235,-0.935405\C,0,1.25109,0.710752,-0.0272494\C,
 0,1.45329,-0.824895,0.0180906\H,0,-1.11855,0.648548,1.49283\H,0,-0.725
 845,-0.275133,-1.5485\H,0,-1.66472,1.26311,-1.53219\H,0,0.0515233,2.20
 422,-0.339567\H,0,3.29934,-0.278898,0.145597\N,0,-0.019758,1.20479,-0.
 199629\O,0,-1.98024,0.236877,1.35076\O,0,-3.08851,-0.742712,-0.37524\O

 Normal termination of Gaussian 16 at Tue Apr  8 22:07:04 2025.
