 Gaussian 16, Revision C.01,

 ----------------------------------------------------------------------
 #t hf aug-cc-pvdz symm=none int=(grid=ultrafine) guess=(read,tcheck) s
 table=(opt,rrhf)
 ----------------------------------------------------------------------
 -----
 title
 -----
 Symbolic Z-matrix:
 Charge =  0 Multiplicity = 1

 SCF Done:  E(RHF) =  -761.792766192     A.U. after   14 cycles
 Normal termination of Gaussian 16 at Tue Apr  8 21:33:31 2025.
 Gaussian 16:  ES64L-G16RevC.01  3-Jul-2019

 ----------------------------------------------------------------------
 #t hf aug-cc-pvdz iop(5/13=1,5/36=2,99/5=2) pseudo=read geom=check gue
 ss=(read,tcheck) scf=(maxcycle=1)
 ----------------------------------------------------------------------
 -----
 title
 -----
 Structure from the checkpoint file:  "ANI1ccx_190_conf6_mol1.chk"
 Charge =  0 Multiplicity = 1

                         Standard orientation:
 ---------------------------------------------------------------------
 Center     Atomic      Atomic             Coordinates (Angstroms)
 Number     Number       Type             X           Y           Z
 ---------------------------------------------------------------------
      1          6           0       -2.296530    0.173582    0.948135
      2          6           0        2.256109   -1.221852   -1.384330
      3          6           0        1.703168   -2.277612    0.838838
      4          6           0        2.216919   -1.051302    0.132897
      5          6           0        2.194610    1.471708    0.055406
      6          6           0        0.930604   -1.395081   -2.069220
      7          6           0       -3.420110    0.933588   -1.016690
      8          6           0       -3.195821   -0.550338   -1.190830
      9          6           0       -2.867231   -1.048330    0.173086
     10          6           0       -0.803559   -0.034985    1.370580
     11          6           0        1.537500    0.247747    0.625758
     12          1           0        1.734148   -2.214862    1.945360
     13          1           0        1.964361    2.961858   -0.978003
     14          1           0        0.283366   -2.200401   -1.672460
     15          1           0        1.092949   -1.719451   -3.108230
     16          1           0        0.373735   -0.463436   -2.122360
     17          1           0        2.648869   -0.362787   -1.946230
     18          1           0        2.832029   -2.136862   -1.643500
     19          1           0        2.295488   -3.163332    0.540691
     20          1           0        0.653593   -2.496091    0.582418
     21          1           0        3.267279   -0.897289    0.488719
     22          1           0       -4.431180    1.082711   -0.590838
     23          1           0       -0.296655    0.880094   -0.229343
     24          1           0       -3.365760    1.438611   -1.992490
     25          1           0       -2.346721   -0.718814   -1.867610
     26          1           0       -4.081201   -0.994763   -1.672250
     27          1           0       -3.740581   -1.442379    0.702601
     28          1           0       -2.089771   -1.822240    0.140479
     29          1           0       -2.877650    0.475115    1.823060
     30          1           0       -2.514519    2.201180    0.333475
     31          1           0        1.614070    0.405949    1.733130
     32          7           0       -2.348000    1.303930   -0.073767
     33          7           0        0.094855    0.246717    0.412228
     34          8           0        3.370530    1.776358    0.181480
     35          8           0       -0.575695   -0.448719    2.500180
     36          8           0        1.357941    2.278599   -0.648869
 ---------------------------------------------------------------------

 SCF Done:  E(RHF) =  -762.581484096     A.U. after    2 cycles

 The electronic state is 1-A.
 Alpha  occ. eigenvalues --  -20.61497 -20.54724 -20.50502 -15.51671 -15.50167
 Alpha  occ. eigenvalues --  -11.40810 -11.34956 -11.29982 -11.28380 -11.26647
 Alpha  occ. eigenvalues --  -11.24904 -11.24386 -11.23604 -11.23502 -11.22400
 Alpha  occ. eigenvalues --  -11.22339  -1.56062  -1.45285  -1.44949  -1.26381
 Alpha  occ. eigenvalues --   -1.22406  -1.11138  -1.05790  -1.03626  -1.00080
 Alpha  occ. eigenvalues --   -0.98135  -0.87859  -0.86455  -0.84169  -0.81679
 Alpha  occ. eigenvalues --   -0.80641  -0.77748  -0.74373  -0.73541  -0.71413
 Alpha  occ. eigenvalues --   -0.69977  -0.67551  -0.65167  -0.63878  -0.63140
 Alpha  occ. eigenvalues --   -0.62204  -0.61074  -0.60234  -0.59412  -0.58214
 Alpha  occ. eigenvalues --   -0.56863  -0.55919  -0.55061  -0.54279  -0.53309
 Alpha  occ. eigenvalues --   -0.51955  -0.51572  -0.50072  -0.48905  -0.48356
 Alpha  occ. eigenvalues --   -0.48249  -0.47321  -0.46791  -0.45395  -0.43700
 Alpha  occ. eigenvalues --   -0.41072  -0.40351
 Alpha virt. eigenvalues --    0.02714   0.03030   0.03162   0.03800   0.04128
 Alpha virt. eigenvalues --    0.04409   0.04628   0.05228   0.05398   0.06921
 Alpha virt. eigenvalues --    0.07315   0.07516   0.07840   0.08080   0.09116

 Mulliken charges:
               1
     1  C   -0.540221
     2  C   -0.308754
     3  C   -0.255134
     4  C   -0.318073
     5  C    3.198730
     6  C   -0.286347
     7  C   -0.318804
     8  C   -0.093509
     9  C   -0.421398
    10  C    1.002017
    11  C   -2.312349
    12  H    0.198370
    13  H    0.462681
    14  H    0.143597
    15  H    0.022075
    16  H    0.129142
    17  H    0.208882
    18  H    0.134599
    19  H    0.115547
    20  H    0.221242
    21  H    0.244738
    22  H    0.054256
    23  H    0.340280
    24  H    0.109566
    25  H    0.084772
    26  H    0.127696
    27  H    0.105721
    28  H    0.111986
    29  H    0.044636
    30  H    0.195937
    31  H    0.205714
    32  N    0.398625
    33  N    1.586399
    34  O   -1.492782
    35  O   -1.536146
    36  O   -1.563691
 Sum of Mulliken charges =  -0.00000

 Dipole moment (field-independent basis, Debye):
    X=             -3.1612    Y=              0.7145    Z=             -3.2521  Tot=              4.5913

 Test job not archived.
 1\1\GINC-SE083\SP\RHF\Aug-CC-pVDZ\C11H20N2O3\OHZDE\08-Apr-2025\0\\#t h
 f aug-cc-pvdz iop(5/13=1,5/36=2,99/5=2) pseudo=read geom=check guess=(
 read,tcheck) scf=(maxcycle=1)\\title\\0,1\C,0,-2.29653,0.173582,0.9481
 35\C,0,2.25611,-1.22185,-1.38433\C,0,1.70317,-2.27761,0.838838\C,0,2.2
 1692,-1.0513,0.132897\C,0,2.19461,1.47171,0.0554059\C,0,0.930605,-1.39
 508,-2.06922\C,0,-3.42011,0.933587,-1.01669\C,0,-3.19582,-0.550339,-1.
 19083\C,0,-2.86723,-1.04833,0.173086\C,0,-0.803559,-0.0349842,1.37058\
 C,0,1.5375,0.247749,0.625758\H,0,1.73415,-2.21486,1.94536\H,0,1.96436,

 Normal termination of Gaussian 16 at Tue Apr  8 21:34:32 2025.
