 Gaussian 16, Revision C.01,

 ----------------------------------------------------------------------
 #t hf aug-cc-pvdz symm=none int=(grid=ultrafine) guess=(read,tcheck) s
 table=(opt,rrhf)
 ----------------------------------------------------------------------
 -----
 title
 -----
 Symbolic Z-matrix:
 Charge =  0 Multiplicity = 1

 SCF Done:  E(RHF) =  -380.190386618     A.U. after   11 cycles
 Normal termination of Gaussian 16 at Tue Apr  8 21:04:23 2025.
 Gaussian 16:  ES64L-G16RevC.01  3-Jul-2019

 ----------------------------------------------------------------------
 #t hf aug-cc-pvdz iop(5/13=1,5/36=2,99/5=2) pseudo=read geom=check gue
 ss=(read,tcheck) scf=(maxcycle=1)
 ----------------------------------------------------------------------
 -----
 title
 -----
 Structure from the checkpoint file:  "ANI1ccx_1843_conf387_mol1.chk"
 Charge =  0 Multiplicity = 1

                         Standard orientation:
 ---------------------------------------------------------------------
 Center     Atomic      Atomic             Coordinates (Angstroms)
 Number     Number       Type             X           Y           Z
 ---------------------------------------------------------------------
      1          1           0        2.743461   -0.335302   -0.322717
      2          1           0        2.817363   -1.940447   -0.926550
      3          1           0        2.191009    1.509222    1.042010
      4          1           0        1.106569    1.180751   -0.040930
      5          1           0       -1.549622    2.090268    0.073099
      6          1           0       -1.747030    0.775916   -0.681463
      7          1           0       -2.054168   -0.906447    0.326055
      8          1           0       -3.418188   -1.010825   -0.632424
      9          1           0       -0.551189   -0.129352    0.521364
     10          1           0        0.332569   -1.391620    0.156387
     11          8           0        2.495182   -1.323968   -0.200069
     12          8           0        2.001739    1.559182    0.055039
     13          8           0       -1.097741    1.313828   -0.177972
     14          8           0       -2.832449   -0.422031   -0.118507
     15          8           0       -0.550578   -1.107281    0.502155
 ---------------------------------------------------------------------

 SCF Done:  E(RHF) =  -380.585305573     A.U. after    2 cycles

 The electronic state is 1-A.
 Alpha  occ. eigenvalues --  -20.56932 -20.56389 -20.55421 -20.54472 -20.53418
 Alpha  occ. eigenvalues --   -1.46802  -1.43433  -1.43122  -1.41155  -1.40071
 Alpha  occ. eigenvalues --   -0.76756  -0.71881  -0.70885  -0.70528  -0.68459
 Alpha  occ. eigenvalues --   -0.60674  -0.59492  -0.57639  -0.55550  -0.52669
 Alpha  occ. eigenvalues --   -0.50672  -0.50503  -0.49329  -0.48881  -0.46811
 Alpha virt. eigenvalues --    0.03677   0.04210   0.04350   0.05994   0.06941
 Alpha virt. eigenvalues --    0.08033   0.08838   0.09609   0.10067   0.11402
 Alpha virt. eigenvalues --    0.17881   0.18469   0.19317   0.20154   0.20838

 Mulliken charges:
               1
     1  H    0.536835
     2  H    0.462309
     3  H    0.408301
     4  H    0.629392
     5  H    0.359248
     6  H    0.707512
     7  H    0.731441
     8  H    0.422677
     9  H    0.614391
    10  H    0.564829
    11  O   -1.003321
    12  O   -1.026583
    13  O   -1.095304
    14  O   -1.077409
    15  O   -1.234319
 Sum of Mulliken charges =  -0.00000

 Dipole moment (field-independent basis, Debye):
    X=              0.0159    Y=             -0.1334    Z=             -1.0768  Tot=              1.0852

 Test job not archived.
 1\1\GINC-SE362\SP\RHF\Aug-CC-pVDZ\H10O5\OHZDE\08-Apr-2025\0\\#t hf aug
 -cc-pvdz iop(5/13=1,5/36=2,99/5=2) pseudo=read geom=check guess=(read,
 tcheck) scf=(maxcycle=1)\\title\\0,1\H,0,2.74346,-0.335305,-0.322717\H
 ,0,2.81736,-1.94045,-0.92655\H,0,2.19101,1.50922,1.04201\H,0,1.10657,1
 .18075,-0.0409302\H,0,-1.54962,2.09027,0.0730991\H,0,-1.74703,0.775919
 ,-0.681463\H,0,-2.05417,-0.906444,0.326055\H,0,-3.41819,-1.01082,-0.63
 2424\H,0,-0.55119,-0.129351,0.521364\H,0,0.332567,-1.39162,0.156387\O,
 0,2.49518,-1.32397,-0.200069\O,0,2.00174,1.55918,0.0550395\O,0,-1.0977

 Normal termination of Gaussian 16 at Tue Apr  8 21:04:26 2025.
