 Gaussian 16, Revision C.01,

 ----------------------------------------------------------------------
 #t hf aug-cc-pvdz symm=none int=(grid=ultrafine) guess=(read,tcheck) s
 table=(opt,rrhf)
 ----------------------------------------------------------------------
 -----
 title
 -----
 Symbolic Z-matrix:
 Charge =  0 Multiplicity = 1

 SCF Done:  E(RHF) =  -505.044429741     A.U. after   15 cycles
 Normal termination of Gaussian 16 at Tue Apr  8 21:40:50 2025.
 Gaussian 16:  ES64L-G16RevC.01  3-Jul-2019

 ----------------------------------------------------------------------
 #t hf aug-cc-pvdz iop(5/13=1,5/36=2,99/5=2) pseudo=read geom=check gue
 ss=(read,tcheck) scf=(maxcycle=1)
 ----------------------------------------------------------------------
 -----
 title
 -----
 Structure from the checkpoint file:  "ANI1ccx_471_conf5_mol1.chk"
 Charge =  0 Multiplicity = 1

                         Standard orientation:
 ---------------------------------------------------------------------
 Center     Atomic      Atomic             Coordinates (Angstroms)
 Number     Number       Type             X           Y           Z
 ---------------------------------------------------------------------
      1          6           0        1.389990   -0.095785   -0.004387
      2          6           0       -0.660074    0.787773    0.097793
      3          1           0       -2.374857   -1.620954    0.374793
      4          7           0       -0.786113   -0.580868    0.432272
      5          8           0       -1.806908   -1.232583   -0.327540
      6          8           0        0.555607   -1.106789    0.015140
      7          8           0        2.572050   -0.148569   -0.059106
      8          8           0        0.657133    1.140981   -0.080589
      9          8           0       -1.540613    1.538848   -0.043047
 ---------------------------------------------------------------------

 SCF Done:  E(RHF) =  -505.523371224     A.U. after    2 cycles

 The electronic state is 1-A.
 Alpha  occ. eigenvalues --  -20.69663 -20.68098 -20.67748 -20.59526 -20.58991
 Alpha  occ. eigenvalues --  -15.72064 -11.50024 -11.47616  -1.68402  -1.58837
 Alpha  occ. eigenvalues --   -1.57697  -1.52332  -1.51959  -1.21406  -0.94117
 Alpha  occ. eigenvalues --   -0.91703  -0.82503  -0.79798  -0.75385  -0.72987
 Alpha  occ. eigenvalues --   -0.72108  -0.70392  -0.66207  -0.64168  -0.60405
 Alpha  occ. eigenvalues --   -0.58713  -0.53413  -0.52346  -0.50948  -0.49806
 Alpha virt. eigenvalues --    0.02376   0.07311   0.07984   0.08425   0.09367
 Alpha virt. eigenvalues --    0.09762   0.10796   0.11167   0.11466   0.13270
 Alpha virt. eigenvalues --    0.13776   0.15476   0.17504   0.17810   0.19165

 Mulliken charges:
               1
     1  C    2.126783
     2  C    1.420680
     3  H    0.376846
     4  N    1.460616
     5  O   -1.047499
     6  O   -1.059829
     7  O   -1.055368
     8  O   -1.143482
     9  O   -1.078746
 Sum of Mulliken charges =  -0.00000

 Dipole moment (field-independent basis, Debye):
    X=             -2.6039    Y=             -2.2207    Z=              1.1509  Tot=              3.6106

 Test job not archived.
 1\1\GINC-SE339\SP\RHF\Aug-CC-pVDZ\C2H1N1O5\OHZDE\08-Apr-2025\0\\#t hf
 aug-cc-pvdz iop(5/13=1,5/36=2,99/5=2) pseudo=read geom=check guess=(re
 ad,tcheck) scf=(maxcycle=1)\\title\\0,1\C,0,1.38999,-0.0957875,-0.0043
 8698\C,0,-0.660072,0.787774,0.0977931\H,0,-2.37486,-1.62095,0.374793\N
 ,0,-0.786114,-0.580867,0.432272\O,0,-1.80691,-1.23258,-0.32754\O,0,0.5
 55605,-1.10679,0.0151396\O,0,2.57205,-0.148574,-0.0591062\O,0,0.657135
 ,1.14098,-0.0805886\O,0,-1.54061,1.53885,-0.0430466\\Version=ES64L-G16
 RevC.01\State=1-A\HF=-505.5233712\RMSD=1.185e-02\Dipole=-1.0244718,-0.

 Normal termination of Gaussian 16 at Tue Apr  8 21:40:53 2025.
