 Gaussian 16, Revision C.01,

 ----------------------------------------------------------------------
 #t hf aug-cc-pvdz symm=none int=(grid=ultrafine) guess=(read,tcheck) s
 table=(opt,rrhf)
 ----------------------------------------------------------------------
 -----
 title
 -----
 Symbolic Z-matrix:
 Charge =  0 Multiplicity = 1

 SCF Done:  E(RHF) =  -259.750465777     A.U. after   14 cycles
 Normal termination of Gaussian 16 at Tue Apr  8 21:10:17 2025.
 Gaussian 16:  ES64L-G16RevC.01  3-Jul-2019

 ----------------------------------------------------------------------
 #t hf aug-cc-pvdz iop(5/13=1,5/36=2,99/5=2) pseudo=read geom=check gue
 ss=(read,tcheck) scf=(maxcycle=1)
 ----------------------------------------------------------------------
 -----
 title
 -----
 Structure from the checkpoint file:  "ANI1ccx_1858_conf9_mol1.chk"
 Charge =  0 Multiplicity = 1

                         Standard orientation:
 ---------------------------------------------------------------------
 Center     Atomic      Atomic             Coordinates (Angstroms)
 Number     Number       Type             X           Y           Z
 ---------------------------------------------------------------------
      1          1           0        0.666422    0.684111   -0.544857
      2          1           0        2.452760    0.006990    0.923065
      3          7           0       -1.624540    0.451685    0.077487
      4          7           0       -2.399250   -0.352341   -0.003475
      5          8           0        0.836737   -0.165259   -0.083890
      6          8           0        2.294180   -0.008055   -0.028147
 ---------------------------------------------------------------------

 SCF Done:  E(RHF) =  -259.997384424     A.U. after    2 cycles

 The electronic state is 1-A.
 Alpha  occ. eigenvalues --  -20.62563 -20.61958 -15.63143 -15.63020  -1.57685
 Alpha  occ. eigenvalues --   -1.47889  -1.28435  -0.83228  -0.71056  -0.70641
 Alpha  occ. eigenvalues --   -0.68156  -0.66389  -0.66293  -0.59634  -0.51483
 Alpha  occ. eigenvalues --   -0.47345
 Alpha virt. eigenvalues --    0.04402   0.05380   0.08331   0.08899   0.11661
 Alpha virt. eigenvalues --    0.12976   0.15774   0.16343   0.17572   0.19619
 Alpha virt. eigenvalues --    0.20831   0.21424   0.22240   0.23203   0.24739

 Mulliken charges:
               1
     1  H    0.542155
     2  H    0.464733
     3  N    0.028109
     4  N   -0.076483
     5  O   -0.479988
     6  O   -0.478527
 Sum of Mulliken charges =  -0.00000

 Dipole moment (field-independent basis, Debye):
    X=             -0.1053    Y=              1.4138    Z=              0.9230  Tot=              1.6917

 Test job not archived.
 1\1\GINC-SE029\SP\RHF\Aug-CC-pVDZ\H2N2O2\OHZDE\08-Apr-2025\0\\#t hf au
 g-cc-pvdz iop(5/13=1,5/36=2,99/5=2) pseudo=read geom=check guess=(read
 ,tcheck) scf=(maxcycle=1)\\title\\0,1\H,0,0.666422,0.684111,-0.544857\
 H,0,2.45276,0.00698973,0.923065\N,0,-1.62454,0.451685,0.0774871\N,0,-2
 .39925,-0.352341,-0.00347463\O,0,0.836737,-0.165259,-0.0838901\O,0,2.2
 9418,-0.00805484,-0.0281468\\Version=ES64L-G16RevC.01\State=1-A\HF=-25
 9.9973844\RMSD=4.007e-02\Dipole=-0.0414163,0.556233,0.363143\Quadrupol
 e=-0.5827596,-0.4861082,1.0688678,0.4939941,2.9539791,-0.7780641\PG=C0

 Normal termination of Gaussian 16 at Tue Apr  8 21:10:18 2025.
