 Gaussian 16, Revision C.01,

 ----------------------------------------------------------------------
 #t hf aug-cc-pvdz symm=none int=(grid=ultrafine) guess=(read,tcheck) s
 table=(opt,rrhf)
 ----------------------------------------------------------------------
 -----
 title
 -----
 Symbolic Z-matrix:
 Charge =  0 Multiplicity = 1

 SCF Done:  E(RHF) =  -373.432458463     A.U. after   16 cycles
 Normal termination of Gaussian 16 at Tue Apr  8 21:48:55 2025.
 Gaussian 16:  ES64L-G16RevC.01  3-Jul-2019

 ----------------------------------------------------------------------
 #t hf aug-cc-pvdz iop(5/13=1,5/36=2,99/5=2) pseudo=read geom=check gue
 ss=(read,tcheck) scf=(maxcycle=1)
 ----------------------------------------------------------------------
 -----
 title
 -----
 Structure from the checkpoint file:  "ANI1ccx_655_conf12_mol2.chk"
 Charge =  0 Multiplicity = 1

                         Standard orientation:
 ---------------------------------------------------------------------
 Center     Atomic      Atomic             Coordinates (Angstroms)
 Number     Number       Type             X           Y           Z
 ---------------------------------------------------------------------
      1          6           0        1.475690    0.386294    0.080919
      2          6           0       -0.793911   -0.649517    0.019558
      3          6           0       -1.313519    0.760801    0.023652
      4          1           0        0.911928    1.333309    0.249580
      5          1           0        1.012979   -1.629031    0.167336
      6          7           0        0.609390   -0.697818    0.082877
      7          7           0       -1.692199    1.853720   -0.039081
      8          8           0        2.660260    0.268697   -0.115430
      9          8           0       -1.479611   -1.616330   -0.068103
 ---------------------------------------------------------------------

 SCF Done:  E(RHF) =  -373.789529654     A.U. after    2 cycles

 The electronic state is 1-A.
 Alpha  occ. eigenvalues --  -20.60716 -20.57681 -15.60462 -15.58588 -11.47188
 Alpha  occ. eigenvalues --  -11.41686 -11.34076  -1.56400  -1.51772  -1.31538
 Alpha  occ. eigenvalues --   -1.28723  -1.00640  -0.95341  -0.83506  -0.75249
 Alpha  occ. eigenvalues --   -0.72637  -0.69752  -0.67416  -0.66859  -0.60084
 Alpha  occ. eigenvalues --   -0.57705  -0.55291  -0.53037  -0.48643  -0.47904
 Alpha virt. eigenvalues --    0.02871   0.03316   0.04640   0.07101   0.07568
 Alpha virt. eigenvalues --    0.08684   0.09595   0.09873   0.10504   0.11314
 Alpha virt. eigenvalues --    0.12066   0.12959   0.13824   0.14375   0.15868

 Mulliken charges:
               1
     1  C    0.588317
     2  C    1.194630
     3  C   -1.468154
     4  H    0.195321
     5  H    0.148747
     6  N    0.593610
     7  N    0.868924
     8  O   -1.022930
     9  O   -1.098464
 Sum of Mulliken charges =  -0.00000

 Dipole moment (field-independent basis, Debye):
    X=              0.3525    Y=             -1.6038    Z=              0.8256  Tot=              1.8380

 Test job not archived.
 1\1\GINC-SE332\SP\RHF\Aug-CC-pVDZ\C3H2N2O2\OHZDE\08-Apr-2025\0\\#t hf
 aug-cc-pvdz iop(5/13=1,5/36=2,99/5=2) pseudo=read geom=check guess=(re
 ad,tcheck) scf=(maxcycle=1)\\title\\0,1\C,0,1.47569,0.386295,0.0809187
 \C,0,-0.793911,-0.649517,0.0195585\C,0,-1.31352,0.760801,0.0236516\H,0
 ,0.911927,1.33331,0.24958\H,0,1.01298,-1.62903,0.167336\N,0,0.60939,-0
 .697817,0.0828772\N,0,-1.6922,1.85372,-0.0390811\O,0,2.66026,0.268699,
 -0.11543\O,0,-1.47961,-1.61633,-0.0681026\\Version=ES64L-G16RevC.01\St
 ate=1-A\HF=-373.7895297\RMSD=2.421e-02\Dipole=0.138704,-0.6309954,0.32

 Normal termination of Gaussian 16 at Tue Apr  8 21:48:58 2025.
