 Gaussian 16, Revision C.01,

 ----------------------------------------------------------------------
 #t hf aug-cc-pvdz symm=none int=(grid=ultrafine) guess=(read,tcheck) s
 table=(opt,rrhf)
 ----------------------------------------------------------------------
 -----
 title
 -----
 Symbolic Z-matrix:
 Charge =  0 Multiplicity = 1

 SCF Done:  E(RHF) =  -506.626932009     A.U. after   17 cycles
 Normal termination of Gaussian 16 at Tue Apr  8 21:55:57 2025.
 Gaussian 16:  ES64L-G16RevC.01  3-Jul-2019

 ----------------------------------------------------------------------
 #t hf aug-cc-pvdz iop(5/13=1,5/36=2,99/5=2) pseudo=read geom=check gue
 ss=(read,tcheck) scf=(maxcycle=1)
 ----------------------------------------------------------------------
 -----
 title
 -----
 Structure from the checkpoint file:  "ANI1ccx_787_conf15_mol1.chk"
 Charge =  0 Multiplicity = 1

                         Standard orientation:
 ---------------------------------------------------------------------
 Center     Atomic      Atomic             Coordinates (Angstroms)
 Number     Number       Type             X           Y           Z
 ---------------------------------------------------------------------
      1          6           0        1.102959    1.726111   -0.592736
      2          6           0       -1.084681    0.718225   -0.108621
      3          6           0       -1.922100   -0.522008   -0.313960
      4          1           0        1.369771   -2.029609   -1.389820
      5          1           0       -3.219400   -0.097359    1.042890
      6          1           0       -1.388909   -1.375451    0.178134
      7          1           0       -1.059211    1.046110    0.950485
      8          1           0       -1.984919   -0.829093   -1.380520
      9          1           0        2.111089    1.419812   -0.941016
     10          1           0        0.628162    2.464531   -1.253340
     11          1           0        1.158108    2.113831    0.412222
     12          1           0       -1.493821    1.605659   -0.588016
     13          7           0        0.280379    0.542388   -0.638696
     14          7           0        1.006580   -0.547144   -0.156928
     15          7           0        1.418960   -0.686639    1.129610
     16          8           0        1.818891   -1.196958   -1.129030
     17          8           0       -3.264050   -0.326312    0.095359
     18          8           0        0.990237    0.146691    1.874040
 ---------------------------------------------------------------------

 SCF Done:  E(RHF) =  -507.135804520     A.U. after    2 cycles

 The electronic state is 1-A.
 Alpha  occ. eigenvalues --  -20.63069 -20.59746 -20.56296 -15.68831 -15.64179
 Alpha  occ. eigenvalues --  -15.55162 -11.29875 -11.27800 -11.26542  -1.62127
 Alpha  occ. eigenvalues --   -1.52624  -1.45860  -1.31619  -1.19032  -1.03530
 Alpha  occ. eigenvalues --   -0.98554  -0.89762  -0.83829  -0.80215  -0.75512
 Alpha  occ. eigenvalues --   -0.74934  -0.70037  -0.67419  -0.65651  -0.65169
 Alpha  occ. eigenvalues --   -0.63651  -0.59726  -0.59121  -0.57425  -0.55427
 Alpha  occ. eigenvalues --   -0.54791  -0.50015  -0.47607  -0.46555  -0.44095
 Alpha  occ. eigenvalues --   -0.41624
 Alpha virt. eigenvalues --    0.03374   0.04046   0.04360   0.04673   0.05207
 Alpha virt. eigenvalues --    0.05787   0.06249   0.07633   0.07729   0.08858
 Alpha virt. eigenvalues --    0.10767   0.13048   0.13739   0.14005   0.14354

 Mulliken charges:
               1
     1  C   -0.469469
     2  C   -0.409229
     3  C    0.852156
     4  H    0.337817
     5  H    0.297998
     6  H    0.197939
     7  H    0.119172
     8  H    0.119206
     9  H    0.184260
    10  H    0.151745
    11  H    0.234695
    12  H    0.018187
    13  N    0.658993
    14  N   -0.281146
    15  N    1.339552
    16  O   -1.073072
    17  O   -1.214205
    18  O   -1.064600
 Sum of Mulliken charges =  -0.00000

 Dipole moment (field-independent basis, Debye):
    X=             -0.2392    Y=              0.4861    Z=             -0.6659  Tot=              0.8585

 Test job not archived.
 1\1\GINC-SE331\SP\RHF\Aug-CC-pVDZ\C3H9N3O3\OHZDE\08-Apr-2025\0\\#t hf
 aug-cc-pvdz iop(5/13=1,5/36=2,99/5=2) pseudo=read geom=check guess=(re
 ad,tcheck) scf=(maxcycle=1)\\title\\0,1\C,0,1.10296,1.72611,-0.592736\
 C,0,-1.08468,0.718225,-0.108621\C,0,-1.9221,-0.522007,-0.31396\H,0,1.3
 6977,-2.02961,-1.38982\H,0,-3.2194,-0.0973566,1.04289\H,0,-1.38891,-1.
 37545,0.178134\H,0,-1.05921,1.04611,0.950485\H,0,-1.98492,-0.829092,-1
 .38052\H,0,2.11109,1.41981,-0.941016\H,0,0.628164,2.46453,-1.25334\H,0
 ,1.15811,2.11383,0.412222\H,0,-1.49382,1.60566,-0.588016\N,0,0.280379,

 Normal termination of Gaussian 16 at Tue Apr  8 21:56:06 2025.
