 Gaussian 16, Revision C.01,

 ----------------------------------------------------------------------
 #t hf aug-cc-pvdz symm=none int=(grid=ultrafine) guess=(read,tcheck) s
 table=(opt,rrhf)
 ----------------------------------------------------------------------
 -----
 title
 -----
 Symbolic Z-matrix:
 Charge =  0 Multiplicity = 1

 SCF Done:  E(RHF) =  -484.002617182     A.U. after   16 cycles
 Normal termination of Gaussian 16 at Tue Apr  8 21:47:53 2025.
 Gaussian 16:  ES64L-G16RevC.01  3-Jul-2019

 ----------------------------------------------------------------------
 #t hf aug-cc-pvdz iop(5/13=1,5/36=2,99/5=2) pseudo=read geom=check gue
 ss=(read,tcheck) scf=(maxcycle=1)
 ----------------------------------------------------------------------
 -----
 title
 -----
 Structure from the checkpoint file:  "ANI1ccx_606_conf6_mol1.chk"
 Charge =  0 Multiplicity = 1

                         Standard orientation:
 ---------------------------------------------------------------------
 Center     Atomic      Atomic             Coordinates (Angstroms)
 Number     Number       Type             X           Y           Z
 ---------------------------------------------------------------------
      1          6           0       -1.245030   -0.292587   -0.152285
      2          6           0        1.158000   -0.406299    0.051953
      3          7           0       -1.134159    1.131651   -0.247883
      4          7           0       -0.021242    1.668561   -0.077812
      5          8           0       -2.253630   -0.954704    0.214552
      6          8           0        1.009671    0.828016    0.396428
      7          8           0        2.318570   -0.755704   -0.151535
      8          8           0        0.001637   -1.043629   -0.099212
 ---------------------------------------------------------------------

 SCF Done:  E(RHF) =  -484.457966178     A.U. after    2 cycles

 The electronic state is 1-A.
 Alpha  occ. eigenvalues --  -20.69582 -20.69342 -20.64364 -20.58577 -15.76873
 Alpha  occ. eigenvalues --  -15.67995 -11.53137 -11.50986  -1.71154  -1.60532
 Alpha  occ. eigenvalues --   -1.53537  -1.50303  -1.44492  -1.12820  -1.02419
 Alpha  occ. eigenvalues --   -0.92828  -0.82981  -0.80785  -0.75580  -0.71778
 Alpha  occ. eigenvalues --   -0.70092  -0.68270  -0.66143  -0.62245  -0.61011
 Alpha  occ. eigenvalues --   -0.54134  -0.53995  -0.50744  -0.50465
 Alpha virt. eigenvalues --   -0.06076   0.04736   0.07367   0.07578   0.08462
 Alpha virt. eigenvalues --    0.08702   0.10212   0.10465   0.10811   0.12759
 Alpha virt. eigenvalues --    0.13538   0.14989   0.16495   0.17829   0.18794

 Mulliken charges:
               1
     1  C    1.386427
     2  C    2.043203
     3  N   -0.066479
     4  N    0.888746
     5  O   -0.950899
     6  O   -1.094823
     7  O   -1.042343
     8  O   -1.163832
 Sum of Mulliken charges =  -0.00000

 Dipole moment (field-independent basis, Debye):
    X=             -1.0217    Y=              1.0643    Z=             -0.1683  Tot=              1.4849

 Test job not archived.
 1\1\GINC-SE250\SP\RHF\Aug-CC-pVDZ\C2N2O4\OHZDE\08-Apr-2025\0\\#t hf au
 g-cc-pvdz iop(5/13=1,5/36=2,99/5=2) pseudo=read geom=check guess=(read
 ,tcheck) scf=(maxcycle=1)\\title\\0,1\C,0,-1.24503,-0.292589,-0.152285
 \C,0,1.158,-0.406299,0.0519532\N,0,-1.13416,1.13165,-0.247883\N,0,-0.0
 212433,1.66856,-0.0778121\O,0,-2.25363,-0.954706,0.214552\O,0,1.00967,
 0.828016,0.396428\O,0,2.31857,-0.755704,-0.151535\O,0,0.00163661,-1.04
 363,-0.0992123\\Version=ES64L-G16RevC.01\State=1-A\HF=-484.4579662\RMS
 D=2.624e-02\Dipole=-0.4019538,0.4187356,-0.0662056\Quadrupole=-5.40014

 Normal termination of Gaussian 16 at Tue Apr  8 21:47:56 2025.
