 Gaussian 16, Revision C.01,

 ----------------------------------------------------------------------
 #t hf aug-cc-pvdz symm=none int=(grid=ultrafine) guess=(read,tcheck) s
 table=(opt,rrhf)
 ----------------------------------------------------------------------
 -----
 title
 -----
 Symbolic Z-matrix:
 Charge =  0 Multiplicity = 1

 SCF Done:  E(RHF) =  -792.020133400     A.U. after   13 cycles
 Normal termination of Gaussian 16 at Tue Apr  8 19:29:23 2025.
 Gaussian 16:  ES64L-G16RevC.01  3-Jul-2019

 ----------------------------------------------------------------------
 #t hf aug-cc-pvdz iop(5/13=1,5/36=2,99/5=2) pseudo=read geom=check gue
 ss=(read,tcheck) scf=(maxcycle=1)
 ----------------------------------------------------------------------
 -----
 title
 -----
 Structure from the checkpoint file:  "ANI1ccx_1216_conf11_mol2.chk"
 Charge =  0 Multiplicity = 1

                         Standard orientation:
 ---------------------------------------------------------------------
 Center     Atomic      Atomic             Coordinates (Angstroms)
 Number     Number       Type             X           Y           Z
 ---------------------------------------------------------------------
      1          6           0       -1.559800    1.321510   -0.739921
      2          6           0        1.641300    1.411189    0.257781
      3          6           0        1.299680   -0.612165    1.628300
      4          6           0       -1.961300   -0.358619    0.934418
      5          6           0       -1.337930   -1.109350   -1.347640
      6          6           0        1.934760   -0.761790   -0.755519
      7          1           0        2.732140   -0.308538   -1.389480
      8          1           0        2.208669   -1.774721   -0.430638
      9          1           0       -2.018471   -1.983749   -1.179200
     10          1           0       -1.429830   -0.710410   -2.362250
     11          1           0       -2.338870   -1.376799    1.061320
     12          1           0       -2.760520    0.331220    1.292300
     13          1           0        1.918010   -1.493091    1.763520
     14          1           0        1.471460    1.871090    1.204900
     15          1           0        2.587510    1.748679   -0.190982
     16          1           0       -1.385350    1.483120   -1.813650
     17          1           0       -2.461100    1.870591   -0.438997
     18          1           0        1.499880    0.095716    2.449860
     19          7           0        1.607130    0.028245    0.392600
     20          7           0       -1.715060   -0.077586   -0.425440
     21          8           0       -0.074544   -1.748370   -1.204760
     22          8           0       -0.556298    2.068750   -0.036516
     23          8           0        0.700755    1.961520   -0.693606
     24          8           0        0.017791   -1.155890    1.789240
     25          8           0       -0.929415   -0.116726    1.912970
     26          8           0        0.920677   -0.853332   -1.717500
 ---------------------------------------------------------------------

 SCF Done:  E(RHF) =  -792.805163985     A.U. after    2 cycles

 The electronic state is 1-A.
 Alpha  occ. eigenvalues --  -20.60580 -20.60367 -20.60288 -20.59918 -20.59767
 Alpha  occ. eigenvalues --  -20.59754 -15.51406 -15.50568 -11.33433 -11.32921
 Alpha  occ. eigenvalues --  -11.32820 -11.32785 -11.32746 -11.32095  -1.60312
 Alpha  occ. eigenvalues --   -1.59848  -1.58728  -1.34350  -1.30936  -1.29490
 Alpha  occ. eigenvalues --   -1.25407  -1.20768  -0.98009  -0.97727  -0.94876
 Alpha  occ. eigenvalues --   -0.94532  -0.84188  -0.82966  -0.75248  -0.74562
 Alpha  occ. eigenvalues --   -0.72868  -0.72726  -0.71844  -0.70153  -0.67610
 Alpha  occ. eigenvalues --   -0.66798  -0.65989  -0.63254  -0.62955  -0.61986
 Alpha  occ. eigenvalues --   -0.61574  -0.56995  -0.56663  -0.55908  -0.55530
 Alpha  occ. eigenvalues --   -0.51778  -0.50743  -0.49169  -0.48941  -0.47176
 Alpha  occ. eigenvalues --   -0.46009  -0.43228  -0.42356  -0.42062  -0.40900
 Alpha virt. eigenvalues --    0.03924   0.04037   0.04606   0.04739   0.04941
 Alpha virt. eigenvalues --    0.04993   0.05534   0.05638   0.07224   0.07981
 Alpha virt. eigenvalues --    0.09085   0.09489   0.09634   0.10645   0.11539

 Mulliken charges:
               1
     1  C    0.397013
     2  C    0.509968
     3  C    0.447517
     4  C    0.311408
     5  C    0.371027
     6  C    0.311714
     7  H   -0.001224
     8  H    0.114736
     9  H    0.078955
    10  H    0.139812
    11  H    0.077597
    12  H    0.068980
    13  H   -0.058256
    14  H   -0.056696
    15  H    0.051227
    16  H    0.033777
    17  H    0.042099
    18  H    0.142747
    19  N    1.479269
    20  N    1.214660
    21  O   -0.966682
    22  O   -0.929932
    23  O   -0.905923
    24  O   -0.960608
    25  O   -0.943342
    26  O   -0.969843
 Sum of Mulliken charges =  -0.00000

 Dipole moment (field-independent basis, Debye):
    X=              0.2305    Y=             -0.4515    Z=             -0.1036  Tot=              0.5174

 Test job not archived.
 1\1\GINC-SE344\SP\RHF\Aug-CC-pVDZ\C6H12N2O6\OHZDE\08-Apr-2025\0\\#t hf
  aug-cc-pvdz iop(5/13=1,5/36=2,99/5=2) pseudo=read geom=check guess=(r
 ead,tcheck) scf=(maxcycle=1)\\title\\0,1\C,0,-1.5598,1.32151,-0.739921
 \C,0,1.6413,1.41119,0.257781\C,0,1.29968,-0.612165,1.6283\C,0,-1.9613,
 -0.358619,0.934418\C,0,-1.33793,-1.10935,-1.34764\C,0,1.93476,-0.76178
 9,-0.755519\H,0,2.73214,-0.308537,-1.38948\H,0,2.20867,-1.77472,-0.430
 638\H,0,-2.01847,-1.98375,-1.1792\H,0,-1.42983,-0.71041,-2.36225\H,0,-
 2.33887,-1.3768,1.06132\H,0,-2.76052,0.331219,1.2923\H,0,1.91801,-1.49

 Normal termination of Gaussian 16 at Tue Apr  8 19:29:51 2025.
