 Gaussian 16, Revision C.01,

 ----------------------------------------------------------------------
 #t hf aug-cc-pvdz symm=none int=(grid=ultrafine) guess=(read,tcheck) s
 table=(opt,rrhf)
 ----------------------------------------------------------------------
 -----
 title
 -----
 Symbolic Z-matrix:
 Charge =  0 Multiplicity = 1

 SCF Done:  E(RHF) =  -447.706699975     A.U. after   15 cycles
 Normal termination of Gaussian 16 at Tue Apr  8 22:08:46 2025.
 Gaussian 16:  ES64L-G16RevC.01  3-Jul-2019

 ----------------------------------------------------------------------
 #t hf aug-cc-pvdz iop(5/13=1,5/36=2,99/5=2) pseudo=read geom=check gue
 ss=(read,tcheck) scf=(maxcycle=1)
 ----------------------------------------------------------------------
 -----
 title
 -----
 Structure from the checkpoint file:  "ANI1ccx_921_conf1_mol2.chk"
 Charge =  0 Multiplicity = 1

                         Standard orientation:
 ---------------------------------------------------------------------
 Center     Atomic      Atomic             Coordinates (Angstroms)
 Number     Number       Type             X           Y           Z
 ---------------------------------------------------------------------
      1          6           0       -1.353799   -0.058339   -0.019661
      2          6           0       -0.832800    1.191087    0.053272
      3          6           0        0.630311    1.380542   -0.006481
      4          6           0        0.874318   -0.936512   -0.002786
      5          1           0       -2.892446   -1.128060    0.625108
      6          1           0       -3.308921    0.353527    0.007224
      7          1           0       -1.509136    2.040065    0.022443
      8          1           0        1.359800   -2.854505    0.507455
      9          1           0        2.632857   -1.851951   -0.002212
     10          1           0       -0.844418   -1.978323   -0.424401
     11          7           0       -2.681468   -0.441002   -0.095549
     12          7           0        1.429620    0.217256    0.041963
     13          7           0        1.650268   -2.085714   -0.082889
     14          7           0       -0.471392   -1.147971    0.032811
     15          8           0        1.145612    2.520074   -0.019504
 ---------------------------------------------------------------------

 SCF Done:  E(RHF) =  -448.159742449     A.U. after    2 cycles

 The electronic state is 1-A.
 Alpha  occ. eigenvalues --  -20.48810 -15.57690 -15.55553 -15.54399 -15.48468
 Alpha  occ. eigenvalues --  -11.38665 -11.35889 -11.34695 -11.23697  -1.41085
 Alpha  occ. eigenvalues --   -1.36104  -1.27753  -1.21575  -1.19681  -1.05334
 Alpha  occ. eigenvalues --   -0.92804  -0.89700  -0.81536  -0.79275  -0.76305
 Alpha  occ. eigenvalues --   -0.73509  -0.70804  -0.69148  -0.67357  -0.61363
 Alpha  occ. eigenvalues --   -0.58528  -0.58053  -0.53022  -0.51181  -0.48314
 Alpha  occ. eigenvalues --   -0.41770  -0.40119  -0.35356
 Alpha virt. eigenvalues --    0.01269   0.02853   0.03972   0.05037   0.05592
 Alpha virt. eigenvalues --    0.06530   0.09231   0.09949   0.10491   0.10920
 Alpha virt. eigenvalues --    0.11384   0.11610   0.12813   0.13371   0.14168

 Mulliken charges:
               1
     1  C   -1.646767
     2  C    0.903815
     3  C    0.719571
     4  C   -1.592209
     5  H    0.182275
     6  H    0.211612
     7  H   -0.225815
     8  H    0.144055
     9  H    0.239378
    10  H    0.190119
    11  N    0.701469
    12  N    0.618247
    13  N    0.676649
    14  N    0.336620
    15  O   -1.459020
 Sum of Mulliken charges =  -0.00000

 Dipole moment (field-independent basis, Debye):
    X=             -5.0948    Y=             -6.9886    Z=              1.4381  Tot=              8.7673

 Test job not archived.
 1\1\GINC-SE367\SP\RHF\Aug-CC-pVDZ\C4H6N4O1\OHZDE\08-Apr-2025\0\\#t hf
 aug-cc-pvdz iop(5/13=1,5/36=2,99/5=2) pseudo=read geom=check guess=(re
 ad,tcheck) scf=(maxcycle=1)\\title\\0,1\C,0,-1.3538,-0.0583345,-0.0196
 61\C,0,-0.832796,1.19109,0.0532724\C,0,0.630315,1.38054,-0.0064814\C,0
 ,0.874314,-0.936515,-0.00278564\H,0,-2.89245,-1.12805,0.625108\H,0,-3.
 30892,0.353538,0.00722353\H,0,-1.50913,2.04007,0.0224428\H,0,1.35979,-
 2.85451,0.507455\H,0,2.63285,-1.85196,-0.0022121\H,0,-0.844425,-1.9783
 2,-0.424401\N,0,-2.68147,-0.440993,-0.0955493\N,0,1.42962,0.217251,0.0

 Normal termination of Gaussian 16 at Tue Apr  8 22:08:51 2025.
