 Gaussian 16, Revision C.01,

 ----------------------------------------------------------------------
 #t hf aug-cc-pvdz symm=none int=(grid=ultrafine) guess=(read,tcheck) s
 table=(opt,rrhf)
 ----------------------------------------------------------------------
 -----
 title
 -----
 Symbolic Z-matrix:
 Charge =  0 Multiplicity = 1

 SCF Done:  E(RHF) =  -569.553375142     A.U. after   13 cycles

 1\1\GINC-SE120\Stability\RHF\Aug-CC-pVDZ\C5H10O5\OHZDE\08-Apr-2025\0\\
 #t hf aug-cc-pvdz symm=none int=(grid=ultrafine) guess=(read,tcheck) s
 table=(opt,rrhf)\\title\\0,1\C,0,2.07088,-0.248411,-1.05787\C,0,1.0737
 ,0.172141,-0.00726973\C,0,-0.710914,1.70026,-0.0747229\C,0,-1.27277,0.
 343552,-0.557255\C,0,-0.266095,-0.652538,-0.00822544\H,0,-0.995268,-2.
 25122,-0.69581\H,0,0.0962307,-0.952714,1.87797\H,0,-2.521,-0.185523,0.
 743168\H,0,-1.2491,0.428739,-1.64895\H,0,-0.951816,2.60207,-0.636191\H
 ,0,-0.939107,1.82583,1.00162\H,0,2.16195,0.815558,1.46655\H,0,2.34231,

 Normal termination of Gaussian 16 at Tue Apr  8 19:16:34 2025.
 Gaussian 16:  ES64L-G16RevC.01  3-Jul-2019

 ----------------------------------------------------------------------
 #t hf aug-cc-pvdz iop(5/13=1,5/36=2,99/5=2) pseudo=read geom=check gue
 ss=(read,tcheck) scf=(maxcycle=1)
 ----------------------------------------------------------------------
 -----
 title
 -----
 Structure from the checkpoint file:  "ANI1ccx_1010_conf10_mol2.chk"
 Charge =  0 Multiplicity = 1

                         Standard orientation:
 ---------------------------------------------------------------------
 Center     Atomic      Atomic             Coordinates (Angstroms)
 Number     Number       Type             X           Y           Z
 ---------------------------------------------------------------------
      1          6           0        2.070880   -0.248410   -1.057871
      2          6           0        1.073700    0.172142   -0.007270
      3          6           0       -0.710915    1.700260   -0.074724
      4          6           0       -1.272770    0.343552   -0.557256
      5          6           0       -0.266095   -0.652538   -0.008226
      6          1           0       -0.995268   -2.251220   -0.695811
      7          1           0        0.096231   -0.952714    1.877969
      8          1           0       -2.521000   -0.185523    0.743167
      9          1           0       -1.249101    0.428739   -1.648951
     10          1           0       -0.951817    2.602070   -0.636192
     11          1           0       -0.939108    1.825830    1.001619
     12          1           0        2.161949    0.815559    1.466549
     13          1           0        2.342310   -1.305459   -0.912747
     14          1           0        1.608170   -0.241667   -2.054181
     15          1           0        2.934199    0.416264   -0.951976
     16          8           0        1.675120   -0.000932    1.270749
     17          8           0        0.739362    1.490961   -0.192426
     18          8           0       -2.579340    0.103267   -0.179326
     19          8           0       -0.695336   -0.883925    1.320009
     20          8           0       -0.121725   -1.839610   -0.713678
 ---------------------------------------------------------------------

 SCF Done:  E(RHF) =  -570.130338170     A.U. after    2 cycles

 The electronic state is 1-A.
 Alpha  occ. eigenvalues --  -20.57136 -20.56546 -20.56430 -20.56170 -20.55951
 Alpha  occ. eigenvalues --  -11.35822 -11.35462 -11.30095 -11.29900 -11.22830
 Alpha  occ. eigenvalues --   -1.53667  -1.50573  -1.47383  -1.44961  -1.43520
 Alpha  occ. eigenvalues --   -1.05032  -1.03860  -0.93102  -0.85467  -0.81757
 Alpha  occ. eigenvalues --   -0.77431  -0.73438  -0.70952  -0.68349  -0.66385
 Alpha  occ. eigenvalues --   -0.63875  -0.62207  -0.61883  -0.60170  -0.58703
 Alpha  occ. eigenvalues --   -0.56620  -0.55475  -0.54652  -0.53237  -0.50222
 Alpha  occ. eigenvalues --   -0.48247  -0.47882  -0.46736  -0.43821  -0.42298
 Alpha virt. eigenvalues --    0.03527   0.04082   0.04133   0.04296   0.05984
 Alpha virt. eigenvalues --    0.06320   0.06501   0.06615   0.07631   0.09149
 Alpha virt. eigenvalues --    0.11192   0.13141   0.13299   0.13660   0.14439

 Mulliken charges:
               1
     1  C   -0.104068
     2  C    2.200505
     3  C    0.441203
     4  C    0.805526
     5  C    2.549900
     6  H    0.204955
     7  H    0.329601
     8  H    0.276151
     9  H    0.138065
    10  H    0.018170
    11  H    0.200953
    12  H    0.206478
    13  H    0.261331
    14  H    0.245961
    15  H    0.199118
    16  O   -1.564742
    17  O   -1.713734
    18  O   -1.432008
    19  O   -1.644623
    20  O   -1.618740
 Sum of Mulliken charges =  -0.00000

 Dipole moment (field-independent basis, Debye):
    X=              0.5775    Y=              0.8624    Z=              0.5152  Tot=              1.1587

 Test job not archived.
 1\1\GINC-SE120\SP\RHF\Aug-CC-pVDZ\C5H10O5\OHZDE\08-Apr-2025\0\\#t hf a
 ug-cc-pvdz iop(5/13=1,5/36=2,99/5=2) pseudo=read geom=check guess=(rea
 d,tcheck) scf=(maxcycle=1)\\title\\0,1\C,0,2.07088,-0.248411,-1.05787\
 C,0,1.0737,0.172141,-0.00726973\C,0,-0.710914,1.70026,-0.0747229\C,0,-
 1.27277,0.343552,-0.557255\C,0,-0.266095,-0.652538,-0.00822544\H,0,-0.
 995268,-2.25122,-0.69581\H,0,0.0962307,-0.952714,1.87797\H,0,-2.521,-0
 .185523,0.743168\H,0,-1.2491,0.428739,-1.64895\H,0,-0.951816,2.60207,-
 0.636191\H,0,-0.939107,1.82583,1.00162\H,0,2.16195,0.815558,1.46655\H,

 Normal termination of Gaussian 16 at Tue Apr  8 19:16:46 2025.
