 Gaussian 16, Revision C.01,

 ----------------------------------------------------------------------
 #t hf aug-cc-pvdz symm=none int=(grid=ultrafine) guess=(read,tcheck) s
 table=(opt,rrhf)
 ----------------------------------------------------------------------
 -----
 title
 -----
 Symbolic Z-matrix:
 Charge =  0 Multiplicity = 1

 SCF Done:  E(RHF) =  -456.223471469     A.U. after   12 cycles
 Normal termination of Gaussian 16 at Tue Apr  8 21:08:47 2025.
 Gaussian 16:  ES64L-G16RevC.01  3-Jul-2019

 ----------------------------------------------------------------------
 #t hf aug-cc-pvdz iop(5/13=1,5/36=2,99/5=2) pseudo=read geom=check gue
 ss=(read,tcheck) scf=(maxcycle=1)
 ----------------------------------------------------------------------
 -----
 title
 -----
 Structure from the checkpoint file:  "ANI1ccx_1844_conf449_mol1.chk"
 Charge =  0 Multiplicity = 1

                         Standard orientation:
 ---------------------------------------------------------------------
 Center     Atomic      Atomic             Coordinates (Angstroms)
 Number     Number       Type             X           Y           Z
 ---------------------------------------------------------------------
      1          1           0       -0.823631   -1.479420   -0.908918
      2          1           0        1.226600    0.041531    2.504560
      3          1           0        0.023886   -0.407846    1.505040
      4          1           0        1.364908   -1.957932    0.275804
      5          1           0        1.369289   -0.635287   -0.871339
      6          1           0        2.646271    1.296377   -0.594476
      7          1           0       -2.393952   -1.794649   -1.066650
      8          1           0        1.492100    0.660411    0.353501
      9          1           0        0.287720    1.746869   -0.889349
     10          1           0       -1.120119    1.075860   -1.301120
     11          1           0       -1.258699    1.063820    0.776811
     12          1           0       -1.889300   -0.219745    0.594132
     13          8           0        1.146659   -1.641231   -0.761810
     14          8           0       -0.705652    1.843400   -0.884044
     15          8           0        1.073550   -0.347067    1.597930
     16          8           0        1.776411    0.951801   -0.559995
     17          8           0       -1.716071   -1.132719   -0.811523
     18          8           0       -1.690530    0.402068    1.372190
 ---------------------------------------------------------------------

 SCF Done:  E(RHF) =  -456.696573036     A.U. after    2 cycles

 The electronic state is 1-A.
 Alpha  occ. eigenvalues --  -20.59064 -20.57899 -20.57615 -20.54698 -20.53540
 Alpha  occ. eigenvalues --  -20.52882  -1.48364  -1.46189  -1.44588  -1.41525
 Alpha  occ. eigenvalues --   -1.39701  -1.37648  -0.78144  -0.74568  -0.71496
 Alpha  occ. eigenvalues --   -0.71042  -0.67317  -0.66916  -0.62404  -0.61477
 Alpha  occ. eigenvalues --   -0.60608  -0.56320  -0.55640  -0.52813  -0.51962
 Alpha  occ. eigenvalues --   -0.51181  -0.49952  -0.47588  -0.47349  -0.46559
 Alpha virt. eigenvalues --    0.02696   0.03652   0.04423   0.05990   0.07425
 Alpha virt. eigenvalues --    0.07821   0.08146   0.08480   0.09431   0.10140
 Alpha virt. eigenvalues --    0.10748   0.11729   0.17217   0.17997   0.18448

 Mulliken charges:
               1
     1  H    0.608808
     2  H    0.398698
     3  H    0.725974
     4  H    0.593838
     5  H    0.850820
     6  H    0.341285
     7  H    0.437317
     8  H    0.989756
     9  H    0.682741
    10  H    0.511108
    11  H    0.570947
    12  H    0.806907
    13  O   -1.367774
    14  O   -1.126293
    15  O   -1.270085
    16  O   -1.354137
    17  O   -1.162388
    18  O   -1.237523
 Sum of Mulliken charges =  -0.00000

 Dipole moment (field-independent basis, Debye):
    X=              2.5187    Y=             -1.3819    Z=              0.8157  Tot=              2.9864

 Test job not archived.
 1\1\GINC-SE163\SP\RHF\Aug-CC-pVDZ\H12O6\OHZDE\08-Apr-2025\0\\#t hf aug
 -cc-pvdz iop(5/13=1,5/36=2,99/5=2) pseudo=read geom=check guess=(read,
 tcheck) scf=(maxcycle=1)\\title\\0,1\H,0,-0.82363,-1.47942,-0.908918\H
 ,0,1.2266,0.0415324,2.50456\H,0,0.0238865,-0.407845,1.50504\H,0,1.3649
 1,-1.95793,0.275804\H,0,1.36929,-0.635285,-0.871339\H,0,2.64627,1.2963
 8,-0.594476\H,0,-2.39395,-1.79465,-1.06665\H,0,1.4921,0.660413,0.35350
 1\H,0,0.287719,1.74687,-0.889349\H,0,-1.12012,1.07586,-1.30112\H,0,-1.
 2587,1.06382,0.776811\H,0,-1.8893,-0.219746,0.594132\O,0,1.14666,-1.64

 Normal termination of Gaussian 16 at Tue Apr  8 21:08:53 2025.
