 Gaussian 16, Revision C.01,

 ----------------------------------------------------------------------
 #t hf aug-cc-pvdz symm=none int=(grid=ultrafine) guess=(read,tcheck) s
 table=(opt,rrhf)
 ----------------------------------------------------------------------
 -----
 title
 -----
 Symbolic Z-matrix:
 Charge =  0 Multiplicity = 1

 SCF Done:  E(RHF) =  -281.820050870     A.U. after   14 cycles
 Normal termination of Gaussian 16 at Tue Apr  8 21:12:21 2025.
 Gaussian 16:  ES64L-G16RevC.01  3-Jul-2019

 ----------------------------------------------------------------------
 #t hf aug-cc-pvdz iop(5/13=1,5/36=2,99/5=2) pseudo=read geom=check gue
 ss=(read,tcheck) scf=(maxcycle=1)
 ----------------------------------------------------------------------
 -----
 title
 -----
 Structure from the checkpoint file:  "ANI1ccx_1889_conf1_mol1.chk"
 Charge =  0 Multiplicity = 1

                         Standard orientation:
 ---------------------------------------------------------------------
 Center     Atomic      Atomic             Coordinates (Angstroms)
 Number     Number       Type             X           Y           Z
 ---------------------------------------------------------------------
      1          1           0       -0.548540    1.067420   -0.046134
      2          1           0       -2.019618   -0.801290    0.729559
      3          1           0        0.512553   -0.970771   -0.237818
      4          1           0        1.633812    0.740953    1.048280
      5          1           0        2.164952    1.035539   -0.423192
      6          7           0        1.342352    0.620890    0.053121
      7          8           0       -1.434078    0.745883   -0.104870
      8          8           0       -1.382948   -0.665817    0.003069
      9          8           0        1.424572   -0.757326   -0.078517
 ---------------------------------------------------------------------

 SCF Done:  E(RHF) =  -282.104328614     A.U. after    2 cycles

 The electronic state is 1-A.
 Alpha  occ. eigenvalues --  -20.62285 -20.59690 -20.57067 -15.56658  -1.59839
 Alpha  occ. eigenvalues --   -1.50360  -1.27604  -1.10283  -0.74950  -0.72155
 Alpha  occ. eigenvalues --   -0.71095  -0.68080  -0.66070  -0.61066  -0.52872
 Alpha  occ. eigenvalues --   -0.47940  -0.46318  -0.45072
 Alpha virt. eigenvalues --    0.03414   0.04546   0.06100   0.06639   0.08032
 Alpha virt. eigenvalues --    0.13921   0.16352   0.17043   0.17917   0.19375
 Alpha virt. eigenvalues --    0.19655   0.21225   0.22342   0.22776   0.23438

 Mulliken charges:
               1
     1  H    0.588257
     2  H    0.509420
     3  H    0.342855
     4  H    0.127905
     5  H    0.118508
     6  N    0.407163
     7  O   -0.573314
     8  O   -0.568022
     9  O   -0.952773
 Sum of Mulliken charges =  -0.00000

 Dipole moment (field-independent basis, Debye):
    X=              0.7789    Y=              0.7245    Z=              1.8181  Tot=              2.1064

 Test job not archived.
 1\1\GINC-SE143\SP\RHF\Aug-CC-pVDZ\H5N1O3\OHZDE\08-Apr-2025\0\\#t hf au
 g-cc-pvdz iop(5/13=1,5/36=2,99/5=2) pseudo=read geom=check guess=(read
 ,tcheck) scf=(maxcycle=1)\\title\\0,1\H,0,-0.548542,1.06742,-0.0461346
 \H,0,-2.01962,-0.80129,0.729559\H,0,0.512551,-0.970771,-0.237818\H,0,1
 .63381,0.740953,1.04828\H,0,2.16495,1.03554,-0.423192\N,0,1.34235,0.62
 089,0.0531208\O,0,-1.43408,0.745883,-0.10487\O,0,-1.38295,-0.665817,0.
 00306849\O,0,1.42457,-0.757326,-0.0785167\\Version=ES64L-G16RevC.01\St
 ate=1-A\HF=-282.1043286\RMSD=9.120e-03\Dipole=0.306443,0.285024,0.7153

 Normal termination of Gaussian 16 at Tue Apr  8 21:12:23 2025.
