 Gaussian 16, Revision C.01,

 ----------------------------------------------------------------------
 #t hf aug-cc-pvdz symm=none int=(grid=ultrafine) guess=(read,tcheck) s
 table=(opt,rrhf)
 ----------------------------------------------------------------------
 -----
 title
 -----
 Symbolic Z-matrix:
 Charge =  0 Multiplicity = 1

 SCF Done:  E(RHF) =  -408.765174271     A.U. after   13 cycles
 Normal termination of Gaussian 16 at Tue Apr  8 21:39:52 2025.
 Gaussian 16:  ES64L-G16RevC.01  3-Jul-2019

 ----------------------------------------------------------------------
 #t hf aug-cc-pvdz iop(5/13=1,5/36=2,99/5=2) pseudo=read geom=check gue
 ss=(read,tcheck) scf=(maxcycle=1)
 ----------------------------------------------------------------------
 -----
 title
 -----
 Structure from the checkpoint file:  "ANI1ccx_432_conf4_mol1.chk"
 Charge =  0 Multiplicity = 1

                         Standard orientation:
 ---------------------------------------------------------------------
 Center     Atomic      Atomic             Coordinates (Angstroms)
 Number     Number       Type             X           Y           Z
 ---------------------------------------------------------------------
      1          6           0       -0.281359   -0.256238    0.110157
      2          1           0        1.190437    2.170382    1.065150
      3          1           0        1.536507    2.233352   -0.590364
      4          1           0       -0.664831    1.671070   -0.480044
      5          1           0        0.425864   -2.145559    0.408865
      6          1           0        2.633900   -0.794464    0.139783
      7          1           0       -3.304110   -0.293026   -0.080441
      8          7           0        1.304888    1.642572    0.184987
      9          7           0        0.061028    1.047581   -0.113547
     10          7           0        0.758407   -1.181848    0.368629
     11          7           0       -1.497570   -0.776434    0.148941
     12          8           0        1.914621   -1.039807   -0.465066
     13          8           0       -2.479231    0.236380   -0.190803
 ---------------------------------------------------------------------

 SCF Done:  E(RHF) =  -409.173991937     A.U. after    2 cycles

 The electronic state is 1-A.
 Alpha  occ. eigenvalues --  -20.59222 -20.56760 -15.56543 -15.55476 -15.54895
 Alpha  occ. eigenvalues --  -15.52011 -11.35986  -1.48569  -1.45323  -1.31423
 Alpha  occ. eigenvalues --   -1.20762  -1.09607  -1.06290  -0.85558  -0.76101
 Alpha  occ. eigenvalues --   -0.75514  -0.73400  -0.70946  -0.67912  -0.65364
 Alpha  occ. eigenvalues --   -0.62503  -0.59870  -0.53356  -0.50600  -0.48594
 Alpha  occ. eigenvalues --   -0.46734  -0.45041  -0.36204
 Alpha virt. eigenvalues --    0.02914   0.04806   0.05471   0.05697   0.05952
 Alpha virt. eigenvalues --    0.06587   0.11839   0.12164   0.13310   0.13834
 Alpha virt. eigenvalues --    0.14662   0.15272   0.15941   0.17175   0.18029

 Mulliken charges:
               1
     1  C   -1.365593
     2  H    0.217404
     3  H    0.149088
     4  H    0.260416
     5  H    0.226205
     6  H    0.370925
     7  H    0.342571
     8  N   -0.166337
     9  N    0.114040
    10  N    0.996299
    11  N    1.108285
    12  O   -1.124349
    13  O   -1.128957
 Sum of Mulliken charges =  -0.00000

 Dipole moment (field-independent basis, Debye):
    X=              1.6568    Y=              2.7018    Z=              0.5203  Tot=              3.2118

 Test job not archived.
 1\1\GINC-SE048\SP\RHF\Aug-CC-pVDZ\C1H6N4O2\OHZDE\08-Apr-2025\0\\#t hf
 aug-cc-pvdz iop(5/13=1,5/36=2,99/5=2) pseudo=read geom=check guess=(re
 ad,tcheck) scf=(maxcycle=1)\\title\\0,1\C,0,-0.281359,-0.256238,0.1101
 57\H,0,1.19044,2.17038,1.06515\H,0,1.53651,2.23335,-0.590364\H,0,-0.66
 4829,1.67107,-0.480044\H,0,0.425862,-2.14556,0.408865\H,0,2.6339,-0.79
 4468,0.139783\H,0,-3.30411,-0.293023,-0.0804411\N,0,1.30489,1.64257,0.
 184987\N,0,0.0610295,1.04758,-0.113547\N,0,0.758406,-1.18185,0.368629\
 N,0,-1.49757,-0.776433,0.148941\O,0,1.91462,-1.03981,-0.465066\O,0,-2.

 Normal termination of Gaussian 16 at Tue Apr  8 21:39:56 2025.
