 Gaussian 16, Revision C.01,

 ----------------------------------------------------------------------
 #t hf aug-cc-pvdz symm=none int=(grid=ultrafine) guess=(read,tcheck) s
 table=(opt,rrhf)
 ----------------------------------------------------------------------
 -----
 title
 -----
 Symbolic Z-matrix:
 Charge =  0 Multiplicity = 1

 SCF Done:  E(RHF) =  -588.726453593     A.U. after   13 cycles
 Normal termination of Gaussian 16 at Tue Apr  8 19:25:25 2025.
 Gaussian 16:  ES64L-G16RevC.01  3-Jul-2019

 ----------------------------------------------------------------------
 #t hf aug-cc-pvdz iop(5/13=1,5/36=2,99/5=2) pseudo=read geom=check gue
 ss=(read,tcheck) scf=(maxcycle=1)
 ----------------------------------------------------------------------
 -----
 title
 -----
 Structure from the checkpoint file:  "ANI1ccx_1232_conf1_mol2.chk"
 Charge =  0 Multiplicity = 1

                         Standard orientation:
 ---------------------------------------------------------------------
 Center     Atomic      Atomic             Coordinates (Angstroms)
 Number     Number       Type             X           Y           Z
 ---------------------------------------------------------------------
      1          6           0       -2.227740   -1.081989    0.067611
      2          6           0       -0.887402   -0.435971    0.443967
      3          6           0        0.201004   -1.505439    0.535993
      4          6           0        1.826880   -0.181359   -0.675751
      5          6           0        0.970251    1.007851   -0.307119
      6          6           0       -0.515045    0.686685   -0.564341
      7          1           0       -1.106321    2.137161    0.527249
      8          1           0       -0.669039    0.342528   -1.575340
      9          1           0        1.931770    1.055281    1.423480
     10          1           0        1.293470    1.831201   -0.942400
     11          1           0        3.574720   -0.887449   -0.014887
     12          1           0        2.174960   -0.137452   -1.709120
     13          1           0        0.809302   -1.366869    1.470320
     14          1           0       -0.252038   -2.529469    0.557808
     15          1           0       -1.042750    0.033638    1.420720
     16          1           0       -2.477650   -1.879610    0.807183
     17          1           0       -2.089450   -1.604359   -0.888351
     18          1           0       -2.936720    0.714337   -0.280044
     19          1           0        1.635350   -2.212219   -0.797123
     20          7           0        1.051990   -1.384319   -0.616364
     21          8           0        1.044290    1.311821    1.070380
     22          8           0       -3.288780   -0.143976    0.024787
     23          8           0        2.976630   -0.103959    0.213764
     24          8           0       -1.284290    1.842971   -0.394819
 ---------------------------------------------------------------------

 SCF Done:  E(RHF) =  -589.329842507     A.U. after    2 cycles

 The electronic state is 1-A.
 Alpha  occ. eigenvalues --  -20.57926 -20.56074 -20.55273 -20.52559 -15.50668
 Alpha  occ. eigenvalues --  -11.33152 -11.29239 -11.29109 -11.27508 -11.27078
 Alpha  occ. eigenvalues --  -11.23191  -1.48325  -1.46685  -1.43886  -1.42370
 Alpha  occ. eigenvalues --   -1.23868  -1.06745  -1.03540  -0.92068  -0.89267
 Alpha  occ. eigenvalues --   -0.84567  -0.79218  -0.75005  -0.73440  -0.71103
 Alpha  occ. eigenvalues --   -0.67567  -0.67135  -0.64065  -0.62726  -0.61479
 Alpha  occ. eigenvalues --   -0.60623  -0.59461  -0.57992  -0.57442  -0.56153
 Alpha  occ. eigenvalues --   -0.53361  -0.50362  -0.49169  -0.48795  -0.48424
 Alpha  occ. eigenvalues --   -0.45417  -0.43151  -0.41533  -0.40669
 Alpha virt. eigenvalues --    0.02110   0.03617   0.03891   0.04536   0.05323
 Alpha virt. eigenvalues --    0.05457   0.05562   0.05771   0.06215   0.08738
 Alpha virt. eigenvalues --    0.09293   0.09369   0.09748   0.11796   0.12731

 Mulliken charges:
               1
     1  C    0.760469
     2  C   -0.680118
     3  C   -0.386987
     4  C    0.665914
     5  C    1.044753
     6  C    1.249403
     7  H    0.261010
     8  H    0.068220
     9  H    0.364698
    10  H    0.175895
    11  H    0.345271
    12  H    0.021295
    13  H    0.152120
    14  H    0.060085
    15  H    0.117275
    16  H    0.193188
    17  H    0.243334
    18  H    0.467147
    19  H    0.227741
    20  N    0.550095
    21  O   -1.555946
    22  O   -1.321702
    23  O   -1.520349
    24  O   -1.502812
 Sum of Mulliken charges =  -0.00000

 Dipole moment (field-independent basis, Debye):
    X=              4.8496    Y=             -2.3771    Z=             -0.3621  Tot=              5.4130

 Test job not archived.
 1\1\GINC-SE079\SP\RHF\Aug-CC-pVDZ\C6H13N1O4\OHZDE\08-Apr-2025\0\\#t hf
  aug-cc-pvdz iop(5/13=1,5/36=2,99/5=2) pseudo=read geom=check guess=(r
 ead,tcheck) scf=(maxcycle=1)\\title\\0,1\C,0,-2.22774,-1.08199,0.06761
 08\C,0,-0.887402,-0.435972,0.443967\C,0,0.201004,-1.50544,0.535993\C,0
 ,1.82688,-0.18136,-0.675751\C,0,0.970251,1.00785,-0.307119\C,0,-0.5150
 45,0.686684,-0.564341\H,0,-1.10632,2.13716,0.527249\H,0,-0.669039,0.34
 2527,-1.57534\H,0,1.93177,1.05528,1.42348\H,0,1.29347,1.8312,-0.9424\H
 ,0,3.57472,-0.88745,-0.0148873\H,0,2.17496,-0.137453,-1.70912\H,0,0.80

 Normal termination of Gaussian 16 at Tue Apr  8 19:25:43 2025.
