 Gaussian 16, Revision C.01,

 ----------------------------------------------------------------------
 #t hf aug-cc-pvdz symm=none int=(grid=ultrafine) guess=(read,tcheck) s
 table=(opt,rrhf)
 ----------------------------------------------------------------------
 -----
 title
 -----
 Symbolic Z-matrix:
 Charge =  0 Multiplicity = 1

 SCF Done:  E(RHF) =  -380.226857604     A.U. after   11 cycles
 Normal termination of Gaussian 16 at Tue Apr  8 21:04:28 2025.
 Gaussian 16:  ES64L-G16RevC.01  3-Jul-2019

 ----------------------------------------------------------------------
 #t hf aug-cc-pvdz iop(5/13=1,5/36=2,99/5=2) pseudo=read geom=check gue
 ss=(read,tcheck) scf=(maxcycle=1)
 ----------------------------------------------------------------------
 -----
 title
 -----
 Structure from the checkpoint file:  "ANI1ccx_1843_conf27_mol1.chk"
 Charge =  0 Multiplicity = 1

                         Standard orientation:
 ---------------------------------------------------------------------
 Center     Atomic      Atomic             Coordinates (Angstroms)
 Number     Number       Type             X           Y           Z
 ---------------------------------------------------------------------
      1          1           0        0.937880    0.659629   -1.386331
      2          1           0        1.941821   -0.212496   -0.621994
      3          1           0       -1.063188    1.126601   -0.166345
      4          1           0       -0.460578    2.592441   -0.178945
      5          1           0        0.185980   -1.332570   -0.688850
      6          1           0        0.280237   -1.468540    0.829439
      7          1           0        1.757261    0.243524    2.195039
      8          1           0        0.764898    0.851360    1.093879
      9          1           0       -1.654060   -0.757049    0.175654
     10          1           0       -2.885609   -0.232121   -0.637259
     11          8           0        1.417831   -0.190317   -1.442101
     12          8           0       -0.209087    1.660601   -0.136463
     13          8           0       -0.262005   -1.753909    0.083250
     14          8           0        1.382421    0.099800    1.300469
     15          8           0       -2.304739   -0.000021    0.118057
 ---------------------------------------------------------------------

 SCF Done:  E(RHF) =  -380.622680585     A.U. after    2 cycles

 The electronic state is 1-A.
 Alpha  occ. eigenvalues --  -20.57176 -20.56522 -20.55756 -20.53722 -20.53321
 Alpha  occ. eigenvalues --   -1.46216  -1.43956  -1.43495  -1.42161  -1.40894
 Alpha  occ. eigenvalues --   -0.74422  -0.72586  -0.70267  -0.69501  -0.69081
 Alpha  occ. eigenvalues --   -0.61672  -0.60844  -0.58335  -0.57574  -0.53656
 Alpha  occ. eigenvalues --   -0.51307  -0.50466  -0.49749  -0.47657  -0.47083
 Alpha virt. eigenvalues --    0.02913   0.03820   0.04907   0.06641   0.07657
 Alpha virt. eigenvalues --    0.08049   0.08472   0.09232   0.09658   0.11125
 Alpha virt. eigenvalues --    0.16471   0.18175   0.19634   0.20592   0.21666

 Mulliken charges:
               1
     1  H    0.595515
     2  H    0.585591
     3  H    0.821380
     4  H    0.460637
     5  H    0.654793
     6  H    0.607070
     7  H    0.479561
     8  H    0.732575
     9  H    0.659199
    10  H    0.374486
    11  O   -1.077860
    12  O   -1.405989
    13  O   -1.304869
    14  O   -1.166526
    15  O   -1.015565
 Sum of Mulliken charges =  -0.00000

 Dipole moment (field-independent basis, Debye):
    X=             -0.4820    Y=              3.2424    Z=              1.4129  Tot=              3.5696

 Test job not archived.
 1\1\GINC-SE038\SP\RHF\Aug-CC-pVDZ\H10O5\OHZDE\08-Apr-2025\0\\#t hf aug
 -cc-pvdz iop(5/13=1,5/36=2,99/5=2) pseudo=read geom=check guess=(read,
 tcheck) scf=(maxcycle=1)\\title\\0,1\H,0,0.937879,0.659629,-1.38633\H,
 0,1.94182,-0.212495,-0.621993\H,0,-1.06319,1.1266,-0.166344\H,0,-0.460
 581,2.59244,-0.178944\H,0,0.18598,-1.33257,-0.688849\H,0,0.280237,-1.4
 6854,0.82944\H,0,1.75726,0.243525,2.19504\H,0,0.764897,0.85136,1.09388
 \H,0,-1.65406,-0.757051,0.175655\H,0,-2.88561,-0.232124,-0.637258\O,0,
 1.41783,-0.190317,-1.4421\O,0,-0.209089,1.6606,-0.136462\O,0,-0.262005

 Normal termination of Gaussian 16 at Tue Apr  8 21:04:33 2025.
