 Gaussian 16, Revision C.01,

 ----------------------------------------------------------------------
 #t hf aug-cc-pvdz symm=none int=(grid=ultrafine) guess=(read,tcheck) s
 table=(opt,rrhf)
 ----------------------------------------------------------------------
 -----
 title
 -----
 Symbolic Z-matrix:
 Charge =  0 Multiplicity = 1

 SCF Done:  E(RHF) =  -818.440749491     A.U. after   14 cycles
 Normal termination of Gaussian 16 at Tue Apr  8 21:48:12 2025.
 Gaussian 16:  ES64L-G16RevC.01  3-Jul-2019

 ----------------------------------------------------------------------
 #t hf aug-cc-pvdz iop(5/13=1,5/36=2,99/5=2) pseudo=read geom=check gue
 ss=(read,tcheck) scf=(maxcycle=1)
 ----------------------------------------------------------------------
 -----
 title
 -----
 Structure from the checkpoint file:  "ANI1ccx_298_conf3_mol1.chk"
 Charge =  0 Multiplicity = 1

                         Standard orientation:
 ---------------------------------------------------------------------
 Center     Atomic      Atomic             Coordinates (Angstroms)
 Number     Number       Type             X           Y           Z
 ---------------------------------------------------------------------
      1          6           0       -3.195360    0.131696   -1.726410
      2          6           0        2.317338   -2.474962    0.485976
      3          6           0        3.046389   -1.290643   -0.237146
      4          6           0        2.796921    0.889463   -1.289060
      5          6           0        0.881858    2.452099   -1.063650
      6          6           0        0.146122    2.246500    1.303310
      7          6           0        2.346432    2.215338   -0.828732
      8          6           0       -0.610139    0.157957    2.583040
      9          6           0       -1.703001   -0.752412    2.014070
     10          6           0       -2.486751   -1.541099   -0.111235
     11          6           0       -2.525431   -1.175508   -1.604450
     12          6           0       -0.826836    1.598630    2.282490
     13          1           0        2.569632    2.340698    0.242390
     14          1           0       -0.906702    1.739510   -0.331663
     15          1           0        0.561013    2.003909   -1.982390
     16          1           0        0.672037    3.527079   -1.114580
     17          1           0        2.977542    3.026027   -1.318330
     18          1           0        3.897131    0.811813   -1.246600
     19          1           0        0.668561   -2.358911   -0.757356
     20          1           0        1.260630   -0.391489   -0.412473
     21          1           0        2.504618   -2.518582    1.595470
     22          1           0        2.759308   -3.353302    0.071529
     23          1           0        0.309259   -2.795331    0.820426
     24          1           0       -0.132897    3.334580    1.217910
     25          1           0        2.608081    0.682942   -2.363510
     26          1           0        1.136932    2.159279    1.697740
     27          1           0        0.399683   -0.075907    2.145220
     28          1           0       -1.831219    1.626561    1.810850
     29          1           0       -5.264070   -0.480277   -1.822740
     30          1           0       -4.818420    0.503597   -0.517389
     31          1           0       -3.012530    0.491924   -2.794370
     32          1           0       -2.644189    0.782572   -1.057380
     33          1           0       -0.900772    2.216190    3.174900
     34          1           0       -3.067221   -1.903428   -2.239000
     35          1           0       -1.516631   -1.127529   -2.082850
     36          1           0       -2.021942   -2.486459   -0.011738
     37          1           0       -0.902169   -0.347828    0.164090
     38          1           0       -1.508301   -1.808059    2.345990
     39          1           0       -2.696360   -0.563108    2.480050
     40          1           0       -0.566138   -0.000589    3.693410
     41          1           0       -3.498671   -1.668008    0.329598
     42          7           0        0.901642   -2.237111    0.245568
     43          7           0       -4.578010    0.148899   -1.421830
     44          7           0       -1.787050   -0.499973    0.579884
     45          7           0        0.068565    1.732270   -0.093126
     46          7           0        2.231070   -0.201964   -0.501518
     47          8           0        4.248129   -1.338134   -0.531153
 ---------------------------------------------------------------------

 SCF Done:  E(RHF) =  -819.316604934     A.U. after    2 cycles

 The electronic state is 1-A.
 Alpha  occ. eigenvalues --  -20.49618 -15.50622 -15.50142 -15.48287 -15.47230
 Alpha  occ. eigenvalues --  -15.47178 -11.34543 -11.28003 -11.25983 -11.25450
 Alpha  occ. eigenvalues --  -11.25439 -11.25174 -11.24746 -11.24610 -11.22833
 Alpha  occ. eigenvalues --  -11.22742 -11.22485 -11.22101  -1.43039  -1.23735
 Alpha  occ. eigenvalues --   -1.22441  -1.20651  -1.18570  -1.17659  -1.07667
 Alpha  occ. eigenvalues --   -1.04968  -1.02452  -0.97006  -0.95297  -0.91177
 Alpha  occ. eigenvalues --   -0.89265  -0.86404  -0.81770  -0.80638  -0.79974
 Alpha  occ. eigenvalues --   -0.78818  -0.74062  -0.71112  -0.70130  -0.68919
 Alpha  occ. eigenvalues --   -0.68100  -0.67628  -0.66868  -0.65294  -0.64588
 Alpha  occ. eigenvalues --   -0.64058  -0.63234  -0.62381  -0.60862  -0.60395
 Alpha  occ. eigenvalues --   -0.59725  -0.58421  -0.57381  -0.56860  -0.55283
 Alpha  occ. eigenvalues --   -0.53834  -0.52542  -0.51776  -0.51267  -0.50916
 Alpha  occ. eigenvalues --   -0.49859  -0.49440  -0.48233  -0.47978  -0.46952
 Alpha  occ. eigenvalues --   -0.45544  -0.45221  -0.40680  -0.40623  -0.39773
 Alpha  occ. eigenvalues --   -0.39245  -0.39080
 Alpha virt. eigenvalues --    0.02776   0.02964   0.03057   0.03333   0.03537
 Alpha virt. eigenvalues --    0.03648   0.04254   0.04410   0.04979   0.06381
 Alpha virt. eigenvalues --    0.06650   0.06739   0.06987   0.07147   0.07420

 Mulliken charges:
               1
     1  C   -1.243920
     2  C   -0.587293
     3  C    0.857967
     4  C   -0.695223
     5  C   -0.364285
     6  C   -0.642824
     7  C   -0.103497
     8  C   -0.275367
     9  C   -0.566953
    10  C    0.251794
    11  C   -0.303707
    12  C   -0.021306
    13  H    0.107170
    14  H    0.157338
    15  H    0.013436
    16  H   -0.024460
    17  H    0.176421
    18  H    0.023713
    19  H    0.269120
    20  H   -0.176969
    21  H    0.186884
    22  H    0.077740
    23  H   -0.003446
    24  H    0.194328
    25  H    0.094491
    26  H   -0.158881
    27  H    0.168383
    28  H    0.344427
    29  H    0.088280
    30  H    0.156682
    31  H    0.132849
    32  H    0.329670
    33  H    0.005071
    34  H    0.049872
    35  H    0.205982
    36  H   -0.068064
    37  H   -1.636644
    38  H    0.082839
    39  H   -0.002626
    40  H    0.149298
    41  H    0.216356
    42  N    0.286622
    43  N    0.740200
    44  N    1.310790
    45  N    0.446284
    46  N    1.163123
    47  O   -1.411663
 Sum of Mulliken charges =  -0.00000

 Dipole moment (field-independent basis, Debye):
    X=             -3.5949    Y=             -0.7334    Z=              1.0711  Tot=              3.8221

 Test job not archived.
 1\1\GINC-SE398\SP\RHF\Aug-CC-pVDZ\C12H29N5O1\OHZDE\08-Apr-2025\0\\#t h
 f aug-cc-pvdz iop(5/13=1,5/36=2,99/5=2) pseudo=read geom=check guess=(
 read,tcheck) scf=(maxcycle=1)\\title\\0,1\C,0,-3.19536,0.131694,-1.726
 41\C,0,2.31734,-2.47496,0.485976\C,0,3.04639,-1.29064,-0.237146\C,0,2.
 79692,0.889465,-1.28906\C,0,0.881856,2.4521,-1.06365\C,0,0.14612,2.246
 5,1.30331\C,0,2.34643,2.21534,-0.828732\C,0,-0.610139,0.157957,2.58304
 \C,0,-1.703,-0.752413,2.01407\C,0,-2.48675,-1.5411,-0.111235\C,0,-2.52
 543,-1.17551,-1.60445\C,0,-0.826837,1.59863,2.28249\H,0,2.56963,2.3407

 Normal termination of Gaussian 16 at Tue Apr  8 21:49:55 2025.
