 Gaussian 16, Revision C.01,

 ----------------------------------------------------------------------
 #t hf aug-cc-pvdz symm=none int=(grid=ultrafine) guess=(read,tcheck) s
 table=(opt,rrhf)
 ----------------------------------------------------------------------
 -----
 title
 -----
 Symbolic Z-matrix:
 Charge =  0 Multiplicity = 1

 SCF Done:  E(RHF) =  -405.926460539     A.U. after   15 cycles
 Normal termination of Gaussian 16 at Tue Apr  8 21:47:15 2025.
 Gaussian 16:  ES64L-G16RevC.01  3-Jul-2019

 ----------------------------------------------------------------------
 #t hf aug-cc-pvdz iop(5/13=1,5/36=2,99/5=2) pseudo=read geom=check gue
 ss=(read,tcheck) scf=(maxcycle=1)
 ----------------------------------------------------------------------
 -----
 title
 -----
 Structure from the checkpoint file:  "ANI1ccx_557_conf1_mol2.chk"
 Charge =  0 Multiplicity = 1

                         Standard orientation:
 ---------------------------------------------------------------------
 Center     Atomic      Atomic             Coordinates (Angstroms)
 Number     Number       Type             X           Y           Z
 ---------------------------------------------------------------------
      1          6           0        1.329810    0.039849   -0.014156
      2          6           0       -0.668254    0.645656   -0.026592
      3          1           0        3.078881   -0.838090    0.280948
      4          1           0        3.015689    0.702663    0.636772
      5          1           0       -1.767682    2.107358   -0.743368
      6          1           0       -1.826692    1.968118    0.869290
      7          1           0       -2.145449   -1.282802    0.935762
      8          1           0       -2.408699   -1.346812   -0.611591
      9          7           0        2.709320    0.072194   -0.028665
     10          7           0        0.552995    1.142621   -0.037357
     11          7           0       -1.851012    1.411058    0.021369
     12          7           0       -0.628029   -0.713934   -0.134931
     13          7           0       -1.722539   -1.550932    0.100956
     14          7           0        0.665639   -1.135789   -0.081847
 ---------------------------------------------------------------------

 SCF Done:  E(RHF) =  -406.347488781     A.U. after    2 cycles

 The electronic state is 1-A.
 Alpha  occ. eigenvalues --  -15.60564 -15.54688 -15.53792 -15.51341 -15.50936
 Alpha  occ. eigenvalues --  -15.49271 -11.35187 -11.32586  -1.41717  -1.28494
 Alpha  occ. eigenvalues --   -1.24724  -1.21366  -1.16267  -1.04649  -0.88374
 Alpha  occ. eigenvalues --   -0.86022  -0.79104  -0.76727  -0.73372  -0.72229
 Alpha  occ. eigenvalues --   -0.69518  -0.66464  -0.63404  -0.58217  -0.53673
 Alpha  occ. eigenvalues --   -0.52497  -0.50184  -0.48805  -0.45302  -0.37083
 Alpha virt. eigenvalues --    0.02450   0.04083   0.04825   0.05279   0.05810
 Alpha virt. eigenvalues --    0.06946   0.09839   0.10734   0.11292   0.12045
 Alpha virt. eigenvalues --    0.12285   0.13078   0.14260   0.15137   0.15628

 Mulliken charges:
               1
     1  C   -1.555171
     2  C   -1.183501
     3  H    0.244711
     4  H    0.135800
     5  H    0.326576
     6  H    0.308244
     7  H    0.161103
     8  H    0.220000
     9  N    0.539585
    10  N    0.637410
    11  N    0.471839
    12  N   -0.450966
    13  N    0.012665
    14  N    0.131706
 Sum of Mulliken charges =  -0.00000

 Dipole moment (field-independent basis, Debye):
    X=             -2.2701    Y=              2.4856    Z=              1.9954  Tot=              3.9132

 Test job not archived.
 1\1\GINC-SE365\SP\RHF\Aug-CC-pVDZ\C2H6N6\OHZDE\08-Apr-2025\0\\#t hf au
 g-cc-pvdz iop(5/13=1,5/36=2,99/5=2) pseudo=read geom=check guess=(read
 ,tcheck) scf=(maxcycle=1)\\title\\0,1\C,0,1.32981,0.0398474,-0.0141558
 \C,0,-0.668253,0.645657,-0.0265923\H,0,3.07888,-0.838093,0.280948\H,0,
 3.01569,0.70266,0.636772\H,0,-1.76768,2.10736,-0.743368\H,0,-1.82669,1
 .96812,0.86929\H,0,-2.14545,-1.2828,0.935762\H,0,-2.4087,-1.34681,-0.6
 11591\N,0,2.70932,0.0721917,-0.0286649\N,0,0.552996,1.14262,-0.0373572
 \N,0,-1.85101,1.41106,0.0213691\N,0,-0.62803,-0.713933,-0.134931\N,0,-

 Normal termination of Gaussian 16 at Tue Apr  8 21:47:20 2025.
