 Gaussian 16, Revision C.01,

 ----------------------------------------------------------------------
 #t hf aug-cc-pvdz symm=none int=(grid=ultrafine) guess=(read,tcheck) s
 table=(opt,rrhf)
 ----------------------------------------------------------------------
 -----
 title
 -----
 Symbolic Z-matrix:
 Charge =  0 Multiplicity = 1

 SCF Done:  E(RHF) =  -532.260765041     A.U. after   11 cycles
 Normal termination of Gaussian 16 at Tue Apr  8 21:10:01 2025.
 Gaussian 16:  ES64L-G16RevC.01  3-Jul-2019

 ----------------------------------------------------------------------
 #t hf aug-cc-pvdz iop(5/13=1,5/36=2,99/5=2) pseudo=read geom=check gue
 ss=(read,tcheck) scf=(maxcycle=1)
 ----------------------------------------------------------------------
 -----
 title
 -----
 Structure from the checkpoint file:  "ANI1ccx_1845_conf420_mol1.chk"
 Charge =  0 Multiplicity = 1

                         Standard orientation:
 ---------------------------------------------------------------------
 Center     Atomic      Atomic             Coordinates (Angstroms)
 Number     Number       Type             X           Y           Z
 ---------------------------------------------------------------------
      1          1           0       -1.345425   -2.770683    0.928118
      2          1           0        1.124514   -2.207099   -1.441750
      3          1           0        0.178108   -1.973310   -0.182348
      4          1           0       -2.548440    0.154030    0.237375
      5          1           0       -3.707498   -0.669572   -0.609110
      6          1           0       -2.068436   -1.919984   -0.137032
      7          1           0       -1.230333    2.140817    0.019035
      8          1           0        2.762399    0.696453   -0.554414
      9          1           0       -2.305953    2.190455    1.128430
     10          1           0        2.311102   -1.082846    0.786375
     11          1           0        3.045171   -0.144522    1.821150
     12          1           0        0.303921    3.596800   -0.454859
     13          1           0        1.055616    2.289071   -0.150677
     14          1           0        1.458351   -0.080871   -0.864311
     15          8           0       -1.194395   -2.460223    0.039307
     16          8           0        1.826719    0.850361   -1.031360
     17          8           0       -3.017938   -0.754257    0.075937
     18          8           0        3.212131   -0.528191    0.931106
     19          8           0        1.159164   -1.822458   -0.402360
     20          8           0       -2.143403    1.845706    0.222637
     21          8           0        0.278585    2.841720    0.098986
 ---------------------------------------------------------------------

 SCF Done:  E(RHF) =  -532.811622145     A.U. after    2 cycles

 The electronic state is 1-A.
 Alpha  occ. eigenvalues --  -20.56809 -20.55442 -20.55356 -20.55227 -20.54885
 Alpha  occ. eigenvalues --  -20.54819 -20.52981  -1.45786  -1.45225  -1.43359
 Alpha  occ. eigenvalues --   -1.42324  -1.40701  -1.38847  -1.37525  -0.72827
 Alpha  occ. eigenvalues --   -0.72336  -0.72012  -0.70922  -0.70027  -0.66781
 Alpha  occ. eigenvalues --   -0.63953  -0.62710  -0.61134  -0.58441  -0.57715
 Alpha  occ. eigenvalues --   -0.55287  -0.54535  -0.52931  -0.50123  -0.49998
 Alpha  occ. eigenvalues --   -0.49247  -0.48857  -0.47643  -0.47524  -0.45686
 Alpha virt. eigenvalues --    0.03230   0.04033   0.04292   0.04905   0.05967
 Alpha virt. eigenvalues --    0.06283   0.07943   0.08296   0.09231   0.09793
 Alpha virt. eigenvalues --    0.10314   0.10740   0.11756   0.12328   0.17503

 Mulliken charges:
               1
     1  H    0.316018
     2  H    0.484894
     3  H    1.105802
     4  H    0.798422
     5  H    0.376630
     6  H    0.817070
     7  H    0.764764
     8  H    0.585309
     9  H    0.369608
    10  H    0.725838
    11  H    0.380747
    12  H    0.306754
    13  H    0.665775
    14  H    0.768442
    15  O   -1.257950
    16  O   -1.386308
    17  O   -1.177088
    18  O   -0.988641
    19  O   -1.538568
    20  O   -1.116586
    21  O   -1.000932
 Sum of Mulliken charges =   0.00000

 Dipole moment (field-independent basis, Debye):
    X=             -3.0410    Y=              0.6881    Z=              1.0945  Tot=              3.3045

 Test job not archived.
 1\1\GINC-SE340\SP\RHF\Aug-CC-pVDZ\H14O7\OHZDE\08-Apr-2025\0\\#t hf aug
 -cc-pvdz iop(5/13=1,5/36=2,99/5=2) pseudo=read geom=check guess=(read,
 tcheck) scf=(maxcycle=1)\\title\\0,1\H,0,-1.34543,-2.77068,0.928118\H,
 0,1.12451,-2.2071,-1.44175\H,0,0.178104,-1.97331,-0.182348\H,0,-2.5484
 4,0.154035,0.237375\H,0,-3.7075,-0.669565,-0.60911\H,0,-2.06844,-1.919
 98,-0.137032\H,0,-1.23033,2.14082,0.0190349\H,0,2.7624,0.696449,-0.554
 414\H,0,-2.30595,2.19046,1.12843\H,0,2.3111,-1.08285,0.786375\H,0,3.04
 517,-0.144527,1.82115\H,0,0.303927,3.5968,-0.454859\H,0,1.05562,2.2890

 Normal termination of Gaussian 16 at Tue Apr  8 21:10:07 2025.
