 Gaussian 16, Revision C.01,

 ----------------------------------------------------------------------
 #t hf aug-cc-pvdz symm=none int=(grid=ultrafine) guess=(read,tcheck) s
 table=(opt,rrhf)
 ----------------------------------------------------------------------
 -----
 title
 -----
 Symbolic Z-matrix:
 Charge =  0 Multiplicity = 1

 SCF Done:  E(RHF) =  -602.133284370     A.U. after   16 cycles
 Normal termination of Gaussian 16 at Tue Apr  8 19:49:18 2025.
 Gaussian 16:  ES64L-G16RevC.01  3-Jul-2019

 ----------------------------------------------------------------------
 #t hf aug-cc-pvdz iop(5/13=1,5/36=2,99/5=2) pseudo=read geom=check gue
 ss=(read,tcheck) scf=(maxcycle=1)
 ----------------------------------------------------------------------
 -----
 title
 -----
 Structure from the checkpoint file:  "ANI1ccx_1496_conf2_mol1.chk"
 Charge =  0 Multiplicity = 1

                         Standard orientation:
 ---------------------------------------------------------------------
 Center     Atomic      Atomic             Coordinates (Angstroms)
 Number     Number       Type             X           Y           Z
 ---------------------------------------------------------------------
      1          6           0        0.543154    1.553491   -0.219418
      2          6           0       -0.536965    0.446325   -0.013421
      3          6           0       -2.709050   -0.013832    0.112927
      4          6           0       -2.370780   -1.313499   -0.006767
      5          6           0       -1.066170   -1.768209   -0.248483
      6          6           0       -0.091558   -0.814423   -0.188705
      7          6           0        1.441100   -1.171719    0.035251
      8          1           0        2.580830   -1.012129    1.621070
      9          1           0       -0.926653   -2.829789   -0.300211
     10          1           0       -3.135900   -2.031879   -0.190691
     11          1           0       -0.876798    3.015071    0.175749
     12          1           0        0.824578    3.484741   -0.055722
     13          1           0       -3.806290    0.261683    0.168368
     14          7           0        0.103001    2.764311    0.003865
     15          7           0       -1.780120    0.925937    0.157513
     16          8           0        1.743700   -0.755821    1.258240
     17          8           0        1.769670    1.365451   -0.424708
     18          8           0        2.214340   -1.638159   -0.755595
 ---------------------------------------------------------------------

 SCF Done:  E(RHF) =  -602.728830641     A.U. after    2 cycles

 The electronic state is 1-A.
 Alpha  occ. eigenvalues --  -20.59440 -20.53689 -20.50245 -15.54248 -15.52969
 Alpha  occ. eigenvalues --  -11.41147 -11.36410 -11.31316 -11.30704 -11.29187
 Alpha  occ. eigenvalues --  -11.28446 -11.26383  -1.55232  -1.45587  -1.43552
 Alpha  occ. eigenvalues --   -1.30763  -1.23329  -1.14033  -1.08456  -0.93993
 Alpha  occ. eigenvalues --   -0.92996  -0.86972  -0.84462  -0.78958  -0.74808
 Alpha  occ. eigenvalues --   -0.73661  -0.70115  -0.69676  -0.66372  -0.63861
 Alpha  occ. eigenvalues --   -0.62698  -0.62166  -0.59869  -0.58522  -0.57540
 Alpha  occ. eigenvalues --   -0.55012  -0.50936  -0.47585  -0.45446  -0.42821
 Alpha  occ. eigenvalues --   -0.42192  -0.41989  -0.38701
 Alpha virt. eigenvalues --    0.02556   0.03397   0.03742   0.04177   0.04494
 Alpha virt. eigenvalues --    0.05324   0.07026   0.07389   0.08573   0.08802
 Alpha virt. eigenvalues --    0.10391   0.10969   0.11627   0.12191   0.12538

 Mulliken charges:
               1
     1  C    0.087432
     2  C   -1.472810
     3  C   -0.909299
     4  C    0.615053
     5  C   -0.142985
     6  C    1.080524
     7  C    2.457315
     8  H    0.366418
     9  H   -0.189301
    10  H   -0.212771
    11  H    0.106819
    12  H    0.146481
    13  H   -0.101540
    14  N    0.850606
    15  N    1.366617
    16  O   -1.263562
    17  O   -1.413957
    18  O   -1.371040
 Sum of Mulliken charges =   0.00000

 Dipole moment (field-independent basis, Debye):
    X=             -4.4391    Y=             -0.7030    Z=              2.2425  Tot=              5.0228

 Test job not archived.
 1\1\GINC-SE212\SP\RHF\Aug-CC-pVDZ\C7H6N2O3\OHZDE\08-Apr-2025\0\\#t hf
 aug-cc-pvdz iop(5/13=1,5/36=2,99/5=2) pseudo=read geom=check guess=(re
 ad,tcheck) scf=(maxcycle=1)\\title\\0,1\C,0,0.543154,1.55349,-0.219418
 \C,0,-0.536965,0.446324,-0.0134211\C,0,-2.70905,-0.0138329,0.112927\C,
 0,-2.37078,-1.3135,-0.00676665\C,0,-1.06617,-1.76821,-0.248483\C,0,-0.
 0915576,-0.814424,-0.188705\C,0,1.4411,-1.17172,0.0352517\H,0,2.58083,
 -1.01213,1.62107\H,0,-0.926653,-2.82979,-0.300211\H,0,-3.1359,-2.03188
 ,-0.190691\H,0,-0.876798,3.01507,0.175749\H,0,0.824578,3.48474,-0.0557

 Normal termination of Gaussian 16 at Tue Apr  8 19:49:30 2025.
