 Gaussian 16, Revision C.01,

 ----------------------------------------------------------------------
 #t hf aug-cc-pvdz symm=none int=(grid=ultrafine) guess=(read,tcheck) s
 table=(opt,rrhf)
 ----------------------------------------------------------------------
 -----
 title
 -----
 Symbolic Z-matrix:
 Charge =  0 Multiplicity = 1

 SCF Done:  E(RHF) =  -338.343667337     a.u. after   17 cycles
 Normal termination of Gaussian 16 at Tue Apr  8 21:34:49 2025.
 Gaussian 16:  ES64L-G16RevC.01  3-Jul-2019

 ----------------------------------------------------------------------
 #t hf aug-cc-pvdz iop(5/13=1,5/36=2,99/5=2) pseudo=read geom=check gue
 ss=(read,tcheck) scf=(maxcycle=1)
 ----------------------------------------------------------------------
 -----
 title
 -----
 Structure from the checkpoint file:  "ANI1ccx_384_conf1_mol2.chk"
 Charge =  0 Multiplicity = 1

                         Standard orientation:
 ---------------------------------------------------------------------
 Center     Atomic      Atomic             Coordinates (Angstroms)
 Number     Number       Type             X           Y           Z
 ---------------------------------------------------------------------
      1          6           0       -1.679680    0.431269    0.014921
      2          1           0       -3.300570   -0.392345    0.563626
      3          1           0       -2.113900    1.337130    0.526261
      4          8           0       -2.491440   -0.648481    0.098223
      5          8           0       -0.607440    0.391656   -0.497604
      6          8           0        2.165920    0.160498    0.554498
      7          8           0        2.869530   -0.345223   -0.302544
 ---------------------------------------------------------------------

 SCF Done:  E(RHF) =  -338.660706922     A.U. after    2 cycles

 The electronic state is 1-A.
 Alpha  occ. eigenvalues --  -20.71204 -20.70951 -20.62015 -20.55693 -11.41342
 Alpha  occ. eigenvalues --   -1.74773  -1.55978  -1.47691  -1.14098  -0.87463
 Alpha  occ. eigenvalues --   -0.79685  -0.73775  -0.71243  -0.68071  -0.63724
 Alpha  occ. eigenvalues --   -0.62069  -0.60040  -0.49182  -0.46326  -0.44176
 Alpha virt. eigenvalues --    0.02305   0.04227   0.04685   0.08144   0.10182
 Alpha virt. eigenvalues --    0.12203   0.13811   0.14751   0.16051   0.18334
 Alpha virt. eigenvalues --    0.19453   0.20437   0.21655   0.22901   0.23268

 Mulliken charges:
               1
     1  C    1.385665
     2  H    0.417900
     3  H    0.154520
     4  O   -0.986004
     5  O   -0.996208
     6  O    0.047579
     7  O   -0.023453
 Sum of Mulliken charges =  -0.00000

 Dipole moment (field-independent basis, Debye):
    X=             -3.6237    Y=              1.2698    Z=              2.0138  Tot=              4.3357

 Test job not archived.
 1\1\GINC-SE186\SP\RHF\Aug-CC-pVDZ\C1H2O4\OHZDE\08-Apr-2025\0\\#t hf au
 g-cc-pvdz iop(5/13=1,5/36=2,99/5=2) pseudo=read geom=check guess=(read
 ,tcheck) scf=(maxcycle=1)\\title\\0,1\C,0,-1.67968,0.431269,0.0149209\
 H,0,-3.30057,-0.392344,0.563626\H,0,-2.1139,1.33713,0.526261\O,0,-2.49
 144,-0.648481,0.0982229\O,0,-0.60744,0.391656,-0.497604\O,0,2.16592,0.
 160498,0.554498\O,0,2.86953,-0.345223,-0.302544\\Version=ES64L-G16RevC
 .01\State=1-A\HF=-338.6607069\RMSD=1.149e-02\Dipole=-1.4256548,0.49956
 02,0.792307\Quadrupole=6.3552661,-3.7302405,-2.6250256,-2.6872143,-2.5

 Normal termination of Gaussian 16 at Tue Apr  8 21:34:51 2025.
