 Gaussian 16, Revision C.01,

 ----------------------------------------------------------------------
 #t hf aug-cc-pvdz symm=none int=(grid=ultrafine) guess=(read,tcheck) s
 table=(opt,rrhf)
 ----------------------------------------------------------------------
 -----
 title
 -----
 Symbolic Z-matrix:
 Charge =  0 Multiplicity = 1

 SCF Done:  E(RHF) =  -394.470421927     A.U. after   14 cycles
 Normal termination of Gaussian 16 at Tue Apr  8 21:49:55 2025.
 Gaussian 16:  ES64L-G16RevC.01  3-Jul-2019

 ----------------------------------------------------------------------
 #t hf aug-cc-pvdz iop(5/13=1,5/36=2,99/5=2) pseudo=read geom=check gue
 ss=(read,tcheck) scf=(maxcycle=1)
 ----------------------------------------------------------------------
 -----
 title
 -----
 Structure from the checkpoint file:  "ANI1ccx_671_conf1_mol2.chk"
 Charge =  0 Multiplicity = 1

                         Standard orientation:
 ---------------------------------------------------------------------
 Center     Atomic      Atomic             Coordinates (Angstroms)
 Number     Number       Type             X           Y           Z
 ---------------------------------------------------------------------
      1          6           0       -1.102880   -0.216128   -0.061812
      2          6           0       -0.708631    1.232940    0.100542
      3          6           0        1.155970   -0.112425    0.026693
      4          1           0       -0.939395    1.647510    1.127290
      5          1           0       -1.153510    1.840170   -0.725338
      6          1           0       -0.009253   -1.867120    0.051838
      7          7           0        0.020395   -0.885515    0.001125
      8          8           0       -2.230340   -0.686041   -0.012934
      9          8           0        0.718379    1.168420   -0.123614
     10          8           0        2.248540   -0.588413    0.029773
 ---------------------------------------------------------------------

 SCF Done:  E(RHF) =  -394.858463896     A.U. after    2 cycles

 The electronic state is 1-A.
 Alpha  occ. eigenvalues --  -20.63273 -20.56364 -20.55031 -15.58167 -11.45619
 Alpha  occ. eigenvalues --  -11.39765 -11.35818  -1.59118  -1.50645  -1.49157
 Alpha  occ. eigenvalues --   -1.32503  -1.05460  -0.94218  -0.91856  -0.77616
 Alpha  occ. eigenvalues --   -0.75559  -0.69848  -0.68966  -0.65011  -0.63420
 Alpha  occ. eigenvalues --   -0.61814  -0.59963  -0.50670  -0.49247  -0.46847
 Alpha  occ. eigenvalues --   -0.45414
 Alpha virt. eigenvalues --    0.02808   0.04353   0.04503   0.07766   0.08151
 Alpha virt. eigenvalues --    0.09861   0.10123   0.10291   0.10937   0.11600
 Alpha virt. eigenvalues --    0.13751   0.14102   0.14593   0.15640   0.17316

 Mulliken charges:
               1
     1  C    0.215161
     2  C    0.574577
     3  C    1.367256
     4  H    0.281034
     5  H    0.230196
     6  H    0.050839
     7  N    0.896913
     8  O   -1.269342
     9  O   -1.232692
    10  O   -1.113940
 Sum of Mulliken charges =  -0.00000

 Dipole moment (field-independent basis, Debye):
    X=             -1.0405    Y=              1.2419    Z=              0.3863  Tot=              1.6656

 Test job not archived.
 1\1\GINC-SE328\SP\RHF\Aug-CC-pVDZ\C3H3N1O3\OHZDE\08-Apr-2025\0\\#t hf
 aug-cc-pvdz iop(5/13=1,5/36=2,99/5=2) pseudo=read geom=check guess=(re
 ad,tcheck) scf=(maxcycle=1)\\title\\0,1\C,0,-1.10288,-0.216128,-0.0618
 12\C,0,-0.708631,1.23294,0.100542\C,0,1.15597,-0.112424,0.0266931\H,0,
 -0.939395,1.64751,1.12729\H,0,-1.15351,1.84017,-0.725338\H,0,-0.009252
 8,-1.86712,0.0518385\N,0,0.0203952,-0.885515,0.00112517\O,0,-2.23034,-
 0.686041,-0.0129338\O,0,0.718379,1.16842,-0.123614\O,0,2.24854,-0.5884
 12,0.0297728\\Version=ES64L-G16RevC.01\State=1-A\HF=-394.8584639\RMSD=

 Normal termination of Gaussian 16 at Tue Apr  8 21:49:58 2025.
