 Gaussian 16, Revision C.01,

 ----------------------------------------------------------------------
 #t hf aug-cc-pvdz symm=none int=(grid=ultrafine) guess=(read,tcheck) s
 table=(opt,rrhf)
 ----------------------------------------------------------------------
 -----
 title
 -----
 Symbolic Z-matrix:
 Charge =  0 Multiplicity = 1

 SCF Done:  E(RHF) =  -444.054484719     A.U. after   18 cycles
 Normal termination of Gaussian 16 at Tue Apr  8 22:16:22 2025.
 Gaussian 16:  ES64L-G16RevC.01  3-Jul-2019

 ----------------------------------------------------------------------
 #t hf aug-cc-pvdz iop(5/13=1,5/36=2,99/5=2) pseudo=read geom=check gue
 ss=(read,tcheck) scf=(maxcycle=1)
 ----------------------------------------------------------------------
 -----
 title
 -----
 Structure from the checkpoint file:  "ANI1ccx_993_conf2_mol2.chk"
 Charge =  0 Multiplicity = 1

                         Standard orientation:
 ---------------------------------------------------------------------
 Center     Atomic      Atomic             Coordinates (Angstroms)
 Number     Number       Type             X           Y           Z
 ---------------------------------------------------------------------
      1          6           0        1.761581   -0.874009   -0.021133
      2          6           0        0.748835    0.110848    0.038445
      3          6           0       -0.630648   -0.007297    0.065863
      4          6           0       -1.624068   -1.008652    0.033474
      5          7           0        2.588233   -1.681936   -0.009322
      6          7           0        1.019598    1.435032   -0.019142
      7          7           0       -0.044021    2.093351    0.002451
      8          7           0       -2.523437   -1.736683   -0.036346
      9          8           0       -1.102101    1.238289   -0.032924
 ---------------------------------------------------------------------

 SCF Done:  E(RHF) =  -444.477426619     A.U. after    2 cycles

 The electronic state is 1-A.
 Alpha  occ. eigenvalues --  -20.72952 -15.69804 -15.63710 -15.59526 -15.57209
 Alpha  occ. eigenvalues --  -11.43954 -11.38780 -11.35314 -11.33476  -1.70242
 Alpha  occ. eigenvalues --   -1.42190  -1.29989  -1.28385  -1.21309  -1.04596
 Alpha  occ. eigenvalues --   -0.98656  -0.92074  -0.84591  -0.79150  -0.72225
 Alpha  occ. eigenvalues --   -0.67550  -0.66210  -0.65304  -0.61225  -0.60107
 Alpha  occ. eigenvalues --   -0.59920  -0.56546  -0.55498  -0.54666  -0.45689
 Alpha virt. eigenvalues --   -0.02569   0.04177   0.04394   0.06182   0.06679
 Alpha virt. eigenvalues --    0.07912   0.08713   0.09930   0.10746   0.10975
 Alpha virt. eigenvalues --    0.11631   0.11722   0.13128   0.13359   0.14209

 Mulliken charges:
               1
     1  C   -1.835640
     2  C    0.248794
     3  C    2.494811
     4  C   -2.364473
     5  N    1.022497
     6  N    0.035382
     7  N    0.846098
     8  N    0.985549
     9  O   -1.433018
 Sum of Mulliken charges =  -0.00000

 Dipole moment (field-independent basis, Debye):
    X=             -1.2246    Y=              1.7519    Z=              0.2276  Tot=              2.1495

 Test job not archived.
 1\1\GINC-SE332\SP\RHF\Aug-CC-pVDZ\C4N4O1\OHZDE\08-Apr-2025\0\\#t hf au
 g-cc-pvdz iop(5/13=1,5/36=2,99/5=2) pseudo=read geom=check guess=(read
 ,tcheck) scf=(maxcycle=1)\\title\\0,1\C,0,1.76158,-0.874012,-0.0211327
 \C,0,0.748835,0.110846,0.0384455\C,0,-0.630648,-0.00729662,0.0658634\C
 ,0,-1.62407,-1.00865,0.0334737\N,0,2.58823,-1.68194,-0.00932193\N,0,1.
 0196,1.43503,-0.0191416\N,0,-0.044018,2.09335,0.00245053\N,0,-2.52344,
 -1.73668,-0.0363456\O,0,-1.1021,1.23829,-0.0329236\\Version=ES64L-G16R
 evC.01\State=1-A\HF=-444.4774266\RMSD=1.454e-01\Dipole=-0.4817833,0.68

 Normal termination of Gaussian 16 at Tue Apr  8 22:16:26 2025.
