 Gaussian 16, Revision C.01,

 ----------------------------------------------------------------------
 #t hf aug-cc-pvdz symm=none int=(grid=ultrafine) guess=(read,tcheck) s
 table=(opt,rrhf)
 ----------------------------------------------------------------------
 -----
 title
 -----
 Symbolic Z-matrix:
 Charge =  0 Multiplicity = 1

 SCF Done:  E(RHF) =  -390.252402121     A.U. after   16 cycles
 Normal termination of Gaussian 16 at Tue Apr  8 21:56:43 2025.
 Gaussian 16:  ES64L-G16RevC.01  3-Jul-2019

 ----------------------------------------------------------------------
 #t hf aug-cc-pvdz iop(5/13=1,5/36=2,99/5=2) pseudo=read geom=check gue
 ss=(read,tcheck) scf=(maxcycle=1)
 ----------------------------------------------------------------------
 -----
 title
 -----
 Structure from the checkpoint file:  "ANI1ccx_847_conf2_mol2.chk"
 Charge =  0 Multiplicity = 1

                         Standard orientation:
 ---------------------------------------------------------------------
 Center     Atomic      Atomic             Coordinates (Angstroms)
 Number     Number       Type             X           Y           Z
 ---------------------------------------------------------------------
      1          6           0       -1.494620   -0.291344    0.003347
      2          6           0       -1.120191    1.208869    0.015243
      3          6           0        0.636745   -0.031151    0.010951
      4          6           0        2.063800   -0.211362    0.006735
      5          1           0       -1.827671    2.017479    0.007656
      6          7           0        0.155516    1.337610   -0.010329
      7          7           0       -0.215542   -0.978340    0.038457
      8          7           0        3.210140   -0.326069   -0.024749
      9          8           0       -2.592190   -0.787495   -0.031119
 ---------------------------------------------------------------------

 SCF Done:  E(RHF) =  -390.626305248     A.U. after    2 cycles

 The electronic state is 1-A.
 Alpha  occ. eigenvalues --  -20.61762 -15.58881 -15.57286 -15.57255 -11.42823
 Alpha  occ. eigenvalues --  -11.42109 -11.37161 -11.32759  -1.54228  -1.39448
 Alpha  occ. eigenvalues --   -1.28110  -1.25092  -1.06087  -0.91557  -0.88603
 Alpha  occ. eigenvalues --   -0.81361  -0.71889  -0.71691  -0.68541  -0.65332
 Alpha  occ. eigenvalues --   -0.61908  -0.58093  -0.55834  -0.55473  -0.54453
 Alpha  occ. eigenvalues --   -0.49401  -0.49169
 Alpha virt. eigenvalues --   -0.05309   0.02471   0.05976   0.06300   0.07149
 Alpha virt. eigenvalues --    0.08084   0.09725   0.09808   0.10208   0.10935
 Alpha virt. eigenvalues --    0.11573   0.11905   0.12855   0.14241   0.15274

 Mulliken charges:
               1
     1  C    0.869054
     2  C   -0.194352
     3  C   -0.431568
     4  C   -1.808577
     5  H   -0.014277
     6  N    0.699893
     7  N    0.952108
     8  N    1.121042
     9  O   -1.193323
 Sum of Mulliken charges =  -0.00000

 Dipole moment (field-independent basis, Debye):
    X=             -3.1808    Y=              2.7941    Z=              0.1073  Tot=              4.2351

 Test job not archived.
 1\1\GINC-SE097\SP\RHF\Aug-CC-pVDZ\C4H1N3O1\OHZDE\08-Apr-2025\0\\#t hf
 aug-cc-pvdz iop(5/13=1,5/36=2,99/5=2) pseudo=read geom=check guess=(re
 ad,tcheck) scf=(maxcycle=1)\\title\\0,1\C,0,-1.49462,-0.291343,0.00334
 711\C,0,-1.12019,1.20887,0.0152428\C,0,0.636745,-0.0311507,0.0109505\C
 ,0,2.0638,-0.211362,0.00673491\H,0,-1.82767,2.01748,0.00765641\N,0,0.1
 55517,1.33761,-0.0103293\N,0,-0.215542,-0.978339,0.0384567\N,0,3.21014
 ,-0.32607,-0.0247493\O,0,-2.59219,-0.787493,-0.0311194\\Version=ES64L-
 G16RevC.01\State=1-A\HF=-390.6263052\RMSD=6.531e-02\Dipole=-1.251407,1

 Normal termination of Gaussian 16 at Tue Apr  8 21:56:47 2025.
