 Gaussian 16, Revision C.01,

 ----------------------------------------------------------------------
 #t hf aug-cc-pvdz symm=none int=(grid=ultrafine) guess=(read,tcheck) s
 table=(opt,rrhf)
 ----------------------------------------------------------------------
 -----
 title
 -----
 Symbolic Z-matrix:
 Charge =  0 Multiplicity = 1

 SCF Done:  E(RHF) =  -507.437564534     A.U. after   16 cycles
 Normal termination of Gaussian 16 at Tue Apr  8 19:50:39 2025.
 Gaussian 16:  ES64L-G16RevC.01  3-Jul-2019

 ----------------------------------------------------------------------
 #t hf aug-cc-pvdz iop(5/13=1,5/36=2,99/5=2) pseudo=read geom=check gue
 ss=(read,tcheck) scf=(maxcycle=1)
 ----------------------------------------------------------------------
 -----
 title
 -----
 Structure from the checkpoint file:  "ANI1ccx_1510_conf2_mol1.chk"
 Charge =  0 Multiplicity = 1

                         Standard orientation:
 ---------------------------------------------------------------------
 Center     Atomic      Atomic             Coordinates (Angstroms)
 Number     Number       Type             X           Y           Z
 ---------------------------------------------------------------------
      1          6           0        2.227890   -0.213135    0.032578
      2          6           0        0.149552   -0.561836    0.007104
      3          6           0       -1.153250   -1.142890    0.008693
      4          6           0       -2.199940   -0.281307   -0.007226
      5          6           0       -2.031920    1.114240    0.002381
      6          6           0       -0.794820    1.706951   -0.012780
      7          6           0        0.323606    0.804136   -0.019308
      8          1           0        2.145300    1.824731   -0.255213
      9          1           0       -0.703673    2.784051    0.130202
     10          1           0       -2.942220    1.705740   -0.013334
     11          1           0        4.182490    0.222625    0.505370
     12          1           0       -1.221189   -2.227650    0.031477
     13          1           0        3.906120   -1.333208    0.022116
     14          1           0       -3.445489   -1.689050    0.005032
     15          7           0        1.655470    0.987351    0.027469
     16          7           0        3.618350   -0.365113   -0.095825
     17          7           0        1.413030   -1.194889    0.001103
     18          8           0       -3.482000   -0.729455   -0.002941
 ---------------------------------------------------------------------

 SCF Done:  E(RHF) =  -507.955029089     A.U. after    2 cycles

 The electronic state is 1-A.
 Alpha  occ. eigenvalues --  -20.56858 -15.55103 -15.52834 -15.47369 -11.34124
 Alpha  occ. eigenvalues --  -11.29417 -11.26222 -11.25836 -11.25691 -11.23154
 Alpha  occ. eigenvalues --  -11.23096  -1.48930  -1.37379  -1.21819  -1.18776
 Alpha  occ. eigenvalues --   -1.13361  -1.01573  -1.00066  -0.87926  -0.86231
 Alpha  occ. eigenvalues --   -0.84853  -0.78268  -0.74656  -0.72456  -0.69634
 Alpha  occ. eigenvalues --   -0.67708  -0.65278  -0.63830  -0.62040  -0.58509
 Alpha  occ. eigenvalues --   -0.58328  -0.54849  -0.52973  -0.52540  -0.48020
 Alpha  occ. eigenvalues --   -0.46894  -0.44266  -0.32945  -0.29775
 Alpha virt. eigenvalues --    0.02366   0.03558   0.04162   0.04453   0.05496
 Alpha virt. eigenvalues --    0.06669   0.07193   0.09105   0.09945   0.11019
 Alpha virt. eigenvalues --    0.11518   0.11872   0.12306   0.13095   0.13399

 Mulliken charges:
               1
     1  C   -2.719055
     2  C   -1.538491
     3  C    0.885787
     4  C    1.726162
     5  C    0.635068
     6  C    1.065614
     7  C   -0.972735
     8  H    0.057830
     9  H   -0.227891
    10  H   -0.272494
    11  H    0.144962
    12  H   -0.278433
    13  H    0.203322
    14  H    0.422873
    15  N    0.941984
    16  N    0.750306
    17  N    1.008179
    18  O   -1.832989
 Sum of Mulliken charges =  -0.00000

 Dipole moment (field-independent basis, Debye):
    X=              2.6316    Y=              1.9109    Z=              0.8584  Tot=              3.3636

 Test job not archived.
 1\1\GINC-SE367\SP\RHF\Aug-CC-pVDZ\C7H7N3O1\OHZDE\08-Apr-2025\0\\#t hf
 aug-cc-pvdz iop(5/13=1,5/36=2,99/5=2) pseudo=read geom=check guess=(re
 ad,tcheck) scf=(maxcycle=1)\\title\\0,1\C,0,2.22789,-0.213136,0.032578
 4\C,0,0.149552,-0.561837,0.00710361\C,0,-1.15325,-1.14289,0.0086932\C,
 0,-2.19994,-0.281307,-0.00722554\C,0,-2.03192,1.11424,0.00238065\C,0,-
 0.79482,1.70695,-0.0127802\C,0,0.323606,0.804135,-0.0193083\H,0,2.1453
 ,1.82473,-0.255213\H,0,-0.703672,2.78405,0.130202\H,0,-2.94222,1.70574
 ,-0.0133339\H,0,4.18249,0.222623,0.50537\H,0,-1.22119,-2.22765,0.03147

 Normal termination of Gaussian 16 at Tue Apr  8 19:50:47 2025.
