 Gaussian 16, Revision C.01,

 ----------------------------------------------------------------------
 #t hf aug-cc-pvdz symm=none int=(grid=ultrafine) guess=(read,tcheck) s
 table=(opt,rrhf)
 ----------------------------------------------------------------------
 -----
 title
 -----
 Symbolic Z-matrix:
 Charge =  0 Multiplicity = 1

 SCF Done:  E(RHF) =  -445.628528542     A.U. after   16 cycles
 Normal termination of Gaussian 16 at Tue Apr  8 21:44:57 2025.
 Gaussian 16:  ES64L-G16RevC.01  3-Jul-2019

 ----------------------------------------------------------------------
 #t hf aug-cc-pvdz iop(5/13=1,5/36=2,99/5=2) pseudo=read geom=check gue
 ss=(read,tcheck) scf=(maxcycle=1)
 ----------------------------------------------------------------------
 -----
 title
 -----
 Structure from the checkpoint file:  "ANI1ccx_521_conf1_mol2.chk"
 Charge =  0 Multiplicity = 1

                         Standard orientation:
 ---------------------------------------------------------------------
 Center     Atomic      Atomic             Coordinates (Angstroms)
 Number     Number       Type             X           Y           Z
 ---------------------------------------------------------------------
      1          6           0        1.313051   -0.080426   -0.308036
      2          6           0       -1.299789   -0.046985    0.306922
      3          1           0        2.619341    0.639479    1.084609
      4          1           0        3.009411   -0.909835    0.392649
      5          1           0       -2.909089   -0.992074   -0.450603
      6          1           0       -2.514519    0.509204   -1.247191
      7          7           0        2.412211   -0.100519    0.433790
      8          7           0        0.615393    1.209200   -0.164189
      9          7           0       -0.600539    1.200061    0.077796
     10          7           0       -2.395629   -0.119909   -0.476353
     11          8           0        0.940702   -0.939162   -1.079551
     12          8           0       -1.003799   -0.786356    1.220789
 ---------------------------------------------------------------------

 SCF Done:  E(RHF) =  -446.061679246     A.U. after    2 cycles

 The electronic state is 1-A.
 Alpha  occ. eigenvalues --  -20.53621 -20.53536 -15.61353 -15.60777 -15.55452
 Alpha  occ. eigenvalues --  -15.54948 -11.40823 -11.40756  -1.50200  -1.48666
 Alpha  occ. eigenvalues --   -1.39670  -1.26717  -1.25408  -1.05638  -0.94455
 Alpha  occ. eigenvalues --   -0.84269  -0.82378  -0.76909  -0.76058  -0.70157
 Alpha  occ. eigenvalues --   -0.67928  -0.65509  -0.63547  -0.59696  -0.57403
 Alpha  occ. eigenvalues --   -0.53311  -0.48017  -0.47068  -0.45110  -0.42487
 Alpha virt. eigenvalues --    0.01803   0.02888   0.03947   0.05709   0.05841
 Alpha virt. eigenvalues --    0.09047   0.10506   0.11176   0.11909   0.12482
 Alpha virt. eigenvalues --    0.12584   0.13424   0.15399   0.15453   0.15777

 Mulliken charges:
               1
     1  C    0.019975
     2  C    0.014589
     3  H    0.124515
     4  H    0.138809
     5  H    0.159786
     6  H    0.112347
     7  N    0.749107
     8  N    0.103098
     9  N    0.063398
    10  N    0.693012
    11  O   -1.080483
    12  O   -1.098153
 Sum of Mulliken charges =  -0.00000

 Dipole moment (field-independent basis, Debye):
    X=              0.5951    Y=              0.3476    Z=             -0.3851  Tot=              0.7895

 Test job not archived.
 1\1\GINC-SE453\SP\RHF\Aug-CC-pVDZ\C2H4N4O2\OHZDE\08-Apr-2025\0\\#t hf
 aug-cc-pvdz iop(5/13=1,5/36=2,99/5=2) pseudo=read geom=check guess=(re
 ad,tcheck) scf=(maxcycle=1)\\title\\0,1\C,0,1.31305,-0.0804257,-0.3080
 35\C,0,-1.29979,-0.0469854,0.306923\H,0,2.61934,0.639479,1.08461\H,0,3
 .00941,-0.909835,0.39265\H,0,-2.90909,-0.992075,-0.450602\H,0,-2.51452
 ,0.509203,-1.24719\N,0,2.41221,-0.100519,0.433791\N,0,0.615392,1.2092,
 -0.164188\N,0,-0.60054,1.20006,0.0777969\N,0,-2.39563,-0.11991,-0.4763
 52\O,0,0.940701,-0.939162,-1.07955\O,0,-1.0038,-0.786357,1.22079\\Vers

 Normal termination of Gaussian 16 at Tue Apr  8 21:45:02 2025.
