 Gaussian 16, Revision C.01,

 ----------------------------------------------------------------------
 #t hf aug-cc-pvdz symm=none int=(grid=ultrafine) guess=(read,tcheck) s
 table=(opt,rrhf)
 ----------------------------------------------------------------------
 -----
 title
 -----
 Symbolic Z-matrix:
 Charge =  0 Multiplicity = 1

 SCF Done:  E(RHF) =  -451.829358658     A.U. after   13 cycles
 Normal termination of Gaussian 16 at Tue Apr  8 21:54:27 2025.
 Gaussian 16:  ES64L-G16RevC.01  3-Jul-2019

 ----------------------------------------------------------------------
 #t hf aug-cc-pvdz iop(5/13=1,5/36=2,99/5=2) pseudo=read geom=check gue
 ss=(read,tcheck) scf=(maxcycle=1)
 ----------------------------------------------------------------------
 -----
 title
 -----
 Structure from the checkpoint file:  "ANI1ccx_764_conf6_mol1.chk"
 Charge =  0 Multiplicity = 1

                         Standard orientation:
 ---------------------------------------------------------------------
 Center     Atomic      Atomic             Coordinates (Angstroms)
 Number     Number       Type             X           Y           Z
 ---------------------------------------------------------------------
      1          6           0       -2.007151   -0.561073    0.589044
      2          6           0       -0.034045    0.740569    0.113221
      3          6           0        2.259779   -0.206300    0.344908
      4          1           0       -2.209062    0.267320   -1.059460
      5          1           0       -2.206400   -1.528311    1.062410
      6          1           0       -2.477642    0.291676    1.130600
      7          1           0       -0.112353   -0.945072    1.346420
      8          1           0        1.611417    1.735332   -0.221580
      9          1           0        3.238528    0.271422    0.431792
     10          1           0        2.088309   -0.797685    1.273040
     11          1           0        1.347180   -1.448718   -0.810009
     12          7           0       -0.564182   -0.465958    0.576999
     13          7           0        1.339998    0.905196    0.308789
     14          8           0       -2.507471   -0.595039   -0.704857
     15          8           0       -0.734611    1.565990   -0.437951
     16          8           0        2.239309   -1.065927   -0.811789
 ---------------------------------------------------------------------

 SCF Done:  E(RHF) =  -452.286482048     A.U. after    2 cycles

 The electronic state is 1-A.
 Alpha  occ. eigenvalues --  -20.57161 -20.54628 -20.53338 -15.54209 -15.54135
 Alpha  occ. eigenvalues --  -11.40668 -11.35330 -11.33090  -1.49957  -1.46580
 Alpha  occ. eigenvalues --   -1.46102  -1.27316  -1.22304  -0.97903  -0.94044
 Alpha  occ. eigenvalues --   -0.83672  -0.79575  -0.75219  -0.71074  -0.69883
 Alpha  occ. eigenvalues --   -0.68826  -0.65428  -0.64380  -0.60819  -0.60302
 Alpha  occ. eigenvalues --   -0.56391  -0.53612  -0.48641  -0.47923  -0.46297
 Alpha  occ. eigenvalues --   -0.45731  -0.44902
 Alpha virt. eigenvalues --    0.02632   0.03774   0.04629   0.05240   0.05727
 Alpha virt. eigenvalues --    0.05867   0.07046   0.08649   0.09696   0.11012
 Alpha virt. eigenvalues --    0.12248   0.13108   0.13978   0.14087   0.15119

 Mulliken charges:
               1
     1  C    0.586090
     2  C    0.092991
     3  C    0.498101
     4  H    0.366501
     5  H   -0.012695
     6  H    0.129305
     7  H    0.107303
     8  H    0.333142
     9  H    0.020635
    10  H    0.186688
    11  H    0.422764
    12  N    0.307134
    13  N    0.525005
    14  O   -1.153157
    15  O   -1.250789
    16  O   -1.159017
 Sum of Mulliken charges =   0.00000

 Dipole moment (field-independent basis, Debye):
    X=              1.8162    Y=             -0.6607    Z=              3.3354  Tot=              3.8549

 Test job not archived.
 1\1\GINC-SE334\SP\RHF\Aug-CC-pVDZ\C3H8N2O3\OHZDE\08-Apr-2025\0\\#t hf
 aug-cc-pvdz iop(5/13=1,5/36=2,99/5=2) pseudo=read geom=check guess=(re
 ad,tcheck) scf=(maxcycle=1)\\title\\0,1\C,0,-2.00715,-0.561072,0.58904
 4\C,0,-0.0340433,0.740568,0.113221\C,0,2.25978,-0.206303,0.344908\H,0,
 -2.20906,0.267321,-1.05946\H,0,-2.2064,-1.52831,1.06241\H,0,-2.47764,0
 .291677,1.1306\H,0,-0.112352,-0.945073,1.34642\H,0,1.61142,1.73533,-0.
 22158\H,0,3.23853,0.271419,0.431792\H,0,2.08831,-0.797687,1.27304\H,0,
 1.34718,-1.44872,-0.810009\N,0,-0.564181,-0.465958,0.576999\N,0,1.34,0

 Normal termination of Gaussian 16 at Tue Apr  8 21:54:33 2025.
