 Gaussian 16, Revision C.01,

 ----------------------------------------------------------------------
 #t hf aug-cc-pvdz symm=none int=(grid=ultrafine) guess=(read,tcheck) s
 table=(opt,rrhf)
 ----------------------------------------------------------------------
 -----
 title
 -----
 Symbolic Z-matrix:
 Charge =  0 Multiplicity = 1

 SCF Done:  E(RHF) =  -394.554665840     A.U. after   14 cycles
 Normal termination of Gaussian 16 at Tue Apr  8 21:37:46 2025.
 Gaussian 16:  ES64L-G16RevC.01  3-Jul-2019

 ----------------------------------------------------------------------
 #t hf aug-cc-pvdz iop(5/13=1,5/36=2,99/5=2) pseudo=read geom=check gue
 ss=(read,tcheck) scf=(maxcycle=1)
 ----------------------------------------------------------------------
 -----
 title
 -----
 Structure from the checkpoint file:  "ANI1ccx_415_conf1_mol2.chk"
 Charge =  0 Multiplicity = 1

                         Standard orientation:
 ---------------------------------------------------------------------
 Center     Atomic      Atomic             Coordinates (Angstroms)
 Number     Number       Type             X           Y           Z
 ---------------------------------------------------------------------
      1          6           0        1.962050    0.285211   -0.091172
      2          1           0       -0.839794   -0.935392    0.131585
      3          1           0       -2.396910    1.260439    0.863113
      4          1           0        3.725220   -0.709872    0.156260
      5          1           0        3.724550    0.942769    0.701724
      6          1           0        1.577710    1.299720    0.064853
      7          7           0        3.265400    0.182608    0.229770
      8          8           0       -1.740250   -0.984497    0.530922
      9          8           0       -2.480300   -0.175403   -0.325199
     10          8           0       -2.098200    1.152219   -0.055614
     11          8           0        1.266140   -0.598218   -0.522471
 ---------------------------------------------------------------------

 SCF Done:  E(RHF) =  -394.943755694     A.U. after    2 cycles

 The electronic state is 1-A.
 Alpha  occ. eigenvalues --  -20.66579 -20.61766 -20.61046 -20.53535 -15.55218
 Alpha  occ. eigenvalues --  -11.37866  -1.67416  -1.48743  -1.44216  -1.24997
 Alpha  occ. eigenvalues --   -1.17392  -0.89319  -0.80227  -0.76532  -0.71724
 Alpha  occ. eigenvalues --   -0.66638  -0.66209  -0.64740  -0.63295  -0.61054
 Alpha  occ. eigenvalues --   -0.50135  -0.48868  -0.46376  -0.45480  -0.44887
 Alpha virt. eigenvalues --    0.02023   0.04235   0.05258   0.06480   0.08217
 Alpha virt. eigenvalues --    0.09504   0.12016   0.13420   0.14331   0.14466
 Alpha virt. eigenvalues --    0.15260   0.17050   0.18309   0.19325   0.20211

 Mulliken charges:
               1
     1  C    0.325273
     2  H    0.648012
     3  H    0.457374
     4  H    0.049581
     5  H    0.051936
     6  H    0.080773
     7  N    0.596239
     8  O   -0.716449
     9  O    0.116405
    10  O   -0.511323
    11  O   -1.097822
 Sum of Mulliken charges =  -0.00000

 Dipole moment (field-independent basis, Debye):
    X=              4.7545    Y=              2.4343    Z=              2.6365  Tot=              5.9567

 Test job not archived.
 1\1\GINC-SE393\SP\RHF\Aug-CC-pVDZ\C1H5N1O4\OHZDE\08-Apr-2025\0\\#t hf
 aug-cc-pvdz iop(5/13=1,5/36=2,99/5=2) pseudo=read geom=check guess=(re
 ad,tcheck) scf=(maxcycle=1)\\title\\0,1\C,0,1.96205,0.285211,-0.091171
 8\H,0,-0.839794,-0.935391,0.131585\H,0,-2.39691,1.26044,0.863113\H,0,3
 .72522,-0.709872,0.15626\H,0,3.72455,0.942769,0.701724\H,0,1.57771,1.2
 9972,0.0648525\N,0,3.2654,0.182608,0.22977\O,0,-1.74025,-0.984496,0.53
 0922\O,0,-2.4803,-0.175402,-0.325199\O,0,-2.0982,1.15222,-0.0556142\O,
 0,1.26614,-0.598218,-0.522471\\Version=ES64L-G16RevC.01\State=1-A\HF=-

 Normal termination of Gaussian 16 at Tue Apr  8 21:37:50 2025.
