 Gaussian 16, Revision C.01,

 ----------------------------------------------------------------------
 #t hf aug-cc-pvdz symm=none int=(grid=ultrafine) guess=(read,tcheck) s
 table=(opt,rrhf)
 ----------------------------------------------------------------------
 -----
 title
 -----
 Symbolic Z-matrix:
 Charge =  0 Multiplicity = 1

 SCF Done:  E(RHF) =  -509.546510933     A.U. after   14 cycles
 Normal termination of Gaussian 16 at Tue Apr  8 22:10:56 2025.
 Gaussian 16:  ES64L-G16RevC.01  3-Jul-2019

 ----------------------------------------------------------------------
 #t hf aug-cc-pvdz iop(5/13=1,5/36=2,99/5=2) pseudo=read geom=check gue
 ss=(read,tcheck) scf=(maxcycle=1)
 ----------------------------------------------------------------------
 -----
 title
 -----
 Structure from the checkpoint file:  "ANI1ccx_939_conf20_mol1.chk"
 Charge =  0 Multiplicity = 1

                         Standard orientation:
 ---------------------------------------------------------------------
 Center     Atomic      Atomic             Coordinates (Angstroms)
 Number     Number       Type             X           Y           Z
 ---------------------------------------------------------------------
      1          6           0       -0.790615    0.538112   -0.731162
      2          6           0       -1.446909   -0.493330    0.074175
      3          6           0        0.696227    0.263501   -1.036820
      4          6           0        1.623131   -0.067308    0.097169
      5          1           0       -1.078739    2.582490   -0.774990
      6          1           0       -1.673169    1.768460    0.559687
      7          1           0       -1.271049    0.501288   -1.730280
      8          1           0        0.813594   -0.551610   -1.783620
      9          1           0        1.190821    1.134400   -1.495640
     10          1           0        2.282681    0.298004    1.745100
     11          1           0       -1.293099   -2.386670    0.353357
     12          7           0       -0.877532    1.819510   -0.086817
     13          8           0       -2.300789   -0.292272    0.861777
     14          8           0        2.673281   -0.677153   -0.177445
     15          8           0        1.461061    0.511198    1.276570
     16          8           0       -0.998466   -1.732870   -0.296661
 ---------------------------------------------------------------------

 SCF Done:  E(RHF) =  -510.053140753     A.U. after    2 cycles

 The electronic state is 1-A.
 Alpha  occ. eigenvalues --  -20.61370 -20.61029 -20.56271 -20.52721 -15.50291
 Alpha  occ. eigenvalues --  -11.40847 -11.39840 -11.29965 -11.26768  -1.56767
 Alpha  occ. eigenvalues --   -1.55914  -1.48530  -1.42965  -1.21860  -1.06234
 Alpha  occ. eigenvalues --   -0.97300  -0.84975  -0.81043  -0.75845  -0.73421
 Alpha  occ. eigenvalues --   -0.71740  -0.69397  -0.66579  -0.66355  -0.64418
 Alpha  occ. eigenvalues --   -0.62638  -0.59072  -0.57824  -0.56497  -0.54563
 Alpha  occ. eigenvalues --   -0.50416  -0.47280  -0.45857  -0.45608  -0.42832
 Alpha virt. eigenvalues --    0.02904   0.03758   0.04247   0.04996   0.05355
 Alpha virt. eigenvalues --    0.06657   0.07276   0.09656   0.10714   0.11144
 Alpha virt. eigenvalues --    0.12151   0.13268   0.13744   0.14128   0.15135

 Mulliken charges:
               1
     1  C   -1.779703
     2  C    2.529797
     3  C   -0.299589
     4  C    2.100559
     5  H    0.246087
     6  H    0.207911
     7  H    0.301401
     8  H    0.216236
     9  H    0.287791
    10  H    0.304736
    11  H    0.374605
    12  N    0.540785
    13  O   -1.284580
    14  O   -1.244127
    15  O   -1.191979
    16  O   -1.309929
 Sum of Mulliken charges =  -0.00000

 Dipole moment (field-independent basis, Debye):
    X=             -1.7072    Y=              0.6375    Z=             -1.0288  Tot=              2.0927

 Test job not archived.
 1\1\GINC-SE082\SP\RHF\Aug-CC-pVDZ\C4H7N1O4\OHZDE\08-Apr-2025\0\\#t hf
 aug-cc-pvdz iop(5/13=1,5/36=2,99/5=2) pseudo=read geom=check guess=(re
 ad,tcheck) scf=(maxcycle=1)\\title\\0,1\C,0,-0.790616,0.538112,-0.7311
 62\C,0,-1.44691,-0.49333,0.0741748\C,0,0.696226,0.263501,-1.03682\C,0,
 1.62313,-0.0673079,0.0971684\H,0,-1.07874,2.58249,-0.77499\H,0,-1.6731
 7,1.76846,0.559687\H,0,-1.27105,0.501288,-1.73028\H,0,0.813593,-0.5516
 1,-1.78362\H,0,1.19082,1.1344,-1.49564\H,0,2.28268,0.298004,1.7451\H,0
 ,-1.2931,-2.38667,0.353357\N,0,-0.877533,1.81951,-0.086817\O,0,-2.3007

 Normal termination of Gaussian 16 at Tue Apr  8 22:11:03 2025.
