 Gaussian 16, Revision C.01,

 ----------------------------------------------------------------------
 #t hf aug-cc-pvdz symm=none int=(grid=ultrafine) guess=(read,tcheck) s
 table=(opt,rrhf)
 ----------------------------------------------------------------------
 -----
 title
 -----
 Symbolic Z-matrix:
 Charge =  0 Multiplicity = 1

 SCF Done:  E(RHF) =  -446.846462763     A.U. after   13 cycles
 Normal termination of Gaussian 16 at Tue Apr  8 21:47:26 2025.
 Gaussian 16:  ES64L-G16RevC.01  3-Jul-2019

 ----------------------------------------------------------------------
 #t hf aug-cc-pvdz iop(5/13=1,5/36=2,99/5=2) pseudo=read geom=check gue
 ss=(read,tcheck) scf=(maxcycle=1)
 ----------------------------------------------------------------------
 -----
 title
 -----
 Structure from the checkpoint file:  "ANI1ccx_555_conf1_mol2.chk"
 Charge =  0 Multiplicity = 1

                         Standard orientation:
 ---------------------------------------------------------------------
 Center     Atomic      Atomic             Coordinates (Angstroms)
 Number     Number       Type             X           Y           Z
 ---------------------------------------------------------------------
      1          6           0        1.557021   -0.167326   -0.058292
      2          6           0       -1.709919    0.004305    0.048657
      3          1           0        3.373711   -0.014280   -0.703346
      4          1           0        2.810191    1.457310   -0.282782
      5          1           0        0.851990    1.109660    1.382040
      6          1           0       -0.477515   -1.214961    0.954958
      7          1           0       -0.827812    1.612979   -0.705302
      8          1           0       -2.411279    1.346929   -1.236810
      9          7           0        2.777371    0.465600   -0.059904
     10          7           0        0.547188    0.487301    0.615476
     11          7           0       -0.590721   -0.231372    0.824280
     12          7           0       -1.736089    1.246829   -0.502141
     13          8           0        1.378251   -1.263790   -0.572025
     14          8           0       -2.551519   -0.873462   -0.114840
 ---------------------------------------------------------------------

 SCF Done:  E(RHF) =  -447.300551923     A.U. after    2 cycles

 The electronic state is 1-A.
 Alpha  occ. eigenvalues --  -20.53285 -20.50500 -15.58783 -15.55736 -15.55098
 Alpha  occ. eigenvalues --  -15.52666 -11.41014 -11.38499  -1.49315  -1.45921
 Alpha  occ. eigenvalues --   -1.35641  -1.26037  -1.23348  -1.13867  -0.90973
 Alpha  occ. eigenvalues --   -0.87543  -0.81852  -0.80249  -0.78928  -0.72873
 Alpha  occ. eigenvalues --   -0.70704  -0.65498  -0.64308  -0.63183  -0.60802
 Alpha  occ. eigenvalues --   -0.52341  -0.49797  -0.47720  -0.46345  -0.43806
 Alpha  occ. eigenvalues --   -0.43052
 Alpha virt. eigenvalues --    0.01534   0.03772   0.04446   0.04898   0.06566
 Alpha virt. eigenvalues --    0.07174   0.09944   0.10238   0.10895   0.12029
 Alpha virt. eigenvalues --    0.12505   0.13565   0.14194   0.15094   0.15565

 Mulliken charges:
               1
     1  C    0.001533
     2  C    0.243640
     3  H    0.217913
     4  H    0.124511
     5  H    0.181201
     6  H    0.219147
     7  H    0.126032
     8  H    0.182905
     9  N    0.464934
    10  N    0.098745
    11  N   -0.041091
    12  N    0.468266
    13  O   -1.126495
    14  O   -1.161241
 Sum of Mulliken charges =  -0.00000

 Dipole moment (field-independent basis, Debye):
    X=              4.3685    Y=              5.1085    Z=             -0.3307  Tot=              6.7298

 Test job not archived.
 1\1\GINC-SE186\SP\RHF\Aug-CC-pVDZ\C2H6N4O2\OHZDE\08-Apr-2025\0\\#t hf
 aug-cc-pvdz iop(5/13=1,5/36=2,99/5=2) pseudo=read geom=check guess=(re
 ad,tcheck) scf=(maxcycle=1)\\title\\0,1\C,0,1.55702,-0.167326,-0.05829
 19\C,0,-1.70992,0.00430651,0.0486566\H,0,3.37371,-0.0142801,-0.703346\
 H,0,2.81019,1.45731,-0.282782\H,0,0.851989,1.10966,1.38204\H,0,-0.4775
 16,-1.21496,0.954958\H,0,-0.827813,1.61298,-0.705302\H,0,-2.41128,1.34
 693,-1.23681\N,0,2.77737,0.4656,-0.0599042\N,0,0.547187,0.487302,0.615
 476\N,0,-0.590722,-0.231371,0.82428\N,0,-1.73609,1.24683,-0.502141\O,0

 Normal termination of Gaussian 16 at Tue Apr  8 21:47:31 2025.
