 Gaussian 16, Revision C.01,

 ----------------------------------------------------------------------
 #t hf aug-cc-pvdz symm=none int=(grid=ultrafine) guess=(read,tcheck) s
 table=(opt,rrhf)
 ----------------------------------------------------------------------
 -----
 title
 -----
 Symbolic Z-matrix:
 Charge =  0 Multiplicity = 1

 SCF Done:  E(RHF) =  -982.068921574     A.U. after   15 cycles
 Normal termination of Gaussian 16 at Tue Apr  8 20:53:52 2025.
 Gaussian 16:  ES64L-G16RevC.01  3-Jul-2019

 ----------------------------------------------------------------------
 #t hf aug-cc-pvdz iop(5/13=1,5/36=2,99/5=2) pseudo=read geom=check gue
 ss=(read,tcheck) scf=(maxcycle=1)
 ----------------------------------------------------------------------
 -----
 title
 -----
 Structure from the checkpoint file:  "ANI1ccx_1743_conf25_mol1.chk"
 Charge =  0 Multiplicity = 1

                         Standard orientation:
 ---------------------------------------------------------------------
 Center     Atomic      Atomic             Coordinates (Angstroms)
 Number     Number       Type             X           Y           Z
 ---------------------------------------------------------------------
      1          6           0       -1.692310    1.689611   -0.469809
      2          6           0       -0.434938    1.945400    0.324784
      3          6           0       -2.905260    1.220921    0.366538
      4          6           0       -2.653210   -0.170177    0.945725
      5          6           0       -2.710991   -1.288219   -0.054429
      6          6           0        0.921620   -0.230600   -0.341965
      7          6           0        1.208939   -1.037930    1.007770
      8          6           0        2.079200   -0.417192   -1.270270
      9          6           0        3.395370   -0.007750   -0.691110
     10          1           0       -0.205400   -2.259690    0.415313
     11          1           0        4.926129   -0.735593    0.093787
     12          1           0        1.911100    0.306269   -2.101940
     13          1           0        2.212179   -1.418421   -1.577350
     14          1           0        0.026933   -0.574361   -0.825147
     15          1           0        1.543650    1.712830    0.403197
     16          1           0       -3.809131   -2.158889   -1.320860
     17          1           0       -3.444880   -0.367017    1.693610
     18          1           0       -1.651400   -0.249117    1.467940
     19          1           0       -2.940180    2.021321    1.107340
     20          1           0       -3.786000    1.185951   -0.220710
     21          1           0       -1.973900    2.721741   -0.800109
     22          1           0       -2.401490    0.403805   -2.001220
     23          1           0       -1.075500    1.257740   -2.453810
     24          7           0       -1.554860    0.847092   -1.681650
     25          7           0        0.723979    1.170190    0.143994
     26          8           0       -0.374652    2.916040    1.052760
     27          8           0       -1.808911   -2.041959   -0.449152
     28          8           0       -3.953851   -1.494009   -0.538958
     29          8           0        1.950579   -0.597170    1.830970
     30          8           0        3.673130    1.114489   -0.318008
     31          8           0        4.238539   -1.049561   -0.546604
     32          8           0        0.429358   -2.121820    1.216510
 ---------------------------------------------------------------------

 SCF Done:  E(RHF) =  -983.040212334     A.U. after    2 cycles

 The electronic state is 1-A.
 Alpha  occ. eigenvalues --  -20.64282 -20.60767 -20.58964 -20.57807 -20.53998
 Alpha  occ. eigenvalues --  -20.52930 -20.51860 -15.52415 -15.51414 -11.44213
 Alpha  occ. eigenvalues --  -11.40096 -11.38741 -11.37036 -11.31398 -11.30459
 Alpha  occ. eigenvalues --  -11.29342 -11.27731 -11.27223  -1.57858  -1.55025
 Alpha  occ. eigenvalues --   -1.52735  -1.47276  -1.46999  -1.45126  -1.44648
 Alpha  occ. eigenvalues --   -1.23377  -1.20940  -1.11284  -1.09712  -1.01310
 Alpha  occ. eigenvalues --   -0.95915  -0.91477  -0.84295  -0.83304  -0.81365
 Alpha  occ. eigenvalues --   -0.79305  -0.75870  -0.75327  -0.73992  -0.72408
 Alpha  occ. eigenvalues --   -0.71318  -0.70768  -0.70218  -0.68161  -0.67043
 Alpha  occ. eigenvalues --   -0.66526  -0.66143  -0.64385  -0.63555  -0.62629
 Alpha  occ. eigenvalues --   -0.61366  -0.60847  -0.60669  -0.58637  -0.57764
 Alpha  occ. eigenvalues --   -0.56647  -0.56544  -0.55081  -0.54172  -0.51409
 Alpha  occ. eigenvalues --   -0.50981  -0.48323  -0.47839  -0.46713  -0.45895
 Alpha  occ. eigenvalues --   -0.44799  -0.43951  -0.42781  -0.40168
 Alpha virt. eigenvalues --    0.01563   0.02802   0.03072   0.03690   0.04278
 Alpha virt. eigenvalues --    0.05081   0.05152   0.05816   0.06364   0.07907
 Alpha virt. eigenvalues --    0.08181   0.08581   0.09007   0.09516   0.10421

 Mulliken charges:
               1
     1  C   -1.663593
     2  C    0.846348
     3  C   -0.093399
     4  C   -0.480189
     5  C    2.606422
     6  C    0.127738
     7  C    2.237069
     8  C   -0.879195
     9  C    2.803770
    10  H    0.653138
    11  H    0.349695
    12  H    0.394191
    13  H    0.034524
    14  H   -0.020806
    15  H    0.230088
    16  H    0.407908
    17  H    0.234634
    18  H    0.276867
    19  H    0.198998
    20  H    0.071105
    21  H    0.283800
    22  H    0.127507
    23  H    0.196965
    24  N    0.612643
    25  N    0.445374
    26  O   -1.479657
    27  O   -1.445380
    28  O   -1.495740
    29  O   -1.384849
    30  O   -1.402920
    31  O   -1.351164
    32  O   -1.441892
 Sum of Mulliken charges =  -0.00000

 Dipole moment (field-independent basis, Debye):
    X=             -5.7699    Y=             -2.3448    Z=             -5.9132  Tot=              8.5881

 Test job not archived.
 1\1\GINC-SE049\SP\RHF\Aug-CC-pVDZ\C9H14N2O7\OHZDE\08-Apr-2025\0\\#t hf
  aug-cc-pvdz iop(5/13=1,5/36=2,99/5=2) pseudo=read geom=check guess=(r
 ead,tcheck) scf=(maxcycle=1)\\title\\0,1\C,0,-1.69231,1.68961,-0.46980
 9\C,0,-0.434938,1.9454,0.324784\C,0,-2.90526,1.22092,0.366538\C,0,-2.6
 5321,-0.170178,0.945725\C,0,-2.71099,-1.28822,-0.0544289\C,0,0.92162,-
 0.2306,-0.341965\C,0,1.20894,-1.03793,1.00777\C,0,2.0792,-0.417191,-1.
 27027\C,0,3.39537,-0.0077492,-0.69111\H,0,-0.205399,-2.25969,0.415313\
 H,0,4.92613,-0.735592,0.0937871\H,0,1.9111,0.306269,-2.10194\H,0,2.212

 Normal termination of Gaussian 16 at Tue Apr  8 20:54:45 2025.
