 Gaussian 16, Revision C.01,

 ----------------------------------------------------------------------
 #t hf aug-cc-pvdz symm=none int=(grid=ultrafine) guess=(read,tcheck) s
 table=(opt,rrhf)
 ----------------------------------------------------------------------
 -----
 title
 -----
 Symbolic Z-matrix:
 Charge =  0 Multiplicity = 1

 SCF Done:  E(RHF) =  -339.377490338     A.U. after   14 cycles
 Normal termination of Gaussian 16 at Tue Apr  8 21:49:34 2025.
 Gaussian 16:  ES64L-G16RevC.01  3-Jul-2019

 ----------------------------------------------------------------------
 #t hf aug-cc-pvdz iop(5/13=1,5/36=2,99/5=2) pseudo=read geom=check gue
 ss=(read,tcheck) scf=(maxcycle=1)
 ----------------------------------------------------------------------
 -----
 title
 -----
 Structure from the checkpoint file:  "ANI1ccx_665_conf10_mol1.chk"
 Charge =  0 Multiplicity = 1

                         Standard orientation:
 ---------------------------------------------------------------------
 Center     Atomic      Atomic             Coordinates (Angstroms)
 Number     Number       Type             X           Y           Z
 ---------------------------------------------------------------------
      1          6           0        0.783603   -0.034156    0.007510
      2          6           0       -1.371840   -0.635223    0.009065
      3          6           0       -1.271342    0.706183    0.013735
      4          1           0       -2.112989   -1.409793    0.110288
      5          1           0       -2.141013    1.441177    0.049745
      6          8           0        1.949229   -0.017374    0.030445
      7          8           0       -0.050689   -1.112871   -0.040082
      8          8           0        0.027895    1.098719   -0.033100
 ---------------------------------------------------------------------

 SCF Done:  E(RHF) =  -339.706244058     A.U. after    2 cycles

 The electronic state is 1-A.
 Alpha  occ. eigenvalues --  -20.64425 -20.63690 -20.55169 -11.45883 -11.34892
 Alpha  occ. eigenvalues --  -11.33934  -1.64591  -1.52093  -1.51097  -1.06965
 Alpha  occ. eigenvalues --   -0.90320  -0.88695  -0.76331  -0.73161  -0.69475
 Alpha  occ. eigenvalues --   -0.66947  -0.61852  -0.59465  -0.58101  -0.54071
 Alpha  occ. eigenvalues --   -0.48771  -0.37421
 Alpha virt. eigenvalues --    0.02556   0.03691   0.07480   0.08592   0.09264
 Alpha virt. eigenvalues --    0.09957   0.10779   0.12082   0.12600   0.13672
 Alpha virt. eigenvalues --    0.14238   0.14681   0.16807   0.19464   0.19910

 Mulliken charges:
               1
     1  C    2.117439
     2  C    0.785838
     3  C    0.685263
     4  H   -0.102720
     5  H    0.087491
     6  O   -1.104234
     7  O   -1.222476
     8  O   -1.246601
 Sum of Mulliken charges =  -0.00000

 Dipole moment (field-independent basis, Debye):
    X=             -4.7744    Y=              0.0841    Z=              0.1583  Tot=              4.7778

 Test job not archived.
 1\1\GINC-SE044\SP\RHF\Aug-CC-pVDZ\C3H2O3\OHZDE\08-Apr-2025\0\\#t hf au
 g-cc-pvdz iop(5/13=1,5/36=2,99/5=2) pseudo=read geom=check guess=(read
 ,tcheck) scf=(maxcycle=1)\\title\\0,1\C,0,0.783604,-0.0341561,0.007509
 74\C,0,-1.37184,-0.63522,0.00906509\C,0,-1.27134,0.706185,0.0137352\H,
 0,-2.11299,-1.40979,0.110288\H,0,-2.14101,1.44118,0.049745\O,0,1.94923
 ,-0.0173756,0.0304452\O,0,-0.0506893,-1.11287,-0.0400823\O,0,0.0278972
 ,1.09872,-0.0330995\\Version=ES64L-G16RevC.01\State=1-A\HF=-339.706244
 1\RMSD=1.781e-02\Dipole=-1.8784032,0.0330751,0.0622677\Quadrupole=-0.3

 Normal termination of Gaussian 16 at Tue Apr  8 21:49:37 2025.
