 Gaussian 16, Revision C.01,

 ----------------------------------------------------------------------
 #t hf aug-cc-pvdz symm=none int=(grid=ultrafine) guess=(read,tcheck) s
 table=(opt,rrhf)
 ----------------------------------------------------------------------
 -----
 title
 -----
 Symbolic Z-matrix:
 Charge =  0 Multiplicity = 1

 SCF Done:  E(RHF) =  -621.221484890     A.U. after   16 cycles
 Normal termination of Gaussian 16 at Tue Apr  8 20:30:26 2025.
 Gaussian 16:  ES64L-G16RevC.01  3-Jul-2019

 ----------------------------------------------------------------------
 #t hf aug-cc-pvdz iop(5/13=1,5/36=2,99/5=2) pseudo=read geom=check gue
 ss=(read,tcheck) scf=(maxcycle=1)
 ----------------------------------------------------------------------
 -----
 title
 -----
 Structure from the checkpoint file:  "ANI1ccx_1698_conf1_mol1.chk"
 Charge =  0 Multiplicity = 1

                         Standard orientation:
 ---------------------------------------------------------------------
 Center     Atomic      Atomic             Coordinates (Angstroms)
 Number     Number       Type             X           Y           Z
 ---------------------------------------------------------------------
      1          6           0        2.143601    0.781808   -0.425504
      2          6           0        2.371661   -0.689157   -0.141734
      3          6           0        0.291483   -0.862992    1.313650
      4          6           0       -0.919334   -0.488095    0.532883
      5          6           0       -1.278509   -1.125210   -0.626985
      6          6           0       -2.505669   -0.842497   -1.320120
      7          6           0       -3.308369    0.102371   -0.667332
      8          6           0       -1.781559    0.488071    1.042430
      9          1           0       -1.558809    0.980198    2.027260
     10          1           0       -4.255599    0.348599   -1.179690
     11          1           0       -2.898669   -1.499250   -2.149160
     12          1           0       -0.586667   -1.933219   -1.041560
     13          1           0        1.531561   -2.454289    0.631454
     14          1           0        0.593174    0.036775    1.901550
     15          1           0        2.688481    1.060421   -1.357690
     16          1           0        0.790990    3.216351    0.359532
     17          1           0       -0.104490   -1.571209    2.006720
     18          7           0        1.265801    1.488331    0.185428
     19          7           0        1.412931   -1.413459    0.672660
     20          7           0       -3.027629    0.658106    0.534714
     21          8           0        1.199620    2.742491   -0.454381
     22          8           0        3.320691   -1.180119   -0.694586
 ---------------------------------------------------------------------

 SCF Done:  E(RHF) =  -621.837109082     A.U. after    2 cycles

 The electronic state is 1-A.
 Alpha  occ. eigenvalues --  -20.61812 -20.54585 -15.60501 -15.54553 -15.51519
 Alpha  occ. eigenvalues --  -11.39418 -11.31432 -11.29224 -11.28680 -11.28596
 Alpha  occ. eigenvalues --  -11.27133 -11.26451 -11.25349  -1.51891  -1.49669
 Alpha  occ. eigenvalues --   -1.25785  -1.24464  -1.19836  -1.09923  -1.05175
 Alpha  occ. eigenvalues --   -0.97064  -0.92240  -0.87723  -0.85199  -0.80603
 Alpha  occ. eigenvalues --   -0.73945  -0.73340  -0.72027  -0.71613  -0.69243
 Alpha  occ. eigenvalues --   -0.66438  -0.64979  -0.63758  -0.62323  -0.61133
 Alpha  occ. eigenvalues --   -0.59359  -0.58023  -0.56828  -0.55114  -0.53475
 Alpha  occ. eigenvalues --   -0.51023  -0.45705  -0.45642  -0.44110  -0.43124
 Alpha  occ. eigenvalues --   -0.39428  -0.35250
 Alpha virt. eigenvalues --    0.03009   0.03370   0.03549   0.04290   0.04826
 Alpha virt. eigenvalues --    0.05242   0.05290   0.05724   0.06199   0.07363
 Alpha virt. eigenvalues --    0.07858   0.09635   0.09821   0.10295   0.11198

 Mulliken charges:
               1
     1  C   -0.983681
     2  C    0.971174
     3  C   -1.327087
     4  C    1.699899
     5  C    0.215341
     6  C    0.020028
     7  C   -0.892241
     8  C   -1.458412
     9  H   -0.201576
    10  H   -0.107208
    11  H   -0.102319
    12  H   -0.219947
    13  H    0.303990
    14  H    0.340729
    15  H    0.033961
    16  H    0.369401
    17  H    0.143356
    18  N    1.821558
    19  N    0.818899
    20  N    1.105408
    21  O   -1.263986
    22  O   -1.287285
 Sum of Mulliken charges =   0.00000

 Dipole moment (field-independent basis, Debye):
    X=             -0.1352    Y=             -1.0538    Z=              0.4820  Tot=              1.1667

 Test job not archived.
 1\1\GINC-SE099\SP\RHF\Aug-CC-pVDZ\C8H9N3O2\OHZDE\08-Apr-2025\0\\#t hf
 aug-cc-pvdz iop(5/13=1,5/36=2,99/5=2) pseudo=read geom=check guess=(re
 ad,tcheck) scf=(maxcycle=1)\\title\\0,1\C,0,2.1436,0.781807,-0.425504\
 C,0,2.37166,-0.689158,-0.141734\C,0,0.291482,-0.862993,1.31365\C,0,-0.
 919335,-0.488096,0.532883\C,0,-1.27851,-1.12521,-0.626985\C,0,-2.50567
 ,-0.842497,-1.32012\C,0,-3.30837,0.102371,-0.667332\C,0,-1.78156,0.488
 071,1.04243\H,0,-1.55881,0.980198,2.02726\H,0,-4.2556,0.348599,-1.1796
 9\H,0,-2.89867,-1.49925,-2.14916\H,0,-0.586668,-1.93322,-1.04156\H,0,1

 Normal termination of Gaussian 16 at Tue Apr  8 20:30:45 2025.
