 Gaussian 16, Revision C.01,

 ----------------------------------------------------------------------
 #t hf aug-cc-pvdz symm=none int=(grid=ultrafine) guess=(read,tcheck) s
 table=(opt,rrhf)
 ----------------------------------------------------------------------
 -----
 title
 -----
 Symbolic Z-matrix:
 Charge =  0 Multiplicity = 1

 SCF Done:  E(RHF) =  -810.470640798     A.U. after   14 cycles
 Normal termination of Gaussian 16 at Tue Apr  8 19:49:15 2025.
 Gaussian 16:  ES64L-G16RevC.01  3-Jul-2019

 ----------------------------------------------------------------------
 #t hf aug-cc-pvdz iop(5/13=1,5/36=2,99/5=2) pseudo=read geom=check gue
 ss=(read,tcheck) scf=(maxcycle=1)
 ----------------------------------------------------------------------
 -----
 title
 -----
 Structure from the checkpoint file:  "ANI1ccx_1427_conf14_mol2.chk"
 Charge =  0 Multiplicity = 1

                         Standard orientation:
 ---------------------------------------------------------------------
 Center     Atomic      Atomic             Coordinates (Angstroms)
 Number     Number       Type             X           Y           Z
 ---------------------------------------------------------------------
      1          6           0       -2.179810   -1.087541   -0.341920
      2          6           0       -1.295890    0.109729    0.002352
      3          6           0       -3.591110   -0.802808    0.140425
      4          6           0        1.107329    0.701008    0.172011
      5          6           0        1.152768    2.260231    0.014769
      6          6           0        2.439170    0.063463   -0.280519
      7          6           0        2.570760   -1.451769    0.036050
      8          1           0       -0.691636    2.420430    0.378057
      9          1           0        4.633040   -1.374538   -0.393863
     10          1           0        3.939721   -2.933788    0.000826
     11          1           0        2.532349    0.158373   -1.401530
     12          1           0        3.211619    0.697364    0.169182
     13          1           0        1.067969    0.647658    1.299880
     14          1           0        0.263424   -0.887648   -0.869428
     15          1           0       -3.782021    1.072018   -0.185929
     16          1           0       -3.559150   -0.610146    1.220120
     17          1           0       -4.205210   -1.667842   -0.032949
     18          1           0       -2.249060   -1.204621   -1.424160
     19          1           0       -1.609049   -2.125181    1.292990
     20          1           0       -0.780710   -2.584671   -0.138089
     21          7           0       -1.636829   -2.276491    0.280863
     22          7           0       -0.006093    0.019747   -0.458202
     23          7           0        3.865831   -1.919298    0.030348
     24          8           0       -1.657991    1.004049    0.750255
     25          8           0       -4.165761    0.280086   -0.540754
     26          8           0        2.239168    2.788311   -0.032929
     27          8           0        1.618301   -2.181589    0.152417
     28          8           0        0.022414    2.968020    0.002863
 ---------------------------------------------------------------------

 SCF Done:  E(RHF) =  -811.281373436     A.U. after    2 cycles

 The electronic state is 1-A.
 Alpha  occ. eigenvalues --  -20.58818 -20.55457 -20.55379 -20.54603 -20.53366
 Alpha  occ. eigenvalues --  -15.55972 -15.55348 -15.50605 -11.40280 -11.39913
 Alpha  occ. eigenvalues --  -11.38567 -11.32952 -11.29021 -11.28736 -11.28476
 Alpha  occ. eigenvalues --   -1.54257  -1.51296  -1.50743  -1.45805  -1.45178
 Alpha  occ. eigenvalues --   -1.27553  -1.24586  -1.21096  -1.08733  -1.01618
 Alpha  occ. eigenvalues --   -0.96454  -0.90077  -0.85831  -0.83256  -0.82479
 Alpha  occ. eigenvalues --   -0.77642  -0.76944  -0.75275  -0.73649  -0.72331
 Alpha  occ. eigenvalues --   -0.70866  -0.68998  -0.66718  -0.66298  -0.65252
 Alpha  occ. eigenvalues --   -0.65132  -0.63447  -0.61692  -0.60374  -0.58937
 Alpha  occ. eigenvalues --   -0.57650  -0.56438  -0.56032  -0.54174  -0.51057
 Alpha  occ. eigenvalues --   -0.50101  -0.48427  -0.47904  -0.46932  -0.45715
 Alpha  occ. eigenvalues --   -0.45246  -0.42557  -0.42163
 Alpha virt. eigenvalues --    0.01627   0.03595   0.03864   0.04311   0.04832
 Alpha virt. eigenvalues --    0.04909   0.05420   0.06501   0.06727   0.06850
 Alpha virt. eigenvalues --    0.07657   0.08234   0.09072   0.10697   0.11204

 Mulliken charges:
               1
     1  C   -1.612022
     2  C    0.341411
     3  C    1.258570
     4  C   -1.110487
     5  C    2.423404
     6  C   -0.402341
     7  C    0.599478
     8  H    0.514635
     9  H    0.086069
    10  H    0.130369
    11  H    0.335175
    12  H    0.229223
    13  H    0.210771
    14  H    0.326237
    15  H    0.314988
    16  H    0.154676
    17  H    0.045304
    18  H    0.055372
    19  H    0.246345
    20  H    0.130969
    21  N    0.705865
    22  N    1.073603
    23  N    0.734299
    24  O   -1.451545
    25  O   -1.161479
    26  O   -1.308813
    27  O   -1.446565
    28  O   -1.423512
 Sum of Mulliken charges =  -0.00000

 Dipole moment (field-independent basis, Debye):
    X=              3.9486    Y=             -4.4394    Z=             -0.3311  Tot=              5.9506

 Test job not archived.
 1\1\GINC-SE088\SP\RHF\Aug-CC-pVDZ\C7H13N3O5\OHZDE\08-Apr-2025\0\\#t hf
  aug-cc-pvdz iop(5/13=1,5/36=2,99/5=2) pseudo=read geom=check guess=(r
 ead,tcheck) scf=(maxcycle=1)\\title\\0,1\C,0,-2.17981,-1.08754,-0.3419
 2\C,0,-1.29589,0.10973,0.0023521\C,0,-3.59111,-0.802806,0.140425\C,0,1
 .10733,0.701007,0.172011\C,0,1.15277,2.26023,0.0147692\C,0,2.43917,0.0
 634621,-0.280519\C,0,2.57076,-1.45177,0.0360495\H,0,-0.691634,2.42043,
 0.378057\H,0,4.63304,-1.37454,-0.393863\H,0,3.93972,-2.93379,0.0008257
 7\H,0,2.53235,0.158372,-1.40153\H,0,3.21162,0.697362,0.169182\H,0,1.06

 Normal termination of Gaussian 16 at Tue Apr  8 19:49:46 2025.
