 Gaussian 16, Revision C.01,

 ----------------------------------------------------------------------
 #t hf aug-cc-pvdz symm=none int=(grid=ultrafine) guess=(read,tcheck) s
 table=(opt,rrhf)
 ----------------------------------------------------------------------
 -----
 title
 -----
 Symbolic Z-matrix:
 Charge =  0 Multiplicity = 1

 SCF Done:  E(RHF) =  -962.251807656     A.U. after   15 cycles
 Normal termination of Gaussian 16 at Tue Apr  8 20:57:17 2025.
 Gaussian 16:  ES64L-G16RevC.01  3-Jul-2019

 ----------------------------------------------------------------------
 #t hf aug-cc-pvdz iop(5/13=1,5/36=2,99/5=2) pseudo=read geom=check gue
 ss=(read,tcheck) scf=(maxcycle=1)
 ----------------------------------------------------------------------
 -----
 title
 -----
 Structure from the checkpoint file:  "ANI1ccx_1756_conf10_mol1.chk"
 Charge =  0 Multiplicity = 1

                         Standard orientation:
 ---------------------------------------------------------------------
 Center     Atomic      Atomic             Coordinates (Angstroms)
 Number     Number       Type             X           Y           Z
 ---------------------------------------------------------------------
      1          6           0        0.527071    1.023320   -0.132396
      2          6           0       -0.536969    1.532250    0.856248
      3          6           0        1.846829    1.632350    0.255063
      4          6           0        3.031399    1.175250   -0.597671
      5          6           0        3.475309   -0.264605   -0.254076
      6          6           0       -2.012901   -0.248371   -0.041589
      7          6           0       -3.397741   -0.207287   -0.661006
      8          6           0       -1.692220   -1.690041    0.549077
      9          6           0       -0.196539   -1.961030    0.603943
     10          1           0       -3.392121    1.644419   -0.415248
     11          1           0        1.299989   -1.413260    1.581680
     12          1           0       -2.132370   -2.382091   -0.158611
     13          1           0       -2.112840   -1.719101    1.552250
     14          1           0       -1.383621   -0.048937   -0.866285
     15          1           0       -2.438531    1.095039    1.560840
     16          1           0        4.802800   -1.648200   -0.878987
     17          1           0        4.859639   -0.161110   -1.831870
     18          1           0        2.709509    1.195110   -1.671680
     19          1           0        3.909499    1.835050   -0.584777
     20          1           0        2.123119    1.423850    1.311800
     21          1           0        1.710839    2.744090    0.157112
     22          1           0        0.571502    0.011982    0.050453
     23          1           0        0.553192    0.733503   -2.190760
     24          1           0       -0.035805    2.174840   -1.791040
     25          7           0       -0.010530    1.218860   -1.456270
     26          7           0        4.537569   -0.675902   -1.018790
     27          7           0       -1.750841    0.816238    0.854132
     28          8           0       -0.391271    2.537490    1.539330
     29          8           0        2.882909   -0.995261    0.527902
     30          8           0       -3.908141   -1.214611   -1.130800
     31          8           0        0.419938   -2.317140   -0.389828
     32          8           0        0.361373   -1.593480    1.755130
     33          8           0       -3.957761    0.964182   -0.794727
 ---------------------------------------------------------------------

 SCF Done:  E(RHF) =  -963.209163517     A.U. after    2 cycles

 The electronic state is 1-A.
 Alpha  occ. eigenvalues --  -20.61537 -20.59379 -20.54346 -20.53521 -20.52980
 Alpha  occ. eigenvalues --  -20.52931 -15.55080 -15.54815 -15.53002 -11.39841
 Alpha  occ. eigenvalues --  -11.39184 -11.39136 -11.38085 -11.30037 -11.29040
 Alpha  occ. eigenvalues --  -11.27829 -11.25759 -11.25529  -1.57053  -1.54589
 Alpha  occ. eigenvalues --   -1.48778  -1.47558  -1.44783  -1.44151  -1.27422
 Alpha  occ. eigenvalues --   -1.24183  -1.22721  -1.08821  -1.06882  -1.00632
 Alpha  occ. eigenvalues --   -0.97081  -0.90706  -0.85833  -0.84285  -0.82300
 Alpha  occ. eigenvalues --   -0.81654  -0.78878  -0.77230  -0.75549  -0.72124
 Alpha  occ. eigenvalues --   -0.71319  -0.70686  -0.68973  -0.68020  -0.67797
 Alpha  occ. eigenvalues --   -0.66960  -0.65811  -0.64492  -0.63810  -0.62600
 Alpha  occ. eigenvalues --   -0.62121  -0.60318  -0.60072  -0.57590  -0.57177
 Alpha  occ. eigenvalues --   -0.55773  -0.54506  -0.53494  -0.52684  -0.51496
 Alpha  occ. eigenvalues --   -0.47967  -0.47134  -0.46740  -0.46491  -0.45807
 Alpha  occ. eigenvalues --   -0.45072  -0.43587  -0.43019  -0.41970
 Alpha virt. eigenvalues --    0.01331   0.02682   0.03311   0.03963   0.04701
 Alpha virt. eigenvalues --    0.05089   0.05427   0.06227   0.06292   0.06794
 Alpha virt. eigenvalues --    0.07178   0.08327   0.08831   0.09056   0.09973

 Mulliken charges:
               1
     1  C   -0.591757
     2  C    0.232913
     3  C   -0.484362
     4  C   -0.100583
     5  C    0.092496
     6  C   -1.579629
     7  C    2.587902
     8  C   -0.140908
     9  C    2.925004
    10  H    0.447245
    11  H    0.587440
    12  H    0.203127
    13  H    0.166614
    14  H    0.447347
    15  H    0.133381
    16  H    0.101917
    17  H    0.021645
    18  H    0.307130
    19  H    0.140009
    20  H    0.148787
    21  H    0.184815
    22  H    0.118239
    23  H    0.319754
    24  H    0.343471
    25  N   -0.073085
    26  N    0.950687
    27  N    1.092427
    28  O   -1.404869
    29  O   -1.383080
    30  O   -1.389909
    31  O   -1.461333
    32  O   -1.521331
    33  O   -1.421502
 Sum of Mulliken charges =  -0.00000

 Dipole moment (field-independent basis, Debye):
    X=              6.1244    Y=              3.5622    Z=             -1.9751  Tot=              7.3552

 Test job not archived.
 1\1\GINC-SE081\SP\RHF\Aug-CC-pVDZ\C9H15N3O6\OHZDE\08-Apr-2025\0\\#t hf
  aug-cc-pvdz iop(5/13=1,5/36=2,99/5=2) pseudo=read geom=check guess=(r
 ead,tcheck) scf=(maxcycle=1)\\title\\0,1\C,0,0.527072,1.02332,-0.13239
 6\C,0,-0.536968,1.53225,0.856248\C,0,1.84683,1.63235,0.255063\C,0,3.03
 14,1.17525,-0.597671\C,0,3.47531,-0.264605,-0.254076\C,0,-2.0129,-0.24
 837,-0.0415886\C,0,-3.39774,-0.207286,-0.661006\C,0,-1.69222,-1.69004,
 0.549077\C,0,-0.196539,-1.96103,0.603943\H,0,-3.39212,1.64442,-0.41524
 8\H,0,1.29999,-1.41326,1.58168\H,0,-2.13237,-2.38209,-0.158611\H,0,-2.

 Normal termination of Gaussian 16 at Tue Apr  8 20:58:13 2025.
