 Gaussian 16, Revision C.01,

 ----------------------------------------------------------------------
 #t hf aug-cc-pvdz symm=none int=(grid=ultrafine) guess=(read,tcheck) s
 table=(opt,rrhf)
 ----------------------------------------------------------------------
 -----
 title
 -----
 Symbolic Z-matrix:
 Charge =  0 Multiplicity = 1

 SCF Done:  E(RHF) =  -603.568583051     A.U. after   15 cycles
 Normal termination of Gaussian 16 at Tue Apr  8 22:19:18 2025.
 Gaussian 16:  ES64L-G16RevC.01  3-Jul-2019

 ----------------------------------------------------------------------
 #t hf aug-cc-pvdz iop(5/13=1,5/36=2,99/5=2) pseudo=read geom=check gue
 ss=(read,tcheck) scf=(maxcycle=1)
 ----------------------------------------------------------------------
 -----
 title
 -----
 Structure from the checkpoint file:  "ANI1ccx_999_conf19_mol1.chk"
 Charge =  0 Multiplicity = 1

                         Standard orientation:
 ---------------------------------------------------------------------
 Center     Atomic      Atomic             Coordinates (Angstroms)
 Number     Number       Type             X           Y           Z
 ---------------------------------------------------------------------
      1          6           0       -2.233150    0.086479   -0.546925
      2          6           0       -1.507870    0.147817    0.801234
      3          6           0        0.738163    0.209121   -0.223894
      4          6           0        1.718901   -0.879342    0.097051
      5          6           0        1.427849    1.556440   -0.341565
      6          1           0        0.363655   -2.177181   -0.298197
      7          1           0       -0.022481    2.716589   -0.038135
      8          1           0        2.269099    1.447411   -1.016780
      9          1           0        1.843609    1.848981    0.616203
     10          1           0        0.422492   -0.065536   -1.222790
     11          1           0       -1.763261    0.789345   -1.243140
     12          1           0       -3.175110    0.421504   -0.215354
     13          1           0       -1.890899   -1.258562   -2.193570
     14          1           0       -3.056139   -1.659563   -1.234550
     15          1           0        0.297786    0.091977    1.768380
     16          7           0       -2.190649   -1.215423   -1.209280
     17          7           0       -0.156501    0.074107    0.866118
     18          8           0        0.573482    2.528330   -0.869273
     19          8           0       -2.188700    0.241255    1.722390
     20          8           0        2.819670   -0.716041    0.611064
     21          8           0        1.330292   -2.164650   -0.368594
 ---------------------------------------------------------------------

 SCF Done:  E(RHF) =  -604.174980285     A.U. after    2 cycles

 The electronic state is 1-A.
 Alpha  occ. eigenvalues --  -20.60276 -20.58631 -20.56056 -20.53026 -15.55520
 Alpha  occ. eigenvalues --  -15.51907 -11.41262 -11.36393 -11.31522 -11.30599
 Alpha  occ. eigenvalues --  -11.28874  -1.53232  -1.52564  -1.47485  -1.45415
 Alpha  occ. eigenvalues --   -1.29335  -1.21327  -1.07960  -0.99596  -0.92870
 Alpha  occ. eigenvalues --   -0.86271  -0.82604  -0.76541  -0.75221  -0.72898
 Alpha  occ. eigenvalues --   -0.72801  -0.70767  -0.68477  -0.67705  -0.64801
 Alpha  occ. eigenvalues --   -0.63507  -0.61429  -0.60947  -0.59578  -0.57929
 Alpha  occ. eigenvalues --   -0.56046  -0.53362  -0.49537  -0.49212  -0.48565
 Alpha  occ. eigenvalues --   -0.47063  -0.43266  -0.42275
 Alpha virt. eigenvalues --    0.02407   0.03474   0.04165   0.04447   0.05330
 Alpha virt. eigenvalues --    0.05762   0.06061   0.06709   0.07397   0.08821
 Alpha virt. eigenvalues --    0.09829   0.11275   0.11514   0.11833   0.12543

 Mulliken charges:
               1
     1  C   -0.757709
     2  C    0.728513
     3  C   -1.356795
     4  C    2.468049
     5  C    1.175941
     6  H    0.461619
     7  H    0.396229
     8  H    0.075307
     9  H    0.140907
    10  H    0.170110
    11  H    0.259916
    12  H   -0.022634
    13  H    0.123654
    14  H    0.165918
    15  H    0.290199
    16  N    0.276192
    17  N    0.648541
    18  O   -1.267254
    19  O   -1.280768
    20  O   -1.336911
    21  O   -1.359023
 Sum of Mulliken charges =  -0.00000

 Dipole moment (field-independent basis, Debye):
    X=             -2.8964    Y=              1.0658    Z=             -2.4856  Tot=              3.9627

 Test job not archived.
 1\1\GINC-SE250\SP\RHF\Aug-CC-pVDZ\C5H10N2O4\OHZDE\08-Apr-2025\0\\#t hf
  aug-cc-pvdz iop(5/13=1,5/36=2,99/5=2) pseudo=read geom=check guess=(r
 ead,tcheck) scf=(maxcycle=1)\\title\\0,1\C,0,-2.23315,0.0864811,-0.546
 925\C,0,-1.50787,0.147819,0.801234\C,0,0.738163,0.209121,-0.223894\C,0
 ,1.7189,-0.879343,0.0970515\C,0,1.42785,1.55644,-0.341565\H,0,0.363653
 ,-2.17718,-0.298197\H,0,-0.0224788,2.71659,-0.0381341\H,0,2.2691,1.447
 41,-1.01678\H,0,1.84361,1.84898,0.616203\H,0,0.422492,-0.0655358,-1.22
 279\H,0,-1.76326,0.789347,-1.24314\H,0,-3.17511,0.421507,-0.215354\H,0

 Normal termination of Gaussian 16 at Tue Apr  8 22:19:31 2025.
