 Gaussian 16, Revision C.01,

 ----------------------------------------------------------------------
 #t hf aug-cc-pvdz symm=none int=(grid=ultrafine) guess=(read,tcheck) s
 table=(opt,rrhf)
 ----------------------------------------------------------------------
 -----
 title
 -----
 Symbolic Z-matrix:
 Charge =  0 Multiplicity = 1

 SCF Done:  E(RHF) =  -674.238157496     A.U. after   17 cycles
 Normal termination of Gaussian 16 at Tue Apr  8 19:32:50 2025.
 Gaussian 16:  ES64L-G16RevC.01  3-Jul-2019

 ----------------------------------------------------------------------
 #t hf aug-cc-pvdz iop(5/13=1,5/36=2,99/5=2) pseudo=read geom=check gue
 ss=(read,tcheck) scf=(maxcycle=1)
 ----------------------------------------------------------------------
 -----
 title
 -----
 Structure from the checkpoint file:  "ANI1ccx_1351_conf3_mol1.chk"
 Charge =  0 Multiplicity = 1

                         Standard orientation:
 ---------------------------------------------------------------------
 Center     Atomic      Atomic             Coordinates (Angstroms)
 Number     Number       Type             X           Y           Z
 ---------------------------------------------------------------------
      1          6           0       -3.467459    0.513428    0.451248
      2          6           0       -1.136119    0.028177   -0.068968
      3          6           0        0.370056    1.789159   -0.180891
      4          6           0        1.227650   -0.303844    0.138508
      5          6           0        3.538300   -0.527320    0.249963
      6          6           0       -0.097293   -0.855779    0.058489
      7          1           0        3.772951   -0.074830   -0.719719
      8          1           0        4.125949   -1.422644    0.394839
      9          1           0        3.659591    0.155619    1.117640
     10          1           0        1.471333    3.451858   -0.555782
     11          1           0       -3.816799    0.840194   -0.539293
     12          1           0       -4.222729   -0.092892    0.947101
     13          1           0       -3.147608    1.414602    1.022100
     14          1           0       -0.252927    3.680339   -0.625515
     15          7           0       -0.929589    1.370190   -0.125979
     16          7           0        0.501302    3.161369   -0.241047
     17          7           0        1.480881    1.038958   -0.050514
     18          7           0       -0.182708   -2.303011   -0.052787
     19          8           0        2.206920   -1.141853    0.245001
     20          8           0       -2.371950   -0.415103    0.203670
     21          8           0       -1.121192   -2.779010   -0.653569
 ---------------------------------------------------------------------

 SCF Done:  E(RHF) =  -674.900275911     A.U. after    2 cycles

 The electronic state is 1-A.
 Alpha  occ. eigenvalues --  -20.61118 -20.58917 -20.58660 -15.62686 -15.53913
 Alpha  occ. eigenvalues --  -15.51234 -15.50097 -11.39189 -11.38311 -11.37841
 Alpha  occ. eigenvalues --  -11.31347 -11.30483 -11.26039  -1.56315  -1.55442
 Alpha  occ. eigenvalues --   -1.51508  -1.32005  -1.21335  -1.19256  -1.11972
 Alpha  occ. eigenvalues --   -1.00313  -0.98977  -0.94516  -0.88764  -0.87222
 Alpha  occ. eigenvalues --   -0.79399  -0.77917  -0.73123  -0.72323  -0.70217
 Alpha  occ. eigenvalues --   -0.69460  -0.67892  -0.66677  -0.64636  -0.62077
 Alpha  occ. eigenvalues --   -0.61911  -0.59580  -0.58804  -0.57001  -0.54788
 Alpha  occ. eigenvalues --   -0.54204  -0.53303  -0.51966  -0.47598  -0.46840
 Alpha  occ. eigenvalues --   -0.43224  -0.39674  -0.35542
 Alpha virt. eigenvalues --    0.02651   0.03815   0.04254   0.04308   0.05028
 Alpha virt. eigenvalues --    0.05678   0.06045   0.06156   0.07328   0.07825
 Alpha virt. eigenvalues --    0.10099   0.10839   0.10945   0.11492   0.12038

 Mulliken charges:
               1
     1  C    0.134146
     2  C    0.614443
     3  C   -0.781989
     4  C    0.266321
     5  C    0.125059
     6  C   -0.744791
     7  H    0.225647
     8  H   -0.015264
     9  H    0.274808
    10  H    0.239456
    11  H    0.167618
    12  H    0.030783
    13  H    0.236602
    14  H    0.116561
    15  N    0.723756
    16  N    0.657264
    17  N    0.672043
    18  N    1.460720
    19  O   -1.642023
    20  O   -1.653390
    21  O   -1.107769
 Sum of Mulliken charges =   0.00000

 Dipole moment (field-independent basis, Debye):
    X=              1.3739    Y=              4.3171    Z=             -0.3467  Tot=              4.5437

 Test job not archived.
 1\1\GINC-SE166\SP\RHF\Aug-CC-pVDZ\C6H8N4O3\OHZDE\08-Apr-2025\0\\#t hf
 aug-cc-pvdz iop(5/13=1,5/36=2,99/5=2) pseudo=read geom=check guess=(re
 ad,tcheck) scf=(maxcycle=1)\\title\\0,1\C,0,-3.46746,0.513426,0.451248
 \C,0,-1.13612,0.028177,-0.0689676\C,0,0.370054,1.78916,-0.180891\C,0,1
 .22765,-0.303842,0.138508\C,0,3.5383,-0.527316,0.249963\C,0,-0.0972927
 ,-0.855778,0.0584888\H,0,3.77295,-0.0748265,-0.719719\H,0,4.12595,-1.4
 2264,0.394839\H,0,3.65959,0.155623,1.11764\H,0,1.47133,3.45186,-0.5557
 82\H,0,-3.8168,0.840192,-0.539293\H,0,-4.22273,-0.0928952,0.947101\H,0

 Normal termination of Gaussian 16 at Tue Apr  8 19:33:18 2025.
