 Gaussian 16, Revision C.01,

 ----------------------------------------------------------------------
 #t hf aug-cc-pvdz symm=none int=(grid=ultrafine) guess=(read,tcheck) s
 table=(opt,rrhf)
 ----------------------------------------------------------------------
 -----
 title
 -----
 Symbolic Z-matrix:
 Charge =  0 Multiplicity = 1

 SCF Done:  E(RHF) =  -872.535424575     A.U. after   14 cycles
 Normal termination of Gaussian 16 at Tue Apr  8 22:11:33 2025.
 Gaussian 16:  ES64L-G16RevC.01  3-Jul-2019

 ----------------------------------------------------------------------
 #t hf aug-cc-pvdz iop(5/13=1,5/36=2,99/5=2) pseudo=read geom=check gue
 ss=(read,tcheck) scf=(maxcycle=1)
 ----------------------------------------------------------------------
 -----
 title
 -----
 Structure from the checkpoint file:  "ANI1ccx_68_conf2_mol1.chk"
 Charge =  0 Multiplicity = 1

                         Standard orientation:
 ---------------------------------------------------------------------
 Center     Atomic      Atomic             Coordinates (Angstroms)
 Number     Number       Type             X           Y           Z
 ---------------------------------------------------------------------
      1          6           0       -0.979386    2.062639    0.514192
      2          6           0        4.199489    0.829635    0.170013
      3          6           0        3.283110   -0.404413    0.180441
      4          6           0        1.196010   -1.468210   -0.645671
      5          6           0        1.913819   -0.103296   -0.460011
      6          6           0        3.030450   -0.892327    1.637360
      7          6           0       -2.601051    0.195314   -0.337879
      8          6           0       -2.010651    0.894900    0.876829
      9          6           0        0.147181    1.608000   -0.364819
     10          6           0       -3.026820   -1.227841    0.013102
     11          1           0        3.722580   -1.232119   -0.396824
     12          1           0       -0.463365   -2.250640   -0.320511
     13          1           0        3.989350   -1.097369    2.150040
     14          1           0        2.528529   -0.077350    2.163640
     15          1           0        2.426490   -1.773839    1.646960
     16          1           0        3.835279    1.659641    0.786486
     17          1           0        4.261699    1.206491   -0.849982
     18          1           0        5.202959    0.628816    0.513700
     19          1           0        1.960269    0.257268   -1.503140
     20          1           0       -4.535450   -2.174532    0.685403
     21          1           0       -3.496981    0.704858   -0.619208
     22          1           0       -1.881601    0.289341   -1.167660
     23          1           0       -2.737001    1.312779    1.520570
     24          1           0       -1.528991    0.212324    1.593580
     25          1           0       -0.499132    2.341600    1.483910
     26          1           0       -2.468742    3.407219    0.355451
     27          1           0       -1.594132    3.015939   -1.037810
     28          1           0        0.821933    0.448769    1.139240
     29          7           0       -1.555282    3.231959   -0.069527
     30          7           0        1.115819    0.846260    0.264797
     31          8           0        1.636830   -2.393770   -1.257780
     32          8           0        0.181800    1.801410   -1.555920
     33          8           0       -2.299070   -2.200021   -0.001374
     34          8           0       -4.272590   -1.266072    0.421294
     35          8           0        0.080484   -1.490690    0.017274
 ---------------------------------------------------------------------

 SCF Done:  E(RHF) =  -873.422609866     A.U. after    2 cycles

 The electronic state is 1-A.
 Alpha  occ. eigenvalues --  -20.63145 -20.58769 -20.55478 -20.52937 -20.52354
 Alpha  occ. eigenvalues --  -15.52700 -15.49585 -11.41973 -11.37591 -11.36617
 Alpha  occ. eigenvalues --  -11.29324 -11.28207 -11.26993 -11.26802 -11.24709
 Alpha  occ. eigenvalues --  -11.23047 -11.22134  -1.58528  -1.55883  -1.48626
 Alpha  occ. eigenvalues --   -1.47599  -1.44959  -1.25709  -1.21775  -1.09765
 Alpha  occ. eigenvalues --   -1.09125  -1.00565  -0.96514  -0.94056  -0.91069
 Alpha  occ. eigenvalues --   -0.85402  -0.84503  -0.82098  -0.79167  -0.75550
 Alpha  occ. eigenvalues --   -0.74373  -0.73300  -0.71795  -0.70204  -0.67541
 Alpha  occ. eigenvalues --   -0.67324  -0.66466  -0.65675  -0.64195  -0.62550
 Alpha  occ. eigenvalues --   -0.62180  -0.61065  -0.59596  -0.59260  -0.58496
 Alpha  occ. eigenvalues --   -0.57336  -0.56673  -0.55218  -0.54403  -0.53739
 Alpha  occ. eigenvalues --   -0.52290  -0.49809  -0.49680  -0.49183  -0.48222
 Alpha  occ. eigenvalues --   -0.47575  -0.46135  -0.45762  -0.44164  -0.43276
 Alpha  occ. eigenvalues --   -0.40364
 Alpha virt. eigenvalues --    0.02233   0.02886   0.03271   0.03843   0.04367
 Alpha virt. eigenvalues --    0.04639   0.05272   0.05948   0.06104   0.06821
 Alpha virt. eigenvalues --    0.07247   0.07380   0.08204   0.08897   0.09844

 Mulliken charges:
               1
     1  C   -2.035247
     2  C   -0.135492
     3  C   -0.715517
     4  C    3.054094
     5  C   -2.137569
     6  C   -0.004741
     7  C   -0.364429
     8  C   -0.147177
     9  C    1.260738
    10  C    2.705550
    11  H    0.059262
    12  H    0.574881
    13  H    0.111494
    14  H    0.285739
    15  H    0.072858
    16  H    0.267487
    17  H    0.210213
    18  H    0.072808
    19  H    0.116123
    20  H    0.394668
    21  H    0.107653
    22  H    0.139886
    23  H   -0.044753
    24  H    0.205590
    25  H    0.127977
    26  H    0.218035
    27  H    0.288870
    28  H    0.375204
    29  N    0.838273
    30  N    1.530827
    31  O   -1.538014
    32  O   -1.584595
    33  O   -1.429148
    34  O   -1.385808
    35  O   -1.495740
 Sum of Mulliken charges =  -0.00000

 Dipole moment (field-independent basis, Debye):
    X=             -4.2884    Y=              0.0992    Z=              3.9034  Tot=              5.7997

 Test job not archived.
 1\1\GINC-SE094\SP\RHF\Aug-CC-pVDZ\C10H18N2O5\OHZDE\08-Apr-2025\0\\#t h
 f aug-cc-pvdz iop(5/13=1,5/36=2,99/5=2) pseudo=read geom=check guess=(
 read,tcheck) scf=(maxcycle=1)\\title\\0,1\C,0,-0.979385,2.06264,0.5141
 92\C,0,4.19949,0.829634,0.170013\C,0,3.28311,-0.404414,0.180441\C,0,1.
 19601,-1.46821,-0.645671\C,0,1.91382,-0.103296,-0.460011\C,0,3.03045,-
 0.892328,1.63736\C,0,-2.60105,0.195315,-0.337879\C,0,-2.01065,0.894901
 ,0.876829\C,0,0.147182,1.608,-0.364819\C,0,-3.02682,-1.22784,0.0131018
 \H,0,3.72258,-1.23212,-0.396824\H,0,-0.463365,-2.25064,-0.320511\H,0,3

 Normal termination of Gaussian 16 at Tue Apr  8 22:12:30 2025.
