 Gaussian 16, Revision C.01,

 ----------------------------------------------------------------------
 #t hf aug-cc-pvdz symm=none int=(grid=ultrafine) guess=(read,tcheck) s
 table=(opt,rrhf)
 ----------------------------------------------------------------------
 -----
 title
 -----
 Symbolic Z-matrix:
 Charge =  0 Multiplicity = 1

 SCF Done:  E(RHF) =  -585.406046199     A.U. after   15 cycles
 Normal termination of Gaussian 16 at Tue Apr  8 22:15:40 2025.
 Gaussian 16:  ES64L-G16RevC.01  3-Jul-2019

 ----------------------------------------------------------------------
 #t hf aug-cc-pvdz iop(5/13=1,5/36=2,99/5=2) pseudo=read geom=check gue
 ss=(read,tcheck) scf=(maxcycle=1)
 ----------------------------------------------------------------------
 -----
 title
 -----
 Structure from the checkpoint file:  "ANI1ccx_978_conf1_mol1.chk"
 Charge =  0 Multiplicity = 1

                         Standard orientation:
 ---------------------------------------------------------------------
 Center     Atomic      Atomic             Coordinates (Angstroms)
 Number     Number       Type             X           Y           Z
 ---------------------------------------------------------------------
      1          6           0        0.361061   -1.482561   -0.279489
      2          6           0       -0.230652   -0.245011    0.373484
      3          6           0       -1.653300   -0.353289    0.872991
      4          6           0        0.736827    0.276564    1.460730
      5          1           0        2.208180   -0.014664    0.357781
      6          1           0        0.811437   -0.566394    2.195830
      7          1           0        0.290048    1.090370    1.995140
      8          1           0       -1.871099    0.627631    1.193770
      9          1           0       -3.419551   -0.823750    0.072567
     10          1           0        0.218250   -2.337940    0.417266
     11          1           0       -0.235135   -1.647440   -1.172080
     12          1           0        1.666239   -0.767980   -1.408220
     13          1           0       -1.693851   -1.098868    1.702520
     14          7           0       -0.194377    0.896935   -0.694158
     15          8           0        0.398738    0.675573   -1.727620
     16          8           0        1.749069   -1.403992   -0.655147
     17          8           0       -2.510820   -0.674599   -0.210807
     18          8           0        1.965191    0.682111    0.996756
     19          8           0       -0.589364    1.981691   -0.285904
 ---------------------------------------------------------------------

 SCF Done:  E(RHF) =  -585.988660409     A.U. after    2 cycles

 The electronic state is 1-A.
 Alpha  occ. eigenvalues --  -20.60688 -20.59925 -20.58451 -20.58293 -20.55146
 Alpha  occ. eigenvalues --  -15.79190 -11.33139 -11.32975 -11.31989 -11.31103
 Alpha  occ. eigenvalues --   -1.68165  -1.52579  -1.48834  -1.48459  -1.46310
 Alpha  occ. eigenvalues --   -1.16612  -0.98899  -0.96729  -0.94743  -0.84951
 Alpha  occ. eigenvalues --   -0.78731  -0.76109  -0.75767  -0.73614  -0.71684
 Alpha  occ. eigenvalues --   -0.68454  -0.67542  -0.65524  -0.62311  -0.60752
 Alpha  occ. eigenvalues --   -0.60039  -0.56724  -0.56141  -0.52962  -0.50628
 Alpha  occ. eigenvalues --   -0.48521  -0.48290  -0.46489  -0.45390  -0.44553
 Alpha virt. eigenvalues --    0.02187   0.03314   0.03920   0.04930   0.05325
 Alpha virt. eigenvalues --    0.05853   0.06455   0.06646   0.07846   0.09698
 Alpha virt. eigenvalues --    0.10964   0.11868   0.13005   0.13448   0.14104

 Mulliken charges:
               1
     1  C    1.506725
     2  C   -3.993596
     3  C    1.379390
     4  C    1.688429
     5  H    0.503430
     6  H    0.318882
     7  H    0.117039
     8  H    0.201625
     9  H    0.307951
    10  H    0.239499
    11  H    0.314373
    12  H    0.425866
    13  H    0.359270
    14  N    3.639989
    15  O   -1.568990
    16  O   -1.235985
    17  O   -1.219917
    18  O   -1.324953
    19  O   -1.659029
 Sum of Mulliken charges =  -0.00000

 Dipole moment (field-independent basis, Debye):
    X=             -3.4405    Y=             -3.3170    Z=              2.4903  Tot=              5.3889

 Test job not archived.
 1\1\GINC-SE082\SP\RHF\Aug-CC-pVDZ\C4H9N1O5\OHZDE\08-Apr-2025\0\\#t hf
 aug-cc-pvdz iop(5/13=1,5/36=2,99/5=2) pseudo=read geom=check guess=(re
 ad,tcheck) scf=(maxcycle=1)\\title\\0,1\C,0,0.361062,-1.48256,-0.27948
 9\C,0,-0.230652,-0.245011,0.373484\C,0,-1.6533,-0.353291,0.872991\C,0,
 0.736826,0.276565,1.46073\H,0,2.20818,-0.0146615,0.357781\H,0,0.811437
 ,-0.566393,2.19583\H,0,0.290046,1.09037,1.99514\H,0,-1.8711,0.627629,1
 .19377\H,0,-3.41955,-0.823754,0.0725673\H,0,0.218252,-2.33794,0.417266
 \H,0,-0.235133,-1.64744,-1.17208\H,0,1.66624,-0.767978,-1.40822\H,0,-1

 Normal termination of Gaussian 16 at Tue Apr  8 22:15:51 2025.
