 Gaussian 16, Revision C.01,

 ----------------------------------------------------------------------
 #t hf aug-cc-pvdz symm=none int=(grid=ultrafine) guess=(read,tcheck) s
 table=(opt,rrhf)
 ----------------------------------------------------------------------
 -----
 title
 -----
 Symbolic Z-matrix:
 Charge =  0 Multiplicity = 1

 SCF Done:  E(RHF) =  -435.803497727     A.U. after   14 cycles
 Normal termination of Gaussian 16 at Tue Apr  8 22:15:02 2025.
 Gaussian 16:  ES64L-G16RevC.01  3-Jul-2019

 ----------------------------------------------------------------------
 #t hf aug-cc-pvdz iop(5/13=1,5/36=2,99/5=2) pseudo=read geom=check gue
 ss=(read,tcheck) scf=(maxcycle=1)
 ----------------------------------------------------------------------
 -----
 title
 -----
 Structure from the checkpoint file:  "ANI1ccx_976_conf7_mol1.chk"
 Charge =  0 Multiplicity = 1

                         Standard orientation:
 ---------------------------------------------------------------------
 Center     Atomic      Atomic             Coordinates (Angstroms)
 Number     Number       Type             X           Y           Z
 ---------------------------------------------------------------------
      1          6           0        0.024241   -0.642023   -0.109355
      2          6           0        1.484898   -0.025668   -0.247621
      3          6           0       -1.079792    0.296415   -0.480721
      4          6           0       -2.373632   -0.388399   -0.755016
      5          1           0        0.636857    1.633921    0.360598
      6          1           0       -3.121912    0.296985   -1.174750
      7          1           0       -2.751082   -0.758436    0.209781
      8          1           0       -2.194842   -1.222889   -1.373530
      9          1           0       -1.249962    0.690847    1.300460
     10          1           0       -0.769843    0.773082   -1.477920
     11          1           0        0.073545   -1.583599   -0.701484
     12          1           0       -0.569758   -2.066839    1.361270
     13          1           0        0.615021   -1.012929    1.929240
     14          7           0       -0.169812   -1.058739    1.318280
     15          8           0        2.416628   -0.612507   -0.712566
     16          8           0       -1.174912    1.264711    0.511635
     17          8           0        1.531578    1.250181    0.187766
 ---------------------------------------------------------------------

 SCF Done:  E(RHF) =  -436.245278525     A.U. after    2 cycles

 The electronic state is 1-A.
 Alpha  occ. eigenvalues --  -20.58698 -20.57463 -20.54035 -15.52921 -11.39794
 Alpha  occ. eigenvalues --  -11.31145 -11.30429 -11.24183  -1.53596  -1.49626
 Alpha  occ. eigenvalues --   -1.45550  -1.20611  -1.06984  -0.97272  -0.85193
 Alpha  occ. eigenvalues --   -0.82349  -0.77386  -0.72605  -0.69207  -0.67287
 Alpha  occ. eigenvalues --   -0.66595  -0.64217  -0.61931  -0.60791  -0.58334
 Alpha  occ. eigenvalues --   -0.55970  -0.54376  -0.50310  -0.48002  -0.47666
 Alpha  occ. eigenvalues --   -0.46719  -0.42547
 Alpha virt. eigenvalues --    0.02562   0.03521   0.04071   0.04512   0.05898
 Alpha virt. eigenvalues --    0.06368   0.06987   0.07433   0.07882   0.11072
 Alpha virt. eigenvalues --    0.12138   0.12509   0.13470   0.13992   0.14841

 Mulliken charges:
               1
     1  C   -0.999250
     2  C    2.200700
     3  C    0.631299
     4  C   -0.153319
     5  H    0.583846
     6  H    0.180207
     7  H    0.213440
     8  H    0.173523
     9  H    0.344511
    10  H    0.167126
    11  H    0.033213
    12  H    0.257761
    13  H    0.139343
    14  N    0.248177
    15  O   -1.259573
    16  O   -1.392539
    17  O   -1.368466
 Sum of Mulliken charges =  -0.00000

 Dipole moment (field-independent basis, Debye):
    X=             -4.0156    Y=             -1.8661    Z=              0.9896  Tot=              4.5372

 Test job not archived.
 1\1\GINC-SE187\SP\RHF\Aug-CC-pVDZ\C4H9N1O3\OHZDE\08-Apr-2025\0\\#t hf
 aug-cc-pvdz iop(5/13=1,5/36=2,99/5=2) pseudo=read geom=check guess=(re
 ad,tcheck) scf=(maxcycle=1)\\title\\0,1\C,0,0.0242423,-0.642024,-0.109
 355\C,0,1.4849,-0.0256691,-0.247621\C,0,-1.07979,0.296414,-0.480721\C,
 0,-2.37363,-0.3884,-0.755016\H,0,0.636859,1.63392,0.360598\H,0,-3.1219
 1,0.296984,-1.17475\H,0,-2.75108,-0.758437,0.209781\H,0,-2.19484,-1.22
 289,-1.37353\H,0,-1.24996,0.690846,1.30046\H,0,-0.769841,0.773081,-1.4
 7792\H,0,0.0735462,-1.5836,-0.701484\H,0,-0.569757,-2.06684,1.36127\H,

 Normal termination of Gaussian 16 at Tue Apr  8 22:15:10 2025.
