 Gaussian 16, Revision C.01,

 ----------------------------------------------------------------------
 #t hf aug-cc-pvdz symm=none int=(grid=ultrafine) guess=(read,tcheck) s
 table=(opt,rrhf)
 ----------------------------------------------------------------------
 -----
 title
 -----
 Symbolic Z-matrix:
 Charge =  0 Multiplicity = 1

 SCF Done:  E(RHF) =  -431.110113850     A.U. after   16 cycles
 Normal termination of Gaussian 16 at Tue Apr  8 21:56:43 2025.
 Gaussian 16:  ES64L-G16RevC.01  3-Jul-2019

 ----------------------------------------------------------------------
 #t hf aug-cc-pvdz iop(5/13=1,5/36=2,99/5=2) pseudo=read geom=check gue
 ss=(read,tcheck) scf=(maxcycle=1)
 ----------------------------------------------------------------------
 -----
 title
 -----
 Structure from the checkpoint file:  "ANI1ccx_844_conf1_mol1.chk"
 Charge =  0 Multiplicity = 1

                         Standard orientation:
 ---------------------------------------------------------------------
 Center     Atomic      Atomic             Coordinates (Angstroms)
 Number     Number       Type             X           Y           Z
 ---------------------------------------------------------------------
      1          6           0       -1.430391   -0.286124   -0.013844
      2          6           0        0.090380    1.288180    0.009319
      3          6           0        0.722175    0.092797   -0.122154
      4          6           0        2.103049   -0.208039   -0.045602
      5          1           0        0.393291    2.280970    0.178344
      6          7           0        3.217499   -0.390076    0.105328
      7          8           0       -2.506401   -0.802615    0.082967
      8          8           0       -1.247171    1.074450   -0.009705
      9          8           0       -0.224810   -0.880749   -0.058508
 ---------------------------------------------------------------------

 SCF Done:  E(RHF) =  -431.522413526     A.U. after    2 cycles

 The electronic state is 1-A.
 Alpha  occ. eigenvalues --  -20.68112 -20.67858 -20.57675 -15.55849 -11.49378
 Alpha  occ. eigenvalues --  -11.39359 -11.38943 -11.32413  -1.69071  -1.57041
 Alpha  occ. eigenvalues --   -1.51655  -1.28447  -1.12967  -0.97821  -0.93545
 Alpha  occ. eigenvalues --   -0.86191  -0.77354  -0.76612  -0.69254  -0.67926
 Alpha  occ. eigenvalues --   -0.64708  -0.63831  -0.62708  -0.59003  -0.55417
 Alpha  occ. eigenvalues --   -0.54218  -0.50975  -0.40098
 Alpha virt. eigenvalues --    0.02278   0.03933   0.05897   0.06456   0.07202
 Alpha virt. eigenvalues --    0.09630   0.09818   0.10261   0.11118   0.11420
 Alpha virt. eigenvalues --    0.12526   0.13033   0.13833   0.14843   0.15253

 Mulliken charges:
               1
     1  C    2.471127
     2  C    0.897571
     3  C    2.314019
     4  C   -2.665833
     5  H   -0.166680
     6  N    1.068525
     7  O   -1.248981
     8  O   -1.208799
     9  O   -1.460949
 Sum of Mulliken charges =  -0.00000

 Dipole moment (field-independent basis, Debye):
    X=             -0.3337    Y=              3.3638    Z=             -0.3025  Tot=              3.3938

 Test job not archived.
 1\1\GINC-SE044\SP\RHF\Aug-CC-pVDZ\C4H1N1O3\OHZDE\08-Apr-2025\0\\#t hf
 aug-cc-pvdz iop(5/13=1,5/36=2,99/5=2) pseudo=read geom=check guess=(re
 ad,tcheck) scf=(maxcycle=1)\\title\\0,1\C,0,-1.43039,-0.286124,-0.0138
 435\C,0,0.0903815,1.28818,0.00931945\C,0,0.722176,0.0927975,-0.122154\
 C,0,2.10305,-0.208039,-0.0456016\H,0,0.393292,2.28097,0.178344\N,0,3.2
 175,-0.390076,0.105328\O,0,-2.5064,-0.802615,0.0829674\O,0,-1.24717,1.
 07445,-0.0097048\O,0,-0.224809,-0.880749,-0.0585078\\Version=ES64L-G16
 RevC.01\State=1-A\HF=-431.5224135\RMSD=3.508e-02\Dipole=-0.1312903,1.3

 Normal termination of Gaussian 16 at Tue Apr  8 21:56:46 2025.
