 Gaussian 16, Revision C.01,

 ----------------------------------------------------------------------
 #t hf aug-cc-pvdz symm=none int=(grid=ultrafine) guess=(read,tcheck) s
 table=(opt,rrhf)
 ----------------------------------------------------------------------
 -----
 title
 -----
 Symbolic Z-matrix:
 Charge =  0 Multiplicity = 1

 SCF Done:  E(RHF) =  -456.270917405     A.U. after   11 cycles
 Normal termination of Gaussian 16 at Tue Apr  8 21:09:51 2025.
 Gaussian 16:  ES64L-G16RevC.01  3-Jul-2019

 ----------------------------------------------------------------------
 #t hf aug-cc-pvdz iop(5/13=1,5/36=2,99/5=2) pseudo=read geom=check gue
 ss=(read,tcheck) scf=(maxcycle=1)
 ----------------------------------------------------------------------
 -----
 title
 -----
 Structure from the checkpoint file:  "ANI1ccx_1844_conf77_mol1.chk"
 Charge =  0 Multiplicity = 1

                         Standard orientation:
 ---------------------------------------------------------------------
 Center     Atomic      Atomic             Coordinates (Angstroms)
 Number     Number       Type             X           Y           Z
 ---------------------------------------------------------------------
      1          1           0        1.035728   -1.435982   -0.835715
      2          1           0       -2.167747    1.734893   -1.290470
      3          1           0       -0.764929    1.364261   -0.866974
      4          1           0       -1.118861   -0.780984   -1.175730
      5          1           0       -1.143363   -1.775538   -0.008896
      6          1           0       -2.034521   -0.597921    2.204880
      7          1           0        2.579908   -1.588205   -0.962797
      8          1           0       -1.787489    0.293312    0.861385
      9          1           0        0.400578   -0.037761    1.808950
     10          1           0        1.773360   -0.167657    1.094710
     11          1           0        1.016093    1.709328    0.268652
     12          1           0        1.349542    0.861768   -0.946120
     13          8           0       -0.778105   -1.676389   -0.924664
     14          8           0        1.297331    0.448019    1.688520
     15          8           0       -1.691068    1.042082   -0.823458
     16          8           0       -1.470310   -0.507935    1.409030
     17          8           0        1.888169   -0.962544   -0.668179
     18          8           0        0.861696    1.709328   -0.700232
 ---------------------------------------------------------------------

 SCF Done:  E(RHF) =  -456.745050533     A.U. after    2 cycles

 The electronic state is 1-A.
 Alpha  occ. eigenvalues --  -20.57763 -20.56810 -20.56460 -20.54333 -20.54139
 Alpha  occ. eigenvalues --  -20.53262  -1.46190  -1.44817  -1.44294  -1.41905
 Alpha  occ. eigenvalues --   -1.41281  -1.39552  -0.74062  -0.72119  -0.71882
 Alpha  occ. eigenvalues --   -0.68764  -0.68200  -0.67321  -0.62385  -0.61245
 Alpha  occ. eigenvalues --   -0.59876  -0.57434  -0.56676  -0.53484  -0.51126
 Alpha  occ. eigenvalues --   -0.50714  -0.50509  -0.48567  -0.48279  -0.46254
 Alpha virt. eigenvalues --    0.03124   0.03876   0.04205   0.06604   0.07463
 Alpha virt. eigenvalues --    0.07749   0.08180   0.08478   0.08986   0.10329
 Alpha virt. eigenvalues --    0.10891   0.11347   0.16728   0.18014   0.18422

 Mulliken charges:
               1
     1  H    0.720821
     2  H    0.422427
     3  H    0.810858
     4  H    0.672713
     5  H    0.666174
     6  H    0.489929
     7  H    0.474730
     8  H    0.761345
     9  H    0.659460
    10  H    0.634631
    11  H    0.627652
    12  H    0.686703
    13  O   -1.295632
    14  O   -1.144417
    15  O   -1.218083
    16  O   -1.311379
    17  O   -1.258325
    18  O   -1.399606
 Sum of Mulliken charges =  -0.00000

 Dipole moment (field-independent basis, Debye):
    X=             -2.0002    Y=             -0.8624    Z=              0.2105  Tot=              2.1883

 Test job not archived.
 1\1\GINC-SE036\SP\RHF\Aug-CC-pVDZ\H12O6\OHZDE\08-Apr-2025\0\\#t hf aug
 -cc-pvdz iop(5/13=1,5/36=2,99/5=2) pseudo=read geom=check guess=(read,
 tcheck) scf=(maxcycle=1)\\title\\0,1\H,0,1.03573,-1.43598,-0.835715\H,
 0,-2.16775,1.73489,-1.29047\H,0,-0.764932,1.36426,-0.866974\H,0,-1.118
 86,-0.780985,-1.17573\H,0,-1.14336,-1.77554,-0.00889626\H,0,-2.03452,-
 0.597924,2.20488\H,0,2.57991,-1.5882,-0.962797\H,0,-1.78749,0.293309,0
 .861385\H,0,0.400578,-0.0377595,1.80895\H,0,1.77336,-0.167654,1.09471\
 H,0,1.01609,1.70933,0.268652\H,0,1.34954,0.861771,-0.94612\O,0,-0.7781

 Normal termination of Gaussian 16 at Tue Apr  8 21:09:57 2025.
