 Gaussian 16, Revision C.01,

 ----------------------------------------------------------------------
 #t hf aug-cc-pvdz symm=none int=(grid=ultrafine) guess=(read,tcheck) s
 table=(opt,rrhf)
 ----------------------------------------------------------------------
 -----
 title
 -----
 Symbolic Z-matrix:
 Charge =  0 Multiplicity = 1

 SCF Done:  E(RHF) =  -205.845350481     A.U. after   15 cycles
 Normal termination of Gaussian 16 at Tue Apr  8 21:10:16 2025.
 Gaussian 16:  ES64L-G16RevC.01  3-Jul-2019

 ----------------------------------------------------------------------
 #t hf aug-cc-pvdz iop(5/13=1,5/36=2,99/5=2) pseudo=read geom=check gue
 ss=(read,tcheck) scf=(maxcycle=1)
 ----------------------------------------------------------------------
 -----
 title
 -----
 Structure from the checkpoint file:  "ANI1ccx_1869_conf21_mol1.chk"
 Charge =  0 Multiplicity = 1

                         Standard orientation:
 ---------------------------------------------------------------------
 Center     Atomic      Atomic             Coordinates (Angstroms)
 Number     Number       Type             X           Y           Z
 ---------------------------------------------------------------------
      1          1           0       -1.288800   -0.422812    0.525188
      2          1           0       -1.681850    0.530981   -0.580186
      3          1           0        2.009290   -0.957894    0.459451
      4          7           0        1.275280   -0.532245   -0.164808
      5          8           0       -2.094060   -0.078258    0.022466
      6          8           0        1.098360    0.650188    0.071185
 ---------------------------------------------------------------------

 SCF Done:  E(RHF) =  -206.045148838     A.U. after    2 cycles

 The electronic state is 1-A.
 Alpha  occ. eigenvalues --  -20.66315 -20.55107 -15.67424  -1.61622  -1.42034
 Alpha  occ. eigenvalues --   -1.04906  -0.78668  -0.70637  -0.68222  -0.63112
 Alpha  occ. eigenvalues --   -0.56827  -0.48677  -0.46289
 Alpha virt. eigenvalues --    0.02564   0.02707   0.06239   0.06891   0.11716
 Alpha virt. eigenvalues --    0.15007   0.16555   0.18296   0.19077   0.20771
 Alpha virt. eigenvalues --    0.22443   0.24511   0.24656   0.26100   0.27295

 Mulliken charges:
               1
     1  H    0.427985
     2  H    0.387431
     3  H    0.068326
     4  N    0.755814
     5  O   -0.828779
     6  O   -0.810777
 Sum of Mulliken charges =  -0.00000

 Dipole moment (field-independent basis, Debye):
    X=              3.4520    Y=             -0.4356    Z=              0.7562  Tot=              3.5606

 Test job not archived.
 1\1\GINC-SE072\SP\RHF\Aug-CC-pVDZ\H3N1O2\OHZDE\08-Apr-2025\0\\#t hf au
 g-cc-pvdz iop(5/13=1,5/36=2,99/5=2) pseudo=read geom=check guess=(read
 ,tcheck) scf=(maxcycle=1)\\title\\0,1\H,0,-1.2888,-0.422812,0.525188\H
 ,0,-1.68185,0.530981,-0.580186\H,0,2.00929,-0.957894,0.459451\N,0,1.27
 528,-0.532245,-0.164808\O,0,-2.09406,-0.0782578,0.0224655\O,0,1.09836,
 0.650188,0.0711846\\Version=ES64L-G16RevC.01\State=1-A\HF=-206.0451488
 \RMSD=1.050e-02\Dipole=1.3581142,-0.1713609,0.2975212\Quadrupole=-1.92
 69512,0.9207534,1.0061978,-2.6546966,1.5067741,-2.1153579\PG=C01 [X(H3

 Normal termination of Gaussian 16 at Tue Apr  8 21:10:17 2025.
