 Gaussian 16, Revision C.01,

 ----------------------------------------------------------------------
 #t hf aug-cc-pvdz symm=none int=(grid=ultrafine) guess=(read,tcheck) s
 table=(opt,rrhf)
 ----------------------------------------------------------------------
 -----
 title
 -----
 Symbolic Z-matrix:
 Charge =  0 Multiplicity = 1

 SCF Done:  E(RHF) =  -602.973242081     A.U. after   14 cycles
 Normal termination of Gaussian 16 at Tue Apr  8 19:27:56 2025.
 Gaussian 16:  ES64L-G16RevC.01  3-Jul-2019

 ----------------------------------------------------------------------
 #t hf aug-cc-pvdz iop(5/13=1,5/36=2,99/5=2) pseudo=read geom=check gue
 ss=(read,tcheck) scf=(maxcycle=1)
 ----------------------------------------------------------------------
 -----
 title
 -----
 Structure from the checkpoint file:  "ANI1ccx_1250_conf2_mol2.chk"
 Charge =  0 Multiplicity = 1

                         Standard orientation:
 ---------------------------------------------------------------------
 Center     Atomic      Atomic             Coordinates (Angstroms)
 Number     Number       Type             X           Y           Z
 ---------------------------------------------------------------------
      1          6           0        1.671930   -0.114404    0.759231
      2          6           0        1.741051    1.371110    0.319377
      3          6           0        0.435671    2.145631    0.092902
      4          6           0       -0.476171    1.655622   -1.038580
      5          6           0       -2.030820   -0.072566   -0.023603
      6          6           0        1.434159   -1.033460   -0.418883
      7          1           0        0.714429   -1.912459    0.944038
      8          1           0       -3.312570    0.239926    1.258610
      9          1           0       -1.664882   -1.919057   -0.809040
     10          1           0       -2.851462   -1.906747    0.457167
     11          1           0       -0.833844   -0.252419   -1.718520
     12          1           0        0.013826    1.633981   -1.992550
     13          1           0       -1.325988    2.351012   -1.089870
     14          1           0        0.697944    3.231621   -0.092889
     15          1           0       -0.181041    2.106841    0.998521
     16          1           0        2.328231    1.920289    1.099670
     17          1           0        2.309451    1.339099   -0.594675
     18          1           0        2.672989   -0.427170    1.070420
     19          1           0        1.059729   -0.324450    2.769650
     20          1           0       -0.202557   -0.048487    1.667470
     21          7           0        0.698157   -0.507901    1.800700
     22          7           0       -1.046280    0.320758   -0.907327
     23          7           0       -2.374651   -1.397687   -0.315571
     24          7           0       -2.465670    0.671133    0.900657
     25          8           0        0.777703   -2.116299   -0.005466
     26          8           0        1.752289   -0.802162   -1.552020
 ---------------------------------------------------------------------

 SCF Done:  E(RHF) =  -603.591703638     A.U. after    2 cycles

 The electronic state is 1-A.
 Alpha  occ. eigenvalues --  -20.57372 -20.52479 -15.52529 -15.51950 -15.51089
 Alpha  occ. eigenvalues --  -15.45698 -11.37974 -11.35250 -11.29339 -11.26484
 Alpha  occ. eigenvalues --  -11.24338 -11.23894  -1.54064  -1.45345  -1.30027
 Alpha  occ. eigenvalues --   -1.21446  -1.18479  -1.15795  -1.06677  -0.99852
 Alpha  occ. eigenvalues --   -0.92756  -0.85478  -0.80869  -0.79035  -0.76545
 Alpha  occ. eigenvalues --   -0.75697  -0.73033  -0.70785  -0.68402  -0.67342
 Alpha  occ. eigenvalues --   -0.65315  -0.64147  -0.63602  -0.61677  -0.60653
 Alpha  occ. eigenvalues --   -0.57708  -0.56506  -0.55649  -0.51619  -0.50843
 Alpha  occ. eigenvalues --   -0.49818  -0.48018  -0.47075  -0.46283  -0.43846
 Alpha  occ. eigenvalues --   -0.42252  -0.39849
 Alpha virt. eigenvalues --    0.02707   0.03431   0.03783   0.04414   0.04904
 Alpha virt. eigenvalues --    0.05307   0.05647   0.05789   0.06863   0.08173
 Alpha virt. eigenvalues --    0.08730   0.08989   0.09478   0.10209   0.11076

 Mulliken charges:
               1
     1  C   -1.426819
     2  C   -0.052641
     3  C   -0.530989
     4  C   -0.638806
     5  C   -3.051326
     6  C    2.392353
     7  H    0.652028
     8  H    0.252379
     9  H    0.060061
    10  H    0.171935
    11  H    0.211878
    12  H   -0.036914
    13  H    0.153728
    14  H    0.177660
    15  H    0.261308
    16  H    0.195780
    17  H    0.196803
    18  H    0.220857
    19  H    0.374528
    20  H    0.224420
    21  N    0.304596
    22  N    1.024158
    23  N    0.892805
    24  N    0.939069
    25  O   -1.521890
    26  O   -1.446961
 Sum of Mulliken charges =   0.00000

 Dipole moment (field-independent basis, Debye):
    X=              0.4440    Y=             -0.1079    Z=              2.7825  Tot=              2.8198

 Test job not archived.
 1\1\GINC-SE343\SP\RHF\Aug-CC-pVDZ\C6H14N4O2\OHZDE\08-Apr-2025\0\\#t hf
  aug-cc-pvdz iop(5/13=1,5/36=2,99/5=2) pseudo=read geom=check guess=(r
 ead,tcheck) scf=(maxcycle=1)\\title\\0,1\C,0,1.67193,-0.114404,0.75923
 1\C,0,1.74105,1.37111,0.319377\C,0,0.43567,2.14563,0.0929023\C,0,-0.47
 6172,1.65562,-1.03858\C,0,-2.03082,-0.0725684,-0.0236033\C,0,1.43416,-
 1.03346,-0.418883\H,0,0.714431,-1.91246,0.944038\H,0,-3.31257,0.239922
 ,1.25861\H,0,-1.66488,-1.91906,-0.80904\H,0,-2.85146,-1.90675,0.457167
 \H,0,-0.833843,-0.252421,-1.71852\H,0,0.0138249,1.63398,-1.99255\H,0,-

 Normal termination of Gaussian 16 at Tue Apr  8 19:28:19 2025.
