 Gaussian 16, Revision C.01,

 ----------------------------------------------------------------------
 #t hf aug-cc-pvdz symm=none int=(grid=ultrafine) guess=(read,tcheck) s
 table=(opt,rrhf)
 ----------------------------------------------------------------------
 -----
 title
 -----
 Symbolic Z-matrix:
 Charge =  0 Multiplicity = 1

 SCF Done:  E(RHF) =  -542.585069567     A.U. after   16 cycles
 Normal termination of Gaussian 16 at Tue Apr  8 19:55:50 2025.
 Gaussian 16:  ES64L-G16RevC.01  3-Jul-2019

 ----------------------------------------------------------------------
 #t hf aug-cc-pvdz iop(5/13=1,5/36=2,99/5=2) pseudo=read geom=check gue
 ss=(read,tcheck) scf=(maxcycle=1)
 ----------------------------------------------------------------------
 -----
 title
 -----
 Structure from the checkpoint file:  "ANI1ccx_1538_conf1_mol1.chk"
 Charge =  0 Multiplicity = 1

                         Standard orientation:
 ---------------------------------------------------------------------
 Center     Atomic      Atomic             Coordinates (Angstroms)
 Number     Number       Type             X           Y           Z
 ---------------------------------------------------------------------
      1          6           0       -2.792148    0.860021    0.670691
      2          6           0       -2.395079    0.082178   -0.521682
      3          6           0       -1.035721   -1.930338   -0.089662
      4          6           0        0.925161   -1.198900    0.085504
      5          6           0        2.683601    0.177138   -0.005906
      6          6           0        0.672677    1.263540   -0.048437
      7          6           0        0.205561    0.015130   -0.149553
      8          1           0       -0.637113    2.686471   -0.778458
      9          1           0        0.684823    3.162360    0.049080
     10          1           0        3.778361    0.268187    0.005090
     11          1           0       -1.921302   -2.574087   -0.138586
     12          1           0       -3.099370   -0.761991   -0.550330
     13          1           0       -3.741058    1.337405    0.444948
     14          1           0       -2.966469    0.042221    1.485900
     15          1           0       -2.050197    1.510843    1.030420
     16          1           0       -2.382478    0.647759   -1.501260
     17          7           0        2.018742    1.348888   -0.078343
     18          7           0       -1.070230   -0.593656   -0.360026
     19          7           0        0.140761   -2.401919    0.197568
     20          7           0        2.204990   -1.108082    0.226958
     21          7           0       -0.044194    2.478801    0.057766
 ---------------------------------------------------------------------

 SCF Done:  E(RHF) =  -543.135537771     A.U. after    2 cycles

 The electronic state is 1-A.
 Alpha  occ. eigenvalues --  -15.56113 -15.53573 -15.51337 -15.50303 -15.50027
 Alpha  occ. eigenvalues --  -11.33833 -11.33688 -11.32075 -11.31645 -11.30512
 Alpha  occ. eigenvalues --  -11.28108 -11.24662  -1.35735  -1.30313  -1.24859
 Alpha  occ. eigenvalues --   -1.19684  -1.17203  -1.07949  -1.03895  -0.92971
 Alpha  occ. eigenvalues --   -0.91309  -0.88493  -0.82231  -0.78297  -0.75898
 Alpha  occ. eigenvalues --   -0.72329  -0.70499  -0.67747  -0.66282  -0.65822
 Alpha  occ. eigenvalues --   -0.63941  -0.61544  -0.58891  -0.57928  -0.55320
 Alpha  occ. eigenvalues --   -0.53670  -0.52122  -0.51285  -0.49619  -0.47172
 Alpha  occ. eigenvalues --   -0.45700  -0.41031  -0.34833
 Alpha virt. eigenvalues --    0.02303   0.02872   0.03575   0.03758   0.05256
 Alpha virt. eigenvalues --    0.05502   0.06002   0.06797   0.07828   0.08335
 Alpha virt. eigenvalues --    0.08771   0.09725   0.10100   0.10534   0.11575

 Mulliken charges:
               1
     1  C   -0.123001
     2  C   -0.813814
     3  C   -0.585873
     4  C   -2.169576
     5  C   -0.477401
     6  C   -1.791182
     7  C   -0.703071
     8  H    0.289143
     9  H    0.172442
    10  H   -0.016219
    11  H   -0.084152
    12  H    0.156946
    13  H    0.166169
    14  H    0.334958
    15  H    0.048404
    16  H    0.045190
    17  N    1.010635
    18  N    1.592136
    19  N    1.013436
    20  N    1.164764
    21  N    0.770066
 Sum of Mulliken charges =   0.00000

 Dipole moment (field-independent basis, Debye):
    X=             -5.6168    Y=              3.2510    Z=             -2.0813  Tot=              6.8153

 Test job not archived.
 1\1\GINC-SE186\SP\RHF\Aug-CC-pVDZ\C7H9N5\OHZDE\08-Apr-2025\0\\#t hf au
 g-cc-pvdz iop(5/13=1,5/36=2,99/5=2) pseudo=read geom=check guess=(read
 ,tcheck) scf=(maxcycle=1)\\title\\0,1\C,0,-2.79215,0.860017,0.670691\C
 ,0,-2.39508,0.0821748,-0.521682\C,0,-1.03572,-1.93034,-0.0896621\C,0,0
 .925161,-1.1989,0.0855038\C,0,2.6836,0.17714,-0.00590595\C,0,0.672675,
 1.26354,-0.0484368\C,0,0.20556,0.0151296,-0.149553\H,0,-0.637117,2.686
 47,-0.778458\H,0,0.684819,3.16236,0.0490799\H,0,3.77836,0.26819,0.0050
 9035\H,0,-1.9213,-2.57409,-0.138586\H,0,-3.09937,-0.761995,-0.55033\H,

 Normal termination of Gaussian 16 at Tue Apr  8 19:56:07 2025.
