 Gaussian 16, Revision C.01,

 ----------------------------------------------------------------------
 #t hf aug-cc-pvdz symm=none int=(grid=ultrafine) guess=(read,tcheck) s
 table=(opt,rrhf)
 ----------------------------------------------------------------------
 -----
 title
 -----
 Symbolic Z-matrix:
 Charge =  0 Multiplicity = 1

 SCF Done:  E(RHF) =  -445.274092241     A.U. after   15 cycles
 Normal termination of Gaussian 16 at Tue Apr  8 21:57:12 2025.
 Gaussian 16:  ES64L-G16RevC.01  3-Jul-2019

 ----------------------------------------------------------------------
 #t hf aug-cc-pvdz iop(5/13=1,5/36=2,99/5=2) pseudo=read geom=check gue
 ss=(read,tcheck) scf=(maxcycle=1)
 ----------------------------------------------------------------------
 -----
 title
 -----
 Structure from the checkpoint file:  "ANI1ccx_856_conf3_mol1.chk"
 Charge =  0 Multiplicity = 1

                         Standard orientation:
 ---------------------------------------------------------------------
 Center     Atomic      Atomic             Coordinates (Angstroms)
 Number     Number       Type             X           Y           Z
 ---------------------------------------------------------------------
      1          6           0        1.369029   -0.443442    0.044298
      2          6           0        1.516192    1.087888    0.027045
      3          6           0       -0.568008    0.811114   -0.014366
      4          6           0       -1.105092   -1.305068    0.032866
      5          1           0        2.501382    1.544156    0.139702
      6          1           0       -1.044773   -2.385978   -0.043118
      7          7           0        0.425089    1.786019   -0.041336
      8          7           0       -1.860349    0.775954   -0.004799
      9          7           0       -2.207851   -0.576930   -0.007744
     10          7           0       -0.092186   -0.488584    0.020888
     11          8           0        2.177218   -1.317043   -0.050588
 ---------------------------------------------------------------------

 SCF Done:  E(RHF) =  -445.708942703     A.U. after    2 cycles

 The electronic state is 1-A.
 Alpha  occ. eigenvalues --  -20.62366 -15.60319 -15.59653 -15.55774 -15.54499
 Alpha  occ. eigenvalues --  -11.45517 -11.36813 -11.36332 -11.34496  -1.56149
 Alpha  occ. eigenvalues --   -1.45008  -1.33953  -1.26120  -1.13897  -1.03739
 Alpha  occ. eigenvalues --   -0.94595  -0.89530  -0.86802  -0.76464  -0.74915
 Alpha  occ. eigenvalues --   -0.74052  -0.71012  -0.68016  -0.61615  -0.60551
 Alpha  occ. eigenvalues --   -0.57277  -0.57148  -0.51355  -0.49800  -0.49315
 Alpha  occ. eigenvalues --   -0.40577
 Alpha virt. eigenvalues --   -0.02772   0.02674   0.03769   0.06564   0.07038
 Alpha virt. eigenvalues --    0.07234   0.09046   0.09203   0.10723   0.11378
 Alpha virt. eigenvalues --    0.12121   0.12293   0.12933   0.13241   0.14185

 Mulliken charges:
               1
     1  C    1.022583
     2  C   -0.292700
     3  C   -1.283803
     4  C   -0.422560
     5  H    0.038509
     6  H   -0.051292
     7  N    0.905452
     8  N    0.433400
     9  N    0.138678
    10  N    0.666048
    11  O   -1.154316
 Sum of Mulliken charges =  -0.00000

 Dipole moment (field-independent basis, Debye):
    X=              5.3412    Y=             -1.5272    Z=              0.3357  Tot=              5.5654

 Test job not archived.
 1\1\GINC-SE072\SP\RHF\Aug-CC-pVDZ\C4H2N4O1\OHZDE\08-Apr-2025\0\\#t hf
 aug-cc-pvdz iop(5/13=1,5/36=2,99/5=2) pseudo=read geom=check guess=(re
 ad,tcheck) scf=(maxcycle=1)\\title\\0,1\C,0,1.36903,-0.44344,0.0442981
 \C,0,1.51619,1.08789,0.0270454\C,0,-0.568009,0.811113,-0.0143665\C,0,-
 1.10509,-1.30507,0.0328662\H,0,2.50138,1.54416,0.139702\H,0,-1.04477,-
 2.38598,-0.0431181\N,0,0.425086,1.78602,-0.041336\N,0,-1.86035,0.77595
 1,-0.00479881\N,0,-2.20785,-0.576933,-0.00774368\N,0,-0.0921858,-0.488
 584,0.0208875\O,0,2.17722,-1.31704,-0.0505884\\Version=ES64L-G16RevC.0

 Normal termination of Gaussian 16 at Tue Apr  8 21:57:18 2025.
