 Gaussian 16, Revision C.01,

 ----------------------------------------------------------------------
 #t hf aug-cc-pvdz symm=none int=(grid=ultrafine) guess=(read,tcheck) s
 table=(opt,rrhf)
 ----------------------------------------------------------------------
 -----
 title
 -----
 Symbolic Z-matrix:
 Charge =  0 Multiplicity = 1

 SCF Done:  E(RHF) =  -380.198999832     A.U. after   11 cycles
 Normal termination of Gaussian 16 at Tue Apr  8 21:02:22 2025.
 Gaussian 16:  ES64L-G16RevC.01  3-Jul-2019

 ----------------------------------------------------------------------
 #t hf aug-cc-pvdz iop(5/13=1,5/36=2,99/5=2) pseudo=read geom=check gue
 ss=(read,tcheck) scf=(maxcycle=1)
 ----------------------------------------------------------------------
 -----
 title
 -----
 Structure from the checkpoint file:  "ANI1ccx_1843_conf203_mol1.chk"
 Charge =  0 Multiplicity = 1

                         Standard orientation:
 ---------------------------------------------------------------------
 Center     Atomic      Atomic             Coordinates (Angstroms)
 Number     Number       Type             X           Y           Z
 ---------------------------------------------------------------------
      1          1           0       -1.889990   -1.381722    0.219019
      2          1           0       -2.542891   -0.388155    1.232170
      3          1           0        0.944537   -1.541831   -0.067444
      4          1           0       -0.125996   -0.650067   -0.662998
      5          1           0        2.922960   -0.996315    0.809462
      6          1           0        2.316519    0.101660   -0.170652
      7          1           0        0.404609    1.395969   -0.145403
      8          1           0        1.377928    2.438159    0.562970
      9          1           0       -1.850171    0.621057   -0.001799
     10          1           0       -1.466102    1.593888   -1.212220
     11          8           0       -2.627681   -0.674740    0.246220
     12          8           0       -0.030871   -1.495702   -0.222857
     13          8           0        2.534040   -0.864976   -0.066486
     14          8           0        1.348648    1.524919    0.254354
     15          8           0       -1.235561    1.361418   -0.281619
 ---------------------------------------------------------------------

 SCF Done:  E(RHF) =  -380.592781384     A.U. after    2 cycles

 The electronic state is 1-A.
 Alpha  occ. eigenvalues --  -20.58875 -20.56144 -20.54647 -20.54618 -20.53299
 Alpha  occ. eigenvalues --   -1.46394  -1.43629  -1.43161  -1.41403  -1.40808
 Alpha  occ. eigenvalues --   -0.73830  -0.71941  -0.71375  -0.69959  -0.67366
 Alpha  occ. eigenvalues --   -0.62588  -0.61414  -0.58259  -0.57137  -0.53550
 Alpha  occ. eigenvalues --   -0.50173  -0.50028  -0.49105  -0.48061  -0.47466
 Alpha virt. eigenvalues --    0.03243   0.04439   0.04640   0.05590   0.07408
 Alpha virt. eigenvalues --    0.07986   0.08657   0.09343   0.10381   0.11284
 Alpha virt. eigenvalues --    0.17722   0.17965   0.19326   0.20554   0.21122

 Mulliken charges:
               1
     1  H    0.594727
     2  H    0.429746
     3  H    0.683509
     4  H    0.442533
     5  H    0.405959
     6  H    0.634636
     7  H    0.820298
     8  H    0.392745
     9  H    0.852616
    10  H    0.345743
    11  O   -1.132949
    12  O   -1.098039
    13  O   -1.039325
    14  O   -1.107637
    15  O   -1.224562
 Sum of Mulliken charges =  -0.00000

 Dipole moment (field-independent basis, Debye):
    X=             -0.5193    Y=              2.2017    Z=              1.3525  Tot=              2.6356

 Test job not archived.
 1\1\GINC-SE362\SP\RHF\Aug-CC-pVDZ\H10O5\OHZDE\08-Apr-2025\0\\#t hf aug
 -cc-pvdz iop(5/13=1,5/36=2,99/5=2) pseudo=read geom=check guess=(read,
 tcheck) scf=(maxcycle=1)\\title\\0,1\H,0,-1.88999,-1.38172,0.219019\H,
 0,-2.54289,-0.388152,1.23217\H,0,0.944537,-1.54183,-0.0674441\H,0,-0.1
 25995,-0.650065,-0.662998\H,0,2.92296,-0.996315,0.809462\H,0,2.31652,0
 .101661,-0.170652\H,0,0.40461,1.39597,-0.145403\H,0,1.37793,2.43816,0.
 56297\H,0,-1.85017,0.621059,-0.00179885\H,0,-1.4661,1.59389,-1.21222\O
 ,0,-2.62768,-0.674737,0.24622\O,0,-0.0308713,-1.4957,-0.222857\O,0,2.5

 Normal termination of Gaussian 16 at Tue Apr  8 21:02:25 2025.
