 Gaussian 16, Revision C.01,

 ----------------------------------------------------------------------
 #t hf aug-cc-pvdz symm=none int=(grid=ultrafine) guess=(read,tcheck) s
 table=(opt,rrhf)
 ----------------------------------------------------------------------
 -----
 title
 -----
 Symbolic Z-matrix:
 Charge =  0 Multiplicity = 1

 SCF Done:  E(RHF) =  -456.255763128     A.U. after   11 cycles
 Normal termination of Gaussian 16 at Tue Apr  8 21:06:38 2025.
 Gaussian 16:  ES64L-G16RevC.01  3-Jul-2019

 ----------------------------------------------------------------------
 #t hf aug-cc-pvdz iop(5/13=1,5/36=2,99/5=2) pseudo=read geom=check gue
 ss=(read,tcheck) scf=(maxcycle=1)
 ----------------------------------------------------------------------
 -----
 title
 -----
 Structure from the checkpoint file:  "ANI1ccx_1844_conf194_mol1.chk"
 Charge =  0 Multiplicity = 1

                         Standard orientation:
 ---------------------------------------------------------------------
 Center     Atomic      Atomic             Coordinates (Angstroms)
 Number     Number       Type             X           Y           Z
 ---------------------------------------------------------------------
      1          1           0       -2.446920   -0.184631   -0.568345
      2          1           0        2.758259    1.539133   -1.306689
      3          1           0        2.479640    0.093903   -0.625122
      4          1           0       -2.204862    1.884649   -1.187429
      5          1           0       -1.115352    1.765750   -0.003798
      6          1           0        0.377726    1.795681    1.582281
      7          1           0       -3.296589   -1.470862   -0.344596
      8          1           0        1.043259    1.146242    0.302850
      9          1           0       -0.342547   -0.300503    1.211131
     10          1           0       -1.039338   -1.525880    0.539115
     11          1           0        1.104792   -1.592138   -0.012667
     12          1           0        2.554452   -1.862827    0.243545
     13          8           0       -2.125201    1.567029   -0.253665
     14          8           0       -0.272625   -1.280929    1.100011
     15          8           0        2.644799    1.062633   -0.492875
     16          8           0        0.204049    1.208051    0.853258
     17          8           0       -2.400429   -1.186081   -0.722099
     18          8           0        1.965342   -1.531767   -0.463411
 ---------------------------------------------------------------------

 SCF Done:  E(RHF) =  -456.729058618     A.U. after    2 cycles

 The electronic state is 1-A.
 Alpha  occ. eigenvalues --  -20.58541 -20.56000 -20.55689 -20.55071 -20.54956
 Alpha  occ. eigenvalues --  -20.51362  -1.48124  -1.44709  -1.42989  -1.41867
 Alpha  occ. eigenvalues --   -1.40613  -1.39043  -0.75591  -0.73387  -0.71245
 Alpha  occ. eigenvalues --   -0.69620  -0.69213  -0.67417  -0.62066  -0.59872
 Alpha  occ. eigenvalues --   -0.58166  -0.57801  -0.56478  -0.53260  -0.51148
 Alpha  occ. eigenvalues --   -0.50189  -0.49288  -0.48918  -0.47487  -0.45852
 Alpha virt. eigenvalues --    0.02900   0.04269   0.04597   0.05163   0.06207
 Alpha virt. eigenvalues --    0.07895   0.08606   0.08985   0.09381   0.10396
 Alpha virt. eigenvalues --    0.10561   0.12465   0.16769   0.18524   0.19432

 Mulliken charges:
               1
     1  H    0.681684
     2  H    0.347471
     3  H    0.670577
     4  H    0.382238
     5  H    0.769154
     6  H    0.434131
     7  H    0.366585
     8  H    0.893498
     9  H    0.768315
    10  H    0.637797
    11  H    0.695045
    12  H    0.341305
    13  O   -1.035012
    14  O   -1.283505
    15  O   -0.991324
    16  O   -1.625390
    17  O   -0.995118
    18  O   -1.057450
 Sum of Mulliken charges =  -0.00000

 Dipole moment (field-independent basis, Debye):
    X=              0.3290    Y=              3.0912    Z=             -0.2656  Tot=              3.1200

 Test job not archived.
 1\1\GINC-SE364\SP\RHF\Aug-CC-pVDZ\H12O6\OHZDE\08-Apr-2025\0\\#t hf aug
 -cc-pvdz iop(5/13=1,5/36=2,99/5=2) pseudo=read geom=check guess=(read,
 tcheck) scf=(maxcycle=1)\\title\\0,1\H,0,-2.44692,-0.18463,-0.568346\H
 ,0,2.75826,1.53913,-1.30669\H,0,2.47964,0.0939003,-0.625123\H,0,-2.204
 86,1.88465,-1.18743\H,0,-1.11535,1.76575,-0.0037984\H,0,0.377728,1.795
 68,1.58228\H,0,-3.29659,-1.47086,-0.344597\H,0,1.04326,1.14624,0.30284
 9\H,0,-0.342547,-0.300504,1.21113\H,0,-1.03934,-1.52588,0.539114\H,0,1
 .10479,-1.59214,-0.012668\H,0,2.55445,-1.86283,0.243544\O,0,-2.1252,1.

 Normal termination of Gaussian 16 at Tue Apr  8 21:06:43 2025.
