 Gaussian 16, Revision C.01,

 ----------------------------------------------------------------------
 #t hf aug-cc-pvdz symm=none int=(grid=ultrafine) guess=(read,tcheck) s
 table=(opt,rrhf)
 ----------------------------------------------------------------------
 -----
 title
 -----
 Symbolic Z-matrix:
 Charge =  0 Multiplicity = 1

 SCF Done:  E(RHF) =  -751.224001624     A.U. after   16 cycles
 Normal termination of Gaussian 16 at Tue Apr  8 20:01:55 2025.
 Gaussian 16:  ES64L-G16RevC.01  3-Jul-2019

 ----------------------------------------------------------------------
 #t hf aug-cc-pvdz iop(5/13=1,5/36=2,99/5=2) pseudo=read geom=check gue
 ss=(read,tcheck) scf=(maxcycle=1)
 ----------------------------------------------------------------------
 -----
 title
 -----
 Structure from the checkpoint file:  "ANI1ccx_1547_conf10_mol2.chk"
 Charge =  0 Multiplicity = 1

                         Standard orientation:
 ---------------------------------------------------------------------
 Center     Atomic      Atomic             Coordinates (Angstroms)
 Number     Number       Type             X           Y           Z
 ---------------------------------------------------------------------
      1          6           0        4.095570   -0.941951    0.194031
      2          6           0        3.389500    0.095575   -0.659489
      3          6           0        1.324730    1.256681   -0.762485
      4          6           0       -0.836983    2.260261    0.146551
      5          6           0       -2.089790    0.514451    0.126396
      6          6           0       -0.855941    0.094505   -0.285069
      7          6           0       -1.593480   -2.082019   -0.448362
      8          6           0       -3.172380   -0.450829    0.276455
      9          1           0       -1.386500   -3.110069   -0.706941
     10          1           0        0.404836   -1.491879   -0.800003
     11          1           0       -0.411950    3.257441    0.249219
     12          1           0        1.752500    2.244051   -0.487979
     13          1           0        1.345160    1.215891   -1.857350
     14          1           0        3.890830    1.073321   -0.587346
     15          1           0        3.387870   -0.181132   -1.723020
     16          1           0        5.134750   -1.076379   -0.167869
     17          1           0        3.587470   -1.911309    0.038954
     18          1           0        3.277890   -0.362284    1.855770
     19          7           0       -0.026589    1.189361   -0.285248
     20          7           0       -2.049870    1.880161    0.400822
     21          7           0       -0.540743   -1.202039   -0.588127
     22          7           0       -2.800140   -1.786009   -0.080561
     23          8           0        4.153480   -0.583869    1.546140
     24          8           0        2.044110    0.197245   -0.189663
     25          8           0       -4.276190   -0.201878    0.709796
 ---------------------------------------------------------------------

 SCF Done:  E(RHF) =  -751.973399453     A.U. after    2 cycles

 The electronic state is 1-A.
 Alpha  occ. eigenvalues --  -20.60949 -20.57326 -20.49537 -15.59277 -15.59029
 Alpha  occ. eigenvalues --  -15.51478 -15.50273 -11.38513 -11.36046 -11.34657
 Alpha  occ. eigenvalues --  -11.34626 -11.33332 -11.33152 -11.32218 -11.26253
 Alpha  occ. eigenvalues --   -1.53616  -1.48071  -1.44002  -1.38131  -1.32372
 Alpha  occ. eigenvalues --   -1.22918  -1.20329  -1.07907  -1.05774  -0.99068
 Alpha  occ. eigenvalues --   -0.93476  -0.91929  -0.88617  -0.87731  -0.81250
 Alpha  occ. eigenvalues --   -0.79378  -0.76176  -0.75507  -0.72775  -0.72241
 Alpha  occ. eigenvalues --   -0.69581  -0.68090  -0.67916  -0.65732  -0.65218
 Alpha  occ. eigenvalues --   -0.62666  -0.61476  -0.60222  -0.58877  -0.56286
 Alpha  occ. eigenvalues --   -0.54844  -0.52749  -0.50293  -0.49262  -0.48390
 Alpha  occ. eigenvalues --   -0.47004  -0.45230  -0.43738  -0.40829  -0.33914
 Alpha virt. eigenvalues --    0.01263   0.01684   0.02431   0.02880   0.04292
 Alpha virt. eigenvalues --    0.04687   0.04969   0.05578   0.06902   0.07143
 Alpha virt. eigenvalues --    0.08181   0.09270   0.09980   0.10153   0.10339

 Mulliken charges:
               1
     1  C    0.526132
     2  C    0.395767
     3  C    0.705097
     4  C   -0.419401
     5  C   -0.336118
     6  C   -2.283239
     7  C   -0.653108
     8  C    0.521920
     9  H   -0.142059
    10  H    0.112598
    11  H   -0.101697
    12  H    0.016126
    13  H    0.134222
    14  H    0.171936
    15  H    0.153715
    16  H    0.114187
    17  H    0.164595
    18  H    0.355004
    19  N    1.468792
    20  N    1.023344
    21  N    1.266910
    22  N    0.975710
    23  O   -1.146526
    24  O   -1.631395
    25  O   -1.392512
 Sum of Mulliken charges =  -0.00000

 Dipole moment (field-independent basis, Debye):
    X=             11.1264    Y=              0.1687    Z=             -4.9666  Tot=             12.1858

 Test job not archived.
 1\1\GINC-SE109\SP\RHF\Aug-CC-pVDZ\C8H10N4O3\OHZDE\08-Apr-2025\0\\#t hf
  aug-cc-pvdz iop(5/13=1,5/36=2,99/5=2) pseudo=read geom=check guess=(r
 ead,tcheck) scf=(maxcycle=1)\\title\\0,1\C,0,4.09557,-0.941952,0.19403
 1\C,0,3.3895,0.095574,-0.659489\C,0,1.32473,1.25668,-0.762485\C,0,-0.8
 36983,2.26026,0.146551\C,0,-2.08979,0.51445,0.126396\C,0,-0.855941,0.0
 945039,-0.285069\C,0,-1.59348,-2.08202,-0.448362\C,0,-3.17238,-0.45083
 ,0.276455\H,0,-1.3865,-3.11007,-0.706941\H,0,0.404836,-1.49188,-0.8000
 03\H,0,-0.41195,3.25744,0.249219\H,0,1.7525,2.24405,-0.487979\H,0,1.34

 Normal termination of Gaussian 16 at Tue Apr  8 20:02:21 2025.
