 Gaussian 16, Revision C.01,

 ----------------------------------------------------------------------
 #t hf aug-cc-pvdz symm=none int=(grid=ultrafine) guess=(read,tcheck) s
 table=(opt,rrhf)
 ----------------------------------------------------------------------
 -----
 title
 -----
 Symbolic Z-matrix:
 Charge =  0 Multiplicity = 1

 SCF Done:  E(RHF) =  -559.297247104     A.U. after   16 cycles
 Normal termination of Gaussian 16 at Tue Apr  8 19:18:13 2025.
 Gaussian 16:  ES64L-G16RevC.01  3-Jul-2019

 ----------------------------------------------------------------------
 #t hf aug-cc-pvdz iop(5/13=1,5/36=2,99/5=2) pseudo=read geom=check gue
 ss=(read,tcheck) scf=(maxcycle=1)
 ----------------------------------------------------------------------
 -----
 title
 -----
 Structure from the checkpoint file:  "ANI1ccx_1092_conf6_mol2.chk"
 Charge =  0 Multiplicity = 1

                         Standard orientation:
 ---------------------------------------------------------------------
 Center     Atomic      Atomic             Coordinates (Angstroms)
 Number     Number       Type             X           Y           Z
 ---------------------------------------------------------------------
      1          6           0        1.630660   -0.635709   -0.010103
      2          6           0       -0.552210   -0.833320    0.029334
      3          6           0       -2.731560   -0.445997   -0.018285
      4          6           0       -0.829238    0.519588    0.031070
      5          6           0        0.280126    1.438201   -0.002290
      6          1           0        3.571770   -0.465313   -0.007708
      7          1           0       -1.934436   -2.436723   -0.027644
      8          1           0       -3.793420   -0.607997   -0.035711
      9          1           0        2.337117    1.315655    0.027255
     10          7           0        0.652923   -1.462998    0.021142
     11          7           0       -1.772938   -1.443423    0.001433
     12          7           0       -2.188972    0.749253   -0.015923
     13          7           0        1.512478    0.721623    0.000095
     14          8           0        2.872271   -1.152054   -0.021348
     15          8           0        0.328712    2.650381   -0.001374
 ---------------------------------------------------------------------

 SCF Done:  E(RHF) =  -559.849764952     A.U. after    2 cycles

 The electronic state is 1-A.
 Alpha  occ. eigenvalues --  -20.63423 -20.52014 -15.58312 -15.57948 -15.51662
 Alpha  occ. eigenvalues --  -15.50897 -11.42856 -11.38124 -11.33519 -11.32318
 Alpha  occ. eigenvalues --  -11.26031  -1.55940  -1.47163  -1.37067  -1.32228
 Alpha  occ. eigenvalues --   -1.24492  -1.19515  -1.06609  -0.94958  -0.93544
 Alpha  occ. eigenvalues --   -0.88198  -0.86570  -0.79851  -0.78444  -0.72321
 Alpha  occ. eigenvalues --   -0.70772  -0.69245  -0.65367  -0.64972  -0.63821
 Alpha  occ. eigenvalues --   -0.62270  -0.59497  -0.55038  -0.52229  -0.48695
 Alpha  occ. eigenvalues --   -0.47187  -0.45725  -0.44426  -0.33187
 Alpha virt. eigenvalues --    0.01739   0.03094   0.04672   0.05553   0.07519
 Alpha virt. eigenvalues --    0.08211   0.08827   0.09812   0.10198   0.10538
 Alpha virt. eigenvalues --    0.11086   0.11276   0.12066   0.12682   0.12915

 Mulliken charges:
               1
     1  C    0.327087
     2  C   -1.037201
     3  C   -0.611166
     4  C   -1.364939
     5  C    1.691763
     6  H    0.325615
     7  H   -0.024355
     8  H   -0.071210
     9  H    0.249398
    10  N    1.162649
    11  N    0.922844
    12  N    1.062426
    13  N    0.401806
    14  O   -1.478455
    15  O   -1.556262
 Sum of Mulliken charges =   0.00000

 Dipole moment (field-independent basis, Debye):
    X=              2.2012    Y=             -3.9416    Z=             -0.0364  Tot=              4.5147

 Test job not archived.
 1\1\GINC-SE092\SP\RHF\Aug-CC-pVDZ\C5H4N4O2\OHZDE\08-Apr-2025\0\\#t hf
 aug-cc-pvdz iop(5/13=1,5/36=2,99/5=2) pseudo=read geom=check guess=(re
 ad,tcheck) scf=(maxcycle=1)\\title\\0,1\C,0,1.63066,-0.635713,-0.01010
 35\C,0,-0.552211,-0.83332,0.0293344\C,0,-2.73156,-0.445993,-0.0182846\
 C,0,-0.829236,0.519589,0.0310697\C,0,0.280129,1.4382,-0.00229031\H,0,3
 .57177,-0.46532,-0.00770767\H,0,-1.93444,-2.43672,-0.0276436\H,0,-3.79
 342,-0.607991,-0.0357112\H,0,2.33712,1.31565,0.0272552\N,0,0.652921,-1
 .463,0.0211415\N,0,-1.77294,-1.44342,0.00143335\N,0,-2.18897,0.749256,

 Normal termination of Gaussian 16 at Tue Apr  8 19:18:21 2025.
