 Gaussian 16, Revision C.01,

 ----------------------------------------------------------------------
 #t hf aug-cc-pvdz symm=none int=(grid=ultrafine) guess=(read,tcheck) s
 table=(opt,rrhf)
 ----------------------------------------------------------------------
 -----
 title
 -----
 Symbolic Z-matrix:
 Charge =  0 Multiplicity = 1

 SCF Done:  E(RHF) =  -556.260474912     A.U. after   17 cycles
 Normal termination of Gaussian 16 at Tue Apr  8 19:26:30 2025.
 Gaussian 16:  ES64L-G16RevC.01  3-Jul-2019

 ----------------------------------------------------------------------
 #t hf aug-cc-pvdz iop(5/13=1,5/36=2,99/5=2) pseudo=read geom=check gue
 ss=(read,tcheck) scf=(maxcycle=1)
 ----------------------------------------------------------------------
 -----
 title
 -----
 Structure from the checkpoint file:  "ANI1ccx_1294_conf3_mol2.chk"
 Charge =  0 Multiplicity = 1

                         Standard orientation:
 ---------------------------------------------------------------------
 Center     Atomic      Atomic             Coordinates (Angstroms)
 Number     Number       Type             X           Y           Z
 ---------------------------------------------------------------------
      1          6           0        0.863357    1.272570   -0.041056
      2          6           0        2.677370   -0.150744    0.110426
      3          6           0        0.685179   -1.162820    0.000650
      4          6           0       -1.340330   -0.293953   -0.135345
      5          6           0       -2.633600    0.410897    0.040295
      6          6           0        0.029142    0.121431    0.009607
      7          1           0       -0.629524    2.649550   -0.090458
      8          1           0        1.071209    3.224891   -0.005791
      9          1           0        3.773430   -0.236619    0.181541
     10          1           0       -2.193729   -2.177171   -0.244006
     11          7           0        0.377165    2.483680   -0.119433
     12          7           0        2.182130    1.100771   -0.048777
     13          7           0        2.038561   -1.316059    0.151176
     14          7           0       -0.160803   -2.216910   -0.021569
     15          7           0       -1.349149   -1.646571   -0.158889
     16          7           0       -3.617630    0.931524    0.233384
 ---------------------------------------------------------------------

 SCF Done:  E(RHF) =  -556.810403944     A.U. after    2 cycles

 The electronic state is 1-A.
 Alpha  occ. eigenvalues --  -15.64940 -15.56449 -15.56125 -15.55397 -15.50559
 Alpha  occ. eigenvalues --  -15.49964 -11.37594 -11.37484 -11.33005 -11.32419
 Alpha  occ. eigenvalues --  -11.32359 -11.28873  -1.43112  -1.33505  -1.28974
 Alpha  occ. eigenvalues --   -1.26932  -1.19208  -1.15122  -1.11719  -0.98090
 Alpha  occ. eigenvalues --   -0.93817  -0.89197  -0.86912  -0.81718  -0.78457
 Alpha  occ. eigenvalues --   -0.74515  -0.71781  -0.70554  -0.68797  -0.64755
 Alpha  occ. eigenvalues --   -0.63631  -0.63378  -0.57829  -0.57012  -0.55212
 Alpha  occ. eigenvalues --   -0.54853  -0.50718  -0.46884  -0.45416  -0.41934
 Alpha  occ. eigenvalues --   -0.37077
 Alpha virt. eigenvalues --    0.00861   0.02344   0.03424   0.04884   0.05458
 Alpha virt. eigenvalues --    0.07514   0.08114   0.08418   0.08820   0.09533
 Alpha virt. eigenvalues --    0.10208   0.10741   0.11216   0.11671   0.12243

 Mulliken charges:
               1
     1  C   -2.030143
     2  C   -0.441101
     3  C   -1.802330
     4  C    0.618346
     5  C   -2.519571
     6  C    0.656564
     7  H    0.258925
     8  H    0.115386
     9  H   -0.027298
    10  H    0.050132
    11  N    0.935083
    12  N    0.948347
    13  N    1.035228
    14  N    0.287972
    15  N    0.631532
    16  N    1.282929
 Sum of Mulliken charges =  -0.00000

 Dipole moment (field-independent basis, Debye):
    X=             -1.1833    Y=              3.1335    Z=             -0.5913  Tot=              3.4013

 Test job not archived.
 1\1\GINC-SE362\SP\RHF\Aug-CC-pVDZ\C6H4N6\OHZDE\08-Apr-2025\0\\#t hf au
 g-cc-pvdz iop(5/13=1,5/36=2,99/5=2) pseudo=read geom=check guess=(read
 ,tcheck) scf=(maxcycle=1)\\title\\0,1\C,0,0.863358,1.27257,-0.0410558\
 C,0,2.67737,-0.150745,0.110426\C,0,0.685178,-1.16282,0.00065032\C,0,-1
 .34033,-0.293952,-0.135345\C,0,-2.6336,0.410898,0.0402953\C,0,0.029142
 1,0.121431,0.00960736\H,0,-0.629523,2.64955,-0.0904578\H,0,1.07121,3.2
 2489,-0.0057913\H,0,3.77343,-0.236621,0.181541\H,0,-2.19373,-2.17717,-
 0.244006\N,0,0.377166,2.48368,-0.119433\N,0,2.18213,1.10077,-0.0487773

 Normal termination of Gaussian 16 at Tue Apr  8 19:26:38 2025.
