 Gaussian 16, Revision C.01,

 ----------------------------------------------------------------------
 #t hf aug-cc-pvdz symm=none int=(grid=ultrafine) guess=(read,tcheck) s
 table=(opt,rrhf)
 ----------------------------------------------------------------------
 -----
 title
 -----
 Symbolic Z-matrix:
 Charge =  0 Multiplicity = 1

 SCF Done:  E(RHF) =  -509.542260283     A.U. after   14 cycles
 Normal termination of Gaussian 16 at Tue Apr  8 22:12:03 2025.
 Gaussian 16:  ES64L-G16RevC.01  3-Jul-2019

 ----------------------------------------------------------------------
 #t hf aug-cc-pvdz iop(5/13=1,5/36=2,99/5=2) pseudo=read geom=check gue
 ss=(read,tcheck) scf=(maxcycle=1)
 ----------------------------------------------------------------------
 -----
 title
 -----
 Structure from the checkpoint file:  "ANI1ccx_939_conf37_mol1.chk"
 Charge =  0 Multiplicity = 1

                         Standard orientation:
 ---------------------------------------------------------------------
 Center     Atomic      Atomic             Coordinates (Angstroms)
 Number     Number       Type             X           Y           Z
 ---------------------------------------------------------------------
      1          6           0       -0.673629    0.657922   -0.703059
      2          6           0       -1.536189   -0.330597    0.067459
      3          6           0        0.742518    0.142550   -1.057890
      4          6           0        1.727901   -0.224046    0.078778
      5          1           0        0.281957    2.361910   -0.178888
      6          1           0       -1.211758    2.124991    0.702850
      7          1           0       -1.128949    0.743148   -1.719520
      8          1           0        0.733034   -0.734206   -1.764310
      9          1           0        1.200721    0.949773   -1.573290
     10          1           0        1.723011   -0.294176    1.962590
     11          1           0       -2.203240   -2.029759   -0.316754
     12          7           0       -0.592194    1.870741   -0.073953
     13          8           0       -2.135689   -0.107443    1.065430
     14          8           0        2.909431   -0.477467   -0.015255
     15          8           0        1.106981   -0.134031    1.204330
     16          8           0       -1.482350   -1.492539   -0.617847
 ---------------------------------------------------------------------

 SCF Done:  E(RHF) =  -510.048500518     A.U. after    2 cycles

 The electronic state is 1-A.
 Alpha  occ. eigenvalues --  -20.61212 -20.61012 -20.55415 -20.53523 -15.48598
 Alpha  occ. eigenvalues --  -11.40112 -11.39915 -11.29541 -11.27013  -1.57637
 Alpha  occ. eigenvalues --   -1.56538  -1.48108  -1.45281  -1.22402  -1.05154
 Alpha  occ. eigenvalues --   -0.96257  -0.86435  -0.82087  -0.75742  -0.73250
 Alpha  occ. eigenvalues --   -0.72515  -0.68875  -0.67616  -0.66554  -0.65935
 Alpha  occ. eigenvalues --   -0.62224  -0.61230  -0.57845  -0.56403  -0.54938
 Alpha  occ. eigenvalues --   -0.49658  -0.47430  -0.45895  -0.44956  -0.40737
 Alpha virt. eigenvalues --    0.03271   0.03717   0.04134   0.05054   0.05460
 Alpha virt. eigenvalues --    0.06364   0.07633   0.09727   0.10067   0.11029
 Alpha virt. eigenvalues --    0.13245   0.13513   0.13897   0.14119   0.14691

 Mulliken charges:
               1
     1  C   -1.511111
     2  C    2.577792
     3  C   -0.680243
     4  C    2.097989
     5  H    0.158235
     6  H    0.198722
     7  H    0.269711
     8  H    0.301716
     9  H    0.180129
    10  H    0.425373
    11  H    0.374655
    12  N    0.756679
    13  O   -1.288600
    14  O   -1.309091
    15  O   -1.216336
    16  O   -1.335621
 Sum of Mulliken charges =  -0.00000

 Dipole moment (field-independent basis, Debye):
    X=             -1.3540    Y=              0.0591    Z=             -0.3458  Tot=              1.3988

 Test job not archived.
 1\1\GINC-SE059\SP\RHF\Aug-CC-pVDZ\C4H7N1O4\OHZDE\08-Apr-2025\0\\#t hf
 aug-cc-pvdz iop(5/13=1,5/36=2,99/5=2) pseudo=read geom=check guess=(re
 ad,tcheck) scf=(maxcycle=1)\\title\\0,1\C,0,-0.67363,0.657921,-0.70305
 9\C,0,-1.53619,-0.330598,0.067459\C,0,0.742517,0.14255,-1.05789\C,0,1.
 7279,-0.224046,0.0787782\H,0,0.281955,2.36191,-0.178888\H,0,-1.21176,2
 .12499,0.70285\H,0,-1.12895,0.743147,-1.71952\H,0,0.733033,-0.734206,-
 1.76431\H,0,1.20072,0.949773,-1.57329\H,0,1.72301,-0.294176,1.96259\H,
 0,-2.20324,-2.02976,-0.316754\N,0,-0.592196,1.87074,-0.0739525\O,0,-2.

 Normal termination of Gaussian 16 at Tue Apr  8 22:12:10 2025.
