 Gaussian 16, Revision C.01,

 ----------------------------------------------------------------------
 #t hf aug-cc-pvdz symm=none int=(grid=ultrafine) guess=(read,tcheck) s
 table=(opt,rrhf)
 ----------------------------------------------------------------------
 -----
 title
 -----
 Symbolic Z-matrix:
 Charge =  0 Multiplicity = 1

 SCF Done:  E(RHF) =  -794.416481728     A.U. after   15 cycles
 Normal termination of Gaussian 16 at Tue Apr  8 20:14:20 2025.
 Gaussian 16:  ES64L-G16RevC.01  3-Jul-2019

 ----------------------------------------------------------------------
 #t hf aug-cc-pvdz iop(5/13=1,5/36=2,99/5=2) pseudo=read geom=check gue
 ss=(read,tcheck) scf=(maxcycle=1)
 ----------------------------------------------------------------------
 -----
 title
 -----
 Structure from the checkpoint file:  "ANI1ccx_1592_conf19_mol1.chk"
 Charge =  0 Multiplicity = 1

                         Standard orientation:
 ---------------------------------------------------------------------
 Center     Atomic      Atomic             Coordinates (Angstroms)
 Number     Number       Type             X           Y           Z
 ---------------------------------------------------------------------
      1          6           0        0.533428    1.299380   -0.316470
      2          6           0       -0.815507    1.878832   -0.070904
      3          6           0        1.325711    1.000239    0.847497
      4          6           0        2.677530    0.335528    0.517445
      5          6           0        2.461148   -1.049032    0.020251
      6          6           0       -1.649401   -0.445716    0.633521
      7          6           0       -2.029662   -1.345406   -0.616838
      8          6           0       -2.348351   -0.827934    1.874490
      9          1           0       -0.247156   -1.807329   -0.654986
     10          1           0       -3.409051   -0.796053    1.732670
     11          1           0       -2.094660   -0.123503    2.622130
     12          1           0       -2.064013   -1.830966    2.132190
     13          1           0       -0.597810   -0.689188    0.525006
     14          1           0       -2.795198    1.485665    0.220489
     15          1           0        3.368216   -2.677044   -0.178975
     16          1           0        3.216521    0.833035   -0.290795
     17          1           0        3.324620    0.247156    1.411670
     18          1           0        1.561642    1.808159    1.538720
     19          1           0        0.768470    0.274365    1.460370
     20          1           0        0.357493    0.384335   -0.962630
     21          1           0        0.860056    2.446600   -1.977220
     22          1           0        1.299294    3.151289   -0.670454
     23          7           0        1.411193    2.257559   -1.111990
     24          7           0       -1.810049    1.019643    0.280408
     25          8           0       -1.019066    3.138912   -0.133912
     26          8           0        1.436698   -1.583041   -0.253400
     27          8           0        3.570447   -1.805334    0.140633
     28          8           0       -3.102352   -1.363355   -1.096350
     29          8           0       -1.096453   -2.227468   -0.959609
 ---------------------------------------------------------------------

 SCF Done:  E(RHF) =  -795.213106462     A.U. after    2 cycles

 The electronic state is 1-A.
 Alpha  occ. eigenvalues --  -20.62283 -20.59210 -20.57968 -20.52957 -20.51764
 Alpha  occ. eigenvalues --  -15.55398 -15.50395 -11.42925 -11.38262 -11.37375
 Alpha  occ. eigenvalues --  -11.32072 -11.29631 -11.27899 -11.26707 -11.25178
 Alpha  occ. eigenvalues --   -1.59773  -1.55172  -1.49906  -1.46161  -1.43192
 Alpha  occ. eigenvalues --   -1.24885  -1.20718  -1.10822  -1.08509  -1.02008
 Alpha  occ. eigenvalues --   -0.93381  -0.91916  -0.84376  -0.82827  -0.80558
 Alpha  occ. eigenvalues --   -0.76870  -0.75050  -0.74143  -0.72275  -0.70870
 Alpha  occ. eigenvalues --   -0.68713  -0.67334  -0.66796  -0.64912  -0.64609
 Alpha  occ. eigenvalues --   -0.62911  -0.61050  -0.60166  -0.60007  -0.59420
 Alpha  occ. eigenvalues --   -0.58084  -0.56708  -0.55908  -0.53886  -0.53313
 Alpha  occ. eigenvalues --   -0.52633  -0.51733  -0.48419  -0.47868  -0.47147
 Alpha  occ. eigenvalues --   -0.44351  -0.42999  -0.40601
 Alpha virt. eigenvalues --    0.02318   0.02748   0.03345   0.03876   0.04989
 Alpha virt. eigenvalues --    0.05151   0.05843   0.06102   0.06663   0.07293
 Alpha virt. eigenvalues --    0.08287   0.08930   0.09561   0.10285   0.10550

 Mulliken charges:
               1
     1  C   -2.244450
     2  C    0.688584
     3  C    0.261188
     4  C   -0.545299
     5  C    2.243614
     6  C   -1.107949
     7  C    2.330999
     8  C   -0.112274
     9  H    0.872219
    10  H    0.202058
    11  H    0.143455
    12  H    0.259730
    13  H    0.319658
    14  H    0.238802
    15  H    0.360382
    16  H    0.322259
    17  H    0.209436
    18  H    0.030286
    19  H    0.221224
    20  H    0.409768
    21  H    0.231324
    22  H    0.340775
    23  N    0.604912
    24  N    0.765248
    25  O   -1.502821
    26  O   -1.371587
    27  O   -1.431471
    28  O   -1.363684
    29  O   -1.376385
 Sum of Mulliken charges =  -0.00000

 Dipole moment (field-independent basis, Debye):
    X=              4.1915    Y=             -1.5051    Z=              3.6209  Tot=              5.7397

 Test job not archived.
 1\1\GINC-SE058\SP\RHF\Aug-CC-pVDZ\C8H14N2O5\OHZDE\08-Apr-2025\0\\#t hf
  aug-cc-pvdz iop(5/13=1,5/36=2,99/5=2) pseudo=read geom=check guess=(r
 ead,tcheck) scf=(maxcycle=1)\\title\\0,1\C,0,0.533426,1.29938,-0.31647
 \C,0,-0.815509,1.87883,-0.0709041\C,0,1.32571,1.00024,0.847497\C,0,2.6
 7753,0.335531,0.517445\C,0,2.46115,-1.04903,0.0202506\C,0,-1.6494,-0.4
 45719,0.633521\C,0,-2.02966,-1.34541,-0.616838\C,0,-2.34835,-0.827938,
 1.87449\H,0,-0.247153,-1.80733,-0.654986\H,0,-3.40905,-0.796059,1.7326
 7\H,0,-2.09466,-0.123507,2.62213\H,0,-2.06401,-1.83097,2.13219\H,0,-0.

 Normal termination of Gaussian 16 at Tue Apr  8 20:14:57 2025.
