 Gaussian 16, Revision C.01,

 ----------------------------------------------------------------------
 #t hf aug-cc-pvdz symm=none int=(grid=ultrafine) guess=(read,tcheck) s
 table=(opt,rrhf)
 ----------------------------------------------------------------------
 -----
 title
 -----
 Symbolic Z-matrix:
 Charge =  0 Multiplicity = 1

 SCF Done:  E(RHF) =  -538.492421866     A.U. after   15 cycles
 Normal termination of Gaussian 16 at Tue Apr  8 21:52:57 2025.
 Gaussian 16:  ES64L-G16RevC.01  3-Jul-2019

 ----------------------------------------------------------------------
 #t hf aug-cc-pvdz iop(5/13=1,5/36=2,99/5=2) pseudo=read geom=check gue
 ss=(read,tcheck) scf=(maxcycle=1)
 ----------------------------------------------------------------------
 -----
 title
 -----
 Structure from the checkpoint file:  "ANI1ccx_716_conf6_mol1.chk"
 Charge =  0 Multiplicity = 1

                         Standard orientation:
 ---------------------------------------------------------------------
 Center     Atomic      Atomic             Coordinates (Angstroms)
 Number     Number       Type             X           Y           Z
 ---------------------------------------------------------------------
      1          6           0       -0.821539    0.563214    0.501870
      2          6           0       -1.843090   -0.459191   -0.094653
      3          6           0        0.663492    0.165265    0.169657
      4          1           0       -1.759081    2.456440    0.599205
      5          1           0       -1.493431    1.817020   -0.795572
      6          1           0       -0.797482    0.482965    1.552690
      7          1           0       -0.387621   -1.714540    0.093615
      8          1           0        1.655309    1.987580   -0.379575
      9          7           0       -0.992975    1.927420    0.143216
     10          7           0        1.190190   -1.032660    0.275869
     11          7           0        2.426600   -0.944734   -0.049085
     12          7           0        2.779609    0.216495   -0.358747
     13          7           0        1.649229    1.013110   -0.166183
     14          8           0       -1.413070   -1.730270    0.076962
     15          8           0       -2.909360   -0.132556   -0.507849
 ---------------------------------------------------------------------

 SCF Done:  E(RHF) =  -539.031341453     A.U. after    2 cycles

 The electronic state is 1-A.
 Alpha  occ. eigenvalues --  -20.59902 -20.56563 -15.63177 -15.61355 -15.60186
 Alpha  occ. eigenvalues --  -15.56089 -15.54706 -11.41942 -11.37225 -11.34539
 Alpha  occ. eigenvalues --   -1.55085  -1.52280  -1.47596  -1.29909  -1.26846
 Alpha  occ. eigenvalues --   -1.23471  -1.03907  -0.97839  -0.93716  -0.86930
 Alpha  occ. eigenvalues --   -0.82660  -0.78635  -0.75598  -0.73874  -0.71198
 Alpha  occ. eigenvalues --   -0.69060  -0.65045  -0.64169  -0.60220  -0.59149
 Alpha  occ. eigenvalues --   -0.55550  -0.54126  -0.53195  -0.51672  -0.49448
 Alpha  occ. eigenvalues --   -0.48128  -0.45545
 Alpha virt. eigenvalues --    0.01999   0.03740   0.04049   0.05324   0.06803
 Alpha virt. eigenvalues --    0.07101   0.07453   0.09836   0.10403   0.10583
 Alpha virt. eigenvalues --    0.11809   0.12391   0.13268   0.13331   0.13731

 Mulliken charges:
               1
     1  C   -1.427479
     2  C    2.352225
     3  C   -1.228719
     4  H    0.203997
     5  H    0.316212
     6  H    0.245151
     7  H    0.742574
     8  H    0.116353
     9  N    0.621874
    10  N    0.340714
    11  N   -0.294048
    12  N   -0.006481
    13  N    0.649858
    14  O   -1.412435
    15  O   -1.219794
 Sum of Mulliken charges =  -0.00000

 Dipole moment (field-independent basis, Debye):
    X=             -0.6410    Y=              4.8246    Z=              1.0142  Tot=              4.9716

 Test job not archived.
 1\1\GINC-SE048\SP\RHF\Aug-CC-pVDZ\C3H5N5O2\OHZDE\08-Apr-2025\0\\#t hf
 aug-cc-pvdz iop(5/13=1,5/36=2,99/5=2) pseudo=read geom=check guess=(re
 ad,tcheck) scf=(maxcycle=1)\\title\\0,1\C,0,-0.821538,0.563214,0.50187
 \C,0,-1.84309,-0.459191,-0.0946526\C,0,0.663492,0.165265,0.169657\H,0,
 -1.75908,2.45644,0.599205\H,0,-1.49343,1.81702,-0.795572\H,0,-0.797481
 ,0.482965,1.55269\H,0,-0.387621,-1.71454,0.0936148\H,0,1.65531,1.98758
 ,-0.379575\N,0,-0.992974,1.92742,0.143216\N,0,1.19019,-1.03266,0.27586
 9\N,0,2.4266,-0.944735,-0.0490848\N,0,2.77961,0.216494,-0.358747\N,0,1

 Normal termination of Gaussian 16 at Tue Apr  8 21:53:04 2025.
