 Gaussian 16, Revision C.01,

 ----------------------------------------------------------------------
 #t hf aug-cc-pvdz symm=none int=(grid=ultrafine) guess=(read,tcheck) s
 table=(opt,rrhf)
 ----------------------------------------------------------------------
 -----
 title
 -----
 Symbolic Z-matrix:
 Charge =  0 Multiplicity = 1

 SCF Done:  E(RHF) =  -869.489114513     A.U. after   15 cycles
 Normal termination of Gaussian 16 at Tue Apr  8 21:31:26 2025.
 Gaussian 16:  ES64L-G16RevC.01  3-Jul-2019

 ----------------------------------------------------------------------
 #t hf aug-cc-pvdz iop(5/13=1,5/36=2,99/5=2) pseudo=read geom=check gue
 ss=(read,tcheck) scf=(maxcycle=1)
 ----------------------------------------------------------------------
 -----
 title
 -----
 Structure from the checkpoint file:  "ANI1ccx_185_conf10_mol1.chk"
 Charge =  0 Multiplicity = 1

                         Standard orientation:
 ---------------------------------------------------------------------
 Center     Atomic      Atomic             Coordinates (Angstroms)
 Number     Number       Type             X           Y           Z
 ---------------------------------------------------------------------
      1          6           0        0.079783    1.287769   -0.967255
      2          6           0       -3.685540    0.021903    1.558650
      3          6           0       -3.078620   -0.631429    0.364236
      4          6           0       -0.952068   -1.823611   -0.565834
      5          6           0       -1.611660   -1.077430    0.643491
      6          6           0       -3.191270    0.264471   -0.915157
      7          6           0        3.312160   -0.314943   -0.788314
      8          6           0        2.424020    0.427406   -0.121485
      9          6           0        1.619551    1.563179   -0.809459
     10          6           0       -0.425188    1.156599    0.498452
     11          6           0        3.559540   -0.702565    1.338000
     12          1           0       -3.609050   -1.607270    0.218381
     13          1           0        0.674594   -2.233291   -1.399360
     14          1           0       -4.788560   -0.023124    1.451570
     15          1           0       -3.380970   -0.509687    2.415050
     16          1           0       -3.462869    1.105270    1.654750
     17          1           0       -2.604459    1.204840   -0.920190
     18          1           0       -2.985810   -0.391538   -1.754570
     19          1           0       -4.231969    0.596521   -1.053150
     20          1           0       -1.660530   -1.886200    1.412010
     21          1           0        4.080220   -1.032992    2.249570
     22          1           0        4.921260   -1.457482   -0.030722
     23          1           0        3.500070   -0.517993   -1.821270
     24          1           0        2.140131    1.779869   -1.777800
     25          1           0        1.690201    2.486349   -0.258047
     26          1           0       -0.134224    0.395525   -1.505670
     27          1           0       -1.445909    2.459769   -1.648420
     28          1           0       -0.359070    3.249339   -0.702532
     29          1           0       -0.681625    0.047640    2.071480
     30          7           0       -0.450914    2.550749   -1.520090
     31          7           0        2.570680    0.182256    1.266870
     32          7           0        4.037780   -1.048422    0.167594
     33          7           0       -0.777519    0.003299    1.043580
     34          8           0       -1.590140   -2.515941   -1.358500
     35          8           0       -0.464328    2.230839    1.115600
     36          8           0        0.351233   -1.778501   -0.596941
 ---------------------------------------------------------------------

 SCF Done:  E(RHF) =  -870.373729924     A.U. after    2 cycles

 The electronic state is 1-A.
 Alpha  occ. eigenvalues --  -20.61537 -20.53946 -20.50295 -15.55709 -15.52575
 Alpha  occ. eigenvalues --  -15.48668 -15.48303 -11.40423 -11.35126 -11.31827
 Alpha  occ. eigenvalues --  -11.30715 -11.27422 -11.25988 -11.25651 -11.25589
 Alpha  occ. eigenvalues --  -11.24595 -11.23456 -11.22815  -1.57361  -1.44714
 Alpha  occ. eigenvalues --   -1.44662  -1.34545  -1.26550  -1.17885  -1.16695
 Alpha  occ. eigenvalues --   -1.10048  -1.05037  -1.00949  -0.98642  -0.94799
 Alpha  occ. eigenvalues --   -0.90232  -0.86637  -0.86512  -0.82978  -0.80259
 Alpha  occ. eigenvalues --   -0.77914  -0.75954  -0.74119  -0.71878  -0.71873
 Alpha  occ. eigenvalues --   -0.68648  -0.66919  -0.65409  -0.65136  -0.64109
 Alpha  occ. eigenvalues --   -0.63060  -0.62284  -0.61085  -0.60922  -0.59286
 Alpha  occ. eigenvalues --   -0.58488  -0.57444  -0.55638  -0.54336  -0.54058
 Alpha  occ. eigenvalues --   -0.53555  -0.51500  -0.50175  -0.49270  -0.48765
 Alpha  occ. eigenvalues --   -0.47532  -0.47108  -0.45409  -0.43950  -0.42977
 Alpha  occ. eigenvalues --   -0.41165  -0.40464  -0.34234
 Alpha virt. eigenvalues --    0.02119   0.03116   0.03560   0.03765   0.04099
 Alpha virt. eigenvalues --    0.04335   0.05045   0.05205   0.05827   0.06516
 Alpha virt. eigenvalues --    0.06718   0.07530   0.08360   0.08932   0.09168

 Mulliken charges:
               1
     1  C   -1.692199
     2  C   -0.202962
     3  C   -0.630743
     4  C    3.225772
     5  C   -1.786763
     6  C    0.070926
     7  C   -0.241587
     8  C    0.299756
     9  C   -0.416565
    10  C    1.021535
    11  C   -1.042474
    12  H    0.184153
    13  H    0.422675
    14  H    0.206302
    15  H    0.093358
    16  H    0.279599
    17  H    0.200335
    18  H    0.163380
    19  H    0.086420
    20  H    0.270036
    21  H   -0.136044
    22  H   -0.007675
    23  H   -0.359113
    24  H    0.156863
    25  H    0.180323
    26  H   -0.192075
    27  H   -0.003566
    28  H    0.389208
    29  H    0.391011
    30  N    0.977405
    31  N    0.956218
    32  N    0.848407
    33  N    1.067319
    34  O   -1.534651
    35  O   -1.717442
    36  O   -1.527143
 Sum of Mulliken charges =   0.00000

 Dipole moment (field-independent basis, Debye):
    X=              2.6490    Y=             -4.1790    Z=             -0.1207  Tot=              4.9493

 Test job not archived.
 1\1\GINC-SE364\SP\RHF\Aug-CC-pVDZ\C11H18N4O3\OHZDE\08-Apr-2025\0\\#t h
 f aug-cc-pvdz iop(5/13=1,5/36=2,99/5=2) pseudo=read geom=check guess=(
 read,tcheck) scf=(maxcycle=1)\\title\\0,1\C,0,0.0797819,1.28777,-0.967
 255\C,0,-3.68554,0.021903,1.55865\C,0,-3.07862,-0.631429,0.364236\C,0,
 -0.952068,-1.82361,-0.565834\C,0,-1.61166,-1.07743,0.643491\C,0,-3.191
 27,0.264471,-0.915157\C,0,3.31216,-0.314941,-0.788314\C,0,2.42402,0.42
 7407,-0.121485\C,0,1.61955,1.56318,-0.809459\C,0,-0.425189,1.1566,0.49
 8452\C,0,3.55954,-0.702563,1.338\H,0,-3.60905,-1.60727,0.218381\H,0,0.

 Normal termination of Gaussian 16 at Tue Apr  8 21:32:33 2025.
