 Gaussian 16, Revision C.01,

 ----------------------------------------------------------------------
 #t hf aug-cc-pvdz symm=none int=(grid=ultrafine) guess=(read,tcheck) s
 table=(opt,rrhf)
 ----------------------------------------------------------------------
 -----
 title
 -----
 Symbolic Z-matrix:
 Charge =  0 Multiplicity = 1

 SCF Done:  E(RHF) =  -564.590943083     A.U. after   14 cycles
 Normal termination of Gaussian 16 at Tue Apr  8 22:14:29 2025.
 Gaussian 16:  ES64L-G16RevC.01  3-Jul-2019

 ----------------------------------------------------------------------
 #t hf aug-cc-pvdz iop(5/13=1,5/36=2,99/5=2) pseudo=read geom=check gue
 ss=(read,tcheck) scf=(maxcycle=1)
 ----------------------------------------------------------------------
 -----
 title
 -----
 Structure from the checkpoint file:  "ANI1ccx_958_conf2_mol2.chk"
 Charge =  0 Multiplicity = 1

                         Standard orientation:
 ---------------------------------------------------------------------
 Center     Atomic      Atomic             Coordinates (Angstroms)
 Number     Number       Type             X           Y           Z
 ---------------------------------------------------------------------
      1          6           0       -0.690119    1.802140    1.098920
      2          6           0       -0.377887    0.014294   -0.482815
      3          6           0        2.015020   -0.338079    0.021781
      4          6           0       -1.643720   -0.730435   -0.147953
      5          1           0       -2.523909    0.779895   -0.797127
      6          1           0        1.610001    1.549539   -0.799001
      7          1           0        3.222891    0.930030   -1.013490
      8          1           0        0.509731   -1.394271    0.784020
      9          1           0       -1.566729    1.342010    1.546470
     10          1           0        0.207425    1.499640    1.630970
     11          1           0       -0.713242    2.892660    1.082810
     12          1           0       -0.134359   -0.084023   -1.558070
     13          7           0        0.688794   -0.541564    0.266170
     14          7           0        2.251991    0.733917   -0.802302
     15          8           0       -2.758680   -0.135003   -0.511850
     16          8           0       -0.525322    1.400740   -0.267368
     17          8           0        2.865080   -1.113622    0.437501
     18          8           0       -1.708211   -1.820800    0.333809
 ---------------------------------------------------------------------

 SCF Done:  E(RHF) =  -565.153356389     A.U. after    2 cycles

 The electronic state is 1-A.
 Alpha  occ. eigenvalues --  -20.62405 -20.60226 -20.55669 -20.50687 -15.53619
 Alpha  occ. eigenvalues --  -15.53449 -11.41226 -11.39297 -11.37722 -11.31899
 Alpha  occ. eigenvalues --   -1.58617  -1.52303  -1.48113  -1.46292  -1.28164
 Alpha  occ. eigenvalues --   -1.20851  -1.04783  -0.96429  -0.87700  -0.85269
 Alpha  occ. eigenvalues --   -0.82056  -0.78360  -0.74768  -0.73973  -0.68919
 Alpha  occ. eigenvalues --   -0.68329  -0.67520  -0.64597  -0.63342  -0.62636
 Alpha  occ. eigenvalues --   -0.60121  -0.58877  -0.54539  -0.50984  -0.49363
 Alpha  occ. eigenvalues --   -0.48257  -0.46104  -0.44812  -0.42921
 Alpha virt. eigenvalues --    0.02325   0.03391   0.03654   0.04297   0.05322
 Alpha virt. eigenvalues --    0.06921   0.07139   0.07912   0.08960   0.10949
 Alpha virt. eigenvalues --    0.11403   0.12275   0.12671   0.13197   0.13744

 Mulliken charges:
               1
     1  C    0.081902
     2  C    0.109870
     3  C    0.064262
     4  C    2.376337
     5  H    0.477670
     6  H    0.130358
     7  H    0.160803
     8  H    0.357571
     9  H    0.164618
    10  H    0.279974
    11  H    0.064068
    12  H    0.156309
    13  N    0.543444
    14  N    0.523478
    15  O   -1.369095
    16  O   -1.544862
    17  O   -1.243318
    18  O   -1.333389
 Sum of Mulliken charges =   0.00000

 Dipole moment (field-independent basis, Debye):
    X=             -1.2399    Y=              5.9540    Z=             -1.3034  Tot=              6.2199

 Test job not archived.
 1\1\GINC-SE072\SP\RHF\Aug-CC-pVDZ\C4H8N2O4\OHZDE\08-Apr-2025\0\\#t hf
 aug-cc-pvdz iop(5/13=1,5/36=2,99/5=2) pseudo=read geom=check guess=(re
 ad,tcheck) scf=(maxcycle=1)\\title\\0,1\C,0,-0.69012,1.80214,1.09892\C
 ,0,-0.377887,0.0142941,-0.482815\C,0,2.01502,-0.338078,0.021781\C,0,-1
 .64372,-0.730435,-0.147953\H,0,-2.52391,0.779894,-0.797127\H,0,1.61,1.
 54954,-0.799001\H,0,3.22289,0.930032,-1.01349\H,0,0.509732,-1.39427,0.
 78402\H,0,-1.56673,1.34201,1.54647\H,0,0.207424,1.49964,1.63097\H,0,-0
 .713244,2.89266,1.08281\H,0,-0.134359,-0.084023,-1.55807\N,0,0.688794,

 Normal termination of Gaussian 16 at Tue Apr  8 22:14:39 2025.
