 Gaussian 16, Revision C.01,

 ----------------------------------------------------------------------
 #t hf aug-cc-pvdz symm=none int=(grid=ultrafine) guess=(read,tcheck) s
 table=(opt,rrhf)
 ----------------------------------------------------------------------
 -----
 title
 -----
 Symbolic Z-matrix:
 Charge =  0 Multiplicity = 1

 SCF Done:  E(RHF) =  -966.617794948     A.U. after   14 cycles
 Normal termination of Gaussian 16 at Tue Apr  8 21:50:34 2025.
 Gaussian 16:  ES64L-G16RevC.01  3-Jul-2019

 ----------------------------------------------------------------------
 #t hf aug-cc-pvdz iop(5/13=1,5/36=2,99/5=2) pseudo=read geom=check gue
 ss=(read,tcheck) scf=(maxcycle=1)
 ----------------------------------------------------------------------
 -----
 title
 -----
 Structure from the checkpoint file:  "ANI1ccx_203_conf4_mol2.chk"
 Charge =  0 Multiplicity = 1

                         Standard orientation:
 ---------------------------------------------------------------------
 Center     Atomic      Atomic             Coordinates (Angstroms)
 Number     Number       Type             X           Y           Z
 ---------------------------------------------------------------------
      1          6           0        2.504591   -0.300293    1.337660
      2          6           0       -3.786119   -0.199652    0.583323
      3          6           0       -2.336519    0.001582    0.172247
      4          6           0       -1.879419    1.413240    0.266240
      5          6           0       -0.121894    3.142810   -0.472982
      6          6           0       -4.253880   -1.631239    0.621583
      7          6           0        1.350260   -2.124581   -1.067120
      8          6           0        2.017000   -2.566101    0.163603
      9          6           0        3.082150   -1.563911    0.673432
     10          6           0        1.787801    0.619987    0.348308
     11          6           0       -0.409188    1.621090   -0.234717
     12          1           0       -2.255979   -0.287801   -0.904385
     13          1           0        1.622701    2.600749   -0.894840
     14          1           0       -4.519650   -3.258849   -0.639207
     15          1           0       -3.244780   -2.362559   -0.969989
     16          1           0       -3.654580   -2.154899    1.421540
     17          1           0       -5.287470   -1.689389    0.960635
     18          1           0       -3.913169    0.251678    1.581700
     19          1           0       -4.429709    0.382098   -0.097020
     20          1           0       -1.711069   -0.712735    0.774145
     21          1           0       -2.556589    2.094480   -0.282733
     22          1           0        0.195054    0.350206    1.447390
     23          1           0       -0.317023    1.179180   -1.260050
     24          1           0        1.532801    0.209869    3.029760
     25          1           0       -1.910319    1.778610    1.297350
     26          1           0        3.361521    0.298523    1.673320
     27          1           0        3.664100   -2.103921    1.436470
     28          1           0        2.113800   -1.297361    3.081420
     29          1           0        1.321920   -2.788201    0.987915
     30          1           0        2.613130   -3.483041   -0.009225
     31          1           0        1.512320   -1.723731   -2.849410
     32          1           0        3.707881   -1.202991   -0.159141
     33          7           0        1.648401   -0.632379    2.470770
     34          7           0        0.532732    0.976019    0.700462
     35          7           0       -4.225240   -2.258229   -0.696065
     36          8           0       -0.952550    4.000930   -0.450934
     37          8           0        2.320471    1.059599   -0.670082
     38          8           0        0.173291   -1.791880   -1.144320
     39          8           0        2.126510   -2.079981   -2.170960
     40          8           0        1.174172    3.416909   -0.726357
 ---------------------------------------------------------------------

 SCF Done:  E(RHF) =  -967.601374062     A.U. after    2 cycles

 The electronic state is 1-A.
 Alpha  occ. eigenvalues --  -20.61564 -20.56122 -20.55185 -20.53858 -20.52108
 Alpha  occ. eigenvalues --  -15.55003 -15.53560 -15.48558 -11.41271 -11.38273
 Alpha  occ. eigenvalues --  -11.37847 -11.31148 -11.30671 -11.28324 -11.27884
 Alpha  occ. eigenvalues --  -11.25377 -11.23982 -11.22880 -11.22268  -1.56216
 Alpha  occ. eigenvalues --   -1.52586  -1.48814  -1.45476  -1.44011  -1.27654
 Alpha  occ. eigenvalues --   -1.23021  -1.17799  -1.10994  -1.09121  -1.03137
 Alpha  occ. eigenvalues --   -1.00426  -0.94739  -0.90716  -0.85430  -0.83481
 Alpha  occ. eigenvalues --   -0.81502  -0.80844  -0.78702  -0.76234  -0.74385
 Alpha  occ. eigenvalues --   -0.72954  -0.72246  -0.71432  -0.70375  -0.68540
 Alpha  occ. eigenvalues --   -0.67952  -0.66482  -0.64957  -0.64690  -0.63248
 Alpha  occ. eigenvalues --   -0.62226  -0.61736  -0.61360  -0.60048  -0.59493
 Alpha  occ. eigenvalues --   -0.58583  -0.57013  -0.56460  -0.55260  -0.54954
 Alpha  occ. eigenvalues --   -0.52960  -0.52689  -0.51902  -0.49547  -0.48736
 Alpha  occ. eigenvalues --   -0.47929  -0.47859  -0.46407  -0.46055  -0.45907
 Alpha  occ. eigenvalues --   -0.45206  -0.44186  -0.42415  -0.41188
 Alpha virt. eigenvalues --    0.01291   0.02493   0.02750   0.03614   0.03773
 Alpha virt. eigenvalues --    0.03991   0.04765   0.05042   0.05944   0.06224
 Alpha virt. eigenvalues --    0.06747   0.06911   0.07385   0.08204   0.08448

 Mulliken charges:
               1
     1  C   -1.411595
     2  C   -0.234368
     3  C   -0.539220
     4  C   -0.205626
     5  C    2.526977
     6  C   -0.515255
     7  C    3.047759
     8  C   -0.821262
     9  C   -0.273278
    10  C    0.163222
    11  C   -1.202356
    12  H    0.204860
    13  H    0.583323
    14  H    0.213141
    15  H    0.046555
    16  H    0.169298
    17  H    0.035435
    18  H    0.161697
    19  H    0.154959
    20  H    0.156139
    21  H    0.128693
    22  H    0.337427
    23  H    0.128972
    24  H    0.279688
    25  H    0.114771
    26  H    0.302248
    27  H    0.123957
    28  H    0.116421
    29  H    0.253309
    30  H    0.259340
    31  H    0.354258
    32  H    0.208377
    33  N    0.646028
    34  N    1.520830
    35  N    0.276324
    36  O   -1.326223
    37  O   -1.645475
    38  O   -1.442796
    39  O   -1.428075
    40  O   -1.468481
 Sum of Mulliken charges =  -0.00000

 Dipole moment (field-independent basis, Debye):
    X=              3.6684    Y=             -7.5460    Z=              4.6780  Tot=              9.6063

 Test job not archived.
 1\1\GINC-SE030\SP\RHF\Aug-CC-pVDZ\C11H21N3O5\OHZDE\08-Apr-2025\0\\#t h
 f aug-cc-pvdz iop(5/13=1,5/36=2,99/5=2) pseudo=read geom=check guess=(
 read,tcheck) scf=(maxcycle=1)\\title\\0,1\C,0,2.50459,-0.300292,1.3376
 6\C,0,-3.78612,-0.199653,0.583323\C,0,-2.33652,0.00158197,0.172247\C,0
 ,-1.87942,1.41324,0.26624\C,0,-0.121896,3.14281,-0.472982\C,0,-4.25388
 ,-1.63124,0.621583\C,0,1.35026,-2.12458,-1.06712\C,0,2.017,-2.5661,0.1
 63603\C,0,3.08215,-1.56391,0.673432\C,0,1.7878,0.619988,0.348308\C,0,-
 0.409189,1.62109,-0.234717\H,0,-2.25598,-0.287801,-0.904385\H,0,1.6227

 Normal termination of Gaussian 16 at Tue Apr  8 21:51:56 2025.
