 Gaussian 16, Revision C.01,

 ----------------------------------------------------------------------
 #t hf aug-cc-pvdz symm=none int=(grid=ultrafine) guess=(read,tcheck) s
 table=(opt,rrhf)
 ----------------------------------------------------------------------
 -----
 title
 -----
 Symbolic Z-matrix:
 Charge =  0 Multiplicity = 1

 SCF Done:  E(RHF) =  -259.157673994     A.U. after   13 cycles
 Normal termination of Gaussian 16 at Tue Apr  8 21:38:44 2025.
 Gaussian 16:  ES64L-G16RevC.01  3-Jul-2019

 ----------------------------------------------------------------------
 #t hf aug-cc-pvdz iop(5/13=1,5/36=2,99/5=2) pseudo=read geom=check gue
 ss=(read,tcheck) scf=(maxcycle=1)
 ----------------------------------------------------------------------
 -----
 title
 -----
 Structure from the checkpoint file:  "ANI1ccx_430_conf30_mol1.chk"
 Charge =  0 Multiplicity = 1

                         Standard orientation:
 ---------------------------------------------------------------------
 Center     Atomic      Atomic             Coordinates (Angstroms)
 Number     Number       Type             X           Y           Z
 ---------------------------------------------------------------------
      1          6           0        0.483848    0.136647   -0.009678
      2          1           0       -2.058792    0.392758    0.816123
      3          1           0       -2.076292    0.374413   -0.794984
      4          1           0       -0.545870   -1.678300   -0.038441
      5          1           0        1.711659   -1.563769   -0.017153
      6          1           0        2.578319   -0.032855    0.209694
      7          1           0       -0.448036    1.831910   -0.070113
      8          7           0       -1.898841   -0.188196    0.027218
      9          7           0       -0.604241   -0.692583   -0.013112
     10          7           0        1.699869   -0.555899   -0.015054
     11          7           0        0.508346    1.416101   -0.005775
 ---------------------------------------------------------------------

 SCF Done:  E(RHF) =  -259.427737923     A.U. after    2 cycles

 The electronic state is 1-A.
 Alpha  occ. eigenvalues --  -15.54655 -15.53615 -15.51429 -15.44939 -11.35033
 Alpha  occ. eigenvalues --   -1.33256  -1.22898  -1.13590  -1.08487  -0.85981
 Alpha  occ. eigenvalues --   -0.78760  -0.75986  -0.74315  -0.68689  -0.64948
 Alpha  occ. eigenvalues --   -0.58973  -0.49602  -0.46718  -0.45552  -0.39700
 Alpha virt. eigenvalues --    0.02712   0.04596   0.05153   0.06248   0.06646
 Alpha virt. eigenvalues --    0.06945   0.11388   0.12468   0.13629   0.14626
 Alpha virt. eigenvalues --    0.15222   0.16746   0.17434   0.17586   0.18547

 Mulliken charges:
               1
     1  C   -1.591211
     2  H    0.123389
     3  H    0.162907
     4  H    0.005406
     5  H    0.069503
     6  H    0.134312
     7  H    0.213485
     8  N   -0.056014
     9  N   -0.112399
    10  N    0.423024
    11  N    0.627598
 Sum of Mulliken charges =  -0.00000

 Dipole moment (field-independent basis, Debye):
    X=             -0.7142    Y=             -2.5307    Z=              0.2172  Tot=              2.6385

 Test job not archived.
 1\1\GINC-SE404\SP\RHF\Aug-CC-pVDZ\C1H6N4\OHZDE\08-Apr-2025\0\\#t hf au
 g-cc-pvdz iop(5/13=1,5/36=2,99/5=2) pseudo=read geom=check guess=(read
 ,tcheck) scf=(maxcycle=1)\\title\\0,1\C,0,0.483849,0.136646,-0.0096779
 4\H,0,-2.05879,0.392759,0.816123\H,0,-2.07629,0.374414,-0.794984\H,0,-
 0.545869,-1.6783,-0.0384405\H,0,1.71166,-1.56377,-0.0171529\H,0,2.5783
 2,-0.0328562,0.209694\H,0,-0.448034,1.83191,-0.0701132\N,0,-1.89884,-0
 .188195,0.0272182\N,0,-0.60424,-0.692583,-0.0131119\N,0,1.69987,-0.555
 9,-0.0150537\N,0,0.508348,1.4161,-0.00577523\\Version=ES64L-G16RevC.01

 Normal termination of Gaussian 16 at Tue Apr  8 21:38:47 2025.
