 Gaussian 16, Revision C.01,

 ----------------------------------------------------------------------
 #t hf aug-cc-pvdz symm=none int=(grid=ultrafine) guess=(read,tcheck) s
 table=(opt,rrhf)
 ----------------------------------------------------------------------
 -----
 title
 -----
 Symbolic Z-matrix:
 Charge =  0 Multiplicity = 1

 SCF Done:  E(RHF) =  -388.964581415     A.U. after   13 cycles
 Normal termination of Gaussian 16 at Tue Apr  8 21:40:05 2025.
 Gaussian 16:  ES64L-G16RevC.01  3-Jul-2019

 ----------------------------------------------------------------------
 #t hf aug-cc-pvdz iop(5/13=1,5/36=2,99/5=2) pseudo=read geom=check gue
 ss=(read,tcheck) scf=(maxcycle=1)
 ----------------------------------------------------------------------
 -----
 title
 -----
 Structure from the checkpoint file:  "ANI1ccx_446_conf1_mol2.chk"
 Charge =  0 Multiplicity = 1

                         Standard orientation:
 ---------------------------------------------------------------------
 Center     Atomic      Atomic             Coordinates (Angstroms)
 Number     Number       Type             X           Y           Z
 ---------------------------------------------------------------------
      1          6           0        0.199842   -0.150862   -0.031493
      2          1           0        2.890971    0.315998   -0.774555
      3          1           0        2.155921    0.941308    0.575329
      4          1           0        1.495781   -1.548780    0.521182
      5          1           0       -0.589161   -1.841630   -0.764965
      6          1           0       -2.372389   -0.918344    1.069640
      7          1           0       -2.323119    0.013727   -0.326303
      8          1           0       -1.020509    2.565180   -0.036652
      9          7           0        2.552211    0.096561    0.170909
     10          7           0        1.439971   -0.776307   -0.147465
     11          7           0       -0.767543   -1.175440   -0.051405
     12          7           0       -2.149559   -0.892823    0.071894
     13          7           0        0.096849    1.111670    0.035832
     14          8           0       -1.205009    1.604010   -0.079133
 ---------------------------------------------------------------------

 SCF Done:  E(RHF) =  -389.367783380     A.U. after    2 cycles

 The electronic state is 1-A.
 Alpha  occ. eigenvalues --  -20.59331 -15.54531 -15.54210 -15.53871 -15.52260
 Alpha  occ. eigenvalues --  -15.51711 -11.34984  -1.50695  -1.33151  -1.27453
 Alpha  occ. eigenvalues --   -1.17266  -1.10170  -1.03351  -0.83572  -0.79254
 Alpha  occ. eigenvalues --   -0.74632  -0.73259  -0.72112  -0.68282  -0.67346
 Alpha  occ. eigenvalues --   -0.64504  -0.61999  -0.54675  -0.52964  -0.48120
 Alpha  occ. eigenvalues --   -0.45702  -0.45324  -0.39327
 Alpha virt. eigenvalues --    0.03286   0.04731   0.05508   0.05741   0.06341
 Alpha virt. eigenvalues --    0.06955   0.07153   0.11346   0.12753   0.13337
 Alpha virt. eigenvalues --    0.14125   0.15065   0.15783   0.16238   0.16811

 Mulliken charges:
               1
     1  C   -1.743147
     2  H    0.188483
     3  H    0.128929
     4  H    0.270853
     5  H    0.189724
     6  H    0.148617
     7  H    0.113739
     8  H    0.335766
     9  N    0.239657
    10  N   -0.040528
    11  N   -0.255675
    12  N    0.353194
    13  N    1.450965
    14  O   -1.380578
 Sum of Mulliken charges =  -0.00000

 Dipole moment (field-independent basis, Debye):
    X=             -0.4588    Y=              0.9288    Z=              0.0546  Tot=              1.0374

 Test job not archived.
 1\1\GINC-SE044\SP\RHF\Aug-CC-pVDZ\C1H7N5O1\OHZDE\08-Apr-2025\0\\#t hf
 aug-cc-pvdz iop(5/13=1,5/36=2,99/5=2) pseudo=read geom=check guess=(re
 ad,tcheck) scf=(maxcycle=1)\\title\\0,1\C,0,0.199841,-0.150862,-0.0314
 932\H,0,2.89097,0.315998,-0.774555\H,0,2.15592,0.941308,0.575329\H,0,1
 .49578,-1.54878,0.521182\H,0,-0.589162,-1.84163,-0.764965\H,0,-2.37239
 ,-0.918344,1.06964\H,0,-2.32312,0.0137267,-0.326303\H,0,-1.02051,2.565
 18,-0.0366524\N,0,2.55221,0.0965604,0.170909\N,0,1.43997,-0.776307,-0.
 147465\N,0,-0.767544,-1.17544,-0.0514053\N,0,-2.14956,-0.892823,0.0718

 Normal termination of Gaussian 16 at Tue Apr  8 21:40:10 2025.
