 Gaussian 16, Revision C.01,

 ----------------------------------------------------------------------
 #t hf aug-cc-pvdz symm=none int=(grid=ultrafine) guess=(read,tcheck) s
 table=(opt,rrhf)
 ----------------------------------------------------------------------
 -----
 title
 -----
 Symbolic Z-matrix:
 Charge =  0 Multiplicity = 1

 SCF Done:  E(RHF) =  -298.815799660     A.U. after   14 cycles
 Normal termination of Gaussian 16 at Tue Apr  8 21:35:39 2025.
 Gaussian 16:  ES64L-G16RevC.01  3-Jul-2019

 ----------------------------------------------------------------------
 #t hf aug-cc-pvdz iop(5/13=1,5/36=2,99/5=2) pseudo=read geom=check gue
 ss=(read,tcheck) scf=(maxcycle=1)
 ----------------------------------------------------------------------
 -----
 title
 -----
 Structure from the checkpoint file:  "ANI1ccx_398_conf30_mol1.chk"
 Charge =  0 Multiplicity = 1

                         Standard orientation:
 ---------------------------------------------------------------------
 Center     Atomic      Atomic             Coordinates (Angstroms)
 Number     Number       Type             X           Y           Z
 ---------------------------------------------------------------------
      1          6           0       -0.459726    0.170478    0.042347
      2          1           0       -1.720910   -1.275609   -0.614900
      3          1           0       -2.569940    0.128317   -0.025605
      4          1           0        0.558197   -1.576379    0.661354
      5          1           0        1.553680    0.863688   -0.102259
      6          7           0       -1.681220   -0.460036    0.026123
      7          7           0        0.561681   -0.819809   -0.014185
      8          8           0       -0.218508    1.341731    0.023917
      9          8           0        1.815270   -0.117227   -0.055946
 ---------------------------------------------------------------------

 SCF Done:  E(RHF) =  -299.111600061     A.U. after    2 cycles

 The electronic state is 1-A.
 Alpha  occ. eigenvalues --  -20.57908 -20.54598 -15.57710 -15.55004 -11.40909
 Alpha  occ. eigenvalues --   -1.52546  -1.45791  -1.25129  -1.13097  -0.86859
 Alpha  occ. eigenvalues --   -0.80074  -0.74278  -0.70531  -0.66612  -0.63625
 Alpha  occ. eigenvalues --   -0.56895  -0.55304  -0.49256  -0.47170  -0.42531
 Alpha virt. eigenvalues --    0.02437   0.04845   0.05693   0.06570   0.10451
 Alpha virt. eigenvalues --    0.11336   0.11722   0.13889   0.14988   0.16012
 Alpha virt. eigenvalues --    0.16290   0.17422   0.17597   0.18785   0.20802

 Mulliken charges:
               1
     1  C   -0.040434
     2  H    0.188287
     3  H    0.186213
     4  H    0.171174
     5  H    0.424691
     6  N    0.371376
     7  N    0.924582
     8  O   -1.056748
     9  O   -1.169141
 Sum of Mulliken charges =  -0.00000

 Dipole moment (field-independent basis, Debye):
    X=             -2.8819    Y=             -1.7301    Z=              0.0570  Tot=              3.3619

 Test job not archived.
 1\1\GINC-SE458\SP\RHF\Aug-CC-pVDZ\C1H4N2O2\OHZDE\08-Apr-2025\0\\#t hf
 aug-cc-pvdz iop(5/13=1,5/36=2,99/5=2) pseudo=read geom=check guess=(re
 ad,tcheck) scf=(maxcycle=1)\\title\\0,1\C,0,-0.459726,0.170477,0.04234
 67\H,0,-1.72091,-1.27561,-0.6149\H,0,-2.56994,0.128316,-0.0256055\H,0,
 0.558197,-1.57638,0.661354\H,0,1.55368,0.863688,-0.102259\N,0,-1.68122
 ,-0.460037,0.0261231\N,0,0.561681,-0.81981,-0.0141851\O,0,-0.218509,1.
 34173,0.0239166\O,0,1.81527,-0.117227,-0.0559461\\Version=ES64L-G16Rev
 C.01\State=1-A\HF=-299.1116001\RMSD=1.506e-02\Dipole=-1.1338399,-0.680

 Normal termination of Gaussian 16 at Tue Apr  8 21:35:42 2025.
