 Gaussian 16, Revision C.01,

 ----------------------------------------------------------------------
 #t hf aug-cc-pvdz symm=none int=(grid=ultrafine) guess=(read,tcheck) s
 table=(opt,rrhf)
 ----------------------------------------------------------------------
 -----
 title
 -----
 Symbolic Z-matrix:
 Charge =  0 Multiplicity = 1

 SCF Done:  E(RHF) =  -443.087069774     A.U. after   20 cycles
 Normal termination of Gaussian 16 at Tue Apr  8 21:47:55 2025.
 Gaussian 16:  ES64L-G16RevC.01  3-Jul-2019

 ----------------------------------------------------------------------
 #t hf aug-cc-pvdz iop(5/13=1,5/36=2,99/5=2) pseudo=read geom=check gue
 ss=(read,tcheck) scf=(maxcycle=1)
 ----------------------------------------------------------------------
 -----
 title
 -----
 Structure from the checkpoint file:  "ANI1ccx_609_conf12_mol1.chk"
 Charge =  0 Multiplicity = 1

                         Standard orientation:
 ---------------------------------------------------------------------
 Center     Atomic      Atomic             Coordinates (Angstroms)
 Number     Number       Type             X           Y           Z
 ---------------------------------------------------------------------
      1          6           0        0.009364   -0.539132    0.214987
      2          6           0        0.004588    0.954143    0.147225
      3          7           0        2.256627   -0.670123   -0.020890
      4          7           0        1.218526   -1.128854    0.025035
      5          7           0       -1.239995   -1.177005   -0.133258
      6          7           0       -2.203653   -0.642897   -0.048933
      7          8           0       -1.202756    1.400215    0.038624
      8          8           0        1.164724    1.455047   -0.154493
 ---------------------------------------------------------------------

 SCF Done:  E(RHF) =  -443.506122890     A.U. after    2 cycles

 The electronic state is 1-A.
 Alpha  occ. eigenvalues --  -20.52558 -20.52164 -15.74775 -15.73580 -15.73472
 Alpha  occ. eigenvalues --  -15.73137 -11.39676 -11.39258  -1.61473  -1.57426
 Alpha  occ. eigenvalues --   -1.45370  -1.38105  -1.21870  -1.03551  -0.91346
 Alpha  occ. eigenvalues --   -0.83148  -0.81707  -0.81028  -0.77903  -0.76994
 Alpha  occ. eigenvalues --   -0.75693  -0.64004  -0.61332  -0.57720  -0.45043
 Alpha  occ. eigenvalues --   -0.43095  -0.42629  -0.41199
 Alpha virt. eigenvalues --   -0.05369  -0.03648  -0.01357   0.03925   0.06298
 Alpha virt. eigenvalues --    0.07567   0.08965   0.10158   0.11247   0.11388
 Alpha virt. eigenvalues --    0.12007   0.13408   0.14279   0.14989   0.16952

 Mulliken charges:
               1
     1  C   -1.183756
     2  C    2.238546
     3  N    1.008587
     4  N   -0.311538
     5  N   -0.467233
     6  N    1.059669
     7  O   -1.152162
     8  O   -1.192114
 Sum of Mulliken charges =  -0.00000

 Dipole moment (field-independent basis, Debye):
    X=             -0.5302    Y=             -6.7536    Z=              0.2032  Tot=              6.7775

 Test job not archived.
 1\1\GINC-SE368\SP\RHF\Aug-CC-pVDZ\C2N4O2\OHZDE\08-Apr-2025\0\\#t hf au
 g-cc-pvdz iop(5/13=1,5/36=2,99/5=2) pseudo=read geom=check guess=(read
 ,tcheck) scf=(maxcycle=1)\\title\\0,1\C,0,0.00936689,-0.539133,0.21498
 7\C,0,0.00458592,0.954142,0.147225\N,0,2.25663,-0.670116,-0.0208901\N,
 0,1.21853,-1.12885,0.0250348\N,0,-1.23999,-1.17701,-0.133258\N,0,-2.20
 365,-0.642905,-0.0489333\O,0,-1.20276,1.40021,0.0386244\O,0,1.16472,1.
 45505,-0.154493\\Version=ES64L-G16RevC.01\State=1-A\HF=-443.5061229\RM
 SD=5.607e-02\Dipole=-0.2085775,-2.6570841,0.0799597\Quadrupole=0.73172

 Normal termination of Gaussian 16 at Tue Apr  8 21:47:57 2025.
