 Gaussian 16, Revision C.01,

 ----------------------------------------------------------------------
 #t hf aug-cc-pvdz symm=none int=(grid=ultrafine) guess=(read,tcheck) s
 table=(opt,rrhf)
 ----------------------------------------------------------------------
 -----
 title
 -----
 Symbolic Z-matrix:
 Charge =  0 Multiplicity = 1

 SCF Done:  E(RHF) =  -228.120821689     A.U. after   11 cycles
 Normal termination of Gaussian 16 at Tue Apr  8 21:13:20 2025.
 Gaussian 16:  ES64L-G16RevC.01  3-Jul-2019

 ----------------------------------------------------------------------
 #t hf aug-cc-pvdz iop(5/13=1,5/36=2,99/5=2) pseudo=read geom=check gue
 ss=(read,tcheck) scf=(maxcycle=1)
 ----------------------------------------------------------------------
 -----
 title
 -----
 Structure from the checkpoint file:  "ANI1ccx_1900_conf27_mol1.chk"
 Charge =  0 Multiplicity = 1

                         Standard orientation:
 ---------------------------------------------------------------------
 Center     Atomic      Atomic             Coordinates (Angstroms)
 Number     Number       Type             X           Y           Z
 ---------------------------------------------------------------------
      1          1           0       -2.078352   -0.185135    0.769207
      2          1           0       -0.906580    0.564545    0.031609
      3          1           0       -0.018631   -1.071221   -0.159075
      4          1           0        1.151528   -1.790708    0.707292
      5          1           0        0.925878    1.967963    0.639836
      6          1           0        1.139153    0.534657   -0.050650
      7          8           0       -1.603902   -0.175520   -0.093946
      8          8           0        0.964786   -1.192857   -0.072180
      9          8           0        0.612492    1.365865   -0.076152
 ---------------------------------------------------------------------

 SCF Done:  E(RHF) =  -228.357263211     A.U. after    2 cycles

 The electronic state is 1-A.
 Alpha  occ. eigenvalues --  -20.55943 -20.55898 -20.55241  -1.44925  -1.42017
 Alpha  occ. eigenvalues --   -1.41265  -0.74173  -0.70163  -0.68408  -0.59000
 Alpha  occ. eigenvalues --   -0.58054  -0.56298  -0.50379  -0.48602  -0.48326
 Alpha virt. eigenvalues --    0.02829   0.04717   0.05148   0.08309   0.08644
 Alpha virt. eigenvalues --    0.09123   0.16921   0.18758   0.18885   0.21128
 Alpha virt. eigenvalues --    0.21464   0.22535   0.24178   0.26026   0.26724

 Mulliken charges:
               1
     1  H    0.355963
     2  H    0.728675
     3  H    0.586124
     4  H    0.415486
     5  H    0.395030
     6  H    0.593105
     7  O   -1.007460
     8  O   -1.053362
     9  O   -1.013562
 Sum of Mulliken charges =  -0.00000

 Dipole moment (field-independent basis, Debye):
    X=              0.6202    Y=              0.0727    Z=              3.8965  Tot=              3.9462

 Test job not archived.
 1\1\GINC-SE143\SP\RHF\Aug-CC-pVDZ\H6O3\OHZDE\08-Apr-2025\0\\#t hf aug-
 cc-pvdz iop(5/13=1,5/36=2,99/5=2) pseudo=read geom=check guess=(read,t
 check) scf=(maxcycle=1)\\title\\0,1\H,0,-2.07835,-0.185147,0.769207\H,
 0,-0.906583,0.564541,0.031609\H,0,-0.0186239,-1.07122,-0.159075\H,0,1.
 15154,-1.7907,0.707292\H,0,0.925867,1.96797,0.639836\H,0,1.13915,0.534
 665,-0.0506502\O,0,-1.6039,-0.175529,-0.0939458\O,0,0.964794,-1.19285,
 -0.07218\O,0,0.612484,1.36587,-0.0761516\\Version=ES64L-G16RevC.01\Sta
 te=1-A\HF=-228.3572632\RMSD=5.980e-03\Dipole=0.2440015,0.0286069,1.532

 Normal termination of Gaussian 16 at Tue Apr  8 21:13:22 2025.
