 Gaussian 16, Revision C.01,

 ----------------------------------------------------------------------
 #t hf aug-cc-pvdz symm=none int=(grid=ultrafine) guess=(read,tcheck) s
 table=(opt,rrhf)
 ----------------------------------------------------------------------
 -----
 title
 -----
 Symbolic Z-matrix:
 Charge =  0 Multiplicity = 1

 SCF Done:  E(RHF) =  -720.716259406     A.U. after   14 cycles
 Normal termination of Gaussian 16 at Tue Apr  8 20:25:44 2025.
 Gaussian 16:  ES64L-G16RevC.01  3-Jul-2019

 ----------------------------------------------------------------------
 #t hf aug-cc-pvdz iop(5/13=1,5/36=2,99/5=2) pseudo=read geom=check gue
 ss=(read,tcheck) scf=(maxcycle=1)
 ----------------------------------------------------------------------
 -----
 title
 -----
 Structure from the checkpoint file:  "ANI1ccx_1618_conf11_mol2.chk"
 Charge =  0 Multiplicity = 1

                         Standard orientation:
 ---------------------------------------------------------------------
 Center     Atomic      Atomic             Coordinates (Angstroms)
 Number     Number       Type             X           Y           Z
 ---------------------------------------------------------------------
      1          6           0       -2.374670   -0.697255   -0.261168
      2          6           0       -0.891199   -0.776886    0.048974
      3          6           0       -2.972750    0.721984   -0.192860
      4          6           0        1.308300    0.339824   -0.611415
      5          6           0        2.316590   -0.870402   -0.717487
      6          6           0        1.702140    1.286940    0.586757
      7          6           0        0.981332    2.697730    0.396384
      8          6           0        1.446440    0.720541    1.988630
      9          1           0        1.133250   -2.085780    0.267554
     10          1           0        1.964880   -0.220608    2.132880
     11          1           0        0.381758    0.567104    2.148550
     12          1           0        1.881850    1.350130    2.777210
     13          1           0        1.312641    3.383890    1.154710
     14          1           0       -0.106409    2.628200    0.455447
     15          1           0        1.263031    3.143680   -0.565597
     16          1           0        2.756440    1.384340    0.392193
     17          1           0       -0.659446    0.576437   -1.422600
     18          1           0       -3.091160    1.904570   -1.783460
     19          1           0       -2.626000    1.104310    0.773411
     20          1           0       -4.091520    0.640070   -0.203461
     21          1           0       -2.563400   -1.034520   -1.215210
     22          1           0       -2.821070   -2.417480    0.682910
     23          1           0       -2.884300   -1.143400    1.648590
     24          1           0        1.566960    0.889566   -1.500060
     25          7           0       -3.140980   -1.438140    0.698659
     26          7           0       -0.090543   -0.037519   -0.813640
     27          8           0        3.440480   -0.606831   -1.079820
     28          8           0       -0.451026   -1.456210    0.971672
     29          8           0       -2.424460    1.515830   -1.173620
     30          8           0        1.948260   -2.062260   -0.263868
 ---------------------------------------------------------------------

 SCF Done:  E(RHF) =  -721.449699133     A.U. after    2 cycles

 The electronic state is 1-A.
 Alpha  occ. eigenvalues --  -20.59017 -20.57813 -20.54462 -20.52014 -15.54428
 Alpha  occ. eigenvalues --  -15.50444 -11.38540 -11.38344 -11.31958 -11.29869
 Alpha  occ. eigenvalues --  -11.28618 -11.25552 -11.23481 -11.22434  -1.52988
 Alpha  occ. eigenvalues --   -1.50249  -1.49066  -1.43886  -1.25268  -1.21917
 Alpha  occ. eigenvalues --   -1.08780  -1.02726  -0.98028  -0.93929  -0.90627
 Alpha  occ. eigenvalues --   -0.84373  -0.83115  -0.79806  -0.77470  -0.75217
 Alpha  occ. eigenvalues --   -0.73192  -0.70783  -0.67383  -0.66367  -0.66120
 Alpha  occ. eigenvalues --   -0.64195  -0.63658  -0.62261  -0.61277  -0.60488
 Alpha  occ. eigenvalues --   -0.57926  -0.57358  -0.56886  -0.55485  -0.54014
 Alpha  occ. eigenvalues --   -0.53237  -0.50947  -0.50162  -0.48306  -0.48248
 Alpha  occ. eigenvalues --   -0.46214  -0.45509  -0.44943  -0.44644  -0.40414
 Alpha virt. eigenvalues --    0.01858   0.03182   0.03363   0.03821   0.04453
 Alpha virt. eigenvalues --    0.04901   0.05257   0.05683   0.06658   0.07732
 Alpha virt. eigenvalues --    0.07892   0.08171   0.08729   0.09309   0.10210

 Mulliken charges:
               1
     1  C   -1.918958
     2  C    0.432953
     3  C    1.110945
     4  C   -1.364614
     5  C    2.397311
     6  C   -0.643850
     7  C   -0.037541
     8  C    0.023473
     9  H    0.482523
    10  H    0.109799
    11  H    0.230840
    12  H    0.078661
    13  H    0.077774
    14  H    0.084186
    15  H    0.161560
    16  H    0.147614
    17  H    0.257901
    18  H    0.369532
    19  H    0.151678
    20  H    0.241487
    21  H   -0.042202
    22  H    0.207186
    23  H    0.235505
    24  H    0.125271
    25  N    0.805242
    26  N    1.806094
    27  O   -1.354283
    28  O   -1.376239
    29  O   -1.307689
    30  O   -1.492157
 Sum of Mulliken charges =  -0.00000

 Dipole moment (field-independent basis, Debye):
    X=             -6.2381    Y=              3.4336    Z=             -0.4497  Tot=              7.1349

 Test job not archived.
 1\1\GINC-SE454\SP\RHF\Aug-CC-pVDZ\C8H16N2O4\OHZDE\08-Apr-2025\0\\#t hf
  aug-cc-pvdz iop(5/13=1,5/36=2,99/5=2) pseudo=read geom=check guess=(r
 ead,tcheck) scf=(maxcycle=1)\\title\\0,1\C,0,-2.37467,-0.697255,-0.261
 168\C,0,-0.891199,-0.776886,0.0489736\C,0,-2.97275,0.721984,-0.19286\C
 ,0,1.3083,0.339824,-0.611415\C,0,2.31659,-0.870402,-0.717487\C,0,1.702
 14,1.28694,0.586757\C,0,0.981331,2.69773,0.396384\C,0,1.44644,0.720541
 ,1.98863\H,0,1.13325,-2.08578,0.267554\H,0,1.96488,-0.220608,2.13288\H
 ,0,0.381758,0.567104,2.14855\H,0,1.88185,1.35013,2.77721\H,0,1.31264,3

 Normal termination of Gaussian 16 at Tue Apr  8 20:26:18 2025.
