 Gaussian 16, Revision C.01,

 ----------------------------------------------------------------------
 #t hf aug-cc-pvdz symm=none int=(grid=ultrafine) guess=(read,tcheck) s
 table=(opt,rrhf)
 ----------------------------------------------------------------------
 -----
 title
 -----
 Symbolic Z-matrix:
 Charge =  0 Multiplicity = 1

 SCF Done:  E(RHF) =  -489.157286379     A.U. after   13 cycles
 Normal termination of Gaussian 16 at Tue Apr  8 21:50:00 2025.
 Gaussian 16:  ES64L-G16RevC.01  3-Jul-2019

 ----------------------------------------------------------------------
 #t hf aug-cc-pvdz iop(5/13=1,5/36=2,99/5=2) pseudo=read geom=check gue
 ss=(read,tcheck) scf=(maxcycle=1)
 ----------------------------------------------------------------------
 -----
 title
 -----
 Structure from the checkpoint file:  "ANI1ccx_667_conf1_mol1.chk"
 Charge =  0 Multiplicity = 1

                         Standard orientation:
 ---------------------------------------------------------------------
 Center     Atomic      Atomic             Coordinates (Angstroms)
 Number     Number       Type             X           Y           Z
 ---------------------------------------------------------------------
      1          6           0        1.240670   -0.353810   -0.000984
      2          6           0        0.008188    1.519829    0.284994
      3          6           0       -1.241060   -0.380784   -0.023126
      4          1           0        0.138341    1.461019    1.385120
      5          1           0       -0.068186    2.590939    0.002664
      6          8           0        2.210129   -1.009594   -0.120802
      7          8           0        1.129972    0.955434   -0.328529
      8          8           0       -1.174088    0.945007   -0.169867
      9          8           0       -2.213551   -1.018888   -0.171049
     10          8           0        0.032919   -0.967380    0.421110
 ---------------------------------------------------------------------

 SCF Done:  E(RHF) =  -489.625599612     A.U. after    2 cycles

 The electronic state is 1-A.
 Alpha  occ. eigenvalues --  -20.66366 -20.66151 -20.65981 -20.59270 -20.58372
 Alpha  occ. eigenvalues --  -11.50005 -11.49235 -11.42342  -1.67111  -1.60291
 Alpha  occ. eigenvalues --   -1.55877  -1.52218  -1.50027  -1.04649  -0.93973
 Alpha  occ. eigenvalues --   -0.85834  -0.84514  -0.79603  -0.75081  -0.71215
 Alpha  occ. eigenvalues --   -0.69774  -0.68956  -0.64758  -0.61633  -0.61025
 Alpha  occ. eigenvalues --   -0.55239  -0.53555  -0.52761  -0.49979  -0.49771
 Alpha virt. eigenvalues --    0.02374   0.03897   0.06451   0.06932   0.09806
 Alpha virt. eigenvalues --    0.10470   0.10661   0.10975   0.11252   0.12951
 Alpha virt. eigenvalues --    0.14054   0.14183   0.14447   0.14903   0.17395

 Mulliken charges:
               1
     1  C    2.254161
     2  C    0.984299
     3  C    2.220285
     4  H    0.199229
     5  H    0.037859
     6  O   -1.093333
     7  O   -1.160035
     8  O   -1.104548
     9  O   -1.079519
    10  O   -1.258399
 Sum of Mulliken charges =  -0.00000

 Dipole moment (field-independent basis, Debye):
    X=             -0.1641    Y=              4.2112    Z=              1.2926  Tot=              4.4081

 Test job not archived.
 1\1\GINC-SE048\SP\RHF\Aug-CC-pVDZ\C3H2O5\OHZDE\08-Apr-2025\0\\#t hf au
 g-cc-pvdz iop(5/13=1,5/36=2,99/5=2) pseudo=read geom=check guess=(read
 ,tcheck) scf=(maxcycle=1)\\title\\0,1\C,0,1.24067,-0.353807,-0.0009840
 7\C,0,0.00818565,1.51983,0.284994\C,0,-1.24106,-0.380785,-0.0231259\H,
 0,0.138338,1.46102,1.38512\H,0,-0.0681905,2.59094,0.0026634\O,0,2.2101
 3,-1.00959,-0.120802\O,0,1.12997,0.955437,-0.328529\O,0,-1.17409,0.945
 007,-0.169867\O,0,-2.21355,-1.01889,-0.171049\O,0,0.0329198,-0.967379,
 0.42111\\Version=ES64L-G16RevC.01\State=1-A\HF=-489.6255996\RMSD=8.468

 Normal termination of Gaussian 16 at Tue Apr  8 21:50:04 2025.
