 Gaussian 16, Revision C.01,

 ----------------------------------------------------------------------
 #t hf aug-cc-pvdz symm=none int=(grid=ultrafine) guess=(read,tcheck) s
 table=(opt,rrhf)
 ----------------------------------------------------------------------
 -----
 title
 -----
 Symbolic Z-matrix:
 Charge =  0 Multiplicity = 1

 SCF Done:  E(RHF) =  -334.012598991     A.U. after   14 cycles
 Normal termination of Gaussian 16 at Tue Apr  8 21:38:48 2025.
 Gaussian 16:  ES64L-G16RevC.01  3-Jul-2019

 ----------------------------------------------------------------------
 #t hf aug-cc-pvdz iop(5/13=1,5/36=2,99/5=2) pseudo=read geom=check gue
 ss=(read,tcheck) scf=(maxcycle=1)
 ----------------------------------------------------------------------
 -----
 title
 -----
 Structure from the checkpoint file:  "ANI1ccx_431_conf10_mol2.chk"
 Charge =  0 Multiplicity = 1

                         Standard orientation:
 ---------------------------------------------------------------------
 Center     Atomic      Atomic             Coordinates (Angstroms)
 Number     Number       Type             X           Y           Z
 ---------------------------------------------------------------------
      1          6           0        0.447657   -0.592392    0.012239
      2          1           0       -1.861987    0.335212    1.206570
      3          1           0       -2.149779    0.862589   -0.333788
      4          1           0       -1.149856   -1.682052   -0.460138
      5          1           0        2.043189    0.506162    0.288362
      6          1           0       -0.133980    2.259984    0.351832
      7          1           0        0.308241    1.747599   -1.163530
      8          7           0       -1.942616    0.068173    0.221921
      9          7           0       -0.925908   -0.699061   -0.343594
     10          7           0        1.034822    0.600113    0.316564
     11          7           0        0.591192    1.837399   -0.207381
     12          8           0        1.119476   -1.640189    0.015586
 ---------------------------------------------------------------------

 SCF Done:  E(RHF) =  -334.355848505     A.U. after    2 cycles

 The electronic state is 1-A.
 Alpha  occ. eigenvalues --  -20.50754 -15.56324 -15.55727 -15.54783 -15.54216
 Alpha  occ. eigenvalues --  -11.39082  -1.45488  -1.31871  -1.29294  -1.11611
 Alpha  occ. eigenvalues --   -1.08628  -0.87881  -0.79015  -0.76115  -0.75319
 Alpha  occ. eigenvalues --   -0.74073  -0.70586  -0.62775  -0.60330  -0.51391
 Alpha  occ. eigenvalues --   -0.49759  -0.47546  -0.43677  -0.42504
 Alpha virt. eigenvalues --    0.02313   0.05062   0.05343   0.05436   0.05928
 Alpha virt. eigenvalues --    0.06152   0.10171   0.11029   0.12461   0.13560
 Alpha virt. eigenvalues --    0.13991   0.14783   0.16213   0.18033   0.18489

 Mulliken charges:
               1
     1  C    0.122596
     2  H    0.141656
     3  H    0.095782
     4  H    0.205147
     5  H    0.256426
     6  H    0.120896
     7  H    0.140387
     8  N   -0.035201
     9  N    0.039926
    10  N    0.122995
    11  N   -0.006341
    12  O   -1.204270
 Sum of Mulliken charges =  -0.00000

 Dipole moment (field-independent basis, Debye):
    X=             -2.1537    Y=              3.3449    Z=             -0.0642  Tot=              3.9788

 Test job not archived.
 1\1\GINC-SE365\SP\RHF\Aug-CC-pVDZ\C1H6N4O1\OHZDE\08-Apr-2025\0\\#t hf
 aug-cc-pvdz iop(5/13=1,5/36=2,99/5=2) pseudo=read geom=check guess=(re
 ad,tcheck) scf=(maxcycle=1)\\title\\0,1\C,0,0.447676,-0.592376,0.01223
 85\H,0,-1.862,0.335149,1.20657\H,0,-2.14981,0.862517,-0.333788\H,0,-1.
 1498,-1.68209,-0.460138\H,0,2.04317,0.506232,0.288362\H,0,-0.134058,2.
 25998,0.351832\H,0,0.30818,1.74761,-1.16353\N,0,-1.94262,0.0681076,0.2
 21921\N,0,-0.925886,-0.699092,-0.343594\N,0,1.0348,0.600149,0.316564\N
 ,0,0.591128,1.83742,-0.207381\O,0,1.11953,-1.64015,0.0155859\\Version=

 Normal termination of Gaussian 16 at Tue Apr  8 21:38:51 2025.
