 Gaussian 16, Revision C.01,

 ----------------------------------------------------------------------
 #t hf aug-cc-pvdz symm=none int=(grid=ultrafine) guess=(read,tcheck) s
 table=(opt,rrhf)
 ----------------------------------------------------------------------
 -----
 title
 -----
 Symbolic Z-matrix:
 Charge =  0 Multiplicity = 1

 SCF Done:  E(RHF) =  -263.691954750     A.U. after   12 cycles
 Normal termination of Gaussian 16 at Tue Apr  8 21:33:34 2025.
 Gaussian 16:  ES64L-G16RevC.01  3-Jul-2019

 ----------------------------------------------------------------------
 #t hf aug-cc-pvdz iop(5/13=1,5/36=2,99/5=2) pseudo=read geom=check gue
 ss=(read,tcheck) scf=(maxcycle=1)
 ----------------------------------------------------------------------
 -----
 title
 -----
 Structure from the checkpoint file:  "ANI1ccx_383_conf80_mol1.chk"
 Charge =  0 Multiplicity = 1

                         Standard orientation:
 ---------------------------------------------------------------------
 Center     Atomic      Atomic             Coordinates (Angstroms)
 Number     Number       Type             X           Y           Z
 ---------------------------------------------------------------------
      1          6           0       -0.002458    0.048630   -0.018065
      2          1           0       -1.923841   -0.006204    0.162017
      3          1           0        1.745520   -0.104386    0.057761
      4          8           0       -1.135359   -0.574690   -0.017402
      5          8           0        1.059031   -0.716238    0.006487
      6          8           0        0.100461    1.268279   -0.003009
 ---------------------------------------------------------------------

 SCF Done:  E(RHF) =  -263.949178791     A.U. after    2 cycles

 The electronic state is 1-A.
 Alpha  occ. eigenvalues --  -20.62715 -20.62083 -20.53190 -11.45721  -1.62681
 Alpha  occ. eigenvalues --   -1.53526  -1.45014  -0.92938  -0.77735  -0.73895
 Alpha  occ. eigenvalues --   -0.70323  -0.68044  -0.59279  -0.55690  -0.47191
 Alpha  occ. eigenvalues --   -0.46417
 Alpha virt. eigenvalues --    0.03361   0.04362   0.08948   0.09889   0.12277
 Alpha virt. eigenvalues --    0.15009   0.17170   0.18776   0.19883   0.20740
 Alpha virt. eigenvalues --    0.21974   0.22687   0.23056   0.28458   0.28855

 Mulliken charges:
               1
     1  C    2.421376
     2  H    0.294153
     3  H    0.178041
     4  O   -1.024843
     5  O   -0.903184
     6  O   -0.965543
 Sum of Mulliken charges =  -0.00000

 Dipole moment (field-independent basis, Debye):
    X=             -0.5950    Y=             -0.7118    Z=              0.3672  Tot=              0.9977

 Test job not archived.
 1\1\GINC-SE458\SP\RHF\Aug-CC-pVDZ\C1H2O3\OHZDE\08-Apr-2025\0\\#t hf au
 g-cc-pvdz iop(5/13=1,5/36=2,99/5=2) pseudo=read geom=check guess=(read
 ,tcheck) scf=(maxcycle=1)\\title\\0,1\C,0,-0.00245697,0.0486314,-0.018
 0651\H,0,-1.92384,-0.00619869,0.162017\H,0,1.74552,-0.104389,0.0577613
 \O,0,-1.13536,-0.574686,-0.017402\O,0,1.05903,-0.71624,0.00648738\O,0,
 0.100465,1.26828,-0.00300882\\Version=ES64L-G16RevC.01\State=1-A\HF=-2
 63.9491788\RMSD=9.442e-03\Dipole=-0.2340881,-0.2800416,0.1444572\Quadr
 upole=5.8312305,-5.529276,-0.3019545,-0.385297,-0.419075,0.0442757\PG=

 Normal termination of Gaussian 16 at Tue Apr  8 21:33:36 2025.
