 Gaussian 16, Revision C.01,

 ----------------------------------------------------------------------
 #t hf aug-cc-pvdz symm=none int=(grid=ultrafine) guess=(read,tcheck) s
 table=(opt,rrhf)
 ----------------------------------------------------------------------
 -----
 title
 -----
 Symbolic Z-matrix:
 Charge =  0 Multiplicity = 1

 SCF Done:  E(RHF) =  -809.798122285     A.U. after   14 cycles
 Normal termination of Gaussian 16 at Tue Apr  8 20:41:53 2025.
 Gaussian 16:  ES64L-G16RevC.01  3-Jul-2019

 ----------------------------------------------------------------------
 #t hf aug-cc-pvdz iop(5/13=1,5/36=2,99/5=2) pseudo=read geom=check gue
 ss=(read,tcheck) scf=(maxcycle=1)
 ----------------------------------------------------------------------
 -----
 title
 -----
 Structure from the checkpoint file:  "ANI1ccx_1634_conf8_mol1.chk"
 Charge =  0 Multiplicity = 1

                         Standard orientation:
 ---------------------------------------------------------------------
 Center     Atomic      Atomic             Coordinates (Angstroms)
 Number     Number       Type             X           Y           Z
 ---------------------------------------------------------------------
      1          6           0        3.406571   -0.010314    0.505799
      2          6           0        2.187931    0.764172    0.019084
      3          6           0        0.531862   -1.125170    0.461784
      4          6           0        0.137231   -1.807020   -0.884400
      5          6           0       -0.427902   -1.272550    1.619340
      6          6           0       -1.449949   -0.185952    1.913030
      7          6           0       -2.762699   -0.303213    1.168130
      8          6           0       -2.210478    1.258462   -0.645645
      9          1           0       -1.306031   -2.673989   -1.749710
     10          1           0       -3.965957    2.267313   -0.062433
     11          1           0       -2.665257    3.237632   -0.603147
     12          1           0       -1.094637    2.306301   -1.707040
     13          1           0       -2.290620   -0.782000   -0.786593
     14          1           0       -3.101150   -1.341077    1.198970
     15          1           0       -3.526709    0.341652    1.609460
     16          1           0       -1.719729   -0.314382    2.960060
     17          1           0       -0.996310    0.812600    1.783430
     18          1           0        0.217700   -1.373650    2.509840
     19          1           0       -0.912299   -2.255169    1.504250
     20          1           0        1.468220   -1.609921    0.748092
     21          1           0        0.207702    0.842164   -0.313428
     22          1           0        3.230021   -0.403516    1.506800
     23          1           0        3.504810   -0.935676   -0.096447
     24          1           0        4.653232    1.161397   -0.527763
     25          1           0        4.397622    1.548057    1.011770
     26          7           0        4.610271    0.756723    0.408736
     27          7           0        0.903566    0.272442    0.171918
     28          7           0       -2.655169    0.002050   -0.249517
     29          7           0       -1.205898    1.340501   -1.415950
     30          7           0       -2.955457    2.380172   -0.165604
     31          8           0        2.328822    1.879148   -0.420599
     32          8           0        0.844579   -1.927071   -1.832190
     33          8           0       -1.105551   -2.202259   -0.894205
 ---------------------------------------------------------------------

 SCF Done:  E(RHF) =  -810.624906813     A.U. after    2 cycles

 The electronic state is 1-A.
 Alpha  occ. eigenvalues --  -20.62376 -20.54059 -20.49573 -15.53143 -15.50393
 Alpha  occ. eigenvalues --  -15.50165 -15.47650 -15.46994 -11.39736 -11.35919
 Alpha  occ. eigenvalues --  -11.33965 -11.30287 -11.27476 -11.26299 -11.25008
 Alpha  occ. eigenvalues --  -11.23939  -1.58635  -1.46993  -1.45598  -1.30032
 Alpha  occ. eigenvalues --   -1.22364  -1.19755  -1.18562  -1.16091  -1.08737
 Alpha  occ. eigenvalues --   -1.01667  -0.94882  -0.93114  -0.87440  -0.84647
 Alpha  occ. eigenvalues --   -0.82161  -0.79051  -0.75543  -0.74239  -0.73474
 Alpha  occ. eigenvalues --   -0.71817  -0.70456  -0.70293  -0.69353  -0.66567
 Alpha  occ. eigenvalues --   -0.65586  -0.65321  -0.63568  -0.62567  -0.61705
 Alpha  occ. eigenvalues --   -0.60272  -0.58655  -0.57227  -0.56262  -0.56085
 Alpha  occ. eigenvalues --   -0.52952  -0.51513  -0.50930  -0.50508  -0.48771
 Alpha  occ. eigenvalues --   -0.48156  -0.45799  -0.45090  -0.44648  -0.41816
 Alpha  occ. eigenvalues --   -0.40419  -0.40049
 Alpha virt. eigenvalues --    0.02558   0.02872   0.02893   0.03591   0.04200
 Alpha virt. eigenvalues --    0.04976   0.05174   0.05688   0.06425   0.07048
 Alpha virt. eigenvalues --    0.07731   0.07933   0.08671   0.09094   0.09555

 Mulliken charges:
               1
     1  C   -1.443868
     2  C    0.971262
     3  C   -1.163388
     4  C    2.587302
     5  C   -0.452906
     6  C   -0.183963
     7  C   -0.822393
     8  C   -2.738755
     9  H    0.469484
    10  H    0.111291
    11  H    0.138001
    12  H    0.159869
    13  H    0.259133
    14  H    0.080874
    15  H    0.028693
    16  H    0.131506
    17  H    0.265458
    18  H    0.139133
    19  H    0.221061
    20  H    0.099175
    21  H    0.153806
    22  H    0.170391
    23  H    0.237378
    24  H    0.240248
    25  H    0.247321
    26  N    0.568285
    27  N    1.178461
    28  N    1.369804
    29  N    0.826518
    30  N    0.588664
    31  O   -1.356598
    32  O   -1.456197
    33  O   -1.625047
 Sum of Mulliken charges =  -0.00000

 Dipole moment (field-independent basis, Debye):
    X=             -6.5359    Y=             -1.6824    Z=              2.6363  Tot=              7.2456

 Test job not archived.
 1\1\GINC-SE177\SP\RHF\Aug-CC-pVDZ\C8H17N5O3\OHZDE\08-Apr-2025\0\\#t hf
  aug-cc-pvdz iop(5/13=1,5/36=2,99/5=2) pseudo=read geom=check guess=(r
 ead,tcheck) scf=(maxcycle=1)\\title\\0,1\C,0,3.40657,-0.0103117,0.5057
 99\C,0,2.18793,0.764174,0.0190835\C,0,0.531862,-1.12517,0.461784\C,0,0
 .137232,-1.80702,-0.8844\C,0,-0.427902,-1.27255,1.61934\C,0,-1.44995,-
 0.185953,1.91303\C,0,-2.7627,-0.303215,1.16813\C,0,-2.21048,1.25846,-0
 .645645\H,0,-1.30603,-2.67399,-1.74971\H,0,-3.96596,2.26731,-0.0624331
 \H,0,-2.66526,3.23763,-0.603147\H,0,-1.09464,2.3063,-1.70704\H,0,-2.29

 Normal termination of Gaussian 16 at Tue Apr  8 20:42:43 2025.
