 Gaussian 16, Revision C.01,

 ----------------------------------------------------------------------
 #t hf aug-cc-pvdz symm=none int=(grid=ultrafine) guess=(read,tcheck) s
 table=(opt,rrhf)
 ----------------------------------------------------------------------
 -----
 title
 -----
 Symbolic Z-matrix:
 Charge =  0 Multiplicity = 1

 SCF Done:  E(RHF) =  -432.537420022     A.U. after   15 cycles
 Normal termination of Gaussian 16 at Tue Apr  8 21:45:59 2025.
 Gaussian 16:  ES64L-G16RevC.01  3-Jul-2019

 ----------------------------------------------------------------------
 #t hf aug-cc-pvdz iop(5/13=1,5/36=2,99/5=2) pseudo=read geom=check gue
 ss=(read,tcheck) scf=(maxcycle=1)
 ----------------------------------------------------------------------
 -----
 title
 -----
 Structure from the checkpoint file:  "ANI1ccx_535_conf1_mol1.chk"
 Charge =  0 Multiplicity = 1

                         Standard orientation:
 ---------------------------------------------------------------------
 Center     Atomic      Atomic             Coordinates (Angstroms)
 Number     Number       Type             X           Y           Z
 ---------------------------------------------------------------------
      1          6           0       -0.648525    0.866802    0.042860
      2          6           0       -0.235445   -1.339631    0.125051
      3          1           0        2.599560   -0.166435    0.394942
      4          1           0        3.525399    0.459688   -0.650982
      5          1           0       -2.720571    0.300864    0.500024
      6          1           0       -0.135518   -1.432091    1.188430
      7          1           0        0.310619   -2.019940   -0.453550
      8          7           0       -1.821970    0.195862    0.048854
      9          8           0        3.538930   -0.158060    0.075074
     10          8           0       -0.446548    2.035669   -0.004017
     11          8           0       -1.602069   -1.249442   -0.174513
     12          8           0        0.319453   -0.087686   -0.187583
 ---------------------------------------------------------------------

 SCF Done:  E(RHF) =  -432.963358946     A.U. after    2 cycles

 The electronic state is 1-A.
 Alpha  occ. eigenvalues --  -20.64393 -20.62230 -20.55258 -20.54852 -15.62004
 Alpha  occ. eigenvalues --  -11.44969 -11.38448  -1.62002  -1.52259  -1.48301
 Alpha  occ. eigenvalues --   -1.42206  -1.23008  -0.98215  -0.93393  -0.79946
 Alpha  occ. eigenvalues --   -0.77090  -0.70647  -0.69315  -0.68967  -0.66051
 Alpha  occ. eigenvalues --   -0.64377  -0.61253  -0.57977  -0.56047  -0.49214
 Alpha  occ. eigenvalues --   -0.48665  -0.47993  -0.45588
 Alpha virt. eigenvalues --    0.02606   0.04121   0.04536   0.05670   0.07742
 Alpha virt. eigenvalues --    0.09182   0.10302   0.10629   0.10840   0.12939
 Alpha virt. eigenvalues --    0.13668   0.15344   0.15496   0.16231   0.17123

 Mulliken charges:
               1
     1  C    1.150955
     2  C    1.159284
     3  H    0.474621
     4  H    0.374398
     5  H    0.127900
     6  H    0.146478
     7  H    0.014822
     8  N    0.959124
     9  O   -0.841926
    10  O   -1.078331
    11  O   -1.229333
    12  O   -1.257991
 Sum of Mulliken charges =  -0.00000

 Dipole moment (field-independent basis, Debye):
    X=             -3.1303    Y=             -2.4796    Z=              0.8356  Tot=              4.0798

 Test job not archived.
 1\1\GINC-SE048\SP\RHF\Aug-CC-pVDZ\C2H5N1O4\OHZDE\08-Apr-2025\0\\#t hf
 aug-cc-pvdz iop(5/13=1,5/36=2,99/5=2) pseudo=read geom=check guess=(re
 ad,tcheck) scf=(maxcycle=1)\\title\\0,1\C,0,-0.648524,0.866803,0.04286
 03\C,0,-0.235446,-1.33963,0.125051\H,0,2.59956,-0.166437,0.394942\H,0,
 3.5254,0.459685,-0.650982\H,0,-2.72057,0.300867,0.500024\H,0,-0.135519
 ,-1.43209,1.18843\H,0,0.310617,-2.01994,-0.45355\N,0,-1.82197,0.195864
 ,0.0488535\O,0,3.53893,-0.158063,0.0750744\O,0,-0.446546,2.03567,-0.00
 401738\O,0,-1.60207,-1.24944,-0.174513\O,0,0.319453,-0.0876857,-0.1875

 Normal termination of Gaussian 16 at Tue Apr  8 21:46:03 2025.
