 Gaussian 16, Revision C.01,

 ----------------------------------------------------------------------
 #t hf aug-cc-pvdz symm=none int=(grid=ultrafine) guess=(read,tcheck) s
 table=(opt,rrhf)
 ----------------------------------------------------------------------
 -----
 title
 -----
 Symbolic Z-matrix:
 Charge =  0 Multiplicity = 1

 SCF Done:  E(RHF) =  -905.376291577     A.U. after   15 cycles
 Normal termination of Gaussian 16 at Tue Apr  8 22:04:59 2025.
 Gaussian 16:  ES64L-G16RevC.01  3-Jul-2019

 ----------------------------------------------------------------------
 #t hf aug-cc-pvdz iop(5/13=1,5/36=2,99/5=2) pseudo=read geom=check gue
 ss=(read,tcheck) scf=(maxcycle=1)
 ----------------------------------------------------------------------
 -----
 title
 -----
 Structure from the checkpoint file:  "ANI1ccx_56_conf15_mol2.chk"
 Charge =  0 Multiplicity = 1

                         Standard orientation:
 ---------------------------------------------------------------------
 Center     Atomic      Atomic             Coordinates (Angstroms)
 Number     Number       Type             X           Y           Z
 ---------------------------------------------------------------------
      1          6           0       -2.026660   -0.178516    0.526136
      2          6           0        3.599869   -1.745123    0.749607
      3          6           0        2.064880   -0.896249   -0.634043
      4          6           0        1.112191    0.130872   -1.200490
      5          6           0        1.472633    2.397169    0.115722
      6          6           0        2.086988   -2.246112   -0.848365
      7          6           0       -3.060901   -1.616477   -1.390590
      8          6           0       -3.137491   -1.118057    0.039478
      9          6           0       -1.935758    1.117632   -0.232472
     10          6           0        0.601626    1.115970   -0.059235
     11          1           0        0.592741    0.575811    0.897893
     12          1           0        2.763932    1.175578    0.771384
     13          1           0        3.335077   -3.713123    0.050983
     14          1           0        4.281959   -1.822224    1.566690
     15          1           0        1.457478   -2.885611   -1.456040
     16          1           0        1.468431    0.660259   -2.066420
     17          1           0        0.220685   -0.324901   -1.532100
     18          1           0       -0.719010    2.521461   -0.942594
     19          1           0       -3.884952   -2.287416   -1.550830
     20          1           0       -3.196620   -0.774874   -2.046100
     21          1           0       -3.048571   -1.971387    1.817100
     22          1           0       -4.116410   -0.630149    0.094143
     23          1           0       -1.110890   -0.779538    0.448203
     24          1           0       -3.021009    0.767208    2.071920
     25          1           0       -1.491699    0.285751    2.515540
     26          1           0       -2.089972   -2.123788   -1.514890
     27          7           0       -2.291749    0.064655    1.933690
     28          7           0       -0.723781    1.663881   -0.390214
     29          7           0        3.011770   -0.584394    0.356751
     30          7           0        3.099788   -2.734313   -0.002116
     31          8           0        1.072964    3.462659   -0.223523
     32          8           0       -2.933088    1.706973   -0.641563
     33          8           0       -3.040322   -2.258787    0.866504
     34          8           0        2.678243    2.175588    0.647817
 ---------------------------------------------------------------------

 SCF Done:  E(RHF) =  -906.287666165     A.U. after    2 cycles

 The electronic state is 1-A.
 Alpha  occ. eigenvalues --  -20.58370 -20.53419 -20.53269 -20.50108 -15.60386
 Alpha  occ. eigenvalues --  -15.53137 -15.52582 -15.50944 -11.39162 -11.35341
 Alpha  occ. eigenvalues --  -11.35015 -11.32169 -11.30275 -11.30011 -11.28029
 Alpha  occ. eigenvalues --  -11.27934 -11.27765 -11.21986  -1.53783  -1.45919
 Alpha  occ. eigenvalues --   -1.44925  -1.43598  -1.37102  -1.25241  -1.20469
 Alpha  occ. eigenvalues --   -1.20102  -1.09637  -1.04536  -1.03842  -0.96589
 Alpha  occ. eigenvalues --   -0.94557  -0.90120  -0.85252  -0.84332  -0.81786
 Alpha  occ. eigenvalues --   -0.80753  -0.78560  -0.75966  -0.74806  -0.71464
 Alpha  occ. eigenvalues --   -0.68388  -0.68238  -0.67655  -0.67230  -0.66899
 Alpha  occ. eigenvalues --   -0.66673  -0.65264  -0.64296  -0.62388  -0.61641
 Alpha  occ. eigenvalues --   -0.59994  -0.58403  -0.56841  -0.56788  -0.55587
 Alpha  occ. eigenvalues --   -0.54041  -0.53556  -0.52233  -0.51294  -0.48115
 Alpha  occ. eigenvalues --   -0.47493  -0.47059  -0.46710  -0.44348  -0.43395
 Alpha  occ. eigenvalues --   -0.41415  -0.40216  -0.37169
 Alpha virt. eigenvalues --    0.01051   0.02648   0.03320   0.03488   0.04197
 Alpha virt. eigenvalues --    0.04914   0.05558   0.05796   0.05985   0.07090
 Alpha virt. eigenvalues --    0.07196   0.07707   0.07967   0.08590   0.09204

 Mulliken charges:
               1
     1  C   -1.200837
     2  C   -0.400991
     3  C   -0.387276
     4  C   -0.183014
     5  C    2.804774
     6  C   -0.304805
     7  C   -0.305599
     8  C    1.184389
     9  C    0.253226
    10  C   -1.629746
    11  H    0.137520
    12  H    0.682036
    13  H   -0.033461
    14  H   -0.138412
    15  H   -0.264228
    16  H    0.146763
    17  H    0.088539
    18  H    0.404717
    19  H    0.098497
    20  H    0.281462
    21  H    0.444743
    22  H    0.131648
    23  H    0.089115
    24  H    0.338912
    25  H    0.245197
    26  H    0.299499
    27  N    0.314333
    28  N    0.975787
    29  N    1.024045
    30  N    0.847290
    31  O   -1.355558
    32  O   -1.590458
    33  O   -1.483960
    34  O   -1.514147
 Sum of Mulliken charges =   0.00000

 Dipole moment (field-independent basis, Debye):
    X=              4.8038    Y=             -8.1600    Z=              1.2301  Tot=              9.5486

 Test job not archived.
 1\1\GINC-SE073\SP\RHF\Aug-CC-pVDZ\C10H16N4O4\OHZDE\08-Apr-2025\0\\#t h
 f aug-cc-pvdz iop(5/13=1,5/36=2,99/5=2) pseudo=read geom=check guess=(
 read,tcheck) scf=(maxcycle=1)\\title\\0,1\C,0,-2.02666,-0.178518,0.526
 136\C,0,3.59987,-1.74512,0.749607\C,0,2.06488,-0.896247,-0.634043\C,0,
 1.11219,0.130873,-1.20049\C,0,1.47263,2.39717,0.115722\C,0,2.08699,-2.
 24611,-0.848365\C,0,-3.0609,-1.61648,-1.39059\C,0,-3.13749,-1.11806,0.
 0394779\C,0,-1.93576,1.11763,-0.232472\C,0,0.601624,1.11597,-0.0592351
 \H,0,0.59274,0.575811,0.897893\H,0,2.76393,1.17558,0.771384\H,0,3.3350

 Normal termination of Gaussian 16 at Tue Apr  8 22:05:56 2025.
