 Gaussian 16, Revision C.01,

 ----------------------------------------------------------------------
 #t hf aug-cc-pvdz symm=none int=(grid=ultrafine) guess=(read,tcheck) s
 table=(opt,rrhf)
 ----------------------------------------------------------------------
 -----
 title
 -----
 Symbolic Z-matrix:
 Charge =  0 Multiplicity = 1

 SCF Done:  E(RHF) =  -565.481591882     A.U. after   14 cycles
 Normal termination of Gaussian 16 at Tue Apr  8 19:29:49 2025.
 Gaussian 16:  ES64L-G16RevC.01  3-Jul-2019

 ----------------------------------------------------------------------
 #t hf aug-cc-pvdz iop(5/13=1,5/36=2,99/5=2) pseudo=read geom=check gue
 ss=(read,tcheck) scf=(maxcycle=1)
 ----------------------------------------------------------------------
 -----
 title
 -----
 Structure from the checkpoint file:  "ANI1ccx_1346_conf1_mol1.chk"
 Charge =  0 Multiplicity = 1

                         Standard orientation:
 ---------------------------------------------------------------------
 Center     Atomic      Atomic             Coordinates (Angstroms)
 Number     Number       Type             X           Y           Z
 ---------------------------------------------------------------------
      1          6           0        2.304980   -0.060709   -0.676933
      2          6           0        1.034870   -0.069916    0.122277
      3          6           0        1.428929   -0.289453    1.631430
      4          6           0        0.333740    1.260380   -0.085515
      5          6           0       -1.802940    0.087307    0.112974
      6          6           0        0.097786   -1.215370   -0.223258
      7          1           0       -1.722941   -1.938349    0.152294
      8          1           0       -1.518480    2.010251   -0.167492
      9          1           0        0.532834   -0.249872    2.280200
     10          1           0        1.858989   -1.280130    1.677200
     11          1           0        2.165850    0.470518    1.978160
     12          1           0        2.121550    0.014230   -1.752580
     13          1           0        2.947749   -0.931214   -0.536264
     14          1           0        2.934420    0.891903   -0.511619
     15          7           0       -1.034010    1.186041    0.104455
     16          7           0       -1.158961   -1.110079    0.318702
     17          8           0        0.845586    2.293130   -0.466841
     18          8           0       -3.037270    0.193797   -0.140649
     19          8           0        0.397514   -2.210990   -0.813487
 ---------------------------------------------------------------------

 SCF Done:  E(RHF) =  -566.047846587     A.U. after    2 cycles

 The electronic state is 1-A.
 Alpha  occ. eigenvalues --  -20.56849 -20.56616 -20.54362 -15.58320 -15.58187
 Alpha  occ. eigenvalues --  -11.43773 -11.41092 -11.40535 -11.30728 -11.28064
 Alpha  occ. eigenvalues --  -11.25415  -1.52974  -1.51322  -1.47648  -1.34269
 Alpha  occ. eigenvalues --   -1.28112  -1.14964  -0.98846  -0.97148  -0.93847
 Alpha  occ. eigenvalues --   -0.93345  -0.81846  -0.81419  -0.74014  -0.72708
 Alpha  occ. eigenvalues --   -0.69724  -0.67956  -0.66332  -0.65380  -0.61834
 Alpha  occ. eigenvalues --   -0.60487  -0.59428  -0.57231  -0.55508  -0.54102
 Alpha  occ. eigenvalues --   -0.52158  -0.51062  -0.48010  -0.47386  -0.45336
 Alpha  occ. eigenvalues --   -0.45001
 Alpha virt. eigenvalues --    0.02985   0.03613   0.04174   0.04401   0.05442
 Alpha virt. eigenvalues --    0.05675   0.06769   0.07001   0.08526   0.09045
 Alpha virt. eigenvalues --    0.10673   0.10819   0.11088   0.11751   0.12729

 Mulliken charges:
               1
     1  C    0.038802
     2  C   -1.868550
     3  C    0.031628
     4  C    1.201414
     5  C    0.169858
     6  C    1.051129
     7  H    0.300422
     8  H    0.255357
     9  H    0.290814
    10  H    0.237038
    11  H    0.270835
    12  H    0.115229
    13  H    0.143877
    14  H    0.315079
    15  N    0.863318
    16  N    0.642794
    17  O   -1.401417
    18  O   -1.242788
    19  O   -1.414841
 Sum of Mulliken charges =  -0.00000

 Dipole moment (field-independent basis, Debye):
    X=              2.1221    Y=             -0.5380    Z=              2.0313  Tot=              2.9865

 Test job not archived.
 1\1\GINC-SE141\SP\RHF\Aug-CC-pVDZ\C6H8N2O3\OHZDE\08-Apr-2025\0\\#t hf
 aug-cc-pvdz iop(5/13=1,5/36=2,99/5=2) pseudo=read geom=check guess=(re
 ad,tcheck) scf=(maxcycle=1)\\title\\0,1\C,0,2.30498,-0.0607088,-0.6769
 33\C,0,1.03487,-0.0699157,0.122277\C,0,1.42893,-0.289453,1.63143\C,0,0
 .33374,1.26038,-0.085515\C,0,-1.80294,0.0873057,0.112974\C,0,0.0977871
 ,-1.21537,-0.223258\H,0,-1.72294,-1.93835,0.152294\H,0,-1.51848,2.0102
 5,-0.167492\H,0,0.532835,-0.249872,2.2802\H,0,1.85899,-1.28013,1.6772\
 H,0,2.16585,0.470518,1.97816\H,0,2.12155,0.0142303,-1.75258\H,0,2.9477

 Normal termination of Gaussian 16 at Tue Apr  8 19:30:01 2025.
