 Gaussian 16, Revision C.01,

 ----------------------------------------------------------------------
 #t hf aug-cc-pvdz symm=none int=(grid=ultrafine) guess=(read,tcheck) s
 table=(opt,rrhf)
 ----------------------------------------------------------------------
 -----
 title
 -----
 Symbolic Z-matrix:
 Charge =  0 Multiplicity = 1

 SCF Done:  E(RHF) =  -311.846410640     A.U. after   15 cycles
 Normal termination of Gaussian 16 at Tue Apr  8 21:35:35 2025.
 Gaussian 16:  ES64L-G16RevC.01  3-Jul-2019

 ----------------------------------------------------------------------
 #t hf aug-cc-pvdz iop(5/13=1,5/36=2,99/5=2) pseudo=read geom=check gue
 ss=(read,tcheck) scf=(maxcycle=1)
 ----------------------------------------------------------------------
 -----
 title
 -----
 Structure from the checkpoint file:  "ANI1ccx_392_conf3_mol2.chk"
 Charge =  0 Multiplicity = 1

                         Standard orientation:
 ---------------------------------------------------------------------
 Center     Atomic      Atomic             Coordinates (Angstroms)
 Number     Number       Type             X           Y           Z
 ---------------------------------------------------------------------
      1          6           0       -0.627634   -0.023696    0.000635
      2          1           0       -2.482721    0.839822    0.006674
      3          1           0       -2.486950   -0.900963    0.000864
      4          1           0        2.190660   -1.094568   -0.001111
      5          7           0       -1.984430   -0.031457   -0.002451
      6          7           0        0.099447    1.125711    0.001182
      7          7           0        1.349109    0.753658   -0.001334
      8          7           0        1.340540   -0.551080    0.000027
      9          7           0        0.130307   -1.111419    0.001114
 ---------------------------------------------------------------------

 SCF Done:  E(RHF) =  -312.160384369     A.U. after    2 cycles

 The electronic state is 1-A.
 Alpha  occ. eigenvalues --  -15.63356 -15.61085 -15.54292 -15.53638 -15.52666
 Alpha  occ. eigenvalues --  -11.34281  -1.49356  -1.27207  -1.26246  -1.16480
 Alpha  occ. eigenvalues --   -0.96666  -0.91460  -0.83800  -0.75010  -0.73115
 Alpha  occ. eigenvalues --   -0.72081  -0.63006  -0.56078  -0.54939  -0.51996
 Alpha  occ. eigenvalues --   -0.49537  -0.39592
 Alpha virt. eigenvalues --    0.02825   0.04508   0.05863   0.07436   0.09770
 Alpha virt. eigenvalues --    0.11781   0.12059   0.13069   0.13804   0.14243
 Alpha virt. eigenvalues --    0.15579   0.15897   0.17102   0.17413   0.19954

 Mulliken charges:
               1
     1  C   -1.112327
     2  H    0.087725
     3  H    0.095714
     4  H    0.073394
     5  N    0.532290
     6  N    0.169841
     7  N   -0.227442
     8  N    0.185359
     9  N    0.195446
 Sum of Mulliken charges =  -0.00000

 Dipole moment (field-independent basis, Debye):
    X=             -1.1446    Y=             -1.8748    Z=              0.0173  Tot=              2.1967

 Test job not archived.
 1\1\GINC-SE087\SP\RHF\Aug-CC-pVDZ\C1H3N5\OHZDE\08-Apr-2025\0\\#t hf au
 g-cc-pvdz iop(5/13=1,5/36=2,99/5=2) pseudo=read geom=check guess=(read
 ,tcheck) scf=(maxcycle=1)\\title\\0,1\C,0,-0.627634,-0.0236959,0.00063
 49\H,0,-2.48272,0.839823,0.00667395\H,0,-2.48695,-0.900962,0.00086378\
 H,0,2.19066,-1.09457,-0.00111129\N,0,-1.98443,-0.0314568,-0.00245117\N
 ,0,0.0994473,1.12571,0.00118197\N,0,1.34911,0.753657,-0.00133378\N,0,1
 .34054,-0.551081,0.00002674\N,0,0.130307,-1.11142,0.00111399\\Version=
 ES64L-G16RevC.01\State=1-A\HF=-312.1603844\RMSD=4.479e-02\Dipole=-0.45

 Normal termination of Gaussian 16 at Tue Apr  8 21:35:38 2025.
