 Gaussian 16, Revision C.01,

 ----------------------------------------------------------------------
 #t hf aug-cc-pvdz symm=none int=(grid=ultrafine) guess=(read,tcheck) s
 table=(opt,rrhf)
 ----------------------------------------------------------------------
 -----
 title
 -----
 Symbolic Z-matrix:
 Charge =  0 Multiplicity = 1

 SCF Done:  E(RHF) =  -791.382104840     A.U. after   15 cycles
 Normal termination of Gaussian 16 at Tue Apr  8 20:49:41 2025.
 Gaussian 16:  ES64L-G16RevC.01  3-Jul-2019

 ----------------------------------------------------------------------
 #t hf aug-cc-pvdz iop(5/13=1,5/36=2,99/5=2) pseudo=read geom=check gue
 ss=(read,tcheck) scf=(maxcycle=1)
 ----------------------------------------------------------------------
 -----
 title
 -----
 Structure from the checkpoint file:  "ANI1ccx_1745_conf16_mol1.chk"
 Charge =  0 Multiplicity = 1

                         Standard orientation:
 ---------------------------------------------------------------------
 Center     Atomic      Atomic             Coordinates (Angstroms)
 Number     Number       Type             X           Y           Z
 ---------------------------------------------------------------------
      1          6           0        2.177088   -1.844912   -0.645681
      2          6           0        1.408299   -0.582075   -0.152869
      3          6           0        1.744937   -3.156041    0.015259
      4          6           0       -0.074046    1.253560   -0.397766
      5          6           0        0.936047    2.436139   -0.147052
      6          6           0       -0.897670    0.945420    0.833709
      7          6           0       -2.060930    0.051540    0.272959
      8          6           0       -3.176170    0.439753   -0.388168
      9          6           0       -3.515522   -1.535847    0.261284
     10          1           0        1.624571    1.498749    1.278140
     11          1           0       -5.191571   -0.476738   -0.518249
     12          1           0       -4.037393   -2.579127    0.314620
     13          1           0       -3.282109    1.367123   -0.891299
     14          1           0       -0.283458    0.394712    1.572700
     15          1           0       -1.193579    1.806431    1.371390
     16          1           0       -0.692053    1.753890   -1.038380
     17          1           0        2.312617   -3.261842    0.921614
     18          1           0        1.824916   -4.123072   -0.579347
     19          1           0        0.676251   -2.988181    0.341379
     20          1           0        2.073038   -1.795682   -1.704600
     21          1           0        3.861828   -1.654123    0.756151
     22          1           0        3.697939   -0.583195   -0.327784
     23          1           0        0.491572   -0.068767   -1.896180
     24          7           0        3.552658   -1.550853   -0.212873
     25          7           0        0.568016    0.053945   -0.897027
     26          7           0       -2.288072   -1.365628    0.575540
     27          7           0       -4.153331   -0.499190   -0.362367
     28          8           0        0.941181    3.443899   -0.845120
     29          8           0        1.897499   -0.065322    0.873203
     30          8           0        1.550111    2.396009    1.067780
 ---------------------------------------------------------------------

 SCF Done:  E(RHF) =  -792.184498909     A.U. after    2 cycles

 The electronic state is 1-A.
 Alpha  occ. eigenvalues --  -20.56036 -20.53206 -20.52310 -15.57609 -15.56763
 Alpha  occ. eigenvalues --  -15.50542 -15.47682 -11.38762 -11.37356 -11.32057
 Alpha  occ. eigenvalues --  -11.30632 -11.29445 -11.28077 -11.27759 -11.26560
 Alpha  occ. eigenvalues --  -11.24759  -1.52292  -1.47913  -1.43469  -1.35553
 Alpha  occ. eigenvalues --   -1.30088  -1.19253  -1.18952  -1.10361  -1.03210
 Alpha  occ. eigenvalues --   -1.01350  -0.94784  -0.89880  -0.87022  -0.85094
 Alpha  occ. eigenvalues --   -0.82317  -0.80964  -0.78952  -0.77313  -0.75193
 Alpha  occ. eigenvalues --   -0.69536  -0.68872  -0.67562  -0.66036  -0.65191
 Alpha  occ. eigenvalues --   -0.63529  -0.63273  -0.62430  -0.61085  -0.60041
 Alpha  occ. eigenvalues --   -0.58396  -0.56141  -0.55877  -0.55406  -0.54021
 Alpha  occ. eigenvalues --   -0.52990  -0.52405  -0.49160  -0.47242  -0.45558
 Alpha  occ. eigenvalues --   -0.45041  -0.43943  -0.42455  -0.41672  -0.35177
 Alpha virt. eigenvalues --    0.01700   0.02843   0.03546   0.04144   0.04291
 Alpha virt. eigenvalues --    0.04498   0.05035   0.05968   0.06943   0.07284
 Alpha virt. eigenvalues --    0.07734   0.07879   0.08488   0.09428   0.09944

 Mulliken charges:
               1
     1  C   -1.356069
     2  C    0.229925
     3  C   -0.049720
     4  C   -0.846022
     5  C    2.484005
     6  C    0.455501
     7  C   -0.299960
     8  C   -0.425279
     9  C   -1.187276
    10  H    0.764050
    11  H    0.065724
    12  H    0.022246
    13  H   -0.308658
    14  H    0.141265
    15  H   -0.101793
    16  H   -0.214336
    17  H    0.148652
    18  H    0.256037
    19  H    0.224666
    20  H   -0.093820
    21  H    0.191396
    22  H    0.132261
    23  H    0.246413
    24  N    0.642421
    25  N    1.364357
    26  N    1.076330
    27  N    0.797461
    28  O   -1.435418
    29  O   -1.566527
    30  O   -1.357832
 Sum of Mulliken charges =   0.00000

 Dipole moment (field-independent basis, Debye):
    X=             -6.6857    Y=             -3.6564    Z=             -2.0783  Tot=              7.8986

 Test job not archived.
 1\1\GINC-SE132\SP\RHF\Aug-CC-pVDZ\C9H14N4O3\OHZDE\08-Apr-2025\0\\#t hf
  aug-cc-pvdz iop(5/13=1,5/36=2,99/5=2) pseudo=read geom=check guess=(r
 ead,tcheck) scf=(maxcycle=1)\\title\\0,1\C,0,2.17709,-1.84491,-0.64568
 1\C,0,1.4083,-0.582074,-0.152869\C,0,1.74494,-3.15604,0.015259\C,0,-0.
 0740469,1.25356,-0.397766\C,0,0.936046,2.43614,-0.147052\C,0,-0.89767,
 0.945419,0.833709\C,0,-2.06093,0.0515387,0.272959\C,0,-3.17617,0.43975
 1,-0.388168\C,0,-3.51552,-1.53585,0.261284\H,0,1.62457,1.49875,1.27814
 \H,0,-5.19157,-0.476742,-0.518249\H,0,-4.03739,-2.57913,0.31462\H,0,-3

 Normal termination of Gaussian 16 at Tue Apr  8 20:50:21 2025.
