 Gaussian 16, Revision C.01,

 ----------------------------------------------------------------------
 #t hf aug-cc-pvdz symm=none int=(grid=ultrafine) guess=(read,tcheck) s
 table=(opt,rrhf)
 ----------------------------------------------------------------------
 -----
 title
 -----
 Symbolic Z-matrix:
 Charge =  0 Multiplicity = 1

 SCF Done:  E(RHF) =  -755.411025217     A.U. after   14 cycles
 Normal termination of Gaussian 16 at Tue Apr  8 19:40:31 2025.
 Gaussian 16:  ES64L-G16RevC.01  3-Jul-2019

 ----------------------------------------------------------------------
 #t hf aug-cc-pvdz iop(5/13=1,5/36=2,99/5=2) pseudo=read geom=check gue
 ss=(read,tcheck) scf=(maxcycle=1)
 ----------------------------------------------------------------------
 -----
 title
 -----
 Structure from the checkpoint file:  "ANI1ccx_1405_conf7_mol1.chk"
 Charge =  0 Multiplicity = 1

                         Standard orientation:
 ---------------------------------------------------------------------
 Center     Atomic      Atomic             Coordinates (Angstroms)
 Number     Number       Type             X           Y           Z
 ---------------------------------------------------------------------
      1          6           0       -1.333118    1.662021    0.265604
      2          6           0       -0.083070    0.884035    0.567149
      3          6           0       -2.262899    0.838722   -0.720468
      4          6           0       -2.747220   -0.539078   -0.172042
      5          6           0       -1.818051   -1.698358   -0.017436
      6          6           0        2.365601    0.860917    0.354141
      7          6           0        2.927280   -0.438650   -0.209130
      8          1           0        1.220210   -0.858969   -0.747795
      9          1           0        3.068052    1.694367    0.062198
     10          1           0        2.334701    0.775701    1.399730
     11          1           0        0.926384    1.935489   -0.833455
     12          1           0       -0.227582   -2.317430   -0.245759
     13          1           0       -3.108640   -0.379568    0.844682
     14          1           0       -3.612690   -0.901796   -0.821296
     15          1           0       -3.098838    1.501563   -0.891601
     16          1           0       -1.742639    0.762595   -1.724940
     17          1           0       -1.889678    1.754672    1.211320
     18          1           0       -0.611679    3.557440    0.384244
     19          1           0       -1.887976    3.365852   -0.668080
     20          7           0       -1.024047    2.994061   -0.365013
     21          7           0        1.022802    1.246639   -0.157427
     22          8           0       -0.021945    0.069936    1.484490
     23          8           0       -2.123482   -2.667408    0.656663
     24          8           0       -0.717558   -1.642059   -0.772644
     25          8           0        4.132820   -0.672884   -0.087259
     26          8           0        2.023659   -1.336642   -0.621136
 ---------------------------------------------------------------------

 SCF Done:  E(RHF) =  -756.165919986     A.U. after    2 cycles

 The electronic state is 1-A.
 Alpha  occ. eigenvalues --  -20.61983 -20.60654 -20.54279 -20.53924 -20.53557
 Alpha  occ. eigenvalues --  -15.55545 -15.53516 -11.40693 -11.40312 -11.38535
 Alpha  occ. eigenvalues --  -11.31414 -11.31375 -11.28648 -11.27935  -1.57168
 Alpha  occ. eigenvalues --   -1.55257  -1.48518  -1.45621  -1.44425  -1.27632
 Alpha  occ. eigenvalues --   -1.22263  -1.09585  -1.04245  -0.99230  -0.91540
 Alpha  occ. eigenvalues --   -0.85648  -0.84875  -0.81402  -0.77399  -0.75186
 Alpha  occ. eigenvalues --   -0.73321  -0.72656  -0.71523  -0.68995  -0.68103
 Alpha  occ. eigenvalues --   -0.66848  -0.65853  -0.63285  -0.63087  -0.61509
 Alpha  occ. eigenvalues --   -0.60482  -0.59199  -0.58517  -0.57507  -0.56381
 Alpha  occ. eigenvalues --   -0.53445  -0.52216  -0.48758  -0.47694  -0.47071
 Alpha  occ. eigenvalues --   -0.46599  -0.45542  -0.44868  -0.43120
 Alpha virt. eigenvalues --    0.01507   0.02764   0.03314   0.03920   0.04600
 Alpha virt. eigenvalues --    0.04850   0.05548   0.06281   0.06828   0.07911
 Alpha virt. eigenvalues --    0.08246   0.08858   0.10021   0.10245   0.11197

 Mulliken charges:
               1
     1  C   -1.510971
     2  C    0.915752
     3  C    0.154146
     4  C   -0.774437
     5  C    2.391976
     6  C   -0.826801
     7  C    2.115334
     8  H    0.620053
     9  H    0.222414
    10  H    0.117772
    11  H    0.267567
    12  H    0.389197
    13  H    0.284649
    14  H    0.338433
    15  H    0.037508
    16  H    0.316022
    17  H    0.080432
    18  H    0.247248
    19  H    0.145524
    20  N    0.618229
    21  N    0.714984
    22  O   -1.540321
    23  O   -1.365666
    24  O   -1.346728
    25  O   -1.306384
    26  O   -1.305932
 Sum of Mulliken charges =   0.00000

 Dipole moment (field-independent basis, Debye):
    X=             -4.6832    Y=              7.1358    Z=             -1.6714  Tot=              8.6974

 Test job not archived.
 1\1\GINC-SE127\SP\RHF\Aug-CC-pVDZ\C7H12N2O5\OHZDE\08-Apr-2025\0\\#t hf
  aug-cc-pvdz iop(5/13=1,5/36=2,99/5=2) pseudo=read geom=check guess=(r
 ead,tcheck) scf=(maxcycle=1)\\title\\0,1\C,0,-1.33312,1.66202,0.265604
 \C,0,-0.0830718,0.884035,0.567149\C,0,-2.2629,0.83872,-0.720468\C,0,-2
 .74722,-0.539081,-0.172042\C,0,-1.81805,-1.69836,-0.0174364\C,0,2.3656
 ,0.860919,0.354141\C,0,2.92728,-0.438647,-0.20913\H,0,1.22021,-0.85896
 8,-0.747795\H,0,3.06805,1.69437,0.0621975\H,0,2.3347,0.775703,1.39973\
 H,0,0.926382,1.93549,-0.833455\H,0,-0.22758,-2.31743,-0.245759\H,0,-3.

 Normal termination of Gaussian 16 at Tue Apr  8 19:40:58 2025.
