 Gaussian 16, Revision C.01,

 ----------------------------------------------------------------------
 #t hf aug-cc-pvdz symm=none int=(grid=ultrafine) guess=(read,tcheck) s
 table=(opt,rrhf)
 ----------------------------------------------------------------------
 -----
 title
 -----
 Symbolic Z-matrix:
 Charge =  0 Multiplicity = 1

 SCF Done:  E(RHF) =  -465.394330020     A.U. after   15 cycles
 Normal termination of Gaussian 16 at Tue Apr  8 21:43:55 2025.
 Gaussian 16:  ES64L-G16RevC.01  3-Jul-2019

 ----------------------------------------------------------------------
 #t hf aug-cc-pvdz iop(5/13=1,5/36=2,99/5=2) pseudo=read geom=check gue
 ss=(read,tcheck) scf=(maxcycle=1)
 ----------------------------------------------------------------------
 -----
 title
 -----
 Structure from the checkpoint file:  "ANI1ccx_503_conf8_mol1.chk"
 Charge =  0 Multiplicity = 1

                         Standard orientation:
 ---------------------------------------------------------------------
 Center     Atomic      Atomic             Coordinates (Angstroms)
 Number     Number       Type             X           Y           Z
 ---------------------------------------------------------------------
      1          6           0       -1.473950    0.060109    0.102276
      2          6           0        0.826809    0.730417   -0.091835
      3          1           0        1.666663   -0.886585    1.069110
      4          1           0       -1.116855   -1.774043   -0.529835
      5          1           0       -0.794924    2.179028   -0.251976
      6          7           0        0.792500   -0.625953   -0.487756
      7          7           0       -0.615694   -1.034181   -0.065844
      8          7           0       -0.564127    1.117169   -0.150620
      9          8           0        1.688994   -1.375295    0.200877
     10          8           0       -2.663200   -0.024061    0.209746
     11          8           0        1.829106    1.341756    0.161826
 ---------------------------------------------------------------------

 SCF Done:  E(RHF) =  -465.843867480     A.U. after    2 cycles

 The electronic state is 1-A.
 Alpha  occ. eigenvalues --  -20.63438 -20.58757 -20.56380 -15.65984 -15.59812
 Alpha  occ. eigenvalues --  -15.58278 -11.44951 -11.44082  -1.58656  -1.52717
 Alpha  occ. eigenvalues --   -1.52067  -1.35576  -1.22125  -1.14476  -0.92014
 Alpha  occ. eigenvalues --   -0.90506  -0.81380  -0.78443  -0.75191  -0.72242
 Alpha  occ. eigenvalues --   -0.69827  -0.68690  -0.64852  -0.60117  -0.58413
 Alpha  occ. eigenvalues --   -0.53908  -0.51610  -0.49166  -0.48088  -0.46350
 Alpha virt. eigenvalues --    0.02586   0.04574   0.05394   0.08307   0.08659
 Alpha virt. eigenvalues --    0.09159   0.09765   0.10352   0.10506   0.10816
 Alpha virt. eigenvalues --    0.13232   0.13917   0.15546   0.15782   0.17098

 Mulliken charges:
               1
     1  C    0.442575
     2  C    0.593615
     3  H    0.354545
     4  H    0.118967
     5  H    0.172647
     6  N    0.766559
     7  N    0.452084
     8  N    0.358872
     9  O   -1.162700
    10  O   -1.023898
    11  O   -1.073265
 Sum of Mulliken charges =  -0.00000

 Dipole moment (field-independent basis, Debye):
    X=             -0.3054    Y=              0.6798    Z=              0.1950  Tot=              0.7704

 Test job not archived.
 1\1\GINC-SE250\SP\RHF\Aug-CC-pVDZ\C2H3N3O3\OHZDE\08-Apr-2025\0\\#t hf
 aug-cc-pvdz iop(5/13=1,5/36=2,99/5=2) pseudo=read geom=check guess=(re
 ad,tcheck) scf=(maxcycle=1)\\title\\0,1\C,0,-1.47395,0.0601122,0.10227
 6\C,0,0.826811,0.730414,-0.0918346\H,0,1.66666,-0.88659,1.06911\H,0,-1
 .11686,-1.77404,-0.529835\H,0,-0.794918,2.17903,-0.251976\N,0,0.792498
 ,-0.625956,-0.487756\N,0,-0.615697,-1.03418,-0.065844\N,0,-0.564124,1.
 11717,-0.15062\O,0,1.68899,-1.3753,0.200877\O,0,-2.6632,-0.0240535,0.2
 09746\O,0,1.82911,1.34175,0.161826\\Version=ES64L-G16RevC.01\State=1-A

 Normal termination of Gaussian 16 at Tue Apr  8 21:44:00 2025.
