 Gaussian 16, Revision C.01,

 ----------------------------------------------------------------------
 #t hf aug-cc-pvdz symm=none int=(grid=ultrafine) guess=(read,tcheck) s
 table=(opt,rrhf)
 ----------------------------------------------------------------------
 -----
 title
 -----
 Symbolic Z-matrix:
 Charge =  0 Multiplicity = 1

 SCF Done:  E(RHF) =  -466.562127552     A.U. after   14 cycles
 Normal termination of Gaussian 16 at Tue Apr  8 21:46:14 2025.
 Gaussian 16:  ES64L-G16RevC.01  3-Jul-2019

 ----------------------------------------------------------------------
 #t hf aug-cc-pvdz iop(5/13=1,5/36=2,99/5=2) pseudo=read geom=check gue
 ss=(read,tcheck) scf=(maxcycle=1)
 ----------------------------------------------------------------------
 -----
 title
 -----
 Structure from the checkpoint file:  "ANI1ccx_540_conf24_mol1.chk"
 Charge =  0 Multiplicity = 1

                         Standard orientation:
 ---------------------------------------------------------------------
 Center     Atomic      Atomic             Coordinates (Angstroms)
 Number     Number       Type             X           Y           Z
 ---------------------------------------------------------------------
      1          6           0       -1.745609    0.006296    0.003122
      2          6           0        0.874976   -0.545253    0.011668
      3          1           0       -0.482279    1.546850   -0.761768
      4          1           0       -2.218779    1.864610   -0.335927
      5          1           0       -0.818735   -1.775640    0.535685
      6          1           0        0.742981    1.182990    0.830362
      7          1           0        2.763181   -0.014102    0.080502
      8          7           0       -1.429169    1.373040   -0.178973
      9          7           0       -0.492738   -0.764931    0.517721
     10          7           0        1.163631    0.744466    0.045625
     11          8           0       -2.841559   -0.554745   -0.074135
     12          8           0        1.684400   -1.474530   -0.422211
     13          8           0        2.475331    0.899402    0.105320
 ---------------------------------------------------------------------

 SCF Done:  E(RHF) =  -467.024350237     A.U. after    2 cycles

 The electronic state is 1-A.
 Alpha  occ. eigenvalues --  -20.60951 -20.56892 -20.56854 -15.61845 -15.57879
 Alpha  occ. eigenvalues --  -15.55995 -11.45099 -11.44613  -1.60318  -1.49658
 Alpha  occ. eigenvalues --   -1.45220  -1.28522  -1.23559  -1.17911  -0.93584
 Alpha  occ. eigenvalues --   -0.88308  -0.82247  -0.78881  -0.77805  -0.71274
 Alpha  occ. eigenvalues --   -0.68887  -0.67849  -0.64783  -0.62471  -0.60606
 Alpha  occ. eigenvalues --   -0.56095  -0.52165  -0.49163  -0.47284  -0.46883
 Alpha  occ. eigenvalues --   -0.45336
 Alpha virt. eigenvalues --    0.02478   0.04743   0.05547   0.05796   0.06188
 Alpha virt. eigenvalues --    0.09431   0.09615   0.09880   0.10202   0.10356
 Alpha virt. eigenvalues --    0.12837   0.13940   0.14141   0.14642   0.14882

 Mulliken charges:
               1
     1  C    0.366533
     2  C    0.182454
     3  H    0.308932
     4  H    0.028496
     5  H    0.229669
     6  H    0.331215
     7  H    0.309335
     8  N    0.395460
     9  N    0.195794
    10  N    1.223435
    11  O   -1.067032
    12  O   -1.208029
    13  O   -1.296260
 Sum of Mulliken charges =  -0.00000

 Dipole moment (field-independent basis, Debye):
    X=             -0.1173    Y=              2.4702    Z=              0.5034  Tot=              2.5237

 Test job not archived.
 1\1\GINC-SE221\SP\RHF\Aug-CC-pVDZ\C2H5N3O3\OHZDE\08-Apr-2025\0\\#t hf
 aug-cc-pvdz iop(5/13=1,5/36=2,99/5=2) pseudo=read geom=check guess=(re
 ad,tcheck) scf=(maxcycle=1)\\title\\0,1\C,0,-1.74561,0.00629625,0.0031
 2146\C,0,0.874975,-0.545253,0.0116676\H,0,-0.48228,1.54685,-0.761768\H
 ,0,-2.21878,1.86461,-0.335927\H,0,-0.818735,-1.77564,0.535685\H,0,0.74
 298,1.18299,0.830362\H,0,2.76318,-0.0141018,0.0805018\N,0,-1.42917,1.3
 7304,-0.178973\N,0,-0.492739,-0.764931,0.517721\N,0,1.16363,0.744466,0
 .045625\O,0,-2.84156,-0.554745,-0.0741346\O,0,1.6844,-1.47453,-0.42221

 Normal termination of Gaussian 16 at Tue Apr  8 21:46:18 2025.
