 Gaussian 16, Revision C.01,

 ----------------------------------------------------------------------
 #t hf aug-cc-pvdz symm=none int=(grid=ultrafine) guess=(read,tcheck) s
 table=(opt,rrhf)
 ----------------------------------------------------------------------
 -----
 title
 -----
 Symbolic Z-matrix:
 Charge =  0 Multiplicity = 1

 SCF Done:  E(RHF) =  -380.226411163     A.U. after   11 cycles
 Normal termination of Gaussian 16 at Tue Apr  8 21:03:25 2025.
 Gaussian 16:  ES64L-G16RevC.01  3-Jul-2019

 ----------------------------------------------------------------------
 #t hf aug-cc-pvdz iop(5/13=1,5/36=2,99/5=2) pseudo=read geom=check gue
 ss=(read,tcheck) scf=(maxcycle=1)
 ----------------------------------------------------------------------
 -----
 title
 -----
 Structure from the checkpoint file:  "ANI1ccx_1843_conf26_mol1.chk"
 Charge =  0 Multiplicity = 1

                         Standard orientation:
 ---------------------------------------------------------------------
 Center     Atomic      Atomic             Coordinates (Angstroms)
 Number     Number       Type             X           Y           Z
 ---------------------------------------------------------------------
      1          1           0       -1.886039    0.052893   -0.332345
      2          1           0       -2.419959    0.364524   -1.780320
      3          1           0       -0.596856   -0.934570    0.914892
      4          1           0       -1.533119   -0.799268    2.165850
      5          1           0       -0.242962   -1.280441   -0.947674
      6          1           0        1.196671   -1.214621   -0.310530
      7          1           0        1.771861    0.756304    0.065683
      8          1           0        2.991691    0.215455   -0.759948
      9          1           0       -0.151057    1.321419    1.019280
     10          1           0       -0.259965    1.524839   -0.494979
     11          8           0       -1.593559    0.297078   -1.237010
     12          8           0       -1.271919   -0.324362    1.346100
     13          8           0        0.326718   -1.705501   -0.280607
     14          8           0        2.368331   -0.025592   -0.039820
     15          8           0        0.311647    1.757559    0.268846
 ---------------------------------------------------------------------

 SCF Done:  E(RHF) =  -380.621363137     A.U. after    2 cycles

 The electronic state is 1-A.
 Alpha  occ. eigenvalues --  -20.57655 -20.56529 -20.55277 -20.54585 -20.53624
 Alpha  occ. eigenvalues --   -1.45993  -1.43962  -1.43449  -1.42206  -1.40749
 Alpha  occ. eigenvalues --   -0.74748  -0.71082  -0.70651  -0.69575  -0.68778
 Alpha  occ. eigenvalues --   -0.61746  -0.60401  -0.58334  -0.57359  -0.54673
 Alpha  occ. eigenvalues --   -0.51270  -0.50662  -0.48956  -0.48105  -0.47661
 Alpha virt. eigenvalues --    0.03129   0.04089   0.04638   0.06785   0.07734
 Alpha virt. eigenvalues --    0.08343   0.08571   0.08842   0.09621   0.11658
 Alpha virt. eigenvalues --    0.16681   0.18866   0.19421   0.20480   0.22161

 Mulliken charges:
               1
     1  H    0.642391
     2  H    0.462021
     3  H    0.728463
     4  H    0.443433
     5  H    0.514355
     6  H    0.682466
     7  H    0.632726
     8  H    0.398442
     9  H    0.605095
    10  H    0.614956
    11  O   -1.034135
    12  O   -1.203669
    13  O   -1.214041
    14  O   -0.986542
    15  O   -1.285960
 Sum of Mulliken charges =  -0.00000

 Dipole moment (field-independent basis, Debye):
    X=             -2.3303    Y=              0.1435    Z=             -0.9370  Tot=              2.5158

 Test job not archived.
 1\1\GINC-SE393\SP\RHF\Aug-CC-pVDZ\H10O5\OHZDE\08-Apr-2025\0\\#t hf aug
 -cc-pvdz iop(5/13=1,5/36=2,99/5=2) pseudo=read geom=check guess=(read,
 tcheck) scf=(maxcycle=1)\\title\\0,1\H,0,-1.88604,0.0528939,-0.332345\
 H,0,-2.41996,0.364525,-1.78032\H,0,-0.596857,-0.934569,0.914892\H,0,-1
 .53312,-0.799267,2.16585\H,0,-0.242963,-1.28044,-0.947674\H,0,1.19667,
 -1.21462,-0.31053\H,0,1.77186,0.756304,0.0656825\H,0,2.99169,0.215455,
 -0.759948\H,0,-0.151057,1.32142,1.01928\H,0,-0.259965,1.52484,-0.49497
 9\O,0,-1.59356,0.297079,-1.23701\O,0,-1.27192,-0.324361,1.3461\O,0,0.3

 Normal termination of Gaussian 16 at Tue Apr  8 21:03:29 2025.
