 Gaussian 16, Revision C.01,

 ----------------------------------------------------------------------
 #t hf aug-cc-pvdz symm=none int=(grid=ultrafine) guess=(read,tcheck) s
 table=(opt,rrhf)
 ----------------------------------------------------------------------
 -----
 title
 -----
 Symbolic Z-matrix:
 Charge =  0 Multiplicity = 1

 SCF Done:  E(RHF) =  -791.399891620     A.U. after   16 cycles
 Normal termination of Gaussian 16 at Tue Apr  8 20:48:01 2025.
 Gaussian 16:  ES64L-G16RevC.01  3-Jul-2019

 ----------------------------------------------------------------------
 #t hf aug-cc-pvdz iop(5/13=1,5/36=2,99/5=2) pseudo=read geom=check gue
 ss=(read,tcheck) scf=(maxcycle=1)
 ----------------------------------------------------------------------
 -----
 title
 -----
 Structure from the checkpoint file:  "ANI1ccx_1745_conf8_mol1.chk"
 Charge =  0 Multiplicity = 1

                         Standard orientation:
 ---------------------------------------------------------------------
 Center     Atomic      Atomic             Coordinates (Angstroms)
 Number     Number       Type             X           Y           Z
 ---------------------------------------------------------------------
      1          6           0        0.452010    2.603530    0.148220
      2          6           0       -0.558436    1.637649   -0.276257
      3          6           0        1.612609    2.523871   -0.799554
      4          6           0       -1.230578   -0.655742   -0.124334
      5          6           0       -2.732188   -0.899145    0.032848
      6          6           0       -0.460329   -1.727950    0.459480
      7          6           0        1.017952   -1.487649    0.149997
      8          6           0        1.714263   -2.390499   -0.682156
      9          6           0        3.029622   -0.893891    0.220656
     10          1           0       -4.403869    0.177892    0.015032
     11          1           0        3.838903   -2.322447   -1.009700
     12          1           0        3.861971   -0.281113    0.492390
     13          1           0        1.475154   -3.433639   -1.048530
     14          1           0       -0.671163   -2.653441   -0.073580
     15          1           0       -0.686986   -1.982191    1.459010
     16          1           0       -1.174279   -0.351985   -1.118590
     17          1           0        2.345919    3.350352   -0.423489
     18          1           0        2.152980    1.613512   -1.018300
     19          1           0        1.381019    2.834651   -1.835410
     20          1           0       -0.003185    3.547010    0.069422
     21          1           0        1.369389    2.941641    2.068800
     22          1           0        1.308800    1.228991    1.565680
     23          1           0       -0.477299    0.607534    1.452840
     24          7           0        0.887461    2.189771    1.532470
     25          7           0       -0.673810    0.554509    0.460762
     26          7           0        1.852622   -0.508906    0.624917
     27          7           0        3.011503   -2.009898   -0.500596
     28          8           0       -3.322827   -1.951473    0.295920
     29          8           0       -1.058930    1.797029   -1.373300
     30          8           0       -3.484659    0.264925   -0.196599
 ---------------------------------------------------------------------

 SCF Done:  E(RHF) =  -792.202352703     A.U. after    2 cycles

 The electronic state is 1-A.
 Alpha  occ. eigenvalues --  -20.57871 -20.54368 -20.48550 -15.58303 -15.51311
 Alpha  occ. eigenvalues --  -15.50354 -15.47433 -11.40113 -11.32426 -11.31555
 Alpha  occ. eigenvalues --  -11.28881 -11.28404 -11.27988 -11.25794 -11.24839
 Alpha  occ. eigenvalues --  -11.22329  -1.51529  -1.44728  -1.42990  -1.37268
 Alpha  occ. eigenvalues --   -1.26631  -1.20584  -1.16333  -1.09888  -1.03310
 Alpha  occ. eigenvalues --   -1.00489  -0.94717  -0.89100  -0.87486  -0.84003
 Alpha  occ. eigenvalues --   -0.82810  -0.82272  -0.78266  -0.73492  -0.71370
 Alpha  occ. eigenvalues --   -0.69179  -0.67830  -0.66965  -0.65562  -0.64931
 Alpha  occ. eigenvalues --   -0.63202  -0.62661  -0.60659  -0.60454  -0.59399
 Alpha  occ. eigenvalues --   -0.58650  -0.57644  -0.54776  -0.54247  -0.52869
 Alpha  occ. eigenvalues --   -0.51732  -0.50469  -0.48984  -0.46477  -0.46306
 Alpha  occ. eigenvalues --   -0.44548  -0.42522  -0.40394  -0.39338  -0.34412
 Alpha virt. eigenvalues --    0.01844   0.03409   0.03596   0.04269   0.04729
 Alpha virt. eigenvalues --    0.04763   0.05085   0.05437   0.06191   0.07125
 Alpha virt. eigenvalues --    0.07666   0.08455   0.09035   0.09952   0.10379

 Mulliken charges:
               1
     1  C   -1.564151
     2  C    0.895783
     3  C   -0.080897
     4  C   -1.289838
     5  C    2.723550
     6  C    0.262704
     7  C   -1.258674
     8  C   -0.317110
     9  C   -0.884632
    10  H    0.440472
    11  H    0.049910
    12  H   -0.243631
    13  H   -0.143771
    14  H    0.200682
    15  H    0.059209
    16  H   -0.097656
    17  H    0.273872
    18  H   -0.011978
    19  H    0.231036
    20  H    0.065157
    21  H    0.126930
    22  H    0.187923
    23  H    0.229303
    24  N    0.823812
    25  N    1.346960
    26  N    1.600599
    27  N    0.835881
    28  O   -1.350798
    29  O   -1.604026
    30  O   -1.506618
 Sum of Mulliken charges =  -0.00000

 Dipole moment (field-independent basis, Debye):
    X=              5.8690    Y=             -2.3216    Z=              0.6680  Tot=              6.3468

 Test job not archived.
 1\1\GINC-SE402\SP\RHF\Aug-CC-pVDZ\C9H14N4O3\OHZDE\08-Apr-2025\0\\#t hf
  aug-cc-pvdz iop(5/13=1,5/36=2,99/5=2) pseudo=read geom=check guess=(r
 ead,tcheck) scf=(maxcycle=1)\\title\\0,1\C,0,0.452011,2.60353,0.14822\
 C,0,-0.558436,1.63765,-0.276257\C,0,1.61261,2.52387,-0.799554\C,0,-1.2
 3058,-0.655741,-0.124334\C,0,-2.73219,-0.899143,0.0328485\C,0,-0.46033
 1,-1.72795,0.45948\C,0,1.01795,-1.48765,0.149997\C,0,1.71426,-2.3905,-
 0.682156\C,0,3.02962,-0.893893,0.220656\H,0,-4.40387,0.177895,0.015031
 9\H,0,3.8389,-2.32245,-1.0097\H,0,3.86197,-0.281116,0.49239\H,0,1.4751

 Normal termination of Gaussian 16 at Tue Apr  8 20:48:41 2025.
