 Gaussian 16, Revision C.01,

 ----------------------------------------------------------------------
 #t hf aug-cc-pvdz symm=none int=(grid=ultrafine) guess=(read,tcheck) s
 table=(opt,rrhf)
 ----------------------------------------------------------------------
 -----
 title
 -----
 Symbolic Z-matrix:
 Charge =  0 Multiplicity = 1

 SCF Done:  E(RHF) =  -369.537386454     A.U. after   16 cycles
 Normal termination of Gaussian 16 at Tue Apr  8 21:42:48 2025.
 Gaussian 16:  ES64L-G16RevC.01  3-Jul-2019

 ----------------------------------------------------------------------
 #t hf aug-cc-pvdz iop(5/13=1,5/36=2,99/5=2) pseudo=read geom=check gue
 ss=(read,tcheck) scf=(maxcycle=1)
 ----------------------------------------------------------------------
 -----
 title
 -----
 Structure from the checkpoint file:  "ANI1ccx_487_conf2_mol1.chk"
 Charge =  0 Multiplicity = 1

                         Standard orientation:
 ---------------------------------------------------------------------
 Center     Atomic      Atomic             Coordinates (Angstroms)
 Number     Number       Type             X           Y           Z
 ---------------------------------------------------------------------
      1          6           0        0.985338    0.126417   -0.017431
      2          6           0       -1.077141    1.054068    0.044343
      3          1           0       -1.675182    1.953217    0.155154
      4          1           0        0.844604   -1.910970   -0.002181
      5          7           0        0.227234    1.255419   -0.057303
      6          7           0       -1.757890   -0.089333   -0.022827
      7          7           0       -1.050429   -1.166742   -0.010708
      8          7           0        0.249960   -1.094061    0.023890
      9          8           0        2.212410    0.067232    0.019273
 ---------------------------------------------------------------------

 SCF Done:  E(RHF) =  -369.899601105     A.U. after    2 cycles

 The electronic state is 1-A.
 Alpha  occ. eigenvalues --  -20.53910 -15.69164 -15.64807 -15.58863 -15.54899
 Alpha  occ. eigenvalues --  -11.42195 -11.37844  -1.50753  -1.46886  -1.31014
 Alpha  occ. eigenvalues --   -1.28226  -1.08050  -1.00435  -0.89985  -0.85152
 Alpha  occ. eigenvalues --   -0.75191  -0.74289  -0.65777  -0.64190  -0.59406
 Alpha  occ. eigenvalues --   -0.59201  -0.55856  -0.51767  -0.46662  -0.43758
 Alpha virt. eigenvalues --   -0.02400   0.02401   0.04972   0.07381   0.08097
 Alpha virt. eigenvalues --    0.08942   0.09910   0.10081   0.10724   0.11310
 Alpha virt. eigenvalues --    0.14121   0.14371   0.15739   0.16113   0.17262

 Mulliken charges:
               1
     1  C    0.477693
     2  C   -0.339638
     3  H    0.035553
     4  H    0.148220
     5  N    0.538176
     6  N    0.260723
     7  N   -0.322272
     8  N    0.335441
     9  O   -1.133897
 Sum of Mulliken charges =  -0.00000

 Dipole moment (field-independent basis, Debye):
    X=             -2.1864    Y=             -1.3390    Z=              0.1787  Tot=              2.5701

 Test job not archived.
 1\1\GINC-SE328\SP\RHF\Aug-CC-pVDZ\C2H2N4O1\OHZDE\08-Apr-2025\0\\#t hf
 aug-cc-pvdz iop(5/13=1,5/36=2,99/5=2) pseudo=read geom=check guess=(re
 ad,tcheck) scf=(maxcycle=1)\\title\\0,1\C,0,0.985338,0.126417,-0.01743
 06\C,0,-1.07714,1.05407,0.0443433\H,0,-1.67518,1.95322,0.155154\H,0,0.
 844602,-1.91097,-0.00218056\N,0,0.227236,1.25542,-0.0573027\N,0,-1.757
 89,-0.0893298,-0.0228268\N,0,-1.05043,-1.16674,-0.010708\N,0,0.249959,
 -1.09406,0.0238903\O,0,2.21241,0.0672314,0.0192726\\Version=ES64L-G16R
 evC.01\State=1-A\HF=-369.8996011\RMSD=3.714e-02\Dipole=-0.8602034,-0.5

 Normal termination of Gaussian 16 at Tue Apr  8 21:42:51 2025.
