 Gaussian 16, Revision C.01,

 ----------------------------------------------------------------------
 #t hf aug-cc-pvdz symm=none int=(grid=ultrafine) guess=(read,tcheck) s
 table=(opt,rrhf)
 ----------------------------------------------------------------------
 -----
 title
 -----
 Symbolic Z-matrix:
 Charge =  0 Multiplicity = 1

 SCF Done:  E(RHF) =  -380.144702716     A.U. after   12 cycles
 Normal termination of Gaussian 16 at Tue Apr  8 21:05:27 2025.
 Gaussian 16:  ES64L-G16RevC.01  3-Jul-2019

 ----------------------------------------------------------------------
 #t hf aug-cc-pvdz iop(5/13=1,5/36=2,99/5=2) pseudo=read geom=check gue
 ss=(read,tcheck) scf=(maxcycle=1)
 ----------------------------------------------------------------------
 -----
 title
 -----
 Structure from the checkpoint file:  "ANI1ccx_1843_conf575_mol1.chk"
 Charge =  0 Multiplicity = 1

                         Standard orientation:
 ---------------------------------------------------------------------
 Center     Atomic      Atomic             Coordinates (Angstroms)
 Number     Number       Type             X           Y           Z
 ---------------------------------------------------------------------
      1          1           0       -2.167721    0.364167   -0.162541
      2          1           0       -3.004978   -0.800052   -0.766025
      3          1           0       -0.098894    1.573409   -0.064641
      4          1           0       -1.321538    2.843946    0.306036
      5          1           0        1.851404    1.933595    0.823407
      6          1           0        2.012118    0.627219   -0.075268
      7          1           0        1.352943   -1.333946    0.017483
      8          1           0        2.978704   -1.612932   -0.494563
      9          1           0       -1.026646   -1.369513    0.191996
     10          1           0       -0.179417   -2.673201    0.742620
     11          8           0       -2.538819   -0.575552    0.114028
     12          8           0       -1.099516    1.965787   -0.112937
     13          8           0        1.581355    1.510074    0.007390
     14          8           0        2.214942   -0.827795   -0.038284
     15          8           0       -0.207460   -2.016601   -0.035010
 ---------------------------------------------------------------------

 SCF Done:  E(RHF) =  -380.535268495     A.U. after    2 cycles

 The electronic state is 1-A.
 Alpha  occ. eigenvalues --  -20.57084 -20.56956 -20.56033 -20.53049 -20.52974
 Alpha  occ. eigenvalues --   -1.43432  -1.42217  -1.40606  -1.38801  -1.37509
 Alpha  occ. eigenvalues --   -0.72920  -0.69181  -0.68615  -0.67232  -0.66672
 Alpha  occ. eigenvalues --   -0.60016  -0.59491  -0.56006  -0.54022  -0.50351
 Alpha  occ. eigenvalues --   -0.49828  -0.49382  -0.48109  -0.46973  -0.46427
 Alpha virt. eigenvalues --    0.03139   0.04220   0.04500   0.05649   0.06730
 Alpha virt. eigenvalues --    0.08880   0.09338   0.09776   0.10477   0.11931
 Alpha virt. eigenvalues --    0.16369   0.17688   0.18589   0.20039   0.20500

 Mulliken charges:
               1
     1  H    0.645426
     2  H    0.391331
     3  H    0.863195
     4  H    0.388814
     5  H    0.340210
     6  H    0.786895
     7  H    0.738327
     8  H    0.460317
     9  H    0.736810
    10  H    0.379800
    11  O   -1.075287
    12  O   -1.177541
    13  O   -1.087610
    14  O   -1.259065
    15  O   -1.131624
 Sum of Mulliken charges =   0.00000

 Dipole moment (field-independent basis, Debye):
    X=              0.8590    Y=             -1.3675    Z=              1.0782  Tot=              1.9418

 Test job not archived.
 1\1\GINC-SE143\SP\RHF\Aug-CC-pVDZ\H10O5\OHZDE\08-Apr-2025\0\\#t hf aug
 -cc-pvdz iop(5/13=1,5/36=2,99/5=2) pseudo=read geom=check guess=(read,
 tcheck) scf=(maxcycle=1)\\title\\0,1\H,0,-2.16772,0.364174,-0.162541\H
 ,0,-3.00498,-0.800043,-0.766025\H,0,-0.0988892,1.57341,-0.0646415\H,0,
 -1.32153,2.84395,0.306036\H,0,1.85141,1.93359,0.823407\H,0,2.01212,0.6
 27214,-0.0752678\H,0,1.35294,-1.33395,0.0174829\H,0,2.9787,-1.61294,-0
 .494563\H,0,-1.02665,-1.36951,0.191996\H,0,-0.179424,-2.6732,0.74262\O
 ,0,-2.53882,-0.575544,0.114028\O,0,-1.09951,1.96579,-0.112937\O,0,1.58

 Normal termination of Gaussian 16 at Tue Apr  8 21:05:30 2025.
