 Gaussian 16, Revision C.01,

 ----------------------------------------------------------------------
 #t hf aug-cc-pvdz symm=none int=(grid=ultrafine) guess=(read,tcheck) s
 table=(opt,rrhf)
 ----------------------------------------------------------------------
 -----
 title
 -----
 Symbolic Z-matrix:
 Charge =  0 Multiplicity = 1

 SCF Done:  E(RHF) =  -428.539338012     A.U. after   15 cycles
 Normal termination of Gaussian 16 at Tue Apr  8 21:50:01 2025.
 Gaussian 16:  ES64L-G16RevC.01  3-Jul-2019

 ----------------------------------------------------------------------
 #t hf aug-cc-pvdz iop(5/13=1,5/36=2,99/5=2) pseudo=read geom=check gue
 ss=(read,tcheck) scf=(maxcycle=1)
 ----------------------------------------------------------------------
 -----
 title
 -----
 Structure from the checkpoint file:  "ANI1ccx_676_conf3_mol2.chk"
 Charge =  0 Multiplicity = 1

                         Standard orientation:
 ---------------------------------------------------------------------
 Center     Atomic      Atomic             Coordinates (Angstroms)
 Number     Number       Type             X           Y           Z
 ---------------------------------------------------------------------
      1          6           0        2.536499   -0.711801   -0.445133
      2          6           0        1.251410   -0.344778    0.179073
      3          6           0       -0.195512    1.505530   -0.032575
      4          1           0        2.444649   -0.729028   -1.502130
      5          1           0        3.313391    0.025511   -0.266579
      6          1           0        2.910887   -1.669215   -0.090888
      7          7           0        0.811238    0.908379   -0.349564
      8          7           0       -2.063381   -0.727831   -0.410722
      9          7           0       -2.604883   -1.645965   -0.154301
     10          8           0       -1.052545    2.232112    0.226130
     11          8           0        0.649528   -0.989994    1.030560
 ---------------------------------------------------------------------

 SCF Done:  E(RHF) =  -428.952725140     A.U. after    2 cycles

 The electronic state is 1-A.
 Alpha  occ. eigenvalues --  -20.63613 -20.56091 -15.62098 -15.61903 -15.54689
 Alpha  occ. eigenvalues --  -11.44581 -11.41094 -11.25881  -1.58731  -1.49575
 Alpha  occ. eigenvalues --   -1.49236  -1.30637  -1.07033  -0.91610  -0.82281
 Alpha  occ. eigenvalues --   -0.76982  -0.72628  -0.71147  -0.70585  -0.68041
 Alpha  occ. eigenvalues --   -0.67166  -0.67053  -0.64196  -0.63025  -0.58973
 Alpha  occ. eigenvalues --   -0.54162  -0.53779  -0.47294  -0.46124
 Alpha virt. eigenvalues --    0.03273   0.04993   0.05063   0.06698   0.08570
 Alpha virt. eigenvalues --    0.09045   0.09540   0.09913   0.10210   0.10325
 Alpha virt. eigenvalues --    0.12051   0.12127   0.12903   0.13740   0.14654

 Mulliken charges:
               1
     1  C   -0.153925
     2  C    0.596710
     3  C    0.159013
     4  H    0.202591
     5  H    0.232649
     6  H    0.186943
     7  N    0.821095
     8  N    0.195824
     9  N   -0.255153
    10  O   -0.821708
    11  O   -1.164041
 Sum of Mulliken charges =  -0.00000

 Dipole moment (field-independent basis, Debye):
    X=              1.8651    Y=              0.1105    Z=             -1.5543  Tot=              2.4303

 Test job not archived.
 1\1\GINC-SE073\SP\RHF\Aug-CC-pVDZ\C3H3N3O2\OHZDE\08-Apr-2025\0\\#t hf
 aug-cc-pvdz iop(5/13=1,5/36=2,99/5=2) pseudo=read geom=check guess=(re
 ad,tcheck) scf=(maxcycle=1)\\title\\0,1\C,0,2.5365,-0.711796,-0.445133
 \C,0,1.25141,-0.344776,0.179073\C,0,-0.195515,1.50553,-0.0325754\H,0,2
 .44465,-0.729023,-1.50213\H,0,3.31339,0.0255167,-0.266579\H,0,2.91089,
 -1.66921,-0.0908879\N,0,0.811236,0.90838,-0.349564\N,0,-2.06338,-0.727
 835,-0.410722\N,0,-2.60488,-1.64597,-0.154301\O,0,-1.05255,2.23211,0.2
 2613\O,0,0.649529,-0.989993,1.03056\\Version=ES64L-G16RevC.01\State=1-

 Normal termination of Gaussian 16 at Tue Apr  8 21:50:05 2025.
