 Gaussian 16, Revision C.01,

 ----------------------------------------------------------------------
 #t hf aug-cc-pvdz symm=none int=(grid=ultrafine) guess=(read,tcheck) s
 table=(opt,rrhf)
 ----------------------------------------------------------------------
 -----
 title
 -----
 Symbolic Z-matrix:
 Charge =  0 Multiplicity = 1

 SCF Done:  E(RHF) =  -446.831561865     A.U. after   13 cycles
 Normal termination of Gaussian 16 at Tue Apr  8 21:47:23 2025.
 Gaussian 16:  ES64L-G16RevC.01  3-Jul-2019

 ----------------------------------------------------------------------
 #t hf aug-cc-pvdz iop(5/13=1,5/36=2,99/5=2) pseudo=read geom=check gue
 ss=(read,tcheck) scf=(maxcycle=1)
 ----------------------------------------------------------------------
 -----
 title
 -----
 Structure from the checkpoint file:  "ANI1ccx_555_conf2_mol1.chk"
 Charge =  0 Multiplicity = 1

                         Standard orientation:
 ---------------------------------------------------------------------
 Center     Atomic      Atomic             Coordinates (Angstroms)
 Number     Number       Type             X           Y           Z
 ---------------------------------------------------------------------
      1          6           0        1.638711   -0.181298   -0.104713
      2          6           0       -1.744939   -0.033166    0.022916
      3          1           0        3.611541    0.347483   -0.431059
      4          1           0        2.666990    1.679761    0.330617
      5          1           0        0.664895    1.065710    1.247800
      6          1           0       -0.407193   -1.345121    0.842012
      7          1           0       -1.035220    1.786879   -0.848571
      8          1           0       -2.718430    1.572708   -0.851177
      9          7           0        2.771660    0.657667    0.060094
     10          7           0        0.501843    0.397540    0.484128
     11          7           0       -0.632030   -0.375006    0.697056
     12          7           0       -1.828690    1.254468   -0.484482
     13          8           0        1.649902   -1.309849   -0.616910
     14          8           0       -2.629239   -0.860566   -0.020142
 ---------------------------------------------------------------------

 SCF Done:  E(RHF) =  -447.276186964     A.U. after    2 cycles

 The electronic state is 1-A.
 Alpha  occ. eigenvalues --  -20.53561 -20.49762 -15.57984 -15.56070 -15.55651
 Alpha  occ. eigenvalues --  -15.53049 -11.42206 -11.38627  -1.47732  -1.46540
 Alpha  occ. eigenvalues --   -1.34468  -1.23450  -1.20985  -1.13098  -0.89950
 Alpha  occ. eigenvalues --   -0.88446  -0.80405  -0.78717  -0.77676  -0.72481
 Alpha  occ. eigenvalues --   -0.70746  -0.65450  -0.63358  -0.62832  -0.60575
 Alpha  occ. eigenvalues --   -0.51704  -0.48220  -0.46924  -0.45996  -0.43459
 Alpha  occ. eigenvalues --   -0.42576
 Alpha virt. eigenvalues --    0.01464   0.03525   0.04402   0.04967   0.06254
 Alpha virt. eigenvalues --    0.07134   0.10118   0.10512   0.10914   0.11851
 Alpha virt. eigenvalues --    0.12664   0.13313   0.13957   0.15371   0.15953

 Mulliken charges:
               1
     1  C    0.270712
     2  C    0.195456
     3  H    0.127359
     4  H    0.056363
     5  H    0.134082
     6  H    0.190084
     7  H    0.099235
     8  H    0.171146
     9  N    0.495112
    10  N    0.166513
    11  N   -0.010619
    12  N    0.410818
    13  O   -1.140501
    14  O   -1.165760
 Sum of Mulliken charges =  -0.00000

 Dipole moment (field-independent basis, Debye):
    X=              3.7724    Y=              5.8468    Z=              0.7194  Tot=              6.9952

 Test job not archived.
 1\1\GINC-SE043\SP\RHF\Aug-CC-pVDZ\C2H6N4O2\OHZDE\08-Apr-2025\0\\#t hf
 aug-cc-pvdz iop(5/13=1,5/36=2,99/5=2) pseudo=read geom=check guess=(re
 ad,tcheck) scf=(maxcycle=1)\\title\\0,1\C,0,1.63871,-0.181299,-0.10471
 3\C,0,-1.74494,-0.0331642,0.0229158\H,0,3.61154,0.347481,-0.431059\H,0
 ,2.66699,1.67976,0.330617\H,0,0.664895,1.06571,1.2478\H,0,-0.407195,-1
 .34512,0.842012\H,0,-1.03522,1.78688,-0.848571\H,0,-2.71843,1.57271,-0
 .851177\N,0,2.77166,0.657666,0.0600944\N,0,0.501843,0.39754,0.484128\N
 ,0,-0.632031,-0.375005,0.697056\N,0,-1.82869,1.25447,-0.484482\O,0,1.6

 Normal termination of Gaussian 16 at Tue Apr  8 21:47:28 2025.
