 Gaussian 16, Revision C.01,

 ----------------------------------------------------------------------
 #t hf aug-cc-pvdz symm=none int=(grid=ultrafine) guess=(read,tcheck) s
 table=(opt,rrhf)
 ----------------------------------------------------------------------
 -----
 title
 -----
 Symbolic Z-matrix:
 Charge =  0 Multiplicity = 1

 SCF Done:  E(RHF) =  -371.974344872     A.U. after   13 cycles
 Normal termination of Gaussian 16 at Tue Apr  8 21:47:08 2025.
 Gaussian 16:  ES64L-G16RevC.01  3-Jul-2019

 ----------------------------------------------------------------------
 #t hf aug-cc-pvdz iop(5/13=1,5/36=2,99/5=2) pseudo=read geom=check gue
 ss=(read,tcheck) scf=(maxcycle=1)
 ----------------------------------------------------------------------
 -----
 title
 -----
 Structure from the checkpoint file:  "ANI1ccx_554_conf1_mol1.chk"
 Charge =  0 Multiplicity = 1

                         Standard orientation:
 ---------------------------------------------------------------------
 Center     Atomic      Atomic             Coordinates (Angstroms)
 Number     Number       Type             X           Y           Z
 ---------------------------------------------------------------------
      1          6           0        1.262450   -0.155488   -0.002457
      2          6           0       -1.262800   -0.208677   -0.026187
      3          1           0        2.167168    1.515892   -0.549498
      4          1           0        0.529932    1.576441   -0.856300
      5          1           0        3.182360   -0.322959    0.114959
      6          1           0        0.006252   -1.772430    0.043580
      7          1           0       -0.760050    1.595980    0.889207
      8          1           0       -2.371252    1.389858    0.399929
      9          7           0        1.232288    1.226282   -0.209246
     10          7           0        2.306830   -0.878085    0.231713
     11          7           0        0.016831   -0.742296   -0.048031
     12          7           0       -1.387262    1.148089    0.248192
     13          8           0       -2.241640   -0.884466   -0.178552
 ---------------------------------------------------------------------

 SCF Done:  E(RHF) =  -372.350272608     A.U. after    2 cycles

 The electronic state is 1-A.
 Alpha  occ. eigenvalues --  -20.52241 -15.55524 -15.54346 -15.53454 -15.48152
 Alpha  occ. eigenvalues --  -11.40709 -11.37911  -1.49525  -1.32754  -1.23480
 Alpha  occ. eigenvalues --   -1.20895  -1.16094  -0.92941  -0.85900  -0.79498
 Alpha  occ. eigenvalues --   -0.77986  -0.72696  -0.69201  -0.67892  -0.65811
 Alpha  occ. eigenvalues --   -0.63949  -0.59809  -0.50536  -0.49238  -0.46835
 Alpha  occ. eigenvalues --   -0.45350  -0.41972
 Alpha virt. eigenvalues --    0.02241   0.03934   0.04999   0.05977   0.06132
 Alpha virt. eigenvalues --    0.07312   0.10237   0.10697   0.10976   0.11973
 Alpha virt. eigenvalues --    0.13199   0.13835   0.14181   0.14416   0.16055

 Mulliken charges:
               1
     1  C   -1.851883
     2  C    0.174130
     3  H    0.238323
     4  H    0.152623
     5  H    0.202669
     6  H    0.323589
     7  H    0.134867
     8  H    0.196644
     9  N    0.247785
    10  N    0.778658
    11  N    0.349485
    12  N    0.287102
    13  O   -1.233991
 Sum of Mulliken charges =  -0.00000

 Dipole moment (field-independent basis, Debye):
    X=              1.0907    Y=              4.2914    Z=             -0.3712  Tot=              4.4434

 Test job not archived.
 1\1\GINC-SE159\SP\RHF\Aug-CC-pVDZ\C2H6N4O1\OHZDE\08-Apr-2025\0\\#t hf
 aug-cc-pvdz iop(5/13=1,5/36=2,99/5=2) pseudo=read geom=check guess=(re
 ad,tcheck) scf=(maxcycle=1)\\title\\0,1\C,0,1.26245,-0.15549,-0.002456
 86\C,0,-1.2628,-0.208676,-0.0261871\H,0,2.16717,1.51589,-0.549498\H,0,
 0.529934,1.57644,-0.8563\H,0,3.18236,-0.322962,0.114959\H,0,0.00625138
 ,-1.77243,0.0435797\H,0,-0.760048,1.59598,0.889207\H,0,-2.37125,1.3898
 6,0.399929\N,0,1.23229,1.22628,-0.209246\N,0,2.30683,-0.878087,0.23171
 3\N,0,0.0168306,-0.742296,-0.048031\N,0,-1.38726,1.14809,0.248192\O,0,

 Normal termination of Gaussian 16 at Tue Apr  8 21:47:12 2025.
