 Gaussian 16, Revision C.01,

 ----------------------------------------------------------------------
 #t hf aug-cc-pvdz symm=none int=(grid=ultrafine) guess=(read,tcheck) s
 table=(opt,rrhf)
 ----------------------------------------------------------------------
 -----
 title
 -----
 Symbolic Z-matrix:
 Charge =  0 Multiplicity = 1

 SCF Done:  E(RHF) =  -259.761027195     A.U. after   13 cycles
 Normal termination of Gaussian 16 at Tue Apr  8 21:10:16 2025.
 Gaussian 16:  ES64L-G16RevC.01  3-Jul-2019

 ----------------------------------------------------------------------
 #t hf aug-cc-pvdz iop(5/13=1,5/36=2,99/5=2) pseudo=read geom=check gue
 ss=(read,tcheck) scf=(maxcycle=1)
 ----------------------------------------------------------------------
 -----
 title
 -----
 Structure from the checkpoint file:  "ANI1ccx_1858_conf12_mol1.chk"
 Charge =  0 Multiplicity = 1

                         Standard orientation:
 ---------------------------------------------------------------------
 Center     Atomic      Atomic             Coordinates (Angstroms)
 Number     Number       Type             X           Y           Z
 ---------------------------------------------------------------------
      1          1           0       -1.723418    0.971643    0.776880
      2          1           0       -0.467161   -0.974397    0.072972
      3          7           0        1.768342    0.485297   -0.169910
      4          7           0        1.550081   -0.496847    0.192937
      5          8           0       -1.250328    0.695499   -0.011602
      6          8           0       -1.379469   -0.685049   -0.114778
 ---------------------------------------------------------------------

 SCF Done:  E(RHF) =  -260.009906709     A.U. after    2 cycles

 The electronic state is 1-A.
 Alpha  occ. eigenvalues --  -20.61553 -20.61195 -15.62630 -15.62064  -1.61325
 Alpha  occ. eigenvalues --   -1.53311  -1.26845  -0.82880  -0.73670  -0.72360
 Alpha  occ. eigenvalues --   -0.69990  -0.69874  -0.67914  -0.61592  -0.49664
 Alpha  occ. eigenvalues --   -0.46511
 Alpha virt. eigenvalues --    0.04512   0.05795   0.09182   0.09240   0.11560
 Alpha virt. eigenvalues --    0.13602   0.16204   0.16445   0.17477   0.18388
 Alpha virt. eigenvalues --    0.20966   0.21130   0.23633   0.24124   0.24695

 Mulliken charges:
               1
     1  H    0.450692
     2  H    0.599324
     3  N   -0.084776
     4  N    0.062551
     5  O   -0.446383
     6  O   -0.581407
 Sum of Mulliken charges =  -0.00000

 Dipole moment (field-independent basis, Debye):
    X=              0.8737    Y=              0.0824    Z=              1.6724  Tot=              1.8887

 Test job not archived.
 1\1\GINC-SE116\SP\RHF\Aug-CC-pVDZ\H2N2O2\OHZDE\08-Apr-2025\0\\#t hf au
 g-cc-pvdz iop(5/13=1,5/36=2,99/5=2) pseudo=read geom=check guess=(read
 ,tcheck) scf=(maxcycle=1)\\title\\0,1\H,0,-1.72342,0.971642,0.77688\H,
 0,-0.467162,-0.974397,0.0729718\N,0,1.76834,0.485298,-0.16991\N,0,1.55
 008,-0.496846,0.192937\O,0,-1.25033,0.695498,-0.0116022\O,0,-1.37947,-
 0.68505,-0.114778\\Version=ES64L-G16RevC.01\State=1-A\HF=-260.0099067\
 RMSD=4.456e-02\Dipole=0.3437593,0.0324357,0.6579847\Quadrupole=-0.4252
 39,0.1990971,0.2261419,-1.9665779,-2.2136296,1.2119401\PG=C01 [X(H2N2O

 Normal termination of Gaussian 16 at Tue Apr  8 21:10:19 2025.
