 Gaussian 16, Revision C.01,

 ----------------------------------------------------------------------
 #t hf aug-cc-pvdz symm=none int=(grid=ultrafine) guess=(read,tcheck) s
 table=(opt,rrhf)
 ----------------------------------------------------------------------
 -----
 title
 -----
 Symbolic Z-matrix:
 Charge =  0 Multiplicity = 1

 SCF Done:  E(RHF) =  -833.459706018     A.U. after   15 cycles
 Normal termination of Gaussian 16 at Tue Apr  8 20:57:52 2025.
 Gaussian 16:  ES64L-G16RevC.01  3-Jul-2019

 ----------------------------------------------------------------------
 #t hf aug-cc-pvdz iop(5/13=1,5/36=2,99/5=2) pseudo=read geom=check gue
 ss=(read,tcheck) scf=(maxcycle=1)
 ----------------------------------------------------------------------
 -----
 title
 -----
 Structure from the checkpoint file:  "ANI1ccx_1760_conf15_mol1.chk"
 Charge =  0 Multiplicity = 1

                         Standard orientation:
 ---------------------------------------------------------------------
 Center     Atomic      Atomic             Coordinates (Angstroms)
 Number     Number       Type             X           Y           Z
 ---------------------------------------------------------------------
      1          6           0       -1.780251    0.881703    0.610619
      2          6           0        2.373210   -1.799970   -0.968042
      3          6           0        2.228210   -1.333190    0.453276
      4          6           0        2.466209    1.073270   -0.459025
      5          6           0        3.428810   -1.694809    1.348930
      6          6           0       -3.587110   -0.716034   -0.325839
      7          6           0       -2.836281    0.672566   -0.451998
      8          6           0       -0.539964    0.142867    0.154186
      9          6           0        1.901149    0.163923    0.651008
     10          1           0        1.401930   -1.668360   -1.593080
     11          1           0        2.004009    2.335850   -1.812730
     12          1           0        3.142390   -1.609330    2.387480
     13          1           0        4.292650   -1.066559    1.113940
     14          1           0        3.698960   -2.703189    1.043650
     15          1           0        3.211950   -1.255560   -1.438380
     16          1           0        2.642010   -2.878790   -1.034840
     17          1           0        1.320250   -1.831100    0.873467
     18          1           0        0.385836    1.349340    1.366230
     19          1           0       -4.604111   -0.082533    1.120890
     20          1           0       -3.632841    1.430569   -0.518841
     21          1           0       -2.416421    0.671778   -1.457770
     22          1           0       -2.054511    0.420530    1.636690
     23          1           0       -1.210081    2.812259   -0.040760
     24          1           0       -1.924651    2.842679    1.399630
     25          1           0        2.507999    0.630524    1.450990
     26          7           0       -1.354081    2.260659    0.812635
     27          7           0        0.518959    0.403574    1.003520
     28          8           0        3.622149    0.932113   -0.761436
     29          8           0       -0.593534   -0.663704   -0.780116
     30          8           0       -3.379920   -1.574081   -1.105450
     31          8           0       -4.384300   -0.956360    0.724445
     32          8           0        1.630179    1.963320   -0.988481
 ---------------------------------------------------------------------

 SCF Done:  E(RHF) =  -834.300023020     A.U. after    2 cycles

 The electronic state is 1-A.
 Alpha  occ. eigenvalues --  -20.61941 -20.60795 -20.53814 -20.52614 -20.52173
 Alpha  occ. eigenvalues --  -15.52833 -15.52712 -11.39854 -11.38391 -11.36672
 Alpha  occ. eigenvalues --  -11.31624 -11.29602 -11.27014 -11.23880 -11.21720
 Alpha  occ. eigenvalues --  -11.21147  -1.56401  -1.55143  -1.46523  -1.46151
 Alpha  occ. eigenvalues --   -1.45514  -1.26790  -1.21892  -1.09166  -1.05957
 Alpha  occ. eigenvalues --   -0.99729  -0.92988  -0.92146  -0.86195  -0.82973
 Alpha  occ. eigenvalues --   -0.81804  -0.77773  -0.75676  -0.74714  -0.72460
 Alpha  occ. eigenvalues --   -0.71681  -0.70249  -0.67645  -0.66955  -0.65700
 Alpha  occ. eigenvalues --   -0.64736  -0.62811  -0.62239  -0.60542  -0.60006
 Alpha  occ. eigenvalues --   -0.59786  -0.58076  -0.56351  -0.55595  -0.54435
 Alpha  occ. eigenvalues --   -0.53362  -0.51780  -0.50272  -0.49149  -0.48015
 Alpha  occ. eigenvalues --   -0.47593  -0.46896  -0.46531  -0.45448  -0.42650
 Alpha  occ. eigenvalues --   -0.42101  -0.41189
 Alpha virt. eigenvalues --    0.01329   0.02786   0.03193   0.03848   0.04090
 Alpha virt. eigenvalues --    0.04575   0.04980   0.05722   0.06154   0.07303
 Alpha virt. eigenvalues --    0.07359   0.08199   0.08327   0.08836   0.09957

 Mulliken charges:
               1
     1  C   -1.502417
     2  C   -0.433542
     3  C   -0.571593
     4  C    2.857969
     5  C   -0.187095
     6  C    2.436186
     7  C    0.021117
     8  C    0.552612
     9  C   -2.327765
    10  H    0.352441
    11  H    0.401337
    12  H    0.225034
    13  H    0.269267
    14  H    0.151831
    15  H    0.286540
    16  H    0.091064
    17  H    0.198480
    18  H    0.566522
    19  H    0.403719
    20  H    0.133933
    21  H    0.215053
    22  H    0.256571
    23  H    0.311580
    24  H    0.260010
    25  H    0.203272
    26  N    0.352939
    27  N    1.433410
    28  O   -1.445951
    29  O   -1.442349
    30  O   -1.272433
    31  O   -1.330205
    32  O   -1.467540
 Sum of Mulliken charges =  -0.00000

 Dipole moment (field-independent basis, Debye):
    X=             -1.9754    Y=              7.0481    Z=              2.7872  Tot=              7.8324

 Test job not archived.
 1\1\GINC-SE398\SP\RHF\Aug-CC-pVDZ\C9H16N2O5\OHZDE\08-Apr-2025\0\\#t hf
  aug-cc-pvdz iop(5/13=1,5/36=2,99/5=2) pseudo=read geom=check guess=(r
 ead,tcheck) scf=(maxcycle=1)\\title\\0,1\C,0,-1.78025,0.881704,0.61061
 9\C,0,2.37321,-1.79997,-0.968042\C,0,2.22821,-1.33319,0.453276\C,0,2.4
 6621,1.07327,-0.459025\C,0,3.42881,-1.69481,1.34893\C,0,-3.58711,-0.71
 6033,-0.325839\C,0,-2.83628,0.672567,-0.451998\C,0,-0.539963,0.142868,
 0.154186\C,0,1.90115,0.163923,0.651008\H,0,1.40193,-1.66836,-1.59308\H
 ,0,2.00401,2.33585,-1.81273\H,0,3.14239,-1.60933,2.38748\H,0,4.29265,-

 Normal termination of Gaussian 16 at Tue Apr  8 20:58:34 2025.
