 Gaussian 16, Revision C.01,

 ----------------------------------------------------------------------
 #t hf aug-cc-pvdz symm=none int=(grid=ultrafine) guess=(read,tcheck) s
 table=(opt,rrhf)
 ----------------------------------------------------------------------
 -----
 title
 -----
 Symbolic Z-matrix:
 Charge =  0 Multiplicity = 1

 SCF Done:  E(RHF) =  -794.457943154     A.U. after   15 cycles
 Normal termination of Gaussian 16 at Tue Apr  8 20:15:40 2025.
 Gaussian 16:  ES64L-G16RevC.01  3-Jul-2019

 ----------------------------------------------------------------------
 #t hf aug-cc-pvdz iop(5/13=1,5/36=2,99/5=2) pseudo=read geom=check gue
 ss=(read,tcheck) scf=(maxcycle=1)
 ----------------------------------------------------------------------
 -----
 title
 -----
 Structure from the checkpoint file:  "ANI1ccx_1592_conf2_mol1.chk"
 Charge =  0 Multiplicity = 1

                         Standard orientation:
 ---------------------------------------------------------------------
 Center     Atomic      Atomic             Coordinates (Angstroms)
 Number     Number       Type             X           Y           Z
 ---------------------------------------------------------------------
      1          6           0        0.428317    1.375300   -0.332511
      2          6           0       -1.026381    1.745510    0.047294
      3          6           0        1.287059    1.209301    0.900401
      4          6           0        2.593439    0.546000    0.495911
      5          6           0        2.564960   -0.947890    0.171768
      6          6           0       -1.584020   -0.683121    0.632443
      7          6           0       -1.756390   -1.357981   -0.720330
      8          6           0       -2.524480   -1.280321    1.694550
      9          1           0        0.112763   -1.797470   -0.620631
     10          1           0       -3.578730   -1.215882    1.297560
     11          1           0       -2.516750   -0.723000    2.614520
     12          1           0       -2.337239   -2.376661    1.911240
     13          1           0       -0.573559   -0.901959    0.981691
     14          1           0       -2.769511    1.076049    0.813883
     15          1           0        3.603961   -2.383838   -0.174010
     16          1           0        2.969809    1.078182   -0.409444
     17          1           0        3.386179    0.648354    1.298290
     18          1           0        1.443909    2.176321    1.411080
     19          1           0        0.725823    0.646835    1.651450
     20          1           0        0.388114    0.437204   -0.914623
     21          1           0        0.325066    2.459810   -2.025120
     22          1           0        0.792465    3.297161   -0.688466
     23          7           0        0.962391    2.427641   -1.211410
     24          7           0       -1.826751    0.754442    0.566994
     25          8           0       -1.435722    2.866659   -0.033671
     26          8           0        1.573371   -1.560959    0.125135
     27          8           0        3.821901   -1.431818   -0.049229
     28          8           0       -2.738730   -1.303611   -1.411540
     29          8           0       -0.697922   -2.112330   -1.127400
 ---------------------------------------------------------------------

 SCF Done:  E(RHF) =  -795.254519184     A.U. after    2 cycles

 The electronic state is 1-A.
 Alpha  occ. eigenvalues --  -20.64047 -20.59195 -20.58128 -20.53009 -20.52260
 Alpha  occ. eigenvalues --  -15.53682 -15.50311 -11.43812 -11.38577 -11.36345
 Alpha  occ. eigenvalues --  -11.31262 -11.29479 -11.28259 -11.27078 -11.26414
 Alpha  occ. eigenvalues --   -1.60397  -1.52763  -1.51571  -1.48721  -1.43891
 Alpha  occ. eigenvalues --   -1.25235  -1.20816  -1.09782  -1.06583  -0.99600
 Alpha  occ. eigenvalues --   -0.92179  -0.90779  -0.84060  -0.82763  -0.80264
 Alpha  occ. eigenvalues --   -0.77373  -0.74520  -0.73967  -0.72672  -0.71352
 Alpha  occ. eigenvalues --   -0.70017  -0.68314  -0.65920  -0.64937  -0.64092
 Alpha  occ. eigenvalues --   -0.62663  -0.61096  -0.60889  -0.58705  -0.58004
 Alpha  occ. eigenvalues --   -0.57135  -0.56349  -0.55404  -0.53938  -0.53447
 Alpha  occ. eigenvalues --   -0.52837  -0.51992  -0.48483  -0.47166  -0.46115
 Alpha  occ. eigenvalues --   -0.45570  -0.42699  -0.41774
 Alpha virt. eigenvalues --    0.02275   0.02690   0.03289   0.04084   0.04897
 Alpha virt. eigenvalues --    0.05154   0.05556   0.06502   0.06796   0.07381
 Alpha virt. eigenvalues --    0.08051   0.08866   0.09460   0.09765   0.10622

 Mulliken charges:
               1
     1  C   -2.393448
     2  C    0.895755
     3  C    0.281483
     4  C   -0.726533
     5  C    2.330510
     6  C   -0.871173
     7  C    2.457665
     8  C   -0.175712
     9  H    0.934030
    10  H    0.255064
    11  H    0.099639
    12  H    0.213363
    13  H    0.111586
    14  H    0.285108
    15  H    0.401548
    16  H    0.397266
    17  H    0.257890
    18  H    0.100135
    19  H    0.137361
    20  H    0.150831
    21  H    0.230464
    22  H    0.363855
    23  N    0.730310
    24  N    0.691575
    25  O   -1.439110
    26  O   -1.380850
    27  O   -1.404289
    28  O   -1.410493
    29  O   -1.523829
 Sum of Mulliken charges =   0.00000

 Dipole moment (field-independent basis, Debye):
    X=              4.3252    Y=             -1.2400    Z=              4.6426  Tot=              6.4652

 Test job not archived.
 1\1\GINC-SE099\SP\RHF\Aug-CC-pVDZ\C8H14N2O5\OHZDE\08-Apr-2025\0\\#t hf
  aug-cc-pvdz iop(5/13=1,5/36=2,99/5=2) pseudo=read geom=check guess=(r
 ead,tcheck) scf=(maxcycle=1)\\title\\0,1\C,0,0.428318,1.3753,-0.332511
 \C,0,-1.02638,1.74551,0.047294\C,0,1.28706,1.2093,0.900401\C,0,2.59344
 ,0.545998,0.495911\C,0,2.56496,-0.947892,0.171768\C,0,-1.58402,-0.6831
 2,0.632443\C,0,-1.75639,-1.35798,-0.72033\C,0,-2.52448,-1.28032,1.6945
 5\H,0,0.112762,-1.79747,-0.620631\H,0,-3.57873,-1.21588,1.29756\H,0,-2
 .51675,-0.722999,2.61452\H,0,-2.33724,-2.37666,1.91124\H,0,-0.573559,-

 Normal termination of Gaussian 16 at Tue Apr  8 20:16:16 2025.
