 Gaussian 16, Revision C.01,

 ----------------------------------------------------------------------
 #t hf aug-cc-pvdz symm=none int=(grid=ultrafine) guess=(read,tcheck) s
 table=(opt,rrhf)
 ----------------------------------------------------------------------
 -----
 title
 -----
 Symbolic Z-matrix:
 Charge =  0 Multiplicity = 1

 SCF Done:  E(RHF) =  -410.992071416     A.U. after   14 cycles
 Normal termination of Gaussian 16 at Tue Apr  8 21:54:32 2025.
 Gaussian 16:  ES64L-G16RevC.01  3-Jul-2019

 ----------------------------------------------------------------------
 #t hf aug-cc-pvdz iop(5/13=1,5/36=2,99/5=2) pseudo=read geom=check gue
 ss=(read,tcheck) scf=(maxcycle=1)
 ----------------------------------------------------------------------
 -----
 title
 -----
 Structure from the checkpoint file:  "ANI1ccx_767_conf1_mol2.chk"
 Charge =  0 Multiplicity = 1

                         Standard orientation:
 ---------------------------------------------------------------------
 Center     Atomic      Atomic             Coordinates (Angstroms)
 Number     Number       Type             X           Y           Z
 ---------------------------------------------------------------------
      1          6           0        0.168896    1.726480    0.497681
      2          6           0       -1.241809   -0.228608    0.035199
      3          6           0        1.176291   -0.374671   -0.124694
      4          1           0        0.689333    1.645140    1.400380
      5          1           0       -0.839057    2.135171    0.692985
      6          1           0        0.732245    2.369700   -0.170243
      7          1           0       -3.162679    0.138382   -0.436322
      8          1           0       -2.068939    1.015831   -1.370430
      9          1           0       -0.769391   -1.876209    0.908100
     10          1           0        2.411011    1.297619   -0.291562
     11          1           0        3.123391   -0.259870   -0.310189
     12          7           0        0.036105    0.423397   -0.141719
     13          7           0       -2.228579    0.524992   -0.512224
     14          7           0       -1.561410   -1.324409    0.555873
     15          7           0        2.338601    0.313939   -0.100668
     16          8           0        1.146350   -1.596300   -0.185083
 ---------------------------------------------------------------------

 SCF Done:  E(RHF) =  -411.414412090     A.U. after    2 cycles

 The electronic state is 1-A.
 Alpha  occ. eigenvalues --  -20.50735 -15.54292 -15.53618 -15.50549 -15.45530
 Alpha  occ. eigenvalues --  -11.39228 -11.34488 -11.28573  -1.46945  -1.31261
 Alpha  occ. eigenvalues --   -1.25587  -1.20311  -1.14773  -0.98602  -0.91492
 Alpha  occ. eigenvalues --   -0.83004  -0.79529  -0.74667  -0.72323  -0.69947
 Alpha  occ. eigenvalues --   -0.66947  -0.66000  -0.62663  -0.60547  -0.58895
 Alpha  occ. eigenvalues --   -0.56058  -0.49299  -0.46574  -0.43985  -0.43172
 Alpha  occ. eigenvalues --   -0.40174
 Alpha virt. eigenvalues --    0.02378   0.03610   0.04246   0.04490   0.05750
 Alpha virt. eigenvalues --    0.06278   0.07200   0.08416   0.10218   0.10582
 Alpha virt. eigenvalues --    0.12082   0.12809   0.14063   0.14672   0.15066

 Mulliken charges:
               1
     1  C   -0.353621
     2  C   -2.227026
     3  C    0.128855
     4  H    0.182480
     5  H    0.070646
     6  H    0.179667
     7  H    0.141879
     8  H    0.178851
     9  H    0.245189
    10  H    0.060288
    11  H    0.194698
    12  N    0.431114
    13  N    0.565141
    14  N    0.854630
    15  N    0.628078
    16  O   -1.280867
 Sum of Mulliken charges =  -0.00000

 Dipole moment (field-independent basis, Debye):
    X=              1.9879    Y=              5.5847    Z=             -1.1121  Tot=              6.0314

 Test job not archived.
 1\1\GINC-SE455\SP\RHF\Aug-CC-pVDZ\C3H8N4O1\OHZDE\08-Apr-2025\0\\#t hf
 aug-cc-pvdz iop(5/13=1,5/36=2,99/5=2) pseudo=read geom=check guess=(re
 ad,tcheck) scf=(maxcycle=1)\\title\\0,1\C,0,0.168895,1.72648,0.497681\
 C,0,-1.24181,-0.228609,0.0351987\C,0,1.17629,-0.374671,-0.124694\H,0,0
 .689332,1.64514,1.40038\H,0,-0.839059,2.13517,0.692985\H,0,0.732243,2.
 3697,-0.170243\H,0,-3.16268,0.13838,-0.436322\H,0,-2.06894,1.01583,-1.
 37043\H,0,-0.769391,-1.87621,0.9081\H,0,2.41101,1.29762,-0.291562\H,0,
 3.12339,-0.259869,-0.310189\N,0,0.0361045,0.423397,-0.141719\N,0,-2.22

 Normal termination of Gaussian 16 at Tue Apr  8 21:54:39 2025.
