 Gaussian 16, Revision C.01,

 ----------------------------------------------------------------------
 #t hf aug-cc-pvdz symm=none int=(grid=ultrafine) guess=(read,tcheck) s
 table=(opt,rrhf)
 ----------------------------------------------------------------------
 -----
 title
 -----
 Symbolic Z-matrix:
 Charge =  0 Multiplicity = 1

 SCF Done:  E(RHF) =  -484.053539591     A.U. after   16 cycles
 Normal termination of Gaussian 16 at Tue Apr  8 21:47:53 2025.
 Gaussian 16:  ES64L-G16RevC.01  3-Jul-2019

 ----------------------------------------------------------------------
 #t hf aug-cc-pvdz iop(5/13=1,5/36=2,99/5=2) pseudo=read geom=check gue
 ss=(read,tcheck) scf=(maxcycle=1)
 ----------------------------------------------------------------------
 -----
 title
 -----
 Structure from the checkpoint file:  "ANI1ccx_606_conf4_mol1.chk"
 Charge =  0 Multiplicity = 1

                         Standard orientation:
 ---------------------------------------------------------------------
 Center     Atomic      Atomic             Coordinates (Angstroms)
 Number     Number       Type             X           Y           Z
 ---------------------------------------------------------------------
      1          6           0       -1.217469   -0.385979   -0.001133
      2          6           0        1.218861   -0.307069    0.005189
      3          7           0       -1.109612    1.029038   -0.268099
      4          7           0       -0.071601    1.631980   -0.136482
      5          8           0       -2.219358   -0.911510    0.205985
      6          8           0        1.023108    0.975359    0.396719
      7          8           0        2.206002   -0.892538   -0.099684
      8          8           0        0.022766   -0.979914   -0.152054
 ---------------------------------------------------------------------

 SCF Done:  E(RHF) =  -484.513219762     A.U. after    2 cycles

 The electronic state is 1-A.
 Alpha  occ. eigenvalues --  -20.69683 -20.67481 -20.62591 -20.60659 -15.72990
 Alpha  occ. eigenvalues --  -15.64393 -11.51188 -11.49584  -1.69860  -1.62045
 Alpha  occ. eigenvalues --   -1.59412  -1.54684  -1.44730  -1.09724  -1.01409
 Alpha  occ. eigenvalues --   -0.92729  -0.82185  -0.80682  -0.76814  -0.73926
 Alpha  occ. eigenvalues --   -0.71264  -0.67714  -0.66718  -0.63578  -0.60713
 Alpha  occ. eigenvalues --   -0.55312  -0.54126  -0.53257  -0.51234
 Alpha virt. eigenvalues --   -0.01536   0.05426   0.07541   0.08217   0.08389
 Alpha virt. eigenvalues --    0.09952   0.10011   0.10658   0.12140   0.13210
 Alpha virt. eigenvalues --    0.14651   0.15521   0.18206   0.18596   0.19491

 Mulliken charges:
               1
     1  C    1.369163
     2  C    2.104701
     3  N   -0.174862
     4  N    0.961904
     5  O   -0.916381
     6  O   -1.201541
     7  O   -0.959077
     8  O   -1.183908
 Sum of Mulliken charges =  -0.00000

 Dipole moment (field-independent basis, Debye):
    X=             -0.0726    Y=              0.5908    Z=              0.1717  Tot=              0.6195

 Test job not archived.
 1\1\GINC-SE424\SP\RHF\Aug-CC-pVDZ\C2N2O4\OHZDE\08-Apr-2025\0\\#t hf au
 g-cc-pvdz iop(5/13=1,5/36=2,99/5=2) pseudo=read geom=check guess=(read
 ,tcheck) scf=(maxcycle=1)\\title\\0,1\C,0,-1.21747,-0.385977,-0.001133
 02\C,0,1.21886,-0.307071,0.00518909\N,0,-1.10961,1.02904,-0.268099\N,0
 ,-0.0715983,1.63198,-0.136482\O,0,-2.21936,-0.911506,0.205985\O,0,1.02
 311,0.975358,0.396719\O,0,2.206,-0.892542,-0.0996835\O,0,0.0227647,-0.
 979914,-0.152054\\Version=ES64L-G16RevC.01\State=1-A\HF=-484.5132198\R
 MSD=3.123e-02\Dipole=-0.0285486,0.2324263,0.0675559\Quadrupole=-3.7412

 Normal termination of Gaussian 16 at Tue Apr  8 21:47:56 2025.
