 Gaussian 16, Revision C.01,

 ----------------------------------------------------------------------
 #t hf aug-cc-pvdz symm=none int=(grid=ultrafine) guess=(read,tcheck) s
 table=(opt,rrhf)
 ----------------------------------------------------------------------
 -----
 title
 -----
 Symbolic Z-matrix:
 Charge =  0 Multiplicity = 1

 SCF Done:  E(RHF) =  -814.787128074     A.U. after   15 cycles
 Normal termination of Gaussian 16 at Tue Apr  8 21:17:14 2025.
 Gaussian 16:  ES64L-G16RevC.01  3-Jul-2019

 ----------------------------------------------------------------------
 #t hf aug-cc-pvdz iop(5/13=1,5/36=2,99/5=2) pseudo=read geom=check gue
 ss=(read,tcheck) scf=(maxcycle=1)
 ----------------------------------------------------------------------
 -----
 title
 -----
 Structure from the checkpoint file:  "ANI1ccx_1785_conf8_mol2.chk"
 Charge =  0 Multiplicity = 1

                         Standard orientation:
 ---------------------------------------------------------------------
 Center     Atomic      Atomic             Coordinates (Angstroms)
 Number     Number       Type             X           Y           Z
 ---------------------------------------------------------------------
      1          6           0        0.714907   -2.407992   -0.365903
      2          6           0        1.595226    1.837369    0.837727
      3          6           0        0.201301    2.466822    0.857663
      4          6           0       -0.924172    1.843348    0.049722
      5          6           0        2.321807    1.762528   -0.499046
      6          6           0       -1.455178    0.576010    0.659267
      7          6           0        1.834038   -2.271388    0.669957
      8          6           0       -0.108288   -1.160002   -0.505920
      9          6           0       -2.774982    0.125457    0.047906
     10          1           0        0.387977    3.525884    0.562481
     11          1           0       -4.478029    0.672348   -0.404385
     12          1           0        3.226304    3.604159   -0.441885
     13          1           0        2.722329    3.255293   -1.928130
     14          1           0        1.716095    1.167241   -1.233090
     15          1           0        3.228725    1.124299   -0.382197
     16          1           0        1.538529    0.844787    1.358460
     17          1           0        2.172887    2.548406    1.447460
     18          1           0       -0.129093    2.549298    1.939430
     19          1           0       -0.643302    1.702671   -1.000370
     20          1           0       -1.750291    0.813504    1.694500
     21          1           0       -0.062647   -0.900090    1.471690
     22          1           0        2.051311   -2.541425    2.596520
     23          1           0        2.513928   -3.139989    0.455383
     24          1           0        2.359096   -1.306571    0.361920
     25          1           0        0.008396   -3.168491   -0.000167
     26          1           0        1.720245   -2.069329   -2.107290
     27          1           0        0.470408   -2.991475   -2.211240
     28          1           0       -1.770583    2.569047   -0.006145
     29          7           0        1.257975   -2.846565   -1.618610
     30          7           0       -0.532338   -0.541513    0.626196
     31          7           0        2.513530    3.145981   -0.959391
     32          8           0       -3.173898   -1.027850    0.080994
     33          8           0       -0.379016   -0.738595   -1.600380
     34          8           0        1.353687   -2.253234    2.001450
     35          8           0       -3.598825    1.119954   -0.359385
 ---------------------------------------------------------------------

 SCF Done:  E(RHF) =  -815.624101089     A.U. after    2 cycles

 The electronic state is 1-A.
 Alpha  occ. eigenvalues --  -20.60093 -20.58125 -20.52987 -20.50573 -15.51984
 Alpha  occ. eigenvalues --  -15.48838 -15.48261 -11.39167 -11.34427 -11.31126
 Alpha  occ. eigenvalues --  -11.30043 -11.27409 -11.26299 -11.22849 -11.22805
 Alpha  occ. eigenvalues --  -11.22680  -1.54242  -1.48253  -1.47058  -1.43610
 Alpha  occ. eigenvalues --   -1.24488  -1.20711  -1.18265  -1.08929  -1.03607
 Alpha  occ. eigenvalues --   -1.00528  -0.94617  -0.89012  -0.86689  -0.83415
 Alpha  occ. eigenvalues --   -0.79165  -0.77190  -0.75266  -0.73481  -0.71024
 Alpha  occ. eigenvalues --   -0.70376  -0.69368  -0.68868  -0.68173  -0.65874
 Alpha  occ. eigenvalues --   -0.64406  -0.64105  -0.62178  -0.61287  -0.59648
 Alpha  occ. eigenvalues --   -0.59408  -0.58802  -0.57915  -0.55857  -0.54230
 Alpha  occ. eigenvalues --   -0.53903  -0.53039  -0.50457  -0.48709  -0.47784
 Alpha  occ. eigenvalues --   -0.46988  -0.46489  -0.45937  -0.45369  -0.43548
 Alpha  occ. eigenvalues --   -0.42356  -0.41472  -0.41264
 Alpha virt. eigenvalues --    0.02570   0.03081   0.03353   0.03945   0.04691
 Alpha virt. eigenvalues --    0.04739   0.05042   0.05636   0.05899   0.07056
 Alpha virt. eigenvalues --    0.07621   0.07897   0.08119   0.08561   0.09359

 Mulliken charges:
               1
     1  C   -2.839483
     2  C   -0.165151
     3  C   -0.646406
     4  C    0.133674
     5  C   -0.943684
     6  C   -2.456989
     7  C    1.138302
     8  C    1.223389
     9  C    3.111052
    10  H    0.211648
    11  H    0.420297
    12  H    0.132041
    13  H    0.079275
    14  H    0.084889
    15  H    0.106660
    16  H    0.134482
    17  H    0.187871
    18  H    0.235150
    19  H    0.182533
    20  H    0.295097
    21  H    0.157474
    22  H    0.394115
    23  H    0.211438
    24  H    0.275461
    25  H    0.183643
    26  H    0.204088
    27  H    0.271431
    28  H    0.220806
    29  N    1.000333
    30  N    1.990263
    31  N    0.483809
    32  O   -1.446490
    33  O   -1.659990
    34  O   -1.414916
    35  O   -1.496113
 Sum of Mulliken charges =   0.00000

 Dipole moment (field-independent basis, Debye):
    X=              3.0393    Y=              1.1313    Z=              2.7409  Tot=              4.2461

 Test job not archived.
 1\1\GINC-SE051\SP\RHF\Aug-CC-pVDZ\C9H19N3O4\OHZDE\08-Apr-2025\0\\#t hf
  aug-cc-pvdz iop(5/13=1,5/36=2,99/5=2) pseudo=read geom=check guess=(r
 ead,tcheck) scf=(maxcycle=1)\\title\\0,1\C,0,0.714878,-2.408,-0.365903
 \C,0,1.59525,1.83735,0.837727\C,0,0.201333,2.46682,0.857663\C,0,-0.924
 148,1.84336,0.0497213\C,0,2.32183,1.7625,-0.499046\C,0,-1.45517,0.5760
 29,0.659267\C,0,1.83401,-2.27141,0.669957\C,0,-0.108302,-1.16,-0.50592
 \C,0,-2.77498,0.125493,0.0479055\H,0,0.388022,3.52588,0.562481\H,0,-4.
 47802,0.672405,-0.404385\H,0,3.22635,3.60412,-0.441885\H,0,2.72237,3.2

 Normal termination of Gaussian 16 at Tue Apr  8 21:18:09 2025.
