 Gaussian 16, Revision C.01,

 ----------------------------------------------------------------------
 #t hf aug-cc-pvdz symm=none int=(grid=ultrafine) guess=(read,tcheck) s
 table=(opt,rrhf)
 ----------------------------------------------------------------------
 -----
 title
 -----
 Symbolic Z-matrix:
 Charge =  0 Multiplicity = 1

 SCF Done:  E(RHF) =  -755.373824699     A.U. after   14 cycles
 Normal termination of Gaussian 16 at Tue Apr  8 19:39:24 2025.
 Gaussian 16:  ES64L-G16RevC.01  3-Jul-2019

 ----------------------------------------------------------------------
 #t hf aug-cc-pvdz iop(5/13=1,5/36=2,99/5=2) pseudo=read geom=check gue
 ss=(read,tcheck) scf=(maxcycle=1)
 ----------------------------------------------------------------------
 -----
 title
 -----
 Structure from the checkpoint file:  "ANI1ccx_1405_conf34_mol1.chk"
 Charge =  0 Multiplicity = 1

                         Standard orientation:
 ---------------------------------------------------------------------
 Center     Atomic      Atomic             Coordinates (Angstroms)
 Number     Number       Type             X           Y           Z
 ---------------------------------------------------------------------
      1          6           0        1.734990   -1.381540    0.272799
      2          6           0        0.274238   -1.050490    0.639081
      3          6           0        2.223160   -0.215838   -0.515912
      4          6           0        2.254290    1.098560    0.291851
      5          6           0        1.064580    1.915070    0.123768
      6          6           0       -2.049390   -1.346980   -0.152609
      7          6           0       -2.749710   -0.044405   -0.234957
      8          1           0       -1.292470    0.383864   -1.148210
      9          1           0       -2.429510   -2.088190   -0.795697
     10          1           0       -2.344960   -1.812630    0.895599
     11          1           0       -0.217259   -1.607360   -1.224070
     12          1           0       -0.165894    2.364490   -1.187110
     13          1           0        2.468450    0.982592    1.378720
     14          1           0        2.946260    1.804960   -0.181080
     15          1           0        3.293270   -0.399131   -0.846432
     16          1           0        1.727240   -0.197595   -1.564980
     17          1           0        2.142260   -1.465150    1.277980
     18          1           0        1.730010   -3.444540    0.107934
     19          1           0        2.923680   -2.729720   -0.666297
     20          7           0        1.944080   -2.612340   -0.556569
     21          7           0       -0.606254   -1.206580   -0.346118
     22          8           0       -0.070323   -0.566110    1.701700
     23          8           0        0.690646    2.784470    0.862582
     24          8           0        0.654852    1.923730   -1.192480
     25          8           0       -3.763990    0.140870    0.440600
     26          8           0       -2.093540    0.853862   -0.846357
 ---------------------------------------------------------------------

 SCF Done:  E(RHF) =  -756.128903725     A.U. after    2 cycles

 The electronic state is 1-A.
 Alpha  occ. eigenvalues --  -20.61642 -20.59721 -20.53942 -20.53823 -20.52063
 Alpha  occ. eigenvalues --  -15.56439 -15.54308 -11.39505 -11.39077 -11.38038
 Alpha  occ. eigenvalues --  -11.31229 -11.30994 -11.28296 -11.27510  -1.58888
 Alpha  occ. eigenvalues --   -1.55413  -1.49045  -1.45450  -1.43736  -1.28755
 Alpha  occ. eigenvalues --   -1.22596  -1.11414  -1.05643  -1.00531  -0.90592
 Alpha  occ. eigenvalues --   -0.86539  -0.84079  -0.82089  -0.78463  -0.76223
 Alpha  occ. eigenvalues --   -0.72761  -0.71931  -0.70574  -0.69644  -0.68209
 Alpha  occ. eigenvalues --   -0.66468  -0.65466  -0.64360  -0.62940  -0.61765
 Alpha  occ. eigenvalues --   -0.61103  -0.58507  -0.58125  -0.56191  -0.55021
 Alpha  occ. eigenvalues --   -0.53849  -0.53070  -0.49554  -0.48054  -0.46651
 Alpha  occ. eigenvalues --   -0.45695  -0.44866  -0.43944  -0.42786
 Alpha virt. eigenvalues --    0.01446   0.02681   0.03042   0.03845   0.04422
 Alpha virt. eigenvalues --    0.04499   0.05613   0.06149   0.07114   0.07981
 Alpha virt. eigenvalues --    0.08240   0.08564   0.09930   0.10335   0.10711

 Mulliken charges:
               1
     1  C   -1.551687
     2  C    0.693937
     3  C    0.033426
     4  C   -0.744567
     5  C    2.501200
     6  C   -0.924622
     7  C    2.189445
     8  H    0.652737
     9  H    0.004217
    10  H    0.312771
    11  H    0.368603
    12  H    0.481019
    13  H    0.192194
    14  H    0.345520
    15  H    0.083576
    16  H    0.444192
    17  H    0.085162
    18  H    0.319073
    19  H    0.151835
    20  N    0.651416
    21  N    0.774501
    22  O   -1.559505
    23  O   -1.447057
    24  O   -1.432864
    25  O   -1.315910
    26  O   -1.308615
 Sum of Mulliken charges =  -0.00000

 Dipole moment (field-independent basis, Debye):
    X=              6.2587    Y=             -5.8444    Z=             -4.1570  Tot=              9.5189

 Test job not archived.
 1\1\GINC-SE461\SP\RHF\Aug-CC-pVDZ\C7H12N2O5\OHZDE\08-Apr-2025\0\\#t hf
  aug-cc-pvdz iop(5/13=1,5/36=2,99/5=2) pseudo=read geom=check guess=(r
 ead,tcheck) scf=(maxcycle=1)\\title\\0,1\C,0,1.73499,-1.38154,0.272799
 \C,0,0.274238,-1.05049,0.639081\C,0,2.22316,-0.215838,-0.515912\C,0,2.
 25429,1.09856,0.291851\C,0,1.06458,1.91507,0.123768\C,0,-2.04939,-1.34
 698,-0.152609\C,0,-2.74971,-0.0444057,-0.234957\H,0,-1.29247,0.383864,
 -1.14821\H,0,-2.42951,-2.08819,-0.795697\H,0,-2.34496,-1.81263,0.89559
 9\H,0,-0.217259,-1.60736,-1.22407\H,0,-0.165894,2.36449,-1.18711\H,0,2

 Normal termination of Gaussian 16 at Tue Apr  8 19:39:51 2025.
