 Gaussian 16, Revision C.01,

 ----------------------------------------------------------------------
 #t hf aug-cc-pvdz symm=none int=(grid=ultrafine) guess=(read,tcheck) s
 table=(opt,rrhf)
 ----------------------------------------------------------------------
 -----
 title
 -----
 Symbolic Z-matrix:
 Charge =  0 Multiplicity = 1

 SCF Done:  E(RHF) =  -509.532216747     A.U. after   14 cycles
 Normal termination of Gaussian 16 at Tue Apr  8 22:11:30 2025.
 Gaussian 16:  ES64L-G16RevC.01  3-Jul-2019

 ----------------------------------------------------------------------
 #t hf aug-cc-pvdz iop(5/13=1,5/36=2,99/5=2) pseudo=read geom=check gue
 ss=(read,tcheck) scf=(maxcycle=1)
 ----------------------------------------------------------------------
 -----
 title
 -----
 Structure from the checkpoint file:  "ANI1ccx_939_conf31_mol1.chk"
 Charge =  0 Multiplicity = 1

                         Standard orientation:
 ---------------------------------------------------------------------
 Center     Atomic      Atomic             Coordinates (Angstroms)
 Number     Number       Type             X           Y           Z
 ---------------------------------------------------------------------
      1          6           0       -0.864456    0.575491   -0.747564
      2          6           0       -1.235350   -0.483265    0.233103
      3          6           0        0.587525    0.414510   -1.177920
      4          6           0        1.527690   -0.042833   -0.085302
      5          1           0       -1.897241    1.753949    0.404112
      6          1           0       -0.312858    1.889399    0.493007
      7          1           0       -1.396870    0.427384   -1.672680
      8          1           0        0.627602   -0.248222   -2.029010
      9          1           0        0.995799    1.409400   -1.453440
     10          1           0        2.116070    0.336368    1.691530
     11          1           0       -1.498899   -2.447651    0.062097
     12          7           0       -1.071161    1.881889   -0.195092
     13          8           0       -1.247570   -0.435678    1.474270
     14          8           0        2.245600   -1.028890   -0.200517
     15          8           0        1.438419    0.702080    1.047400
     16          8           0       -1.339940   -1.622171   -0.504138
 ---------------------------------------------------------------------

 SCF Done:  E(RHF) =  -510.039859806     A.U. after    2 cycles

 The electronic state is 1-A.
 Alpha  occ. eigenvalues --  -20.61954 -20.61941 -20.56038 -20.54961 -15.50166
 Alpha  occ. eigenvalues --  -11.41325 -11.41064 -11.29689 -11.27528  -1.55075
 Alpha  occ. eigenvalues --   -1.54449  -1.45471  -1.45205  -1.23438  -1.07388
 Alpha  occ. eigenvalues --   -0.96892  -0.85745  -0.80274  -0.74222  -0.73539
 Alpha  occ. eigenvalues --   -0.71764  -0.70072  -0.67285  -0.66712  -0.63085
 Alpha  occ. eigenvalues --   -0.61378  -0.60353  -0.57646  -0.56618  -0.53909
 Alpha  occ. eigenvalues --   -0.49310  -0.48665  -0.47395  -0.45792  -0.44627
 Alpha virt. eigenvalues --    0.03412   0.03884   0.04237   0.05039   0.05508
 Alpha virt. eigenvalues --    0.06553   0.07803   0.09517   0.10265   0.11225
 Alpha virt. eigenvalues --    0.11956   0.13190   0.13815   0.14429   0.14511

 Mulliken charges:
               1
     1  C   -1.730151
     2  C    2.706947
     3  C   -0.572739
     4  C    2.464195
     5  H    0.201415
     6  H    0.332049
     7  H    0.050706
     8  H    0.041024
     9  H    0.357506
    10  H    0.377751
    11  H    0.403346
    12  N    0.716285
    13  O   -1.340353
    14  O   -1.318800
    15  O   -1.314974
    16  O   -1.374207
 Sum of Mulliken charges =  -0.00000

 Dipole moment (field-independent basis, Debye):
    X=             -0.6828    Y=             -0.3519    Z=             -0.4071  Tot=              0.8693

 Test job not archived.
 1\1\GINC-SE086\SP\RHF\Aug-CC-pVDZ\C4H7N1O4\OHZDE\08-Apr-2025\0\\#t hf
 aug-cc-pvdz iop(5/13=1,5/36=2,99/5=2) pseudo=read geom=check guess=(re
 ad,tcheck) scf=(maxcycle=1)\\title\\0,1\C,0,-0.864456,0.575492,-0.7475
 64\C,0,-1.23535,-0.483264,0.233103\C,0,0.587525,0.41451,-1.17792\C,0,1
 .52769,-0.0428336,-0.0853026\H,0,-1.89724,1.75395,0.404112\H,0,-0.3128
 57,1.8894,0.493007\H,0,-1.39687,0.427385,-1.67268\H,0,0.627602,-0.2482
 22,-2.02901\H,0,0.9958,1.4094,-1.45344\H,0,2.11607,0.336368,1.69153\H,
 0,-1.4989,-2.44765,0.062097\N,0,-1.07116,1.88189,-0.195092\O,0,-1.2475

 Normal termination of Gaussian 16 at Tue Apr  8 22:11:37 2025.
