 Gaussian 16, Revision C.01,

 ----------------------------------------------------------------------
 #t hf aug-cc-pvdz symm=none int=(grid=ultrafine) guess=(read,tcheck) s
 table=(opt,rrhf)
 ----------------------------------------------------------------------
 -----
 title
 -----
 Symbolic Z-matrix:
 Charge =  0 Multiplicity = 1

 SCF Done:  E(RHF) =  -774.642166477     A.U. after   14 cycles
 Normal termination of Gaussian 16 at Tue Apr  8 20:24:19 2025.
 Gaussian 16:  ES64L-G16RevC.01  3-Jul-2019

 ----------------------------------------------------------------------
 #t hf aug-cc-pvdz iop(5/13=1,5/36=2,99/5=2) pseudo=read geom=check gue
 ss=(read,tcheck) scf=(maxcycle=1)
 ----------------------------------------------------------------------
 -----
 title
 -----
 Structure from the checkpoint file:  "ANI1ccx_1610_conf1_mol1.chk"
 Charge =  0 Multiplicity = 1

                         Standard orientation:
 ---------------------------------------------------------------------
 Center     Atomic      Atomic             Coordinates (Angstroms)
 Number     Number       Type             X           Y           Z
 ---------------------------------------------------------------------
      1          6           0       -2.677118   -1.308872    0.073383
      2          6           0       -1.372049   -0.776253    0.707156
      3          6           0       -2.310028   -2.090242   -1.210910
      4          6           0        0.087996    1.301501    0.772464
      5          6           0        0.209063    2.619871    0.001988
      6          6           0        1.424270    0.532974    0.792299
      7          6           0        1.790200   -0.083751   -0.555179
      8          6           0        2.727132   -1.273417   -0.394160
      9          1           0       -0.517288    3.543160   -1.479170
     10          1           0        1.286913   -2.298778    0.704691
     11          1           0        2.689173   -3.172817    0.335988
     12          1           0        2.321530    0.633216   -1.185370
     13          1           0        0.876379   -0.407887   -1.115450
     14          1           0        1.347131   -0.214156    1.577960
     15          1           0        2.230139    1.228193    1.053870
     16          1           0       -1.640851    0.992963   -0.314963
     17          1           0       -1.603927   -2.898501   -0.909093
     18          1           0       -1.771428   -1.489671   -1.952640
     19          1           0       -3.210247   -2.465133   -1.708110
     20          1           0       -3.054498   -2.007362    0.836876
     21          1           0       -3.959000    0.205339    0.599901
     22          1           0       -4.404839   -0.552039   -0.721414
     23          1           0       -0.054582    1.595610    1.853170
     24          7           0       -3.579719   -0.189977   -0.260028
     25          7           0       -1.029790    0.467634    0.277935
     26          7           0        2.130383   -2.361018    0.171539
     27          8           0        3.898132   -1.275326   -0.732181
     28          8           0       -0.698175   -1.442730    1.473730
     29          8           0        1.069477    3.447741    0.140667
     30          8           0       -0.826623    2.815380   -0.885290
 ---------------------------------------------------------------------

 SCF Done:  E(RHF) =  -775.426062987     A.U. after    2 cycles

 The electronic state is 1-A.
 Alpha  occ. eigenvalues --  -20.62370 -20.56447 -20.53024 -20.49961 -15.54131
 Alpha  occ. eigenvalues --  -15.52153 -15.50650 -11.42299 -11.37673 -11.34870
 Alpha  occ. eigenvalues --  -11.32346 -11.30112 -11.25659 -11.25185 -11.24589
 Alpha  occ. eigenvalues --   -1.56446  -1.48110  -1.47263  -1.44564  -1.26635
 Alpha  occ. eigenvalues --   -1.21272  -1.20956  -1.09722  -1.03558  -1.01086
 Alpha  occ. eigenvalues --   -0.91313  -0.89997  -0.83291  -0.82787  -0.80024
 Alpha  occ. eigenvalues --   -0.75730  -0.74707  -0.72615  -0.72007  -0.70611
 Alpha  occ. eigenvalues --   -0.69571  -0.67382  -0.66005  -0.64891  -0.64251
 Alpha  occ. eigenvalues --   -0.61790  -0.60759  -0.59756  -0.59172  -0.57675
 Alpha  occ. eigenvalues --   -0.56524  -0.55406  -0.54932  -0.53229  -0.51817
 Alpha  occ. eigenvalues --   -0.50638  -0.49865  -0.47489  -0.47062  -0.43761
 Alpha  occ. eigenvalues --   -0.43177  -0.42373  -0.40949
 Alpha virt. eigenvalues --    0.02143   0.03161   0.03615   0.04011   0.04063
 Alpha virt. eigenvalues --    0.04782   0.05170   0.05698   0.06346   0.07602
 Alpha virt. eigenvalues --    0.08085   0.08480   0.09090   0.09609   0.10185

 Mulliken charges:
               1
     1  C   -1.590972
     2  C    0.632735
     3  C   -0.068754
     4  C   -1.722881
     5  C    3.033452
     6  C   -0.218194
     7  C   -0.170780
     8  C    0.467938
     9  H    0.447053
    10  H   -0.044910
    11  H    0.110647
    12  H    0.045928
    13  H    0.317113
    14  H    0.190123
    15  H    0.139951
    16  H    0.397161
    17  H    0.290922
    18  H    0.222684
    19  H    0.092751
    20  H    0.150820
    21  H    0.199050
    22  H    0.189327
    23  H    0.334916
    24  N    0.504751
    25  N    1.162626
    26  N    0.810641
    27  O   -1.383338
    28  O   -1.654370
    29  O   -1.401827
    30  O   -1.484566
 Sum of Mulliken charges =  -0.00000

 Dipole moment (field-independent basis, Debye):
    X=             -7.4209    Y=              0.0887    Z=             -0.1763  Tot=              7.4235

 Test job not archived.
 1\1\GINC-SE398\SP\RHF\Aug-CC-pVDZ\C8H15N3O4\OHZDE\08-Apr-2025\0\\#t hf
  aug-cc-pvdz iop(5/13=1,5/36=2,99/5=2) pseudo=read geom=check guess=(r
 ead,tcheck) scf=(maxcycle=1)\\title\\0,1\C,0,-2.67712,-1.30887,0.07338
 3\C,0,-1.37205,-0.776252,0.707156\C,0,-2.31003,-2.09024,-1.21091\C,0,0
 .0879973,1.3015,0.772464\C,0,0.209065,2.61987,0.0019884\C,0,1.42427,0.
 532972,0.792299\C,0,1.7902,-0.0837527,-0.555179\C,0,2.72713,-1.27342,-
 0.39416\H,0,-0.517285,3.54316,-1.47917\H,0,1.28691,-2.29878,0.704691\H
 ,0,2.68917,-3.17282,0.335988\H,0,2.32153,0.633213,-1.18537\H,0,0.87637

 Normal termination of Gaussian 16 at Tue Apr  8 20:24:53 2025.
