 Gaussian 16, Revision C.01,

 ----------------------------------------------------------------------
 #t hf aug-cc-pvdz symm=none int=(grid=ultrafine) guess=(read,tcheck) s
 table=(opt,rrhf)
 ----------------------------------------------------------------------
 -----
 title
 -----
 Symbolic Z-matrix:
 Charge =  0 Multiplicity = 1

 SCF Done:  E(RHF) =  -502.212350405     A.U. after   17 cycles
 Normal termination of Gaussian 16 at Tue Apr  8 21:49:01 2025.
 Gaussian 16:  ES64L-G16RevC.01  3-Jul-2019

 ----------------------------------------------------------------------
 #t hf aug-cc-pvdz iop(5/13=1,5/36=2,99/5=2) pseudo=read geom=check gue
 ss=(read,tcheck) scf=(maxcycle=1)
 ----------------------------------------------------------------------
 -----
 title
 -----
 Structure from the checkpoint file:  "ANI1ccx_650_conf1_mol2.chk"
 Charge =  0 Multiplicity = 1

                         Standard orientation:
 ---------------------------------------------------------------------
 Center     Atomic      Atomic             Coordinates (Angstroms)
 Number     Number       Type             X           Y           Z
 ---------------------------------------------------------------------
      1          6           0       -2.401289   -0.003983   -0.382741
      2          6           0       -0.968042    0.042310    0.117038
      3          6           0        0.788776    1.584399   -0.016449
      4          1           0       -2.684089    0.690003   -1.201070
      5          7           0       -0.360267    1.268400   -0.258499
      6          7           0        2.194440   -1.093753   -0.295042
      7          7           0        2.719309   -2.076033   -0.198517
      8          8           0       -3.147820   -0.851644    0.035548
      9          8           0        1.841943    2.031857    0.210180
     10          8           0       -0.407491   -0.819795    0.774070
 ---------------------------------------------------------------------

 SCF Done:  E(RHF) =  -502.684950784     A.U. after    2 cycles

 The electronic state is 1-A.
 Alpha  occ. eigenvalues --  -20.65669 -20.60299 -20.59192 -15.63042 -15.62950
 Alpha  occ. eigenvalues --  -15.57288 -11.47159 -11.43412 -11.38886  -1.59596
 Alpha  occ. eigenvalues --   -1.53482  -1.51178  -1.47956  -1.33140  -1.04786
 Alpha  occ. eigenvalues --   -0.88475  -0.83178  -0.79065  -0.77664  -0.73312
 Alpha  occ. eigenvalues --   -0.71847  -0.69482  -0.68392  -0.67189  -0.66366
 Alpha  occ. eigenvalues --   -0.66179  -0.61826  -0.57081  -0.55230  -0.51207
 Alpha  occ. eigenvalues --   -0.49120  -0.46120
 Alpha virt. eigenvalues --    0.01404   0.02975   0.06333   0.07261   0.08146
 Alpha virt. eigenvalues --    0.08598   0.08903   0.09317   0.09894   0.10253
 Alpha virt. eigenvalues --    0.11003   0.11682   0.12091   0.13049   0.14362

 Mulliken charges:
               1
     1  C    1.235703
     2  C    0.577609
     3  C    0.118381
     4  H    0.184766
     5  N    0.854810
     6  N    0.243537
     7  N   -0.306560
     8  O   -0.984755
     9  O   -0.792898
    10  O   -1.130593
 Sum of Mulliken charges =  -0.00000

 Dipole moment (field-independent basis, Debye):
    X=              0.2771    Y=              2.2528    Z=             -1.7653  Tot=              2.8755

 Test job not archived.
 1\1\GINC-SE398\SP\RHF\Aug-CC-pVDZ\C3H1N3O3\OHZDE\08-Apr-2025\0\\#t hf
 aug-cc-pvdz iop(5/13=1,5/36=2,99/5=2) pseudo=read geom=check guess=(re
 ad,tcheck) scf=(maxcycle=1)\\title\\0,1\C,0,-2.40129,-0.003985,-0.3827
 41\C,0,-0.968043,0.0423099,0.117038\C,0,0.788774,1.5844,-0.016449\H,0,
 -2.68409,0.690001,-1.20107\N,0,-0.360269,1.2684,-0.258499\N,0,2.19444,
 -1.09375,-0.295042\N,0,2.71931,-2.07603,-0.198517\O,0,-3.14782,-0.8516
 46,0.0355484\O,0,1.84194,2.03186,0.21018\O,0,-0.407491,-0.819795,0.774
 07\\Version=ES64L-G16RevC.01\State=1-A\HF=-502.6849508\RMSD=3.023e-02\

 Normal termination of Gaussian 16 at Tue Apr  8 21:49:06 2025.
