 Gaussian 16, Revision C.01,

 ----------------------------------------------------------------------
 #t hf aug-cc-pvdz symm=none int=(grid=ultrafine) guess=(read,tcheck) s
 table=(opt,rrhf)
 ----------------------------------------------------------------------
 -----
 title
 -----
 Symbolic Z-matrix:
 Charge =  0 Multiplicity = 1

 SCF Done:  E(RHF) =  -982.049122109     A.U. after   15 cycles
 Normal termination of Gaussian 16 at Tue Apr  8 20:54:40 2025.
 Gaussian 16:  ES64L-G16RevC.01  3-Jul-2019

 ----------------------------------------------------------------------
 #t hf aug-cc-pvdz iop(5/13=1,5/36=2,99/5=2) pseudo=read geom=check gue
 ss=(read,tcheck) scf=(maxcycle=1)
 ----------------------------------------------------------------------
 -----
 title
 -----
 Structure from the checkpoint file:  "ANI1ccx_1743_conf32_mol1.chk"
 Charge =  0 Multiplicity = 1

                         Standard orientation:
 ---------------------------------------------------------------------
 Center     Atomic      Atomic             Coordinates (Angstroms)
 Number     Number       Type             X           Y           Z
 ---------------------------------------------------------------------
      1          6           0       -1.347981    1.790439   -0.455915
      2          6           0        0.003960    1.936680    0.089214
      3          6           0       -2.322421    1.266749    0.650417
      4          6           0       -2.573191   -0.161133    0.999963
      5          6           0       -2.816370   -1.036411   -0.224018
      6          6           0        0.926418   -0.476379   -0.243722
      7          6           0        0.528880   -1.067290    1.113690
      8          6           0        2.207090   -1.016520   -0.878264
      9          6           0        3.476559   -0.343312   -0.397965
     10          1           0       -0.588244   -2.394110    0.206796
     11          1           0        5.317779   -0.200126   -0.732192
     12          1           0        2.212570   -0.903633   -1.964600
     13          1           0        2.055490   -2.095250   -0.878260
     14          1           0       -0.019693   -0.618023   -0.805434
     15          1           0        1.813609    1.234170    0.456349
     16          1           0       -4.065990   -1.479941   -1.608000
     17          1           0       -3.490141   -0.245689    1.621060
     18          1           0       -1.882131   -0.682437    1.583200
     19          1           0       -2.101431    1.724599    1.588230
     20          1           0       -3.313801    1.600889    0.361379
     21          1           0       -1.591661    2.854509   -0.593770
     22          1           0       -2.326681    1.048169   -2.158810
     23          1           0       -0.659775    1.303260   -2.373820
     24          7           0       -1.410081    1.046149   -1.692920
     25          7           0        1.006989    0.997433   -0.120516
     26          8           0        0.237657    3.002660    0.642734
     27          8           0       -2.033680   -1.848431   -0.706502
     28          8           0       -4.079371   -0.876676   -0.817820
     29          8           0        0.830474   -0.473431    2.136100
     30          8           0        3.487529    0.310143    0.653300
     31          8           0        4.501089   -0.468064   -1.217930
     32          8           0       -0.073189   -2.247250    1.069060
 ---------------------------------------------------------------------

 SCF Done:  E(RHF) =  -983.021270429     A.U. after    2 cycles

 The electronic state is 1-A.
 Alpha  occ. eigenvalues --  -20.63177 -20.62724 -20.59354 -20.57552 -20.54990
 Alpha  occ. eigenvalues --  -20.52702 -20.50405 -15.51453 -15.51081 -11.43593
 Alpha  occ. eigenvalues --  -11.42284 -11.38691 -11.35027 -11.30539 -11.28694
 Alpha  occ. eigenvalues --  -11.28575 -11.27549 -11.26199  -1.57500  -1.55748
 Alpha  occ. eigenvalues --   -1.53539  -1.47027  -1.46083  -1.45184  -1.43928
 Alpha  occ. eigenvalues --   -1.23567  -1.20501  -1.10920  -1.08713  -1.00493
 Alpha  occ. eigenvalues --   -0.96995  -0.91064  -0.85826  -0.83833  -0.83312
 Alpha  occ. eigenvalues --   -0.79700  -0.75846  -0.74106  -0.73589  -0.73144
 Alpha  occ. eigenvalues --   -0.71575  -0.70435  -0.69278  -0.67359  -0.66988
 Alpha  occ. eigenvalues --   -0.66659  -0.65859  -0.64758  -0.62474  -0.61971
 Alpha  occ. eigenvalues --   -0.61548  -0.60045  -0.59329  -0.58080  -0.57647
 Alpha  occ. eigenvalues --   -0.56201  -0.55598  -0.54760  -0.53170  -0.50950
 Alpha  occ. eigenvalues --   -0.50305  -0.48414  -0.47410  -0.46560  -0.45419
 Alpha  occ. eigenvalues --   -0.44143  -0.43766  -0.41977  -0.40377
 Alpha virt. eigenvalues --    0.02121   0.02935   0.03371   0.03613   0.04045
 Alpha virt. eigenvalues --    0.04430   0.05376   0.06370   0.07070   0.07630
 Alpha virt. eigenvalues --    0.08200   0.08348   0.09064   0.09809   0.10748

 Mulliken charges:
               1
     1  C   -0.872843
     2  C    0.411026
     3  C   -0.327819
     4  C   -0.008893
     5  C    2.492829
     6  C   -1.656932
     7  C    2.482383
     8  C   -0.324016
     9  C    2.607368
    10  H    0.662846
    11  H    0.439942
    12  H    0.186485
    13  H    0.209396
    14  H    0.223042
    15  H    0.329883
    16  H    0.355022
    17  H    0.259042
    18  H   -0.050074
    19  H    0.108605
    20  H    0.188956
    21  H    0.182678
    22  H    0.198989
    23  H    0.222115
    24  N    0.431196
    25  N    1.419147
    26  O   -1.515658
    27  O   -1.427685
    28  O   -1.474063
    29  O   -1.455192
    30  O   -1.329065
    31  O   -1.417282
    32  O   -1.551425
 Sum of Mulliken charges =  -0.00000

 Dipole moment (field-independent basis, Debye):
    X=             -2.5997    Y=             -3.1039    Z=             -6.1502  Tot=              7.3633

 Test job not archived.
 1\1\GINC-SE051\SP\RHF\Aug-CC-pVDZ\C9H14N2O7\OHZDE\08-Apr-2025\0\\#t hf
  aug-cc-pvdz iop(5/13=1,5/36=2,99/5=2) pseudo=read geom=check guess=(r
 ead,tcheck) scf=(maxcycle=1)\\title\\0,1\C,0,-1.34798,1.79044,-0.45591
 5\C,0,0.00396159,1.93668,0.0892136\C,0,-2.32242,1.26675,0.650417\C,0,-
 2.57319,-0.161132,0.999963\C,0,-2.81637,-1.03641,-0.224018\C,0,0.92641
 9,-0.476379,-0.243722\C,0,0.52888,-1.06729,1.11369\C,0,2.20709,-1.0165
 2,-0.878264\C,0,3.47656,-0.343313,-0.397965\H,0,-0.588244,-2.39411,0.2
 06796\H,0,5.31778,-0.200127,-0.732192\H,0,2.21257,-0.903633,-1.9646\H,

 Normal termination of Gaussian 16 at Tue Apr  8 20:55:34 2025.
