 Gaussian 16, Revision C.01,

 ----------------------------------------------------------------------
 #t hf aug-cc-pvdz symm=none int=(grid=ultrafine) guess=(read,tcheck) s
 table=(opt,rrhf)
 ----------------------------------------------------------------------
 -----
 title
 -----
 Symbolic Z-matrix:
 Charge =  0 Multiplicity = 1

 SCF Done:  E(RHF) =  -484.397421639     A.U. after   16 cycles
 Normal termination of Gaussian 16 at Tue Apr  8 19:17:51 2025.
 Gaussian 16:  ES64L-G16RevC.01  3-Jul-2019

 ----------------------------------------------------------------------
 #t hf aug-cc-pvdz iop(5/13=1,5/36=2,99/5=2) pseudo=read geom=check gue
 ss=(read,tcheck) scf=(maxcycle=1)
 ----------------------------------------------------------------------
 -----
 title
 -----
 Structure from the checkpoint file:  "ANI1ccx_1091_conf2_mol2.chk"
 Charge =  0 Multiplicity = 1

                         Standard orientation:
 ---------------------------------------------------------------------
 Center     Atomic      Atomic             Coordinates (Angstroms)
 Number     Number       Type             X           Y           Z
 ---------------------------------------------------------------------
      1          6           0       -1.216351    0.906911   -0.043224
      2          6           0       -1.598258   -1.417753    0.063409
      3          6           0        0.657479   -0.777362   -0.058121
      4          6           0        2.427530    0.330582    0.024612
      5          6           0        0.218223    0.531195   -0.020164
      6          1           0       -2.291147   -2.226594    0.093447
      7          1           0        0.002064   -2.739341   -0.180909
      8          1           0        3.458139    0.611996    0.086694
      9          1           0        1.371697    2.224761    0.096095
     10          7           0       -2.085470   -0.232923    0.102488
     11          7           0       -0.301746   -1.762281   -0.045970
     12          7           0        2.004861   -0.922765   -0.029593
     13          7           0        1.407099    1.235501    0.079181
     14          8           0       -1.580712    2.058127   -0.079642
 ---------------------------------------------------------------------

 SCF Done:  E(RHF) =  -484.876946404     A.U. after    2 cycles

 The electronic state is 1-A.
 Alpha  occ. eigenvalues --  -20.51445 -15.58745 -15.58341 -15.52482 -15.50399
 Alpha  occ. eigenvalues --  -11.36947 -11.35486 -11.34961 -11.32755 -11.27883
 Alpha  occ. eigenvalues --   -1.46231  -1.38236  -1.33002  -1.22790  -1.19992
 Alpha  occ. eigenvalues --   -1.06957  -0.94410  -0.92623  -0.89321  -0.84477
 Alpha  occ. eigenvalues --   -0.79745  -0.75945  -0.70525  -0.69009  -0.67276
 Alpha  occ. eigenvalues --   -0.65806  -0.62208  -0.61516  -0.56035  -0.53256
 Alpha  occ. eigenvalues --   -0.50194  -0.47642  -0.43798  -0.42244  -0.34282
 Alpha virt. eigenvalues --    0.02240   0.03262   0.04826   0.05002   0.06665
 Alpha virt. eigenvalues --    0.07639   0.08395   0.09286   0.10162   0.10606
 Alpha virt. eigenvalues --    0.10955   0.11400   0.12185   0.12330   0.13152

 Mulliken charges:
               1
     1  C    0.916767
     2  C   -0.736687
     3  C   -1.627112
     4  C   -0.385947
     5  C   -0.190896
     6  H   -0.106388
     7  H    0.150905
     8  H   -0.068727
     9  H    0.031084
    10  N    0.877408
    11  N    0.821634
    12  N    0.961418
    13  N    0.758843
    14  O   -1.402302
 Sum of Mulliken charges =   0.00000

 Dipole moment (field-independent basis, Debye):
    X=              4.1214    Y=             -2.8749    Z=             -0.1149  Tot=              5.0263

 Test job not archived.
 1\1\GINC-SE035\SP\RHF\Aug-CC-pVDZ\C5H4N4O1\OHZDE\08-Apr-2025\0\\#t hf
 aug-cc-pvdz iop(5/13=1,5/36=2,99/5=2) pseudo=read geom=check guess=(re
 ad,tcheck) scf=(maxcycle=1)\\title\\0,1\C,0,-1.21635,0.906913,-0.04322
 45\C,0,-1.59826,-1.41775,0.0634093\C,0,0.657478,-0.777362,-0.0581208\C
 ,0,2.42753,0.33058,0.0246118\C,0,0.218224,0.531196,-0.0201643\H,0,-2.2
 9115,-2.22659,0.0934472\H,0,0.00206043,-2.73934,-0.180909\H,0,3.45814,
 0.611993,0.0866937\H,0,1.3717,2.22476,0.0960952\N,0,-2.08547,-0.23292,
 0.102488\N,0,-0.301748,-1.76228,-0.0459703\N,0,2.00486,-0.922766,-0.02

 Normal termination of Gaussian 16 at Tue Apr  8 19:17:58 2025.
