 Gaussian 16, Revision C.01,

 ----------------------------------------------------------------------
 #t hf aug-cc-pvdz symm=none int=(grid=ultrafine) guess=(read,tcheck) s
 table=(opt,rrhf)
 ----------------------------------------------------------------------
 -----
 title
 -----
 Symbolic Z-matrix:
 Charge =  0 Multiplicity = 1

 SCF Done:  E(RHF) =  -578.800996827     A.U. after   14 cycles
 Normal termination of Gaussian 16 at Tue Apr  8 22:17:10 2025.
 Gaussian 16:  ES64L-G16RevC.01  3-Jul-2019

 ----------------------------------------------------------------------
 #t hf aug-cc-pvdz iop(5/13=1,5/36=2,99/5=2) pseudo=read geom=check gue
 ss=(read,tcheck) scf=(maxcycle=1)
 ----------------------------------------------------------------------
 -----
 title
 -----
 Structure from the checkpoint file:  "ANI1ccx_987_conf3_mol2.chk"
 Charge =  0 Multiplicity = 1

                         Standard orientation:
 ---------------------------------------------------------------------
 Center     Atomic      Atomic             Coordinates (Angstroms)
 Number     Number       Type             X           Y           Z
 ---------------------------------------------------------------------
      1          6           0        2.109430   -0.449000    0.006487
      2          6           0        0.432789    1.162650    0.072692
      3          6           0       -1.783330    0.432924    0.880774
      4          6           0       -2.211461   -0.620145   -0.200392
      5          1           0       -0.364281   -1.279970   -0.194755
      6          1           0       -2.299170    0.161129    1.822050
      7          1           0       -2.317360    1.305271    0.565781
      8          1           0        0.417010    2.693910   -1.240200
      9          1           0        0.079620   -0.166075    1.498830
     10          1           0        1.874069   -2.277500    0.568287
     11          1           0        3.870560    0.249369   -0.671847
     12          1           0        3.882919   -1.404611   -0.196662
     13          1           0       -0.815666    2.764880   -0.086524
     14          7           0        3.425960   -0.532342   -0.184850
     15          7           0        1.350329   -1.403190    0.438399
     16          7           0        1.630660    0.823618   -0.299677
     17          7           0       -0.165631    2.169870   -0.579047
     18          7           0       -0.358257    0.582984    1.015720
     19          8           0       -1.232081   -1.387430   -0.665537
     20          8           0       -3.367131   -0.699015   -0.503984
 ---------------------------------------------------------------------

 SCF Done:  E(RHF) =  -579.388207324     A.U. after    2 cycles

 The electronic state is 1-A.
 Alpha  occ. eigenvalues --  -20.56839 -20.51625 -15.54361 -15.53653 -15.52967
 Alpha  occ. eigenvalues --  -15.47989 -15.46762 -11.38670 -11.37840 -11.36003
 Alpha  occ. eigenvalues --  -11.29949  -1.52057  -1.43973  -1.35034  -1.29316
 Alpha  occ. eigenvalues --   -1.22500  -1.18822  -1.15241  -1.01081  -0.92016
 Alpha  occ. eigenvalues --   -0.87116  -0.82252  -0.80196  -0.76897  -0.75650
 Alpha  occ. eigenvalues --   -0.74536  -0.71019  -0.70469  -0.67049  -0.64167
 Alpha  occ. eigenvalues --   -0.63151  -0.62343  -0.60016  -0.56109  -0.55124
 Alpha  occ. eigenvalues --   -0.51677  -0.48869  -0.47207  -0.45501  -0.44907
 Alpha  occ. eigenvalues --   -0.42363  -0.39912
 Alpha virt. eigenvalues --    0.02265   0.03429   0.04306   0.04640   0.04737
 Alpha virt. eigenvalues --    0.06461   0.06949   0.07471   0.08115   0.09375
 Alpha virt. eigenvalues --    0.10388   0.11157   0.11468   0.12197   0.13340

 Mulliken charges:
               1
     1  C   -1.474833
     2  C   -2.224485
     3  C   -1.106397
     4  C    2.160837
     5  H    0.879912
     6  H    0.193844
     7  H    0.122086
     8  H    0.199561
     9  H    0.584765
    10  H    0.062645
    11  H    0.163904
    12  H    0.131055
    13  H    0.209749
    14  N    0.546101
    15  N    0.347959
    16  N    0.574860
    17  N    0.775436
    18  N    0.677534
    19  O   -1.503031
    20  O   -1.321503
 Sum of Mulliken charges =  -0.00000

 Dipole moment (field-independent basis, Debye):
    X=              4.9120    Y=              3.1136    Z=              1.8855  Tot=              6.1137

 Test job not archived.
 1\1\GINC-SE227\SP\RHF\Aug-CC-pVDZ\C4H9N5O2\OHZDE\08-Apr-2025\0\\#t hf
 aug-cc-pvdz iop(5/13=1,5/36=2,99/5=2) pseudo=read geom=check guess=(re
 ad,tcheck) scf=(maxcycle=1)\\title\\0,1\C,0,2.10943,-0.449,0.006487\C,
 0,0.432789,1.16265,0.0726917\C,0,-1.78333,0.432924,0.880774\C,0,-2.211
 46,-0.620146,-0.200392\H,0,-0.36428,-1.27997,-0.194755\H,0,-2.29917,0.
 161128,1.82205\H,0,-2.31736,1.30527,0.565781\H,0,0.41701,2.69391,-1.24
 02\H,0,0.0796204,-0.166075,1.49883\H,0,1.87407,-2.2775,0.568287\H,0,3.
 87056,0.24937,-0.671847\H,0,3.88292,-1.40461,-0.196662\H,0,-0.815666,2

 Normal termination of Gaussian 16 at Tue Apr  8 22:17:22 2025.
