 Gaussian 16, Revision C.01,

 ----------------------------------------------------------------------
 #t hf aug-cc-pvdz symm=none int=(grid=ultrafine) guess=(read,tcheck) s
 table=(opt,rrhf)
 ----------------------------------------------------------------------
 -----
 title
 -----
 Symbolic Z-matrix:
 Charge =  0 Multiplicity = 1

 SCF Done:  E(RHF) =  -456.243311193     A.U. after   11 cycles
 Normal termination of Gaussian 16 at Tue Apr  8 21:07:47 2025.
 Gaussian 16:  ES64L-G16RevC.01  3-Jul-2019

 ----------------------------------------------------------------------
 #t hf aug-cc-pvdz iop(5/13=1,5/36=2,99/5=2) pseudo=read geom=check gue
 ss=(read,tcheck) scf=(maxcycle=1)
 ----------------------------------------------------------------------
 -----
 title
 -----
 Structure from the checkpoint file:  "ANI1ccx_1844_conf344_mol1.chk"
 Charge =  0 Multiplicity = 1

                         Standard orientation:
 ---------------------------------------------------------------------
 Center     Atomic      Atomic             Coordinates (Angstroms)
 Number     Number       Type             X           Y           Z
 ---------------------------------------------------------------------
      1          1           0       -1.241644   -1.875758    1.619170
      2          1           0       -2.369371    0.794466   -0.111414
      3          1           0       -3.444002   -0.110895   -0.606480
      4          1           0        1.873270    1.006738    0.562280
      5          1           0        1.300241    2.088909    1.616140
      6          1           0       -0.295526    1.970631   -0.229921
      7          1           0       -1.887683   -1.263798    0.364767
      8          1           0       -1.523108    2.840552   -0.946943
      9          1           0        1.148215   -2.703741   -0.716808
     10          1           0        0.173542   -1.528090   -0.193130
     11          1           0        2.517727   -0.955586   -0.253565
     12          1           0        3.402999    0.348726   -0.691268
     13          8           0        1.346151    1.891399    0.640396
     14          8           0        0.856072   -1.775881   -0.888221
     15          8           0       -3.002351    0.099366    0.204541
     16          8           0       -1.066139    1.920011   -0.768657
     17          8           0       -1.191194   -1.954058    0.634582
     18          8           0        3.100628   -0.257356    0.125756
 ---------------------------------------------------------------------

 SCF Done:  E(RHF) =  -456.714998739     A.U. after    2 cycles

 The electronic state is 1-A.
 Alpha  occ. eigenvalues --  -20.56343 -20.56104 -20.55785 -20.55725 -20.55633
 Alpha  occ. eigenvalues --  -20.53077  -1.45204  -1.42998  -1.42770  -1.41862
 Alpha  occ. eigenvalues --   -1.40627  -1.39357  -0.72255  -0.70828  -0.70055
 Alpha  occ. eigenvalues --   -0.69387  -0.68503  -0.68037  -0.61693  -0.59617
 Alpha  occ. eigenvalues --   -0.58554  -0.56414  -0.54919  -0.53869  -0.49867
 Alpha  occ. eigenvalues --   -0.49587  -0.49311  -0.48830  -0.48410  -0.46847
 Alpha virt. eigenvalues --    0.03206   0.04101   0.04573   0.04974   0.06270
 Alpha virt. eigenvalues --    0.07027   0.08166   0.09055   0.10057   0.10440
 Alpha virt. eigenvalues --    0.10940   0.12142   0.17611   0.18215   0.18408

 Mulliken charges:
               1
     1  H    0.397048
     2  H    0.692610
     3  H    0.320281
     4  H    0.711403
     5  H    0.393852
     6  H    0.656179
     7  H    0.732492
     8  H    0.433838
     9  H    0.415090
    10  H    0.712397
    11  H    0.606823
    12  H    0.427798
    13  O   -1.127113
    14  O   -1.041623
    15  O   -0.985091
    16  O   -1.076311
    17  O   -1.200909
    18  O   -1.068766
 Sum of Mulliken charges =   0.00000

 Dipole moment (field-independent basis, Debye):
    X=             -0.9494    Y=              1.3799    Z=              0.8644  Tot=              1.8849

 Test job not archived.
 1\1\GINC-SE079\SP\RHF\Aug-CC-pVDZ\H12O6\OHZDE\08-Apr-2025\0\\#t hf aug
 -cc-pvdz iop(5/13=1,5/36=2,99/5=2) pseudo=read geom=check guess=(read,
 tcheck) scf=(maxcycle=1)\\title\\0,1\H,0,-1.24164,-1.87576,1.61917\H,0
 ,-2.36937,0.794463,-0.111414\H,0,-3.444,-0.110899,-0.60648\H,0,1.87327
 ,1.00674,0.56228\H,0,1.30024,2.08891,1.61614\H,0,-0.295527,1.97063,-0.
 229921\H,0,-1.88768,-1.2638,0.364767\H,0,-1.52311,2.84055,-0.946943\H,
 0,1.14822,-2.70374,-0.716808\H,0,0.173545,-1.52809,-0.19313\H,0,2.5177
 3,-0.955583,-0.253565\H,0,3.403,0.34873,-0.691268\O,0,1.34615,1.8914,0

 Normal termination of Gaussian 16 at Tue Apr  8 21:07:52 2025.
