 Gaussian 16, Revision C.01,

 ----------------------------------------------------------------------
 #t hf aug-cc-pvdz symm=none int=(grid=ultrafine) guess=(read,tcheck) s
 table=(opt,rrhf)
 ----------------------------------------------------------------------
 -----
 title
 -----
 Symbolic Z-matrix:
 Charge =  0 Multiplicity = 1

 SCF Done:  E(RHF) =  -537.855268495     A.U. after   15 cycles
 Normal termination of Gaussian 16 at Tue Apr  8 22:18:06 2025.
 Gaussian 16:  ES64L-G16RevC.01  3-Jul-2019

 ----------------------------------------------------------------------
 #t hf aug-cc-pvdz iop(5/13=1,5/36=2,99/5=2) pseudo=read geom=check gue
 ss=(read,tcheck) scf=(maxcycle=1)
 ----------------------------------------------------------------------
 -----
 title
 -----
 Structure from the checkpoint file:  "ANI1ccx_988_conf5_mol1.chk"
 Charge =  0 Multiplicity = 1

                         Standard orientation:
 ---------------------------------------------------------------------
 Center     Atomic      Atomic             Coordinates (Angstroms)
 Number     Number       Type             X           Y           Z
 ---------------------------------------------------------------------
      1          6           0        2.112540   -0.400939   -0.001476
      2          6           0        0.736731    1.564769    0.613298
      3          6           0       -0.623527    1.865230   -0.019910
      4          6           0       -1.454270    0.532255   -0.088995
      5          1           0        0.017043   -1.029511    0.595517
      6          1           0       -0.472137    2.277320   -1.071060
      7          1           0       -1.211310    2.598800    0.535019
      8          1           0        1.169690    2.528969    0.910558
      9          1           0        0.631682    0.994810    1.601940
     10          1           0        1.807670   -2.130551    0.851367
     11          1           0        3.379610   -1.791311   -0.907365
     12          1           0        3.964490   -0.155462   -0.881829
     13          1           0        1.957990    1.306319   -1.091300
     14          7           0       -2.000100   -1.549120    0.124952
     15          7           0        3.146310   -0.772492   -0.853210
     16          7           0        1.542770   -1.129901    0.938984
     17          7           0        1.715420    0.878022   -0.192579
     18          7           0       -2.666520    0.424938   -0.477128
     19          7           0       -3.005900   -0.882774   -0.365403
     20          7           0       -0.999632   -0.678283    0.315763
 ---------------------------------------------------------------------

 SCF Done:  E(RHF) =  -538.400666898     A.U. after    2 cycles

 The electronic state is 1-A.
 Alpha  occ. eigenvalues --  -15.56214 -15.55971 -15.55945 -15.55266 -15.54358
 Alpha  occ. eigenvalues --  -15.49649 -15.49494 -11.40270 -11.30344 -11.29843
 Alpha  occ. eigenvalues --  -11.28135  -1.43849  -1.33990  -1.22642  -1.22050
 Alpha  occ. eigenvalues --   -1.17841  -1.17533  -1.05723  -0.93952  -0.90466
 Alpha  occ. eigenvalues --   -0.86387  -0.85613  -0.81183  -0.76782  -0.76428
 Alpha  occ. eigenvalues --   -0.70387  -0.68754  -0.67960  -0.66198  -0.64369
 Alpha  occ. eigenvalues --   -0.59663  -0.57891  -0.56339  -0.53065  -0.51936
 Alpha  occ. eigenvalues --   -0.49770  -0.48871  -0.47991  -0.45899  -0.43406
 Alpha  occ. eigenvalues --   -0.41368
 Alpha virt. eigenvalues --    0.01145   0.02787   0.03326   0.03839   0.04919
 Alpha virt. eigenvalues --    0.05368   0.05804   0.07172   0.08150   0.09213
 Alpha virt. eigenvalues --    0.11126   0.11667   0.11983   0.12759   0.13102

 Mulliken charges:
               1
     1  C   -2.309460
     2  C   -0.762906
     3  C    0.055909
     4  C   -1.338468
     5  H    0.149936
     6  H    0.295833
     7  H    0.186088
     8  H   -0.002515
     9  H    0.396965
    10  H    0.173479
    11  H    0.209482
    12  H    0.155815
    13  H    0.202997
    14  N   -0.153396
    15  N    0.585687
    16  N    0.602621
    17  N    0.716801
    18  N    0.604511
    19  N   -0.380049
    20  N    0.610672
 Sum of Mulliken charges =  -0.00000

 Dipole moment (field-independent basis, Debye):
    X=             10.5144    Y=              3.1039    Z=             -0.7976  Tot=             10.9919

 Test job not archived.
 1\1\GINC-SE247\SP\RHF\Aug-CC-pVDZ\C4H9N7\OHZDE\08-Apr-2025\0\\#t hf au
 g-cc-pvdz iop(5/13=1,5/36=2,99/5=2) pseudo=read geom=check guess=(read
 ,tcheck) scf=(maxcycle=1)\\title\\0,1\C,0,2.11254,-0.400938,-0.0014761
 3\C,0,0.736731,1.56477,0.613298\C,0,-0.623527,1.86523,-0.0199099\C,0,-
 1.45427,0.532255,-0.0889946\H,0,0.0170428,-1.02951,0.595517\H,0,-0.472
 137,2.27732,-1.07106\H,0,-1.21131,2.5988,0.535019\H,0,1.16969,2.52897,
 0.910558\H,0,0.631682,0.994811,1.60194\H,0,1.80767,-2.13055,0.851367\H
 ,0,3.37961,-1.79131,-0.907365\H,0,3.96449,-0.155461,-0.881829\H,0,1.95

 Normal termination of Gaussian 16 at Tue Apr  8 22:18:19 2025.
