 Gaussian 16, Revision C.01,

 ----------------------------------------------------------------------
 #t hf aug-cc-pvdz symm=none int=(grid=ultrafine) guess=(read,tcheck) s
 table=(opt,rrhf)
 ----------------------------------------------------------------------
 -----
 title
 -----
 Symbolic Z-matrix:
 Charge =  0 Multiplicity = 1

 SCF Done:  E(RHF) =  -869.339583474     A.U. after   14 cycles
 Normal termination of Gaussian 16 at Tue Apr  8 20:18:24 2025.
 Gaussian 16:  ES64L-G16RevC.01  3-Jul-2019

 ----------------------------------------------------------------------
 #t hf aug-cc-pvdz iop(5/13=1,5/36=2,99/5=2) pseudo=read geom=check gue
 ss=(read,tcheck) scf=(maxcycle=1)
 ----------------------------------------------------------------------
 -----
 title
 -----
 Structure from the checkpoint file:  "ANI1ccx_1593_conf10_mol2.chk"
 Charge =  0 Multiplicity = 1

                         Standard orientation:
 ---------------------------------------------------------------------
 Center     Atomic      Atomic             Coordinates (Angstroms)
 Number     Number       Type             X           Y           Z
 ---------------------------------------------------------------------
      1          6           0       -1.621059   -0.481807    0.122837
      2          6           0       -0.390555    0.159525   -0.488860
      3          6           0       -2.782909    0.432098   -0.213818
      4          6           0       -4.103369   -0.201505   -0.117139
      5          6           0        2.036641   -0.006268   -0.543683
      6          6           0        3.171381   -1.038640   -0.609258
      7          6           0        2.601511    1.183050    0.309170
      8          6           0        1.905181    2.537430    0.285627
      9          1           0        3.645051   -2.811950   -0.061552
     10          1           0        2.422680    3.210510    1.041921
     11          1           0        0.845999    2.544090    0.513784
     12          1           0        1.987110    2.991510   -0.702192
     13          1           0        1.826011    0.572628    1.972901
     14          1           0        3.629131    1.324860   -0.004133
     15          1           0        1.928451    0.366402   -1.579359
     16          1           0        0.645735   -1.059270    0.658966
     17          1           0       -5.877479    0.045996   -0.694798
     18          1           0       -2.814249    1.271250    0.527788
     19          1           0       -2.672859    0.964777   -1.154189
     20          1           0       -1.825859   -1.465180   -0.288239
     21          1           0       -1.465749    0.181104    1.997771
     22          1           0       -2.300499   -1.213670    1.822921
     23          7           0       -1.447049   -0.752743    1.547691
     24          7           0        0.799572   -0.392636   -0.063607
     25          8           0       -0.497297    1.103790   -1.271899
     26          8           0       -4.330159   -1.152950    0.569232
     27          8           0       -5.043459    0.506632   -0.778631
     28          8           0        4.260861   -0.738870   -0.953842
     29          8           0        2.723331    0.766246    1.676001
     30          8           0        2.843971   -2.285940   -0.104537
 ---------------------------------------------------------------------

 SCF Done:  E(RHF) =  -870.211742717     A.U. after    2 cycles

 The electronic state is 1-A.
 Alpha  occ. eigenvalues --  -20.61513 -20.60868 -20.55560 -20.55407 -20.55182
 Alpha  occ. eigenvalues --  -20.53410 -15.54445 -15.52107 -11.41103 -11.40759
 Alpha  occ. eigenvalues --  -11.37934 -11.30621 -11.29921 -11.29658 -11.25942
 Alpha  occ. eigenvalues --  -11.23167  -1.56867  -1.55646  -1.47946  -1.47664
 Alpha  occ. eigenvalues --   -1.47370  -1.45321  -1.28404  -1.22819  -1.07795
 Alpha  occ. eigenvalues --   -1.06643  -0.99889  -0.95292  -0.86460  -0.85807
 Alpha  occ. eigenvalues --   -0.83443  -0.81384  -0.77693  -0.75476  -0.73382
 Alpha  occ. eigenvalues --   -0.72155  -0.70735  -0.69991  -0.68718  -0.67659
 Alpha  occ. eigenvalues --   -0.66355  -0.64398  -0.63622  -0.62878  -0.61942
 Alpha  occ. eigenvalues --   -0.61144  -0.60342  -0.58247  -0.58099  -0.57124
 Alpha  occ. eigenvalues --   -0.53684  -0.53506  -0.52571  -0.50048  -0.49642
 Alpha  occ. eigenvalues --   -0.49217  -0.48482  -0.47069  -0.46064  -0.45587
 Alpha  occ. eigenvalues --   -0.44222  -0.41615
 Alpha virt. eigenvalues --    0.02942   0.03418   0.03660   0.04452   0.04556
 Alpha virt. eigenvalues --    0.04985   0.05286   0.05765   0.06142   0.07228
 Alpha virt. eigenvalues --    0.08221   0.08645   0.09167   0.09450   0.11136

 Mulliken charges:
               1
     1  C   -0.674358
     2  C   -0.012292
     3  C   -0.451602
     4  C    2.675410
     5  C   -2.263677
     6  C    3.000575
     7  C    1.505902
     8  C   -0.441175
     9  H    0.398344
    10  H    0.266644
    11  H    0.059387
    12  H    0.166353
    13  H    0.357902
    14  H   -0.039344
    15  H    0.112768
    16  H    0.360719
    17  H    0.417798
    18  H    0.296805
    19  H    0.029051
    20  H    0.080048
    21  H    0.408316
    22  H    0.208098
    23  N    0.269739
    24  N    1.657658
    25  O   -1.357275
    26  O   -1.337686
    27  O   -1.372972
    28  O   -1.352684
    29  O   -1.536704
    30  O   -1.431747
 Sum of Mulliken charges =   0.00000

 Dipole moment (field-independent basis, Debye):
    X=             -3.3877    Y=             -0.5375    Z=              0.3982  Tot=              3.4531

 Test job not archived.
 1\1\GINC-SE097\SP\RHF\Aug-CC-pVDZ\C8H14N2O6\OHZDE\08-Apr-2025\0\\#t hf
  aug-cc-pvdz iop(5/13=1,5/36=2,99/5=2) pseudo=read geom=check guess=(r
 ead,tcheck) scf=(maxcycle=1)\\title\\0,1\C,0,-1.62106,-0.481807,0.1228
 36\C,0,-0.390556,0.159525,-0.488861\C,0,-2.78291,0.432098,-0.213819\C,
 0,-4.10337,-0.201505,-0.11714\C,0,2.03664,-0.00626804,-0.543684\C,0,3.
 17138,-1.03864,-0.609259\C,0,2.60151,1.18305,0.309169\C,0,1.90518,2.53
 743,0.285626\H,0,3.64505,-2.81195,-0.0615525\H,0,2.42268,3.21051,1.041
 92\H,0,0.845998,2.54409,0.513783\H,0,1.98711,2.99151,-0.702193\H,0,1.8

 Normal termination of Gaussian 16 at Tue Apr  8 20:19:01 2025.
