 Gaussian 16, Revision C.01,

 ----------------------------------------------------------------------
 #t hf aug-cc-pvdz symm=none int=(grid=ultrafine) guess=(read,tcheck) s
 table=(opt,rrhf)
 ----------------------------------------------------------------------
 -----
 title
 -----
 Symbolic Z-matrix:
 Charge =  0 Multiplicity = 1

 SCF Done:  E(RHF) =  -484.056742469     A.U. after   15 cycles
 Normal termination of Gaussian 16 at Tue Apr  8 21:47:54 2025.
 Gaussian 16:  ES64L-G16RevC.01  3-Jul-2019

 ----------------------------------------------------------------------
 #t hf aug-cc-pvdz iop(5/13=1,5/36=2,99/5=2) pseudo=read geom=check gue
 ss=(read,tcheck) scf=(maxcycle=1)
 ----------------------------------------------------------------------
 -----
 title
 -----
 Structure from the checkpoint file:  "ANI1ccx_606_conf2_mol2.chk"
 Charge =  0 Multiplicity = 1

                         Standard orientation:
 ---------------------------------------------------------------------
 Center     Atomic      Atomic             Coordinates (Angstroms)
 Number     Number       Type             X           Y           Z
 ---------------------------------------------------------------------
      1          6           0       -1.180969   -0.390357    0.010116
      2          6           0        1.202871   -0.339349   -0.023234
      3          7           0       -1.168717    1.039632   -0.104809
      4          7           0       -0.156615    1.721691   -0.040884
      5          8           0       -2.198210   -0.981089    0.109733
      6          8           0        1.062993    1.005209    0.141982
      7          8           0        2.250660   -0.860629    0.004772
      8          8           0        0.027797   -1.032370   -0.119167
 ---------------------------------------------------------------------

 SCF Done:  E(RHF) =  -484.514652223     A.U. after    2 cycles

 The electronic state is 1-A.
 Alpha  occ. eigenvalues --  -20.69372 -20.69129 -20.62309 -20.60082 -15.74980
 Alpha  occ. eigenvalues --  -15.65420 -11.51393 -11.50264  -1.68900  -1.61289
 Alpha  occ. eigenvalues --   -1.57485  -1.53960  -1.44310  -1.10848  -1.01204
 Alpha  occ. eigenvalues --   -0.93414  -0.81531  -0.79547  -0.75812  -0.72861
 Alpha  occ. eigenvalues --   -0.72085  -0.68947  -0.67191  -0.63034  -0.59498
 Alpha  occ. eigenvalues --   -0.54367  -0.53503  -0.52827  -0.52493
 Alpha virt. eigenvalues --   -0.03118   0.05081   0.07420   0.08285   0.08344
 Alpha virt. eigenvalues --    0.10009   0.10294   0.10883   0.12176   0.12344
 Alpha virt. eigenvalues --    0.14662   0.15703   0.17413   0.18199   0.19048

 Mulliken charges:
               1
     1  C    1.345684
     2  C    2.204837
     3  N   -0.177274
     4  N    0.923761
     5  O   -0.954637
     6  O   -1.174794
     7  O   -1.010382
     8  O   -1.157194
 Sum of Mulliken charges =  -0.00000

 Dipole moment (field-independent basis, Debye):
    X=             -0.2299    Y=              0.7630    Z=             -0.0999  Tot=              0.8031

 Test job not archived.
 1\1\GINC-SE363\SP\RHF\Aug-CC-pVDZ\C2N2O4\OHZDE\08-Apr-2025\0\\#t hf au
 g-cc-pvdz iop(5/13=1,5/36=2,99/5=2) pseudo=read geom=check guess=(read
 ,tcheck) scf=(maxcycle=1)\\title\\0,1\C,0,-1.18097,-0.390359,0.0101157
 \C,0,1.20287,-0.339348,-0.0232338\N,0,-1.16872,1.03963,-0.104809\N,0,-
 0.156619,1.72169,-0.0408844\O,0,-2.19821,-0.981092,0.109733\O,0,1.0629
 9,1.00521,0.141982\O,0,2.25066,-0.860626,0.00477161\O,0,0.0277969,-1.0
 3237,-0.119167\\Version=ES64L-G16RevC.01\State=1-A\HF=-484.5146522\RMS
 D=2.945e-02\Dipole=-0.0904602,0.3001824,-0.039298\Quadrupole=-4.861468

 Normal termination of Gaussian 16 at Tue Apr  8 21:47:57 2025.
