 Gaussian 16, Revision C.01,

 ----------------------------------------------------------------------
 #t hf aug-cc-pvdz symm=none int=(grid=ultrafine) guess=(read,tcheck) s
 table=(opt,rrhf)
 ----------------------------------------------------------------------
 -----
 title
 -----
 Symbolic Z-matrix:
 Charge =  0 Multiplicity = 1

 SCF Done:  E(RHF) =  -410.450686809     A.U. after   14 cycles
 Normal termination of Gaussian 16 at Tue Apr  8 21:42:11 2025.
 Gaussian 16:  ES64L-G16RevC.01  3-Jul-2019

 ----------------------------------------------------------------------
 #t hf aug-cc-pvdz iop(5/13=1,5/36=2,99/5=2) pseudo=read geom=check gue
 ss=(read,tcheck) scf=(maxcycle=1)
 ----------------------------------------------------------------------
 -----
 title
 -----
 Structure from the checkpoint file:  "ANI1ccx_483_conf1_mol2.chk"
 Charge =  0 Multiplicity = 1

                         Standard orientation:
 ---------------------------------------------------------------------
 Center     Atomic      Atomic             Coordinates (Angstroms)
 Number     Number       Type             X           Y           Z
 ---------------------------------------------------------------------
      1          6           0        1.122670   -0.164393   -0.053019
      2          6           0       -1.111190   -0.193386    0.039628
      3          1           0        1.156740    1.838901    0.447797
      4          1           0       -1.224990    1.739690   -0.463512
      5          7           0        0.673899    1.160281   -0.143040
      6          7           0       -0.714674    1.140980    0.165644
      7          8           0        2.239541   -0.598658   -0.012595
      8          8           0       -2.218709   -0.613991   -0.070746
      9          8           0        0.014767   -0.979944    0.075571
 ---------------------------------------------------------------------

 SCF Done:  E(RHF) =  -410.849860448     A.U. after    2 cycles

 The electronic state is 1-A.
 Alpha  occ. eigenvalues --  -20.66115 -20.57253 -20.57167 -15.61676 -15.61133
 Alpha  occ. eigenvalues --  -11.46701 -11.46203  -1.63330  -1.53192  -1.49625
 Alpha  occ. eigenvalues --   -1.38142  -1.18018  -0.94417  -0.93286  -0.81427
 Alpha  occ. eigenvalues --   -0.80797  -0.73234  -0.70142  -0.68322  -0.65896
 Alpha  occ. eigenvalues --   -0.62897  -0.61673  -0.52313  -0.50299  -0.48454
 Alpha  occ. eigenvalues --   -0.47170
 Alpha virt. eigenvalues --    0.01954   0.04474   0.08421   0.09283   0.09485
 Alpha virt. eigenvalues --    0.09576   0.10562   0.10763   0.10986   0.13673
 Alpha virt. eigenvalues --    0.14424   0.14868   0.15382   0.17229   0.18715

 Mulliken charges:
               1
     1  C    1.360268
     2  C    1.340239
     3  H    0.222452
     4  H    0.229760
     5  N    0.059718
     6  N    0.017701
     7  O   -1.059198
     8  O   -1.067347
     9  O   -1.103595
 Sum of Mulliken charges =  -0.00000

 Dipole moment (field-independent basis, Debye):
    X=             -0.0339    Y=              4.0845    Z=              0.0137  Tot=              4.0847

 Test job not archived.
 1\1\GINC-SE074\SP\RHF\Aug-CC-pVDZ\C2H2N2O3\OHZDE\08-Apr-2025\0\\#t hf
 aug-cc-pvdz iop(5/13=1,5/36=2,99/5=2) pseudo=read geom=check guess=(re
 ad,tcheck) scf=(maxcycle=1)\\title\\0,1\C,0,1.12267,-0.164394,-0.05301
 95\C,0,-1.11119,-0.193386,0.0396276\H,0,1.15674,1.8389,0.447797\H,0,-1
 .22499,1.73969,-0.463512\N,0,0.673899,1.16028,-0.14304\N,0,-0.714674,1
 .14098,0.165644\O,0,2.23954,-0.598659,-0.0125952\O,0,-2.21871,-0.61399
 1,-0.0707463\O,0,0.0147664,-0.979944,0.075571\\Version=ES64L-G16RevC.0
 1\State=1-A\HF=-410.8498604\RMSD=1.617e-02\Dipole=-0.0133424,1.6069639

 Normal termination of Gaussian 16 at Tue Apr  8 21:42:14 2025.
