 Gaussian 16, Revision C.01,

 ----------------------------------------------------------------------
 #t hf aug-cc-pvdz symm=none int=(grid=ultrafine) guess=(read,tcheck) s
 table=(opt,rrhf)
 ----------------------------------------------------------------------
 -----
 title
 -----
 Symbolic Z-matrix:
 Charge =  0 Multiplicity = 1

 SCF Done:  E(RHF) =  -376.430063782     A.U. after   15 cycles
 Normal termination of Gaussian 16 at Tue Apr  8 21:42:46 2025.
 Gaussian 16:  ES64L-G16RevC.01  3-Jul-2019

 ----------------------------------------------------------------------
 #t hf aug-cc-pvdz iop(5/13=1,5/36=2,99/5=2) pseudo=read geom=check gue
 ss=(read,tcheck) scf=(maxcycle=1)
 ----------------------------------------------------------------------
 -----
 title
 -----
 Structure from the checkpoint file:  "ANI1ccx_494_conf2_mol1.chk"
 Charge =  0 Multiplicity = 1

                         Standard orientation:
 ---------------------------------------------------------------------
 Center     Atomic      Atomic             Coordinates (Angstroms)
 Number     Number       Type             X           Y           Z
 ---------------------------------------------------------------------
      1          6           0        0.720732    0.153611   -0.030492
      2          6           0       -0.779198   -0.175983   -0.079587
      3          1           0        2.427170   -0.708297   -0.007962
      4          1           0       -1.004210    1.625150    0.237095
      5          8           0        1.503300   -0.941232    0.108063
      6          8           0        1.129660    1.280730   -0.082613
      7          8           0       -1.571350    0.856224    0.087675
      8          8           0       -1.195630   -1.293550   -0.059207
 ---------------------------------------------------------------------

 SCF Done:  E(RHF) =  -376.792596777     A.U. after    2 cycles

 The electronic state is 1-A.
 Alpha  occ. eigenvalues --  -20.63824 -20.62997 -20.59934 -20.56809 -11.45042
 Alpha  occ. eigenvalues --  -11.42857  -1.60342  -1.57783  -1.51120  -1.48644
 Alpha  occ. eigenvalues --   -0.99070  -0.86381  -0.81327  -0.75498  -0.69917
 Alpha  occ. eigenvalues --   -0.69183  -0.65821  -0.63680  -0.60437  -0.54511
 Alpha  occ. eigenvalues --   -0.52263  -0.49651  -0.46177
 Alpha virt. eigenvalues --    0.03016   0.04388   0.06008   0.08086   0.09033
 Alpha virt. eigenvalues --    0.10791   0.11528   0.11828   0.12679   0.14227
 Alpha virt. eigenvalues --    0.18071   0.19369   0.19780   0.21190   0.23228

 Mulliken charges:
               1
     1  C    1.802698
     2  C    1.890783
     3  H    0.370471
     4  H    0.450506
     5  O   -1.159447
     6  O   -1.105696
     7  O   -1.188808
     8  O   -1.060507
 Sum of Mulliken charges =   0.00000

 Dipole moment (field-independent basis, Debye):
    X=              2.6749    Y=              1.6318    Z=              0.0501  Tot=              3.1338

 Test job not archived.
 1\1\GINC-SE074\SP\RHF\Aug-CC-pVDZ\C2H2O4\OHZDE\08-Apr-2025\0\\#t hf au
 g-cc-pvdz iop(5/13=1,5/36=2,99/5=2) pseudo=read geom=check guess=(read
 ,tcheck) scf=(maxcycle=1)\\title\\0,1\C,0,0.720732,0.153611,-0.0304922
 \C,0,-0.779198,-0.175983,-0.0795867\H,0,2.42717,-0.708297,-0.00796193\
 H,0,-1.00421,1.62515,0.237095\O,0,1.5033,-0.941232,0.108063\O,0,1.1296
 6,1.28073,-0.0826128\O,0,-1.57135,0.856224,0.0876745\O,0,-1.19563,-1.2
 9355,-0.0592073\\Version=ES64L-G16RevC.01\State=1-A\HF=-376.7925968\RM
 SD=1.332e-02\Dipole=1.0523863,0.6420062,0.0197182\Quadrupole=1.3816917

 Normal termination of Gaussian 16 at Tue Apr  8 21:42:48 2025.
