 Gaussian 16, Revision C.01,

 ----------------------------------------------------------------------
 #t hf aug-cc-pvdz symm=none int=(grid=ultrafine) guess=(read,tcheck) s
 table=(opt,rrhf)
 ----------------------------------------------------------------------
 -----
 title
 -----
 Symbolic Z-matrix:
 Charge =  0 Multiplicity = 1

 SCF Done:  E(RHF) =  -962.726786949     A.U. after   15 cycles
 Normal termination of Gaussian 16 at Tue Apr  8 22:56:21 2025.
 Gaussian 16:  ES64L-G16RevC.01  3-Jul-2019

 ----------------------------------------------------------------------
 #t hf aug-cc-pvdz iop(5/13=1,5/36=2,99/5=2) pseudo=read geom=check gue
 ss=(read,tcheck) scf=(maxcycle=1)
 ----------------------------------------------------------------------
 -----
 title
 -----
 Structure from the checkpoint file:  "ANI1ccx_98_conf17_mol2.chk"
 Charge =  0 Multiplicity = 1

                         Standard orientation:
 ---------------------------------------------------------------------
 Center     Atomic      Atomic             Coordinates (Angstroms)
 Number     Number       Type             X           Y           Z
 ---------------------------------------------------------------------
      1          6           0        2.026941   -0.292791    0.258268
      2          6           0       -1.837699   -1.687720    1.567280
      3          6           0       -2.140069   -0.264548    1.923650
      4          6           0       -0.941506    0.666810    1.684660
      5          6           0       -1.528819    2.114350   -0.397769
      6          6           0       -2.356349   -1.619320   -0.839845
      7          6           0        3.833781   -2.090060    0.483945
      8          6           0        3.499131   -0.667170    0.172732
      9          6           0        1.898491    1.227600    0.204183
     10          6           0       -0.559311    1.097850    0.284362
     11          1           0       -2.979879    0.113506    1.370450
     12          1           0       -2.009029    0.802071   -1.792770
     13          1           0       -4.327609   -1.631130   -1.375360
     14          1           0       -4.074689   -2.002190    0.201165
     15          1           0       -0.900745   -1.320860   -1.990540
     16          1           0       -0.579983   -1.855050   -0.098031
     17          1           0       -2.629579   -2.388840    1.755420
     18          1           0       -0.957767   -2.000200    2.163540
     19          1           0       -2.382659   -0.236396    2.963260
     20          1           0       -1.074569    1.543950    2.343110
     21          1           0       -0.512312    0.194916   -0.287419
     22          1           0        1.369951   -0.390899   -1.610050
     23          1           0        0.632819    2.832980    0.375472
     24          1           0        3.325021   -2.461550    1.318280
     25          1           0        4.863191   -2.146690    0.725354
     26          1           0        3.644211   -2.718910   -0.428977
     27          1           0        4.101811    0.615896   -1.111220
     28          1           0        4.014021   -0.008678    0.936080
     29          1           0        1.622361   -0.717415    1.161290
     30          1           0        1.649021   -1.805640   -0.933999
     31          1           0       -0.125503    0.124942    2.052850
     32          7           0        1.181421   -0.926825   -0.780265
     33          7           0        0.683532    1.820410    0.302583
     34          7           0       -1.550529   -1.998590    0.195995
     35          7           0       -1.889139   -1.188850   -1.983720
     36          7           0       -3.676679   -1.596800   -0.613968
     37          8           0        3.974061   -0.341893   -1.136540
     38          8           0       -1.683059    3.209410    0.117055
     39          8           0        2.877891    1.961400   -0.030062
     40          8           0       -2.328379    1.643680   -1.404340
 ---------------------------------------------------------------------

 SCF Done:  E(RHF) =  -963.716221508     A.U. after    2 cycles

 The electronic state is 1-A.
 Alpha  occ. eigenvalues --  -20.58532 -20.54892 -20.53803 -20.52478 -15.54157
 Alpha  occ. eigenvalues --  -15.53454 -15.53031 -15.52409 -15.45822 -11.39932
 Alpha  occ. eigenvalues --  -11.37973 -11.36665 -11.30469 -11.30116 -11.29739
 Alpha  occ. eigenvalues --  -11.29118 -11.24976 -11.24718 -11.24031  -1.52038
 Alpha  occ. eigenvalues --   -1.46959  -1.44844  -1.44324  -1.32840  -1.27329
 Alpha  occ. eigenvalues --   -1.23477  -1.22046  -1.16283  -1.10212  -1.06661
 Alpha  occ. eigenvalues --   -1.03031  -0.99015  -0.94402  -0.89106  -0.87016
 Alpha  occ. eigenvalues --   -0.85676  -0.82097  -0.80980  -0.79797  -0.76549
 Alpha  occ. eigenvalues --   -0.75665  -0.72106  -0.72002  -0.71210  -0.70627
 Alpha  occ. eigenvalues --   -0.69430  -0.67819  -0.67294  -0.66942  -0.65555
 Alpha  occ. eigenvalues --   -0.64172  -0.63358  -0.61631  -0.61143  -0.59724
 Alpha  occ. eigenvalues --   -0.58850  -0.57744  -0.57366  -0.56723  -0.56390
 Alpha  occ. eigenvalues --   -0.55559  -0.53748  -0.52895  -0.51220  -0.50365
 Alpha  occ. eigenvalues --   -0.49387  -0.48627  -0.46444  -0.45944  -0.44942
 Alpha  occ. eigenvalues --   -0.44363  -0.43223  -0.41709  -0.40595
 Alpha virt. eigenvalues --    0.01852   0.02216   0.02698   0.03544   0.03767
 Alpha virt. eigenvalues --    0.04403   0.04898   0.05906   0.06241   0.06640
 Alpha virt. eigenvalues --    0.06726   0.06816   0.07904   0.08362   0.08602

 Mulliken charges:
               1
     1  C   -0.098905
     2  C   -0.960219
     3  C    0.007760
     4  C    0.067842
     5  C    2.633556
     6  C   -3.674216
     7  C   -0.127563
     8  C    0.804024
     9  C    0.504156
    10  C   -1.812393
    11  H    0.154718
    12  H    0.742970
    13  H    0.155785
    14  H    0.130615
    15  H    0.252320
    16  H    0.316436
    17  H   -0.057297
    18  H    0.158247
    19  H    0.103129
    20  H    0.143451
    21  H   -0.006746
    22  H    0.565919
    23  H    0.283202
    24  H    0.096467
    25  H    0.068480
    26  H    0.338319
    27  H    0.326275
    28  H    0.202582
    29  H    0.143721
    30  H    0.277173
    31  H    0.106101
    32  N   -0.791811
    33  N    1.126932
    34  N    1.528341
    35  N    1.126772
    36  N    1.017059
    37  O   -1.382555
    38  O   -1.455831
    39  O   -1.467265
    40  O   -1.547552
 Sum of Mulliken charges =  -0.00000

 Dipole moment (field-independent basis, Debye):
    X=             -0.5784    Y=             -6.4731    Z=              4.7001  Tot=              8.0204

 Test job not archived.
 1\1\GINC-SE150\SP\RHF\Aug-CC-pVDZ\C10H21N5O4\OHZDE\08-Apr-2025\0\\#t h
 f aug-cc-pvdz iop(5/13=1,5/36=2,99/5=2) pseudo=read geom=check guess=(
 read,tcheck) scf=(maxcycle=1)\\title\\0,1\C,0,2.02694,-0.292791,0.2582
 68\C,0,-1.8377,-1.68772,1.56728\C,0,-2.14007,-0.264548,1.92365\C,0,-0.
 941507,0.66681,1.68466\C,0,-1.52882,2.11435,-0.397769\C,0,-2.35635,-1.
 61932,-0.839845\C,0,3.83378,-2.09006,0.483945\C,0,3.49913,-0.66717,0.1
 72732\C,0,1.89849,1.2276,0.204183\C,0,-0.559312,1.09785,0.284362\H,0,-
 2.97988,0.113506,1.37045\H,0,-2.00903,0.802071,-1.79277\H,0,-4.32761,-

 Normal termination of Gaussian 16 at Tue Apr  8 22:57:49 2025.
