 Gaussian 16, Revision C.01,

 ----------------------------------------------------------------------
 #t hf aug-cc-pvdz symm=none int=(grid=ultrafine) guess=(read,tcheck) s
 table=(opt,rrhf)
 ----------------------------------------------------------------------
 -----
 title
 -----
 Symbolic Z-matrix:
 Charge =  0 Multiplicity = 1

 SCF Done:  E(RHF) =  -689.333451739     A.U. after   14 cycles
 Normal termination of Gaussian 16 at Tue Apr  8 21:54:47 2025.
 Gaussian 16:  ES64L-G16RevC.01  3-Jul-2019

 ----------------------------------------------------------------------
 #t hf aug-cc-pvdz iop(5/13=1,5/36=2,99/5=2) pseudo=read geom=check gue
 ss=(read,tcheck) scf=(maxcycle=1)
 ----------------------------------------------------------------------
 -----
 title
 -----
 Structure from the checkpoint file:  "ANI1ccx_756_conf6_mol1.chk"
 Charge =  0 Multiplicity = 1

                         Standard orientation:
 ---------------------------------------------------------------------
 Center     Atomic      Atomic             Coordinates (Angstroms)
 Number     Number       Type             X           Y           Z
 ---------------------------------------------------------------------
      1          6           0       -2.706700   -0.129279   -0.143549
      2          6           0        0.006742    1.289140    0.496410
      3          6           0        1.926050    0.127310    0.054823
      4          1           0        3.738690    0.783106    0.926097
      5          1           0       -0.498757    1.742600    1.334310
      6          1           0       -0.367610    0.346417   -1.117790
      7          1           0        3.486600   -0.865364   -1.202370
      8          1           0       -2.728860   -1.957550    0.573878
      9          1           0       -0.177051   -1.481840    0.379060
     10          1           0       -2.623430    1.757480   -0.797262
     11          7           0       -2.030950   -1.365750    0.089542
     12          7           0       -2.111990    1.084450   -0.300821
     13          7           0       -0.715627    1.139200   -0.610356
     14          7           0        1.256090    1.085701    0.704590
     15          7           0        3.250380    0.155222    0.322737
     16          8           0        1.486560   -0.765200   -0.678753
     17          8           0       -0.916672   -1.226450    0.964642
     18          8           0       -3.909580   -0.216165   -0.292091
     19          8           0        4.124510   -0.634639   -0.491532
 ---------------------------------------------------------------------

 SCF Done:  E(RHF) =  -690.020812510     A.U. after    2 cycles

 The electronic state is 1-A.
 Alpha  occ. eigenvalues --  -20.61226 -20.60703 -20.53635 -20.53518 -15.60660
 Alpha  occ. eigenvalues --  -15.60336 -15.59952 -15.58433 -15.50841 -11.41581
 Alpha  occ. eigenvalues --  -11.40583 -11.37841  -1.52761  -1.52091  -1.49427
 Alpha  occ. eigenvalues --   -1.47261  -1.38880  -1.29005  -1.20956  -1.17318
 Alpha  occ. eigenvalues --   -1.16058  -0.96811  -0.92172  -0.88931  -0.83601
 Alpha  occ. eigenvalues --   -0.82890  -0.77475  -0.73332  -0.72624  -0.71930
 Alpha  occ. eigenvalues --   -0.69398  -0.67118  -0.66899  -0.65639  -0.63227
 Alpha  occ. eigenvalues --   -0.62447  -0.59813  -0.56253  -0.53962  -0.52728
 Alpha  occ. eigenvalues --   -0.51061  -0.47989  -0.46407  -0.45766  -0.45215
 Alpha  occ. eigenvalues --   -0.42101
 Alpha virt. eigenvalues --    0.03072   0.04383   0.04841   0.04931   0.05341
 Alpha virt. eigenvalues --    0.06138   0.06454   0.07739   0.08822   0.09613
 Alpha virt. eigenvalues --    0.10257   0.11454   0.12578   0.13209   0.13559

 Mulliken charges:
               1
     1  C    0.270655
     2  C   -1.160648
     3  C   -0.200196
     4  H    0.084086
     5  H   -0.162112
     6  H    0.227961
     7  H    0.393662
     8  H    0.262944
     9  H    0.473884
    10  H    0.150364
    11  N    0.937583
    12  N    0.432023
    13  N    0.515656
    14  N    1.121866
    15  N    1.415244
    16  O   -1.194860
    17  O   -1.174483
    18  O   -1.225941
    19  O   -1.167688
 Sum of Mulliken charges =  -0.00000

 Dipole moment (field-independent basis, Debye):
    X=              0.0377    Y=              2.0934    Z=             -0.0918  Tot=              2.0958

 Test job not archived.
 1\1\GINC-SE250\SP\RHF\Aug-CC-pVDZ\C3H7N5O4\OHZDE\08-Apr-2025\0\\#t hf
 aug-cc-pvdz iop(5/13=1,5/36=2,99/5=2) pseudo=read geom=check guess=(re
 ad,tcheck) scf=(maxcycle=1)\\title\\0,1\C,0,-2.7067,-0.129279,-0.14354
 9\C,0,0.00674226,1.28914,0.49641\C,0,1.92605,0.127309,0.0548226\H,0,3.
 73869,0.783105,0.926097\H,0,-0.498757,1.7426,1.33431\H,0,-0.36761,0.34
 6417,-1.11779\H,0,3.4866,-0.865365,-1.20237\H,0,-2.72886,-1.95755,0.57
 3878\H,0,-0.177051,-1.48184,0.37906\H,0,-2.62343,1.75748,-0.797262\N,0
 ,-2.03095,-1.36575,0.0895419\N,0,-2.11199,1.08445,-0.300821\N,0,-0.715

 Normal termination of Gaussian 16 at Tue Apr  8 21:54:59 2025.
