 Gaussian 16, Revision C.01,

 ----------------------------------------------------------------------
 #t hf aug-cc-pvdz symm=none int=(grid=ultrafine) guess=(read,tcheck) s
 table=(opt,rrhf)
 ----------------------------------------------------------------------
 -----
 title
 -----
 Symbolic Z-matrix:
 Charge =  0 Multiplicity = 1

 SCF Done:  E(RHF) =  -425.756535944     A.U. after   14 cycles
 Normal termination of Gaussian 16 at Tue Apr  8 21:46:11 2025.
 Gaussian 16:  ES64L-G16RevC.01  3-Jul-2019

 ----------------------------------------------------------------------
 #t hf aug-cc-pvdz iop(5/13=1,5/36=2,99/5=2) pseudo=read geom=check gue
 ss=(read,tcheck) scf=(maxcycle=1)
 ----------------------------------------------------------------------
 -----
 title
 -----
 Structure from the checkpoint file:  "ANI1ccx_543_conf1_mol1.chk"
 Charge =  0 Multiplicity = 1

                         Standard orientation:
 ---------------------------------------------------------------------
 Center     Atomic      Atomic             Coordinates (Angstroms)
 Number     Number       Type             X           Y           Z
 ---------------------------------------------------------------------
      1          6           0        1.344539   -0.091961    0.085931
      2          6           0       -0.745719    0.848715    0.008854
      3          1           0        2.972578   -1.149522    0.086109
      4          1           0        3.298349    0.487553    0.043756
      5          1           0       -2.158372   -1.780728    0.883517
      6          1           0       -2.664662   -1.096258   -0.615648
      7          1           0        1.127280    1.941610    0.008876
      8          7           0        2.663079   -0.260689   -0.108919
      9          7           0        0.437759   -1.109360   -0.030886
     10          7           0       -0.812126   -0.539148    0.051371
     11          7           0       -1.897382   -1.446688   -0.069903
     12          7           0        0.628555    1.094150    0.056878
     13          8           0       -1.663410    1.611121   -0.033139
 ---------------------------------------------------------------------

 SCF Done:  E(RHF) =  -426.182195728     A.U. after    2 cycles

 The electronic state is 1-A.
 Alpha  occ. eigenvalues --  -20.50640 -15.57574 -15.56853 -15.54928 -15.53986
 Alpha  occ. eigenvalues --  -15.51075 -11.39228 -11.37134  -1.48024  -1.38494
 Alpha  occ. eigenvalues --   -1.29172  -1.24887  -1.16826  -1.05354  -0.91040
 Alpha  occ. eigenvalues --   -0.89458  -0.81910  -0.76957  -0.75617  -0.73406
 Alpha  occ. eigenvalues --   -0.69978  -0.67767  -0.63996  -0.58263  -0.53837
 Alpha  occ. eigenvalues --   -0.52279  -0.48433  -0.47514  -0.44124  -0.33602
 Alpha virt. eigenvalues --    0.01740   0.04020   0.04899   0.05434   0.06742
 Alpha virt. eigenvalues --    0.09293   0.10314   0.10577   0.11134   0.12539
 Alpha virt. eigenvalues --    0.13180   0.13886   0.15062   0.15288   0.16086

 Mulliken charges:
               1
     1  C   -1.137214
     2  C    0.864944
     3  H    0.154814
     4  H    0.114168
     5  H    0.192213
     6  H    0.086926
     7  H    0.076366
     8  N    0.573346
     9  N    0.061459
    10  N   -0.771726
    11  N    0.479007
    12  N    0.472227
    13  O   -1.166531
 Sum of Mulliken charges =   0.00000

 Dipole moment (field-independent basis, Debye):
    X=              4.5080    Y=              1.0599    Z=              1.2541  Tot=              4.7978

 Test job not archived.
 1\1\GINC-SE453\SP\RHF\Aug-CC-pVDZ\C2H5N5O1\OHZDE\08-Apr-2025\0\\#t hf
 aug-cc-pvdz iop(5/13=1,5/36=2,99/5=2) pseudo=read geom=check guess=(re
 ad,tcheck) scf=(maxcycle=1)\\title\\0,1\C,0,1.34454,-0.0919604,0.08593
 07\C,0,-0.745719,0.848714,0.00885422\H,0,2.97258,-1.14952,0.0861092\H,
 0,3.29835,0.487555,0.0437564\H,0,-2.15837,-1.78073,0.883517\H,0,-2.664
 66,-1.09626,-0.615648\H,0,1.12728,1.94161,0.00887604\N,0,2.66308,-0.26
 0688,-0.108919\N,0,0.437761,-1.10936,-0.0308863\N,0,-0.812125,-0.53914
 9,0.0513709\N,0,-1.89738,-1.44669,-0.0699028\N,0,0.628555,1.09415,0.05

 Normal termination of Gaussian 16 at Tue Apr  8 21:46:15 2025.
