 Gaussian 16, Revision C.01,

 ----------------------------------------------------------------------
 #t hf aug-cc-pvdz symm=none int=(grid=ultrafine) guess=(read,tcheck) s
 table=(opt,rrhf)
 ----------------------------------------------------------------------
 -----
 title
 -----
 Symbolic Z-matrix:
 Charge =  0 Multiplicity = 1

 SCF Done:  E(RHF) =  -407.092039259     A.U. after   14 cycles
 Normal termination of Gaussian 16 at Tue Apr  8 21:48:30 2025.
 Gaussian 16:  ES64L-G16RevC.01  3-Jul-2019

 ----------------------------------------------------------------------
 #t hf aug-cc-pvdz iop(5/13=1,5/36=2,99/5=2) pseudo=read geom=check gue
 ss=(read,tcheck) scf=(maxcycle=1)
 ----------------------------------------------------------------------
 -----
 title
 -----
 Structure from the checkpoint file:  "ANI1ccx_588_conf7_mol1.chk"
 Charge =  0 Multiplicity = 1

                         Standard orientation:
 ---------------------------------------------------------------------
 Center     Atomic      Atomic             Coordinates (Angstroms)
 Number     Number       Type             X           Y           Z
 ---------------------------------------------------------------------
      1          6           0       -1.581261   -0.073044   -0.116663
      2          6           0        1.784329    0.030409    0.073756
      3          1           0       -2.497120   -1.084299    1.534140
      4          1           0       -1.306100   -1.943109    0.481679
      5          1           0       -3.487581    0.584653    0.265332
      6          1           0       -2.719121    1.308871   -1.059300
      7          1           0        0.817951   -1.172009   -1.092530
      8          1           0        1.000879    1.841871    0.073586
      9          1           0        2.418769    1.520211    1.042980
     10          1           0        2.881470   -1.298069   -0.738066
     11          7           0       -1.739100   -1.080659    0.772187
     12          7           0       -2.645371    0.805654   -0.213164
     13          7           0       -0.484717    0.171633   -0.820015
     14          7           0        0.608969   -0.594639   -0.369581
     15          7           0        1.513289    1.230361    0.693954
     16          7           0        2.985850   -0.461250   -0.099148
 ---------------------------------------------------------------------

 SCF Done:  E(RHF) =  -407.512192769     A.U. after    2 cycles

 The electronic state is 1-A.
 Alpha  occ. eigenvalues --  -15.53948 -15.53074 -15.51526 -15.49379 -15.49163
 Alpha  occ. eigenvalues --  -15.45147 -11.37307 -11.33288  -1.33376  -1.28029
 Alpha  occ. eigenvalues --   -1.21273  -1.18942  -1.13408  -1.07105  -0.87132
 Alpha  occ. eigenvalues --   -0.83031  -0.79274  -0.77510  -0.75392  -0.70758
 Alpha  occ. eigenvalues --   -0.69096  -0.66945  -0.63305  -0.62216  -0.58781
 Alpha  occ. eigenvalues --   -0.52793  -0.47808  -0.47017  -0.43429  -0.40971
 Alpha  occ. eigenvalues --   -0.37799
 Alpha virt. eigenvalues --    0.01925   0.03750   0.04265   0.05413   0.06026
 Alpha virt. eigenvalues --    0.06333   0.07271   0.07925   0.10821   0.11563
 Alpha virt. eigenvalues --    0.12379   0.13215   0.14004   0.14787   0.14903

 Mulliken charges:
               1
     1  C   -2.059677
     2  C   -1.905893
     3  H    0.086770
     4  H    0.182909
     5  H    0.069535
     6  H    0.058683
     7  H    0.229987
     8  H    0.230629
     9  H    0.238281
    10  H    0.119335
    11  N    0.605967
    12  N    0.602250
    13  N    0.337238
    14  N    0.080444
    15  N    0.561933
    16  N    0.561608
 Sum of Mulliken charges =   0.00000

 Dipole moment (field-independent basis, Debye):
    X=             -6.9703    Y=             -0.9078    Z=              0.1192  Tot=              7.0302

 Test job not archived.
 1\1\GINC-SE110\SP\RHF\Aug-CC-pVDZ\C2H8N6\OHZDE\08-Apr-2025\0\\#t hf au
 g-cc-pvdz iop(5/13=1,5/36=2,99/5=2) pseudo=read geom=check guess=(read
 ,tcheck) scf=(maxcycle=1)\\title\\0,1\C,0,-1.58126,-0.0730443,-0.11666
 3\C,0,1.78433,0.0304082,0.0737558\H,0,-2.49712,-1.0843,1.53414\H,0,-1.
 3061,-1.94311,0.481679\H,0,-3.48758,0.584652,0.265332\H,0,-2.71912,1.3
 0887,-1.0593\H,0,0.817951,-1.17201,-1.09253\H,0,1.00088,1.84187,0.0735
 86\H,0,2.41877,1.52021,1.04298\H,0,2.88147,-1.29807,-0.738066\N,0,-1.7
 391,-1.08066,0.772187\N,0,-2.64537,0.805653,-0.213164\N,0,-0.484716,0.

 Normal termination of Gaussian 16 at Tue Apr  8 21:48:36 2025.
