 Gaussian 16, Revision C.01,

 ----------------------------------------------------------------------
 #t hf aug-cc-pvdz symm=none int=(grid=ultrafine) guess=(read,tcheck) s
 table=(opt,rrhf)
 ----------------------------------------------------------------------
 -----
 title
 -----
 Symbolic Z-matrix:
 Charge =  0 Multiplicity = 1

 SCF Done:  E(RHF) =  -456.250015159     A.U. after   11 cycles
 Normal termination of Gaussian 16 at Tue Apr  8 21:06:47 2025.
 Gaussian 16:  ES64L-G16RevC.01  3-Jul-2019

 ----------------------------------------------------------------------
 #t hf aug-cc-pvdz iop(5/13=1,5/36=2,99/5=2) pseudo=read geom=check gue
 ss=(read,tcheck) scf=(maxcycle=1)
 ----------------------------------------------------------------------
 -----
 title
 -----
 Structure from the checkpoint file:  "ANI1ccx_1844_conf206_mol1.chk"
 Charge =  0 Multiplicity = 1

                         Standard orientation:
 ---------------------------------------------------------------------
 Center     Atomic      Atomic             Coordinates (Angstroms)
 Number     Number       Type             X           Y           Z
 ---------------------------------------------------------------------
      1          1           0        2.280731    0.580958   -0.417983
      2          1           0       -2.253543   -1.663026   -1.298380
      3          1           0       -2.414681   -0.307870   -0.531703
      4          1           0        2.280898   -1.235654   -1.527030
      5          1           0        1.780267   -1.543993    0.027120
      6          1           0       -0.132773   -1.971570    1.661230
      7          1           0        3.011423    1.939965    0.001843
      8          1           0       -0.866237   -1.498628    0.422735
      9          1           0       -0.096008    0.321558    1.123020
     10          1           0        0.646011    1.572969    0.573898
     11          1           0       -1.391508    1.336543   -0.171276
     12          1           0       -2.918267    1.716895    0.072182
     13          8           0        2.582868   -1.198654   -0.487498
     14          8           0       -0.209198    1.284351    0.977059
     15          8           0       -2.204703   -1.292556   -0.383580
     16          8           0        0.036860   -1.537740    0.804447
     17          8           0        2.129662    1.560657   -0.325946
     18          8           0       -2.326278    1.277924   -0.576440
 ---------------------------------------------------------------------

 SCF Done:  E(RHF) =  -456.721726683     A.U. after    2 cycles

 The electronic state is 1-A.
 Alpha  occ. eigenvalues --  -20.57546 -20.56029 -20.55740 -20.55282 -20.54650
 Alpha  occ. eigenvalues --  -20.53153  -1.45762  -1.43467  -1.43072  -1.41735
 Alpha  occ. eigenvalues --   -1.40882  -1.39975  -0.72797  -0.71265  -0.70133
 Alpha  occ. eigenvalues --   -0.69322  -0.69246  -0.68625  -0.62968  -0.59969
 Alpha  occ. eigenvalues --   -0.59260  -0.56560  -0.56478  -0.53718  -0.50282
 Alpha  occ. eigenvalues --   -0.49506  -0.49261  -0.48772  -0.48148  -0.47023
 Alpha virt. eigenvalues --    0.03211   0.04305   0.04507   0.05028   0.06377
 Alpha virt. eigenvalues --    0.07918   0.08252   0.08773   0.09075   0.10275
 Alpha virt. eigenvalues --    0.10876   0.12251   0.16220   0.19245   0.19875

 Mulliken charges:
               1
     1  H    0.706713
     2  H    0.341640
     3  H    0.738659
     4  H    0.456537
     5  H    0.693336
     6  H    0.398528
     7  H    0.383776
     8  H    1.004209
     9  H    0.646819
    10  H    0.689058
    11  H    0.852092
    12  H    0.329145
    13  O   -1.105296
    14  O   -1.350952
    15  O   -1.112210
    16  O   -1.452310
    17  O   -1.058325
    18  O   -1.161418
 Sum of Mulliken charges =  -0.00000

 Dipole moment (field-independent basis, Debye):
    X=              0.0951    Y=             -1.5227    Z=             -0.1431  Tot=              1.5323

 Test job not archived.
 1\1\GINC-SE095\SP\RHF\Aug-CC-pVDZ\H12O6\OHZDE\08-Apr-2025\0\\#t hf aug
 -cc-pvdz iop(5/13=1,5/36=2,99/5=2) pseudo=read geom=check guess=(read,
 tcheck) scf=(maxcycle=1)\\title\\0,1\H,0,2.28073,0.580962,-0.417983\H,
 0,-2.25354,-1.66303,-1.29838\H,0,-2.41468,-0.307874,-0.531703\H,0,2.28
 09,-1.23565,-1.52703\H,0,1.78027,-1.54399,0.0271203\H,0,-0.132769,-1.9
 7157,1.66123\H,0,3.01142,1.93997,0.00184304\H,0,-0.866234,-1.49863,0.4
 22735\H,0,-0.0960079,0.321558,1.12302\H,0,0.646009,1.57297,0.573898\H,
 0,-1.39151,1.33654,-0.171276\H,0,-2.91827,1.71689,0.0721818\O,0,2.5828

 Normal termination of Gaussian 16 at Tue Apr  8 21:06:52 2025.
