 Gaussian 16, Revision C.01,

 ----------------------------------------------------------------------
 #t hf aug-cc-pvdz symm=none int=(grid=ultrafine) guess=(read,tcheck) s
 table=(opt,rrhf)
 ----------------------------------------------------------------------
 -----
 title
 -----
 Symbolic Z-matrix:
 Charge =  0 Multiplicity = 1

 SCF Done:  E(RHF) =  -979.134184089     A.U. after   14 cycles
 Normal termination of Gaussian 16 at Tue Apr  8 21:36:54 2025.
 Gaussian 16:  ES64L-G16RevC.01  3-Jul-2019

 ----------------------------------------------------------------------
 #t hf aug-cc-pvdz iop(5/13=1,5/36=2,99/5=2) pseudo=read geom=check gue
 ss=(read,tcheck) scf=(maxcycle=1)
 ----------------------------------------------------------------------
 -----
 title
 -----
 Structure from the checkpoint file:  "ANI1ccx_36_conf17_mol2.chk"
 Charge =  0 Multiplicity = 1

                         Standard orientation:
 ---------------------------------------------------------------------
 Center     Atomic      Atomic             Coordinates (Angstroms)
 Number     Number       Type             X           Y           Z
 ---------------------------------------------------------------------
      1          6           0       -3.046031   -0.511187    0.135833
      2          6           0        2.070442    2.629209    0.253873
      3          6           0        1.902240    0.690992   -0.627608
      4          6           0        1.268119   -0.436344   -1.439150
      5          6           0        1.498978   -2.117031    0.471346
      6          6           0        3.079330    0.717619   -0.038037
      7          6           0       -1.875439    1.678152    0.233134
      8          6           0       -3.209319    0.986346   -0.050302
      9          6           0       -1.833241   -1.081388   -0.641436
     10          6           0        0.562612   -1.509170   -0.574761
     11          1           0        2.014319   -0.967723   -2.050080
     12          1           0        3.077037   -3.181962    0.637111
     13          1           0        3.946312    2.322177    1.089720
     14          1           0        1.738383    3.592659    0.683128
     15          1           0        3.910420   -0.002313    0.057761
     16          1           0        0.567171   -0.018866   -2.190280
     17          1           0        0.273290   -2.352120   -1.234600
     18          1           0       -0.574206   -0.613757    0.917724
     19          1           0       -0.389495    2.338601   -0.680578
     20          1           0       -3.969889    1.427764    0.622907
     21          1           0       -3.511069    1.171833   -1.085700
     22          1           0       -3.966581   -1.001756   -0.246584
     23          1           0       -2.344521   -0.329442    2.091170
     24          1           0       -2.857232   -1.880287    1.739130
     25          7           0       -2.994931   -0.884772    1.560740
     26          7           0       -0.652633   -1.074989    0.011416
     27          7           0        1.238121    1.898839   -0.474613
     28          7           0        3.184691    1.957538    0.552711
     29          8           0       -1.974791   -1.516208   -1.765070
     30          8           0       -1.299259    1.628251    1.272020
     31          8           0       -1.354598    2.222271   -0.873783
     32          8           0        1.363778   -2.047121    1.649330
     33          8           0        2.534017   -2.795232   -0.062487
 ---------------------------------------------------------------------

 SCF Done:  E(RHF) =  -980.111008693     A.U. after    2 cycles

 The electronic state is 1-A.
 Alpha  occ. eigenvalues --  -20.61177 -20.56000 -20.55118 -20.52460 -20.50547
 Alpha  occ. eigenvalues --  -15.58421 -15.52394 -15.50980 -15.48089 -11.40545
 Alpha  occ. eigenvalues --  -11.37776 -11.34970 -11.33031 -11.30312 -11.28332
 Alpha  occ. eigenvalues --  -11.28126 -11.27316 -11.26018 -11.25065  -1.56888
 Alpha  occ. eigenvalues --   -1.53296  -1.47158  -1.45913  -1.44192  -1.37380
 Alpha  occ. eigenvalues --   -1.26132  -1.20239  -1.18300  -1.08908  -1.04810
 Alpha  occ. eigenvalues --   -1.03596  -0.95010  -0.91244  -0.88861  -0.85823
 Alpha  occ. eigenvalues --   -0.83903  -0.81953  -0.79359  -0.78719  -0.74235
 Alpha  occ. eigenvalues --   -0.72112  -0.71326  -0.70120  -0.69409  -0.67955
 Alpha  occ. eigenvalues --   -0.67288  -0.67003  -0.66361  -0.65152  -0.64145
 Alpha  occ. eigenvalues --   -0.63164  -0.61500  -0.61010  -0.60315  -0.59352
 Alpha  occ. eigenvalues --   -0.56572  -0.55917  -0.54762  -0.54140  -0.53493
 Alpha  occ. eigenvalues --   -0.52419  -0.49578  -0.49092  -0.46815  -0.46615
 Alpha  occ. eigenvalues --   -0.45930  -0.45329  -0.42936  -0.41671  -0.39425
 Alpha  occ. eigenvalues --   -0.36390
 Alpha virt. eigenvalues --    0.01788   0.02872   0.04040   0.04361   0.04785
 Alpha virt. eigenvalues --    0.04804   0.05725   0.06086   0.06265   0.06864
 Alpha virt. eigenvalues --    0.07416   0.08402   0.09103   0.09648   0.09783

 Mulliken charges:
               1
     1  C   -1.278037
     2  C   -0.779005
     3  C   -0.117840
     4  C   -0.253739
     5  C    3.361359
     6  C   -0.876092
     7  C    2.964589
     8  C   -0.572688
     9  C    0.663661
    10  C   -2.491168
    11  H    0.139522
    12  H    0.416463
    13  H   -0.070561
    14  H   -0.119552
    15  H   -0.242864
    16  H    0.174628
    17  H    0.121735
    18  H    0.353797
    19  H    0.598297
    20  H    0.275870
    21  H    0.135910
    22  H    0.093143
    23  H    0.168856
    24  H    0.181778
    25  N    0.643369
    26  N    1.887218
    27  N    1.200467
    28  N    1.062906
    29  O   -1.524322
    30  O   -1.541510
    31  O   -1.647795
    32  O   -1.416945
    33  O   -1.511450
 Sum of Mulliken charges =  -0.00000

 Dipole moment (field-independent basis, Debye):
    X=              6.7003    Y=              1.3321    Z=              1.5146  Tot=              6.9973

 Test job not archived.
 1\1\GINC-SE343\SP\RHF\Aug-CC-pVDZ\C10H14N4O5\OHZDE\08-Apr-2025\0\\#t h
 f aug-cc-pvdz iop(5/13=1,5/36=2,99/5=2) pseudo=read geom=check guess=(
 read,tcheck) scf=(maxcycle=1)\\title\\0,1\C,0,-3.04603,-0.51119,0.1358
 33\C,0,2.07044,2.62921,0.253873\C,0,1.90224,0.690993,-0.627608\C,0,1.2
 6812,-0.436343,-1.43915\C,0,1.49898,-2.11703,0.471346\C,0,3.07933,0.71
 7621,-0.0380364\C,0,-1.87544,1.67815,0.233134\C,0,-3.20932,0.986343,-0
 .0503019\C,0,-1.83324,-1.08139,-0.641436\C,0,0.562613,-1.50917,-0.5747
 61\H,0,2.01432,-0.967722,-2.05008\H,0,3.07704,-3.18196,0.637111\H,0,3.

 Normal termination of Gaussian 16 at Tue Apr  8 21:37:54 2025.
