 Gaussian 16, Revision C.01,

 ----------------------------------------------------------------------
 #t hf aug-cc-pvdz symm=none int=(grid=ultrafine) guess=(read,tcheck) s
 table=(opt,rrhf)
 ----------------------------------------------------------------------
 -----
 title
 -----
 Symbolic Z-matrix:
 Charge =  0 Multiplicity = 1

 SCF Done:  E(RHF) =  -869.310020188     A.U. after   14 cycles
 Normal termination of Gaussian 16 at Tue Apr  8 20:19:56 2025.
 Gaussian 16:  ES64L-G16RevC.01  3-Jul-2019

 ----------------------------------------------------------------------
 #t hf aug-cc-pvdz iop(5/13=1,5/36=2,99/5=2) pseudo=read geom=check gue
 ss=(read,tcheck) scf=(maxcycle=1)
 ----------------------------------------------------------------------
 -----
 title
 -----
 Structure from the checkpoint file:  "ANI1ccx_1593_conf8_mol1.chk"
 Charge =  0 Multiplicity = 1

                         Standard orientation:
 ---------------------------------------------------------------------
 Center     Atomic      Atomic             Coordinates (Angstroms)
 Number     Number       Type             X           Y           Z
 ---------------------------------------------------------------------
      1          6           0       -1.869270    0.590754    0.855088
      2          6           0       -0.697931    0.407504   -0.117053
      3          6           0       -3.175290    0.704070    0.130770
      4          6           0       -3.836389   -0.544219   -0.355774
      5          6           0        1.573061   -0.324954   -0.234416
      6          6           0        2.589471   -1.240189    0.542504
      7          6           0        2.327700    0.912360   -0.776276
      8          6           0        2.946610    1.729241    0.308442
      9          1           0        4.008011   -0.697793   -0.638130
     10          1           0        2.163310    2.084761    1.046920
     11          1           0        3.419870    2.636431   -0.101367
     12          1           0        3.711020    1.183652    0.913859
     13          1           0        2.785921   -0.172738   -2.178480
     14          1           0        1.556700    1.581071   -1.286010
     15          1           0        1.349481   -1.061049   -1.042430
     16          1           0        0.484341   -0.531029    1.429460
     17          1           0       -3.627709   -2.327591   -0.455111
     18          1           0       -3.015770    1.450489   -0.648765
     19          1           0       -3.951870    1.052079    0.931777
     20          1           0       -1.836649   -0.174524    1.646460
     21          1           0       -0.724600    1.865760    1.978430
     22          1           0       -1.892210    2.630580    0.972542
     23          7           0       -1.665150    1.794650    1.624160
     24          7           0        0.409949   -0.124070    0.516248
     25          8           0       -0.722137    0.561587   -1.325730
     26          8           0       -4.942219   -0.630183   -0.777578
     27          8           0       -3.013639   -1.591161   -0.319277
     28          8           0        2.206991   -1.853829    1.534530
     29          8           0        3.290930    0.497809   -1.708520
     30          8           0        3.831171   -1.311918    0.137609
 ---------------------------------------------------------------------

 SCF Done:  E(RHF) =  -870.179558560     A.U. after    2 cycles

 The electronic state is 1-A.
 Alpha  occ. eigenvalues --  -20.61028 -20.60939 -20.60584 -20.54384 -20.54309
 Alpha  occ. eigenvalues --  -20.54147 -15.54856 -15.52366 -11.41012 -11.40029
 Alpha  occ. eigenvalues --  -11.38393 -11.32883 -11.31937 -11.30113 -11.27274
 Alpha  occ. eigenvalues --  -11.26025  -1.57378  -1.56433  -1.51996  -1.49125
 Alpha  occ. eigenvalues --   -1.46901  -1.45352  -1.28238  -1.22875  -1.08652
 Alpha  occ. eigenvalues --   -1.06842  -1.01211  -0.93647  -0.88147  -0.85971
 Alpha  occ. eigenvalues --   -0.83588  -0.83005  -0.79234  -0.75455  -0.75276
 Alpha  occ. eigenvalues --   -0.73324  -0.72027  -0.71660  -0.68638  -0.67578
 Alpha  occ. eigenvalues --   -0.67089  -0.65711  -0.65065  -0.63967  -0.63073
 Alpha  occ. eigenvalues --   -0.60907  -0.59375  -0.58722  -0.57930  -0.56608
 Alpha  occ. eigenvalues --   -0.55622  -0.55474  -0.54463  -0.52997  -0.50690
 Alpha  occ. eigenvalues --   -0.48744  -0.48148  -0.47346  -0.45624  -0.44239
 Alpha  occ. eigenvalues --   -0.43854  -0.42890
 Alpha virt. eigenvalues --    0.02707   0.03200   0.03572   0.03897   0.04306
 Alpha virt. eigenvalues --    0.04613   0.05130   0.05803   0.06276   0.07147
 Alpha virt. eigenvalues --    0.08292   0.08344   0.08823   0.08824   0.10735

 Mulliken charges:
               1
     1  C   -1.333011
     2  C    0.301356
     3  C   -0.397250
     4  C    2.129144
     5  C   -1.616367
     6  C    2.760284
     7  C    1.042202
     8  C   -0.375199
     9  H    0.535709
    10  H    0.267081
    11  H    0.153305
    12  H    0.188756
    13  H    0.373863
    14  H    0.100567
    15  H    0.195508
    16  H    0.241292
    17  H    0.418304
    18  H    0.247368
    19  H    0.512141
    20  H    0.035402
    21  H    0.155000
    22  H    0.348398
    23  N    0.731490
    24  N    1.378258
    25  O   -1.449092
    26  O   -1.328414
    27  O   -1.285334
    28  O   -1.448449
    29  O   -1.445635
    30  O   -1.436679
 Sum of Mulliken charges =   0.00000

 Dipole moment (field-independent basis, Debye):
    X=              1.4234    Y=              2.1390    Z=             -0.4970  Tot=              2.6170

 Test job not archived.
 1\1\GINC-SE016\SP\RHF\Aug-CC-pVDZ\C8H14N2O6\OHZDE\08-Apr-2025\0\\#t hf
  aug-cc-pvdz iop(5/13=1,5/36=2,99/5=2) pseudo=read geom=check guess=(r
 ead,tcheck) scf=(maxcycle=1)\\title\\0,1\C,0,-1.86927,0.590754,0.85508
 8\C,0,-0.697932,0.407504,-0.117053\C,0,-3.17529,0.704071,0.13077\C,0,-
 3.83639,-0.544218,-0.355774\C,0,1.57306,-0.324955,-0.234416\C,0,2.5894
 7,-1.24019,0.542504\C,0,2.3277,0.912359,-0.776276\C,0,2.94661,1.72924,
 0.308442\H,0,4.00801,-0.697795,-0.63813\H,0,2.16331,2.08476,1.04692\H,
 0,3.41987,2.63643,-0.101367\H,0,3.71102,1.18365,0.913859\H,0,2.78592,-

 Normal termination of Gaussian 16 at Tue Apr  8 20:20:39 2025.
