 Gaussian 16, Revision C.01,

 ----------------------------------------------------------------------
 #t hf aug-cc-pvdz symm=none int=(grid=ultrafine) guess=(read,tcheck) s
 table=(opt,rrhf)
 ----------------------------------------------------------------------
 -----
 title
 -----
 Symbolic Z-matrix:
 Charge =  0 Multiplicity = 1

 SCF Done:  E(RHF) =  -556.251254746     A.U. after   17 cycles
 Normal termination of Gaussian 16 at Tue Apr  8 19:26:55 2025.
 Gaussian 16:  ES64L-G16RevC.01  3-Jul-2019

 ----------------------------------------------------------------------
 #t hf aug-cc-pvdz iop(5/13=1,5/36=2,99/5=2) pseudo=read geom=check gue
 ss=(read,tcheck) scf=(maxcycle=1)
 ----------------------------------------------------------------------
 -----
 title
 -----
 Structure from the checkpoint file:  "ANI1ccx_1294_conf2_mol1.chk"
 Charge =  0 Multiplicity = 1

                         Standard orientation:
 ---------------------------------------------------------------------
 Center     Atomic      Atomic             Coordinates (Angstroms)
 Number     Number       Type             X           Y           Z
 ---------------------------------------------------------------------
      1          6           0        0.468144    1.278930   -0.015495
      2          6           0        2.562039    0.364502    0.019372
      3          6           0        0.897761   -1.076580    0.019211
      4          6           0       -1.264711   -0.659556   -0.040629
      5          6           0       -2.497111    0.072826   -0.049697
      6          6           0       -0.014176   -0.026501   -0.006666
      7          1           0       -1.238452    2.411859   -0.228103
      8          1           0        0.207413    3.285529   -0.105073
      9          1           0        3.617919    0.514308    0.209352
     10          1           0       -1.745200   -2.732041   -0.041175
     11          7           0       -0.238103    2.426639    0.023329
     12          7           0        1.801098    1.427860   -0.044480
     13          7           0        2.185079   -0.921224    0.017660
     14          7           0        0.298882   -2.271741    0.028091
     15          7           0       -0.977884   -1.997891   -0.047728
     16          7           0       -3.319552    0.879016    0.110045
 ---------------------------------------------------------------------

 SCF Done:  E(RHF) =  -556.801915139     A.U. after    2 cycles

 The electronic state is 1-A.
 Alpha  occ. eigenvalues --  -15.66077 -15.56396 -15.55691 -15.55095 -15.50244
 Alpha  occ. eigenvalues --  -15.48687 -11.37279 -11.36000 -11.33420 -11.32187
 Alpha  occ. eigenvalues --  -11.30890 -11.27199  -1.43968  -1.33522  -1.27823
 Alpha  occ. eigenvalues --   -1.26613  -1.19874  -1.15151  -1.12518  -0.99068
 Alpha  occ. eigenvalues --   -0.94165  -0.91679  -0.86433  -0.82195  -0.77094
 Alpha  occ. eigenvalues --   -0.75098  -0.71578  -0.71136  -0.70203  -0.65212
 Alpha  occ. eigenvalues --   -0.64342  -0.62896  -0.57733  -0.56455  -0.54992
 Alpha  occ. eigenvalues --   -0.54473  -0.50313  -0.46529  -0.45876  -0.42556
 Alpha  occ. eigenvalues --   -0.35957
 Alpha virt. eigenvalues --    0.00093   0.02069   0.03552   0.04969   0.05713
 Alpha virt. eigenvalues --    0.07271   0.08348   0.08838   0.08921   0.08991
 Alpha virt. eigenvalues --    0.09767   0.10844   0.11325   0.11768   0.12258

 Mulliken charges:
               1
     1  C   -1.879694
     2  C   -0.331087
     3  C   -2.478244
     4  C    0.342729
     5  C   -2.588199
     6  C    1.407917
     7  H    0.276308
     8  H    0.004383
     9  H   -0.077535
    10  H    0.170132
    11  N    0.942151
    12  N    0.959778
    13  N    1.156490
    14  N    0.348783
    15  N    0.478429
    16  N    1.267659
 Sum of Mulliken charges =  -0.00000

 Dipole moment (field-independent basis, Debye):
    X=             -2.4887    Y=              1.0379    Z=             -0.7860  Tot=              2.8087

 Test job not archived.
 1\1\GINC-SE230\SP\RHF\Aug-CC-pVDZ\C6H4N6\OHZDE\08-Apr-2025\0\\#t hf au
 g-cc-pvdz iop(5/13=1,5/36=2,99/5=2) pseudo=read geom=check guess=(read
 ,tcheck) scf=(maxcycle=1)\\title\\0,1\C,0,0.468146,1.27893,-0.0154946\
 C,0,2.56204,0.364502,0.0193718\C,0,0.897762,-1.07658,0.019211\C,0,-1.2
 6471,-0.659555,-0.0406293\C,0,-2.49711,0.0728278,-0.049697\C,0,-0.0141
 745,-0.0265001,-0.00666582\H,0,-1.23845,2.41186,-0.228103\H,0,0.207415
 ,3.28553,-0.105073\H,0,3.61792,0.514307,0.209352\H,0,-1.7452,-2.73204,
 -0.0411753\N,0,-0.238101,2.42664,0.0233288\N,0,1.8011,1.42786,-0.04448

 Normal termination of Gaussian 16 at Tue Apr  8 19:27:06 2025.
