 Gaussian 16, Revision C.01,

 ----------------------------------------------------------------------
 #t hf aug-cc-pvdz symm=none int=(grid=ultrafine) guess=(read,tcheck) s
 table=(opt,rrhf)
 ----------------------------------------------------------------------
 -----
 title
 -----
 Symbolic Z-matrix:
 Charge =  0 Multiplicity = 1

 SCF Done:  E(RHF) =  -406.480550445     A.U. after   15 cycles
 Normal termination of Gaussian 16 at Tue Apr  8 21:33:35 2025.
 Gaussian 16:  ES64L-G16RevC.01  3-Jul-2019

 ----------------------------------------------------------------------
 #t hf aug-cc-pvdz iop(5/13=1,5/36=2,99/5=2) pseudo=read geom=check gue
 ss=(read,tcheck) scf=(maxcycle=1)
 ----------------------------------------------------------------------
 -----
 title
 -----
 Structure from the checkpoint file:  "ANI1ccx_379_conf9_mol1.chk"
 Charge =  0 Multiplicity = 1

                         Standard orientation:
 ---------------------------------------------------------------------
 Center     Atomic      Atomic             Coordinates (Angstroms)
 Number     Number       Type             X           Y           Z
 ---------------------------------------------------------------------
      1          6           0        0.009224    0.774338   -0.066972
      2          1           0        2.168740   -0.724926    1.010000
      3          1           0        2.209310   -0.302386   -0.667239
      4          7           0        1.811779   -0.878759   -0.000082
      5          7           0        0.446237   -0.500147   -0.067356
      6          7           0       -0.557972   -1.314469   -0.048281
      7          7           0       -1.614820   -0.670105    0.082422
      8          8           0       -1.294287    0.705776   -0.003031
      9          8           0        0.665542    1.784928    0.039549
 ---------------------------------------------------------------------

 SCF Done:  E(RHF) =  -406.883316370     A.U. after    2 cycles

 The electronic state is 1-A.
 Alpha  occ. eigenvalues --  -20.67267 -20.54759 -15.66539 -15.66107 -15.65164
 Alpha  occ. eigenvalues --  -15.59896 -11.44360  -1.67463  -1.50011  -1.47179
 Alpha  occ. eigenvalues --   -1.33869  -1.19923  -1.03511  -0.94639  -0.84114
 Alpha  occ. eigenvalues --   -0.83368  -0.75557  -0.72255  -0.68383  -0.64832
 Alpha  occ. eigenvalues --   -0.61833  -0.60228  -0.58408  -0.54744  -0.48017
 Alpha  occ. eigenvalues --   -0.44755
 Alpha virt. eigenvalues --    0.02369   0.04520   0.05544   0.08436   0.09486
 Alpha virt. eigenvalues --    0.09742   0.09975   0.11982   0.12578   0.13996
 Alpha virt. eigenvalues --    0.16079   0.16503   0.17264   0.17645   0.19546

 Mulliken charges:
               1
     1  C    1.388991
     2  H    0.278148
     3  H    0.147010
     4  N    0.498310
     5  N   -0.392160
     6  N   -0.901005
     7  N    1.302382
     8  O   -1.278186
     9  O   -1.043491
 Sum of Mulliken charges =  -0.00000

 Dipole moment (field-independent basis, Debye):
    X=              2.3399    Y=             -1.0811    Z=              0.3043  Tot=              2.5955

 Test job not archived.
 1\1\GINC-SE402\SP\RHF\Aug-CC-pVDZ\C1H2N4O2\OHZDE\08-Apr-2025\0\\#t hf
 aug-cc-pvdz iop(5/13=1,5/36=2,99/5=2) pseudo=read geom=check guess=(re
 ad,tcheck) scf=(maxcycle=1)\\title\\0,1\C,0,0.00922069,0.774339,-0.066
 9721\H,0,2.16874,-0.724921,1.01\H,0,2.20931,-0.30238,-0.667239\N,0,1.8
 1178,-0.878754,-0.00008149\N,0,0.446237,-0.500145,-0.0673557\N,0,-0.55
 797,-1.31447,-0.0482805\N,0,-1.61482,-0.670108,0.0824217\O,0,-1.29429,
 0.705774,-0.00303093\O,0,0.665537,1.78493,0.0395492\\Version=ES64L-G16
 RevC.01\State=1-A\HF=-406.8833164\RMSD=4.811e-02\Dipole=0.9205811,-0.4

 Normal termination of Gaussian 16 at Tue Apr  8 21:33:38 2025.
