 Gaussian 16, Revision C.01,

 ----------------------------------------------------------------------
 #t hf aug-cc-pvdz symm=none int=(grid=ultrafine) guess=(read,tcheck) s
 table=(opt,rrhf)
 ----------------------------------------------------------------------
 -----
 title
 -----
 Symbolic Z-matrix:
 Charge =  0 Multiplicity = 1

 SCF Done:  E(RHF) =  -798.773972985     A.U. after   15 cycles
 Normal termination of Gaussian 16 at Tue Apr  8 22:17:02 2025.
 Gaussian 16:  ES64L-G16RevC.01  3-Jul-2019

 ----------------------------------------------------------------------
 #t hf aug-cc-pvdz iop(5/13=1,5/36=2,99/5=2) pseudo=read geom=check gue
 ss=(read,tcheck) scf=(maxcycle=1)
 ----------------------------------------------------------------------
 -----
 title
 -----
 Structure from the checkpoint file:  "ANI1ccx_86_conf2_mol2.chk"
 Charge =  0 Multiplicity = 1

                         Standard orientation:
 ---------------------------------------------------------------------
 Center     Atomic      Atomic             Coordinates (Angstroms)
 Number     Number       Type             X           Y           Z
 ---------------------------------------------------------------------
      1          6           0       -1.588370   -1.259019    0.435210
      2          6           0        2.994110   -0.330838   -0.316384
      3          6           0        1.510141    1.677350    0.524460
      4          6           0        1.950390    0.146875    0.785262
      5          6           0       -4.310170    0.235524   -1.533010
      6          6           0        3.320970   -1.808361   -0.279988
      7          6           0       -2.130959    1.206891    1.077890
      8          6           0       -2.568080   -0.079340    0.304900
      9          6           0       -0.170173   -0.874246   -0.069862
     10          6           0       -2.803720    0.202565   -1.193350
     11          1           0       -4.803939    0.982786   -0.910386
     12          1           0        1.981271    1.331460   -1.284930
     13          1           0        3.429190   -2.177421    0.722844
     14          1           0        4.110480   -2.126531   -0.975022
     15          1           0        2.506960   -2.470261   -0.680580
     16          1           0        1.773780   -0.484295   -1.826250
     17          1           0        3.933970    0.262003   -0.079257
     18          1           0        2.350500    0.160563    1.760940
     19          1           0        0.324505   -0.780236    1.859260
     20          1           0       -4.796540   -0.745247   -1.328100
     21          1           0       -2.286390   -0.530530   -1.787340
     22          1           0       -2.359599    1.156281   -1.498550
     23          1           0       -1.408569    1.869161    0.470894
     24          1           0       -1.606709    0.896961    1.954660
     25          1           0       -3.082459    1.758521    1.237730
     26          1           0       -3.453350   -0.469622    0.762985
     27          1           0       -1.915240   -2.102079   -0.173947
     28          1           0       -1.193211   -2.704349    1.862580
     29          1           0       -2.346680   -1.650709    2.368290
     30          1           0       -4.489719    0.435674   -2.544250
     31          7           0       -1.466060   -1.699799    1.838770
     32          7           0        0.737215   -0.640843    0.942646
     33          8           0        2.612430    0.020463   -1.655930
     34          8           0        0.071180   -0.742358   -1.271250
     35          8           0        0.946201    2.269690    1.426170
     36          8           0        1.521291    2.085700   -0.723023
 ---------------------------------------------------------------------

 SCF Done:  E(RHF) =  -799.591995468     A.U. after    2 cycles

 The electronic state is 1-A.
 Alpha  occ. eigenvalues --  -20.57609 -20.56730 -20.53625 -20.51350 -15.54138
 Alpha  occ. eigenvalues --  -15.52026 -11.38034 -11.37832 -11.33007 -11.31142
 Alpha  occ. eigenvalues --  -11.29219 -11.24698 -11.24493 -11.22447 -11.21983
 Alpha  occ. eigenvalues --  -11.21957  -1.52323  -1.48559  -1.47226  -1.42433
 Alpha  occ. eigenvalues --   -1.26360  -1.20604  -1.08746  -1.06616  -1.00214
 Alpha  occ. eigenvalues --   -0.98287  -0.94473  -0.87698  -0.85278  -0.82541
 Alpha  occ. eigenvalues --   -0.80788  -0.80006  -0.75740  -0.73054  -0.71318
 Alpha  occ. eigenvalues --   -0.70717  -0.67137  -0.66639  -0.65632  -0.64425
 Alpha  occ. eigenvalues --   -0.63033  -0.62298  -0.61682  -0.59935  -0.59127
 Alpha  occ. eigenvalues --   -0.58162  -0.57791  -0.57421  -0.56538  -0.54767
 Alpha  occ. eigenvalues --   -0.53373  -0.51827  -0.50941  -0.50520  -0.49360
 Alpha  occ. eigenvalues --   -0.47969  -0.47439  -0.47024  -0.45536  -0.45101
 Alpha  occ. eigenvalues --   -0.43789  -0.42412  -0.39830
 Alpha virt. eigenvalues --    0.02006   0.03213   0.03266   0.03674   0.03984
 Alpha virt. eigenvalues --    0.04254   0.05012   0.05370   0.05663   0.07063
 Alpha virt. eigenvalues --    0.07388   0.07741   0.08133   0.08253   0.09111

 Mulliken charges:
               1
     1  C   -1.188439
     2  C    0.754107
     3  C    2.496115
     4  C   -0.813725
     5  C   -0.401796
     6  C   -0.108130
     7  C   -0.532948
     8  C   -0.596860
     9  C    1.024634
    10  C    0.123046
    11  H    0.190722
    12  H    0.846971
    13  H    0.102932
    14  H    0.122083
    15  H    0.111165
    16  H    0.629002
    17  H    0.150418
    18  H   -0.222602
    19  H    0.367098
    20  H    0.230577
    21  H    0.045332
    22  H    0.123021
    23  H    0.377623
    24  H    0.193104
    25  H    0.187963
    26  H   -0.039425
    27  H    0.145875
    28  H    0.305739
    29  H    0.228716
    30  H   -0.010691
    31  N    0.424177
    32  N    0.908646
    33  O   -1.662349
    34  O   -1.598221
    35  O   -1.467457
    36  O   -1.446423
 Sum of Mulliken charges =  -0.00000

 Dipole moment (field-independent basis, Debye):
    X=             -0.7436    Y=             -6.0460    Z=              1.4361  Tot=              6.2585

 Test job not archived.
 1\1\GINC-SE074\SP\RHF\Aug-CC-pVDZ\C10H20N2O4\OHZDE\08-Apr-2025\0\\#t h
 f aug-cc-pvdz iop(5/13=1,5/36=2,99/5=2) pseudo=read geom=check guess=(
 read,tcheck) scf=(maxcycle=1)\\title\\0,1\C,0,-1.58837,-1.25902,0.4352
 1\C,0,2.99411,-0.330837,-0.316384\C,0,1.51014,1.67735,0.52446\C,0,1.95
 039,0.146875,0.785262\C,0,-4.31017,0.235522,-1.53301\C,0,3.32097,-1.80
 836,-0.279988\C,0,-2.13096,1.20689,1.07789\C,0,-2.56808,-0.0793412,0.3
 049\C,0,-0.170173,-0.874246,-0.0698619\C,0,-2.80372,0.202564,-1.19335\
 H,0,-4.80394,0.982784,-0.910386\H,0,1.98127,1.33146,-1.28493\H,0,3.429

 Normal termination of Gaussian 16 at Tue Apr  8 22:18:00 2025.
