 Gaussian 16, Revision C.01,

 ----------------------------------------------------------------------
 #t hf aug-cc-pvdz symm=none int=(grid=ultrafine) guess=(read,tcheck) s
 table=(opt,rrhf)
 ----------------------------------------------------------------------
 -----
 title
 -----
 Symbolic Z-matrix:
 Charge =  0 Multiplicity = 1

 SCF Done:  E(RHF) =  -774.558901240     A.U. after   15 cycles
 Normal termination of Gaussian 16 at Tue Apr  8 20:26:07 2025.
 Gaussian 16:  ES64L-G16RevC.01  3-Jul-2019

 ----------------------------------------------------------------------
 #t hf aug-cc-pvdz iop(5/13=1,5/36=2,99/5=2) pseudo=read geom=check gue
 ss=(read,tcheck) scf=(maxcycle=1)
 ----------------------------------------------------------------------
 -----
 title
 -----
 Structure from the checkpoint file:  "ANI1ccx_1610_conf23_mol1.chk"
 Charge =  0 Multiplicity = 1

                         Standard orientation:
 ---------------------------------------------------------------------
 Center     Atomic      Atomic             Coordinates (Angstroms)
 Number     Number       Type             X           Y           Z
 ---------------------------------------------------------------------
      1          6           0       -1.969279   -1.487010    0.347521
      2          6           0       -2.434409   -0.412439   -0.686611
      3          6           0       -2.248519   -1.127770    1.845640
      4          6           0       -0.203683    0.679324   -0.204317
      5          6           0       -0.067490    1.995450    0.520385
      6          6           0        0.827918    0.303375   -1.291410
      7          6           0        2.330741    0.452119   -0.799895
      8          6           0        3.004531   -0.689635   -0.148737
      9          1           0       -1.844459    2.500900    0.213061
     10          1           0        2.748311   -2.325340    1.004140
     11          1           0        1.318831   -1.687210    0.374862
     12          1           0        2.347321    1.230670   -0.043278
     13          1           0        2.972531    0.989767   -1.514850
     14          1           0        0.617481    0.911407   -2.149330
     15          1           0        0.616553   -0.737832   -1.594050
     16          1           0       -1.684609    1.261580   -1.604630
     17          1           0       -3.042329   -0.452071    2.036650
     18          1           0       -1.351089   -0.530627    2.109260
     19          1           0       -2.294019   -2.067470    2.502100
     20          1           0       -2.697769   -2.277260    0.191600
     21          1           0       -0.526076   -2.310240   -0.738172
     22          1           0       -0.591710   -2.980970    0.744493
     23          1           0       -0.186217   -0.089071    0.611023
     24          7           0       -0.612888   -2.055040    0.214165
     25          7           0       -1.533509    0.736168   -0.815022
     26          7           0        2.329241   -1.711570    0.387587
     27          8           0        4.238161   -0.591703   -0.035427
     28          8           0       -3.356199   -0.533821   -1.444200
     29          8           0        0.990389    2.159480    1.134480
     30          8           0       -1.012539    2.903090    0.576964
 ---------------------------------------------------------------------

 SCF Done:  E(RHF) =  -775.345922470     A.U. after    2 cycles

 The electronic state is 1-A.
 Alpha  occ. eigenvalues --  -20.62349 -20.56778 -20.53018 -20.48065 -15.55518
 Alpha  occ. eigenvalues --  -15.55250 -15.51492 -11.41101 -11.40171 -11.34493
 Alpha  occ. eigenvalues --  -11.32609 -11.31877 -11.27955 -11.27518 -11.23834
 Alpha  occ. eigenvalues --   -1.56801  -1.51694  -1.44672  -1.42326  -1.27618
 Alpha  occ. eigenvalues --   -1.24481  -1.22675  -1.08778  -1.05566  -1.00762
 Alpha  occ. eigenvalues --   -0.93332  -0.91730  -0.84858  -0.84648  -0.83408
 Alpha  occ. eigenvalues --   -0.77730  -0.76784  -0.75987  -0.73309  -0.70946
 Alpha  occ. eigenvalues --   -0.68545  -0.67701  -0.66766  -0.66096  -0.64949
 Alpha  occ. eigenvalues --   -0.62586  -0.61514  -0.60407  -0.59748  -0.58233
 Alpha  occ. eigenvalues --   -0.57868  -0.57353  -0.55853  -0.55060  -0.53668
 Alpha  occ. eigenvalues --   -0.50639  -0.48229  -0.47858  -0.46768  -0.45927
 Alpha  occ. eigenvalues --   -0.42975  -0.40927  -0.39664
 Alpha virt. eigenvalues --    0.01464   0.02686   0.02946   0.03479   0.03915
 Alpha virt. eigenvalues --    0.04254   0.05447   0.05999   0.06249   0.07357
 Alpha virt. eigenvalues --    0.08266   0.08468   0.09272   0.09401   0.09834

 Mulliken charges:
               1
     1  C   -1.110857
     2  C    1.017534
     3  C    0.023637
     4  C   -1.817363
     5  C    2.560767
     6  C   -0.184062
     7  C    0.351498
     8  C    0.006690
     9  H    0.424997
    10  H    0.054145
    11  H    0.014252
    12  H    0.156404
    13  H    0.146459
    14  H   -0.018270
    15  H    0.269335
    16  H    0.087118
    17  H    0.026917
    18  H    0.159209
    19  H    0.201078
    20  H    0.076510
    21  H    0.211235
    22  H    0.408943
    23  H    0.511492
    24  N   -0.064221
    25  N    0.943566
    26  N    1.029957
    27  O   -1.354339
    28  O   -1.360818
    29  O   -1.386455
    30  O   -1.385359
 Sum of Mulliken charges =  -0.00000

 Dipole moment (field-independent basis, Debye):
    X=             -6.6034    Y=             -3.9067    Z=             -0.4225  Tot=              7.6841

 Test job not archived.
 1\1\GINC-SE038\SP\RHF\Aug-CC-pVDZ\C8H15N3O4\OHZDE\08-Apr-2025\0\\#t hf
  aug-cc-pvdz iop(5/13=1,5/36=2,99/5=2) pseudo=read geom=check guess=(r
 ead,tcheck) scf=(maxcycle=1)\\title\\0,1\C,0,-1.96928,-1.48701,0.34752
 1\C,0,-2.43441,-0.412439,-0.686611\C,0,-2.24852,-1.12777,1.84564\C,0,-
 0.203684,0.679324,-0.204317\C,0,-0.0674913,1.99545,0.520385\C,0,0.8279
 17,0.303375,-1.29141\C,0,2.33074,0.452119,-0.799895\C,0,3.00453,-0.689
 635,-0.148737\H,0,-1.84446,2.5009,0.213061\H,0,2.74831,-2.32534,1.0041
 4\H,0,1.31883,-1.68721,0.374862\H,0,2.34732,1.23067,-0.043278\H,0,2.97

 Normal termination of Gaussian 16 at Tue Apr  8 20:26:49 2025.
