 Gaussian 16, Revision C.01,

 ----------------------------------------------------------------------
 #t hf aug-cc-pvdz symm=none int=(grid=ultrafine) guess=(read,tcheck) s
 table=(opt,rrhf)
 ----------------------------------------------------------------------
 -----
 title
 -----
 Symbolic Z-matrix:
 Charge =  0 Multiplicity = 1

 SCF Done:  E(RHF) =  -502.736178471     A.U. after   15 cycles
 Normal termination of Gaussian 16 at Tue Apr  8 22:13:20 2025.
 Gaussian 16:  ES64L-G16RevC.01  3-Jul-2019

 ----------------------------------------------------------------------
 #t hf aug-cc-pvdz iop(5/13=1,5/36=2,99/5=2) pseudo=read geom=check gue
 ss=(read,tcheck) scf=(maxcycle=1)
 ----------------------------------------------------------------------
 -----
 title
 -----
 Structure from the checkpoint file:  "ANI1ccx_948_conf1_mol2.chk"
 Charge =  0 Multiplicity = 1

                         Standard orientation:
 ---------------------------------------------------------------------
 Center     Atomic      Atomic             Coordinates (Angstroms)
 Number     Number       Type             X           Y           Z
 ---------------------------------------------------------------------
      1          6           0        3.318901   -0.230057   -0.008582
      2          6           0        0.978584    0.236649   -0.008066
      3          6           0       -2.005370   -1.478469   -0.017279
      4          6           0       -1.498869    0.543198    0.001189
      5          1           0       -2.445579    2.236201   -0.152456
      6          1           0       -0.650186    2.437540   -0.068454
      7          1           0        1.769710   -1.726910    0.175226
      8          1           0       -2.570060   -2.398329   -0.008667
      9          1           0        3.269481    0.854435   -0.061032
     10          1           0        3.920510   -0.635130   -0.825116
     11          1           0        3.842270   -0.557674    0.907329
     12          7           0       -1.506069    1.880661    0.116410
     13          7           0        1.968400   -0.761563   -0.012122
     14          7           0       -0.358450   -0.214084    0.051723
     15          7           0       -0.699641   -1.551320    0.027776
     16          7           0       -2.545089   -0.217267   -0.083045
     17          8           0        1.261291    1.425870   -0.059450
 ---------------------------------------------------------------------

 SCF Done:  E(RHF) =  -503.242438207     A.U. after    2 cycles

 The electronic state is 1-A.
 Alpha  occ. eigenvalues --  -20.53502 -15.59404 -15.54007 -15.53846 -15.53731
 Alpha  occ. eigenvalues --  -15.49352 -11.42143 -11.37204 -11.31311 -11.26858
 Alpha  occ. eigenvalues --   -1.49590  -1.41772  -1.26729  -1.24141  -1.21359
 Alpha  occ. eigenvalues --   -1.13311  -0.98401  -0.90950  -0.89203  -0.84349
 Alpha  occ. eigenvalues --   -0.81511  -0.73934  -0.72486  -0.71345  -0.67549
 Alpha  occ. eigenvalues --   -0.65943  -0.63895  -0.63362  -0.57799  -0.56655
 Alpha  occ. eigenvalues --   -0.55548  -0.54488  -0.50894  -0.47297  -0.46192
 Alpha  occ. eigenvalues --   -0.43145  -0.39505
 Alpha virt. eigenvalues --    0.03190   0.04158   0.04529   0.05300   0.05359
 Alpha virt. eigenvalues --    0.06510   0.08347   0.08540   0.08921   0.10239
 Alpha virt. eigenvalues --    0.10470   0.11498   0.11876   0.13559   0.13947

 Mulliken charges:
               1
     1  C   -0.345672
     2  C    0.240110
     3  C   -0.198802
     4  C   -1.887528
     5  H    0.268654
     6  H    0.235177
     7  H    0.063347
     8  H   -0.108254
     9  H    0.088683
    10  H    0.095611
    11  H    0.135020
    12  N    0.709017
    13  N    0.572457
    14  N    0.371280
    15  N    0.155619
    16  N    0.902441
    17  O   -1.297162
 Sum of Mulliken charges =  -0.00000

 Dipole moment (field-independent basis, Debye):
    X=              0.9044    Y=              0.0054    Z=             -0.2310  Tot=              0.9335

 Test job not archived.
 1\1\GINC-SE250\SP\RHF\Aug-CC-pVDZ\C4H7N5O1\OHZDE\08-Apr-2025\0\\#t hf
 aug-cc-pvdz iop(5/13=1,5/36=2,99/5=2) pseudo=read geom=check guess=(re
 ad,tcheck) scf=(maxcycle=1)\\title\\0,1\C,0,3.3189,-0.230057,-0.008582
 39\C,0,0.978583,0.236649,-0.00806602\C,0,-2.00537,-1.47847,-0.0172785\
 C,0,-1.49887,0.543197,0.00118947\H,0,-2.44558,2.2362,-0.152456\H,0,-0.
 650187,2.43754,-0.0684544\H,0,1.76971,-1.72691,0.175226\H,0,-2.57006,-
 2.39833,-0.00866661\H,0,3.26948,0.854435,-0.0610323\H,0,3.92051,-0.635
 13,-0.825116\H,0,3.84227,-0.557674,0.907329\N,0,-1.50607,1.88066,0.116

 Normal termination of Gaussian 16 at Tue Apr  8 22:13:29 2025.
