 Gaussian 16, Revision C.01,

 ----------------------------------------------------------------------
 #t hf aug-cc-pvdz symm=none int=(grid=ultrafine) guess=(read,tcheck) s
 table=(opt,rrhf)
 ----------------------------------------------------------------------
 -----
 title
 -----
 Symbolic Z-matrix:
 Charge =  0 Multiplicity = 1

 SCF Done:  E(RHF) =  -456.250898423     A.U. after   12 cycles
 Normal termination of Gaussian 16 at Tue Apr  8 21:06:37 2025.
 Gaussian 16:  ES64L-G16RevC.01  3-Jul-2019

 ----------------------------------------------------------------------
 #t hf aug-cc-pvdz iop(5/13=1,5/36=2,99/5=2) pseudo=read geom=check gue
 ss=(read,tcheck) scf=(maxcycle=1)
 ----------------------------------------------------------------------
 -----
 title
 -----
 Structure from the checkpoint file:  "ANI1ccx_1844_conf180_mol1.chk"
 Charge =  0 Multiplicity = 1

                         Standard orientation:
 ---------------------------------------------------------------------
 Center     Atomic      Atomic             Coordinates (Angstroms)
 Number     Number       Type             X           Y           Z
 ---------------------------------------------------------------------
      1          1           0       -2.632939   -0.226492   -0.327986
      2          1           0        2.583599    1.247001   -1.424640
      3          1           0        2.495810    0.065535   -0.495409
      4          1           0       -2.380361    1.769067   -1.098910
      5          1           0       -1.346181    1.534128    0.057109
      6          1           0        0.346867    2.353099    1.289820
      7          1           0       -3.313138   -1.770734   -0.311135
      8          1           0        1.136979    1.519270    0.140663
      9          1           0       -0.040834   -0.307669    1.220810
     10          1           0       -1.078258   -1.302462    0.528171
     11          1           0        1.253372   -1.576590    0.029870
     12          1           0        2.721092   -2.018588    0.304143
     13          8           0       -2.284741    1.297307   -0.253777
     14          8           0       -0.186388   -1.274761    0.999288
     15          8           0        2.499269    1.052231   -0.497255
     16          8           0        0.269405    1.548309    0.686335
     17          8           0       -2.440828   -1.240573   -0.569156
     18          8           0        2.175032   -1.543209   -0.354499
 ---------------------------------------------------------------------

 SCF Done:  E(RHF) =  -456.722782921     A.U. after    2 cycles

 The electronic state is 1-A.
 Alpha  occ. eigenvalues --  -20.56742 -20.56483 -20.55824 -20.54931 -20.53918
 Alpha  occ. eigenvalues --  -20.52224  -1.46184  -1.44676  -1.42796  -1.42196
 Alpha  occ. eigenvalues --   -1.39212  -1.37205  -0.73114  -0.72200  -0.70890
 Alpha  occ. eigenvalues --   -0.69770  -0.68626  -0.67137  -0.62924  -0.59866
 Alpha  occ. eigenvalues --   -0.57652  -0.56905  -0.54778  -0.52324  -0.50187
 Alpha  occ. eigenvalues --   -0.49976  -0.49189  -0.48931  -0.46314  -0.46029
 Alpha virt. eigenvalues --    0.02990   0.04391   0.04701   0.05030   0.06163
 Alpha virt. eigenvalues --    0.07919   0.08475   0.09072   0.09943   0.10163
 Alpha virt. eigenvalues --    0.10934   0.11967   0.16807   0.18967   0.19544

 Mulliken charges:
               1
     1  H    0.796253
     2  H    0.298274
     3  H    0.725510
     4  H    0.344597
     5  H    0.785254
     6  H    0.454517
     7  H    0.436670
     8  H    0.974839
     9  H    0.613407
    10  H    0.713764
    11  H    0.741250
    12  H    0.347678
    13  O   -1.134098
    14  O   -1.359381
    15  O   -1.023218
    16  O   -1.519351
    17  O   -1.099454
    18  O   -1.096510
 Sum of Mulliken charges =  -0.00000

 Dipole moment (field-independent basis, Debye):
    X=              0.0786    Y=              3.0827    Z=             -0.4571  Tot=              3.1174

 Test job not archived.
 1\1\GINC-SE365\SP\RHF\Aug-CC-pVDZ\H12O6\OHZDE\08-Apr-2025\0\\#t hf aug
 -cc-pvdz iop(5/13=1,5/36=2,99/5=2) pseudo=read geom=check guess=(read,
 tcheck) scf=(maxcycle=1)\\title\\0,1\H,0,-2.63294,-0.226489,-0.327986\
 H,0,2.5836,1.247,-1.42464\H,0,2.49581,0.065534,-0.495409\H,0,-2.38036,
 1.76907,-1.09891\H,0,-1.34618,1.53413,0.057109\H,0,0.346869,2.3531,1.2
 8982\H,0,-3.31314,-1.77073,-0.311135\H,0,1.13698,1.51927,0.140663\H,0,
 -0.0408344,-0.307668,1.22081\H,0,-1.07826,-1.30246,0.528171\H,0,1.2533
 7,-1.57659,0.0298701\H,0,2.72109,-2.01859,0.304143\O,0,-2.28474,1.2973

 Normal termination of Gaussian 16 at Tue Apr  8 21:06:41 2025.
