 Gaussian 16, Revision C.01,

 ----------------------------------------------------------------------
 #t hf aug-cc-pvdz symm=none int=(grid=ultrafine) guess=(read,tcheck) s
 table=(opt,rrhf)
 ----------------------------------------------------------------------
 -----
 title
 -----
 Symbolic Z-matrix:
 Charge =  0 Multiplicity = 1

 SCF Done:  E(RHF) =  -585.373983241     A.U. after   15 cycles
 Normal termination of Gaussian 16 at Tue Apr  8 22:15:27 2025.
 Gaussian 16:  ES64L-G16RevC.01  3-Jul-2019

 ----------------------------------------------------------------------
 #t hf aug-cc-pvdz iop(5/13=1,5/36=2,99/5=2) pseudo=read geom=check gue
 ss=(read,tcheck) scf=(maxcycle=1)
 ----------------------------------------------------------------------
 -----
 title
 -----
 Structure from the checkpoint file:  "ANI1ccx_978_conf10_mol1.chk"
 Charge =  0 Multiplicity = 1

                         Standard orientation:
 ---------------------------------------------------------------------
 Center     Atomic      Atomic             Coordinates (Angstroms)
 Number     Number       Type             X           Y           Z
 ---------------------------------------------------------------------
      1          6           0        0.367294   -1.452290   -0.284407
      2          6           0       -0.181474   -0.156117    0.407326
      3          6           0       -1.566819   -0.489941    0.966101
      4          6           0        0.875840    0.425950    1.445710
      5          1           0        2.397641   -0.227312    0.404219
      6          1           0        0.827449   -0.255646    2.373820
      7          1           0        0.523941    1.456920    1.756750
      8          1           0       -1.885619    0.384811    1.640570
      9          1           0       -3.276249   -0.160821   -0.002524
     10          1           0        0.558829   -2.137190    0.611427
     11          1           0       -0.359137   -1.858740   -0.930847
     12          1           0        1.548351   -0.821122   -1.673180
     13          1           0       -1.406448   -1.396871    1.595120
     14          7           0       -0.267636    0.879703   -0.643181
     15          8           0        0.313406    0.756929   -1.705580
     16          8           0        1.670002   -1.240179   -0.816694
     17          8           0       -2.402789   -0.811985   -0.126660
     18          8           0        2.157730    0.635540    0.879688
     19          8           0       -0.991393    1.771249   -0.290936
 ---------------------------------------------------------------------

 SCF Done:  E(RHF) =  -585.956060809     A.U. after    2 cycles

 The electronic state is 1-A.
 Alpha  occ. eigenvalues --  -20.59803 -20.59728 -20.59654 -20.57018 -20.55020
 Alpha  occ. eigenvalues --  -15.79060 -11.33452 -11.32623 -11.31918 -11.31861
 Alpha  occ. eigenvalues --   -1.69075  -1.53342  -1.48171  -1.46612  -1.43907
 Alpha  occ. eigenvalues --   -1.16379  -0.99133  -0.94729  -0.92966  -0.84938
 Alpha  occ. eigenvalues --   -0.77504  -0.76301  -0.75524  -0.73668  -0.69766
 Alpha  occ. eigenvalues --   -0.66636  -0.65492  -0.63853  -0.61016  -0.60367
 Alpha  occ. eigenvalues --   -0.58501  -0.56231  -0.54963  -0.51652  -0.50272
 Alpha  occ. eigenvalues --   -0.48310  -0.47874  -0.46603  -0.44311  -0.43558
 Alpha virt. eigenvalues --    0.02748   0.03283   0.04064   0.04730   0.05369
 Alpha virt. eigenvalues --    0.05823   0.06417   0.06822   0.07785   0.09066
 Alpha virt. eigenvalues --    0.11411   0.12237   0.13065   0.13566   0.14194

 Mulliken charges:
               1
     1  C    1.366438
     2  C   -2.907961
     3  C    1.103528
     4  C    0.870518
     5  H    0.552944
     6  H    0.364004
     7  H    0.205648
     8  H    0.430560
     9  H    0.411506
    10  H    0.326505
    11  H    0.140608
    12  H    0.458404
    13  H    0.297063
    14  N    3.524120
    15  O   -1.580835
    16  O   -1.339889
    17  O   -1.238804
    18  O   -1.325434
    19  O   -1.658923
 Sum of Mulliken charges =   0.00000

 Dipole moment (field-independent basis, Debye):
    X=             -2.8445    Y=             -2.4070    Z=              2.2719  Tot=              4.3642

 Test job not archived.
 1\1\GINC-SE367\SP\RHF\Aug-CC-pVDZ\C4H9N1O5\OHZDE\08-Apr-2025\0\\#t hf
 aug-cc-pvdz iop(5/13=1,5/36=2,99/5=2) pseudo=read geom=check guess=(re
 ad,tcheck) scf=(maxcycle=1)\\title\\0,1\C,0,0.367292,-1.45229,-0.28440
 7\C,0,-0.181475,-0.156117,0.407326\C,0,-1.56682,-0.48994,0.966101\C,0,
 0.875839,0.425949,1.44571\H,0,2.39764,-0.227314,0.404219\H,0,0.827448,
 -0.255647,2.37382\H,0,0.523941,1.45692,1.75675\H,0,-1.88562,0.384812,1
 .64057\H,0,-3.27625,-0.160819,-0.00252368\H,0,0.558827,-2.13719,0.6114
 27\H,0,-0.359139,-1.85874,-0.930847\H,0,1.54835,-0.821123,-1.67318\H,0

 Normal termination of Gaussian 16 at Tue Apr  8 22:15:37 2025.
