 Gaussian 16, Revision C.01,

 ----------------------------------------------------------------------
 #t hf aug-cc-pvdz symm=none int=(grid=ultrafine) guess=(read,tcheck) s
 table=(opt,rrhf)
 ----------------------------------------------------------------------
 -----
 title
 -----
 Symbolic Z-matrix:
 Charge =  0 Multiplicity = 1

 SCF Done:  E(RHF) =  -276.581205007     A.U. after   15 cycles
 Normal termination of Gaussian 16 at Tue Apr  8 21:20:25 2025.
 Gaussian 16:  ES64L-G16RevC.01  3-Jul-2019

 ----------------------------------------------------------------------
 #t hf aug-cc-pvdz iop(5/13=1,5/36=2,99/5=2) pseudo=read geom=check gue
 ss=(read,tcheck) scf=(maxcycle=1)
 ----------------------------------------------------------------------
 -----
 title
 -----
 Structure from the checkpoint file:  "ANI1ccx_370_conf76_mol1.chk"
 Charge =  0 Multiplicity = 1

                         Standard orientation:
 ---------------------------------------------------------------------
 Center     Atomic      Atomic             Coordinates (Angstroms)
 Number     Number       Type             X           Y           Z
 ---------------------------------------------------------------------
      1          6           0        1.048579    0.107585   -0.004295
      2          1           0        2.167439    0.016303    0.136062
      3          7           0        0.301805    1.150011   -0.035968
      4          7           0       -1.029951    0.590420    0.042510
      5          7           0       -0.969480   -0.676016   -0.018542
      6          8           0        0.428059   -1.014089   -0.003286
 ---------------------------------------------------------------------

 SCF Done:  E(RHF) =  -276.846014833     A.U. after    2 cycles

 The electronic state is 1-A.
 Alpha  occ. eigenvalues --  -20.68173 -15.66845 -15.64218 -15.57142 -11.39458
 Alpha  occ. eigenvalues --   -1.65266  -1.39064  -1.25821  -0.96675  -0.93576
 Alpha  occ. eigenvalues --   -0.79716  -0.74756  -0.67660  -0.63933  -0.58802
 Alpha  occ. eigenvalues --   -0.55702  -0.54755  -0.50273
 Alpha virt. eigenvalues --    0.03047   0.04492   0.07610   0.07991   0.08218
 Alpha virt. eigenvalues --    0.12666   0.13185   0.13990   0.15068   0.16051
 Alpha virt. eigenvalues --    0.17777   0.18965   0.19596   0.20913   0.22728

 Mulliken charges:
               1
     1  C    0.287789
     2  H    0.196961
     3  N    0.359766
     4  N   -0.696720
     5  N    1.015668
     6  O   -1.163464
 Sum of Mulliken charges =   0.00000

 Dipole moment (field-independent basis, Debye):
    X=              3.4405    Y=             -1.3812    Z=              0.1351  Tot=              3.7098

 Test job not archived.
 1\1\GINC-SE343\SP\RHF\Aug-CC-pVDZ\C1H1N3O1\OHZDE\08-Apr-2025\0\\#t hf
 aug-cc-pvdz iop(5/13=1,5/36=2,99/5=2) pseudo=read geom=check guess=(re
 ad,tcheck) scf=(maxcycle=1)\\title\\0,1\C,0,1.04858,0.107584,-0.004294
 79\H,0,2.16744,0.0163012,0.136062\N,0,0.301806,1.15001,-0.0359676\N,0,
 -1.02995,0.590419,0.0425097\N,0,-0.969479,-0.676017,-0.0185424\O,0,0.4
 2806,-1.01409,-0.00328646\\Version=ES64L-G16RevC.01\State=1-A\HF=-276.
 8460148\RMSD=3.578e-02\Dipole=1.3535936,-0.5434095,0.0531446\Quadrupol
 e=3.0465541,-3.4457539,0.3991998,-0.5034918,0.2550463,0.0403646\PG=C01

 Normal termination of Gaussian 16 at Tue Apr  8 21:20:28 2025.
