 Gaussian 16, Revision C.01,

 ----------------------------------------------------------------------
 #t hf aug-cc-pvdz symm=none int=(grid=ultrafine) guess=(read,tcheck) s
 table=(opt,rrhf)
 ----------------------------------------------------------------------
 -----
 title
 -----
 Symbolic Z-matrix:
 Charge =  0 Multiplicity = 1

 SCF Done:  E(RHF) =  -334.535933693     A.U. after   14 cycles
 Normal termination of Gaussian 16 at Tue Apr  8 21:10:18 2025.
 Gaussian 16:  ES64L-G16RevC.01  3-Jul-2019

 ----------------------------------------------------------------------
 #t hf aug-cc-pvdz iop(5/13=1,5/36=2,99/5=2) pseudo=read geom=check gue
 ss=(read,tcheck) scf=(maxcycle=1)
 ----------------------------------------------------------------------
 -----
 title
 -----
 Structure from the checkpoint file:  "ANI1ccx_1859_conf3_mol1.chk"
 Charge =  0 Multiplicity = 1

                         Standard orientation:
 ---------------------------------------------------------------------
 Center     Atomic      Atomic             Coordinates (Angstroms)
 Number     Number       Type             X           Y           Z
 ---------------------------------------------------------------------
      1          1           0       -2.031660   -0.846722    0.846112
      2          1           0       -1.457091    1.319600   -0.810361
      3          7           0        2.171589    0.366579    0.180264
      4          7           0        1.950550   -0.636694   -0.178430
      5          8           0       -1.657790   -0.946646   -0.034111
      6          8           0       -0.530167   -0.108983    0.000642
      7          8           0       -0.982821    1.232870    0.027395
 ---------------------------------------------------------------------

 SCF Done:  E(RHF) =  -334.855365750     A.U. after    2 cycles

 The electronic state is 1-A.
 Alpha  occ. eigenvalues --  -20.69058 -20.64038 -20.63941 -15.60157 -15.59888
 Alpha  occ. eigenvalues --   -1.68987  -1.48726  -1.46945  -1.20819  -0.80284
 Alpha  occ. eigenvalues --   -0.78998  -0.69884  -0.68865  -0.66991  -0.66856
 Alpha  occ. eigenvalues --   -0.65998  -0.64568  -0.52709  -0.51415  -0.47979
 Alpha virt. eigenvalues --    0.04211   0.04842   0.10889   0.11154   0.12193
 Alpha virt. eigenvalues --    0.12847   0.14852   0.16231   0.16535   0.18250
 Alpha virt. eigenvalues --    0.19273   0.19614   0.20573   0.22858   0.23285

 Mulliken charges:
               1
     1  H    0.434867
     2  H    0.455948
     3  N   -0.051962
     4  N    0.009717
     5  O   -0.595492
     6  O    0.341122
     7  O   -0.594200
 Sum of Mulliken charges =  -0.00000

 Dipole moment (field-independent basis, Debye):
    X=             -1.8739    Y=              0.3563    Z=              0.0765  Tot=              1.9090

 Test job not archived.
 1\1\GINC-SE338\SP\RHF\Aug-CC-pVDZ\H2N2O3\OHZDE\08-Apr-2025\0\\#t hf au
 g-cc-pvdz iop(5/13=1,5/36=2,99/5=2) pseudo=read geom=check guess=(read
 ,tcheck) scf=(maxcycle=1)\\title\\0,1\H,0,-2.03166,-0.846722,0.846112\
 H,0,-1.45709,1.3196,-0.810361\N,0,2.17159,0.366578,0.180264\N,0,1.9505
 5,-0.636695,-0.17843\O,0,-1.65779,-0.946646,-0.0341111\O,0,-0.530166,-
 0.108983,0.00064213\O,0,-0.98282,1.23287,0.0273953\\Version=ES64L-G16R
 evC.01\State=1-A\HF=-334.8553658\RMSD=3.480e-02\Dipole=-0.7372563,0.14
 01876,0.0301119\Quadrupole=1.4921683,-2.0321327,0.5399644,-0.848583,-0

 Normal termination of Gaussian 16 at Tue Apr  8 21:10:20 2025.
