 Gaussian 16, Revision C.01,

 ----------------------------------------------------------------------
 #t hf aug-cc-pvdz symm=none int=(grid=ultrafine) guess=(read,tcheck) s
 table=(opt,rrhf)
 ----------------------------------------------------------------------
 -----
 title
 -----
 Symbolic Z-matrix:
 Charge =  0 Multiplicity = 1

 SCF Done:  E(RHF) =  -1016.59008250     A.U. after   14 cycles
 Normal termination of Gaussian 16 at Tue Apr  8 22:41:06 2025.
 Gaussian 16:  ES64L-G16RevC.01  3-Jul-2019

 ----------------------------------------------------------------------
 #t hf aug-cc-pvdz iop(5/13=1,5/36=2,99/5=2) pseudo=read geom=check gue
 ss=(read,tcheck) scf=(maxcycle=1)
 ----------------------------------------------------------------------
 -----
 title
 -----
 Structure from the checkpoint file:  "ANI1ccx_89_conf1_mol1.chk"
 Charge =  0 Multiplicity = 1

                         Standard orientation:
 ---------------------------------------------------------------------
 Center     Atomic      Atomic             Coordinates (Angstroms)
 Number     Number       Type             X           Y           Z
 ---------------------------------------------------------------------
      1          6           0       -2.537780   -1.667349    0.774287
      2          6           0        3.046392    1.420608    0.497622
      3          6           0        1.610052    1.590129   -0.033729
      4          6           0        0.567549    1.733500    1.001960
      5          6           0       -1.017668    2.740751   -0.679334
      6          6           0        3.168820   -0.956695    0.211978
      7          6           0       -0.720406   -2.109180   -1.120240
      8          6           0       -1.357351   -2.511649    0.152045
      9          6           0       -1.921839   -0.356073    1.340310
     10          6           0       -0.953652    1.804761    0.595466
     11          1           0        1.596342    2.446079   -0.718651
     12          1           0       -1.308108    2.744491   -2.402690
     13          1           0        4.461861   -0.355003   -1.332690
     14          1           0        3.761210   -1.877372   -1.398850
     15          1           0        2.212380   -2.015621    1.605010
     16          1           0        3.033421   -0.075237    1.835780
     17          1           0        3.778292    1.799288   -0.253520
     18          1           0        3.351932    2.037588    1.300460
     19          1           0        1.510041    0.708799   -0.695702
     20          1           0        0.739832    2.639640    1.643950
     21          1           0        0.687192    0.872851    1.737720
     22          1           0       -1.426768    2.122431    1.472750
     23          1           0       -1.561319    0.148752   -0.595072
     24          1           0        1.090399   -2.607061   -0.319859
     25          1           0        1.149970   -1.969361   -1.808290
     26          1           0       -0.562363   -2.668430    0.938635
     27          1           0       -1.891411   -3.444199    0.040936
     28          1           0       -3.022790   -2.248578    1.568590
     29          1           0       -3.505430   -0.875983   -1.000190
     30          1           0       -4.462980   -0.844057    0.433899
     31          7           0        3.594130   -0.866222   -1.129280
     32          7           0        2.708010   -2.082582    0.682070
     33          7           0        3.322881    0.147444    0.954867
     34          7           0       -3.696850   -1.274948   -0.102841
     35          7           0        0.601656   -2.512510   -1.228930
     36          7           0       -1.575549    0.553518    0.361299
     37          8           0       -1.090067    3.960721   -0.788331
     38          8           0       -1.764849   -0.069404    2.531010
     39          8           0       -1.383440   -1.420089   -1.909280
     40          8           0       -1.213688    1.975681   -1.740240
 ---------------------------------------------------------------------

 SCF Done:  E(RHF) =  -1017.62092413     A.U. after    2 cycles

 The electronic state is 1-A.
 Alpha  occ. eigenvalues --  -20.61811 -20.55138 -20.52553 -20.51270 -15.55085
 Alpha  occ. eigenvalues --  -15.53376 -15.51899 -15.51825 -15.48741 -15.48566
 Alpha  occ. eigenvalues --  -11.41326 -11.37856 -11.37508 -11.35705 -11.30374
 Alpha  occ. eigenvalues --  -11.30319 -11.28748 -11.26645 -11.25748 -11.25059
 Alpha  occ. eigenvalues --   -1.57234  -1.46220  -1.45088  -1.44887  -1.34547
 Alpha  occ. eigenvalues --   -1.24888  -1.23270  -1.22531  -1.17231  -1.16513
 Alpha  occ. eigenvalues --   -1.09574  -1.05005  -1.02485  -0.95847  -0.92084
 Alpha  occ. eigenvalues --   -0.88883  -0.85945  -0.83524  -0.81494  -0.79952
 Alpha  occ. eigenvalues --   -0.79494  -0.75063  -0.74461  -0.73090  -0.71710
 Alpha  occ. eigenvalues --   -0.70262  -0.69744  -0.69025  -0.68907  -0.68274
 Alpha  occ. eigenvalues --   -0.67509  -0.65749  -0.65289  -0.63512  -0.62345
 Alpha  occ. eigenvalues --   -0.61882  -0.60920  -0.60682  -0.58786  -0.58574
 Alpha  occ. eigenvalues --   -0.57131  -0.56449  -0.54982  -0.53486  -0.51547
 Alpha  occ. eigenvalues --   -0.51180  -0.49913  -0.49184  -0.48034  -0.47761
 Alpha  occ. eigenvalues --   -0.46261  -0.45851  -0.45163  -0.43295  -0.42550
 Alpha  occ. eigenvalues --   -0.40777  -0.38869
 Alpha virt. eigenvalues --    0.02051   0.03046   0.03460   0.04018   0.04219
 Alpha virt. eigenvalues --    0.04480   0.05106   0.05278   0.06026   0.06277
 Alpha virt. eigenvalues --    0.06554   0.06942   0.07283   0.08528   0.08811

 Mulliken charges:
               1
     1  C   -0.944798
     2  C   -0.755425
     3  C    0.007270
     4  C   -0.732441
     5  C    3.056742
     6  C   -3.777975
     7  C    0.227208
     8  C   -0.342427
     9  C    0.699429
    10  C   -1.618655
    11  H    0.129967
    12  H    0.491645
    13  H    0.190533
    14  H    0.293608
    15  H    0.093904
    16  H    0.420114
    17  H    0.104456
    18  H   -0.120534
    19  H    0.194079
    20  H    0.182610
    21  H    0.230618
    22  H   -0.107290
    23  H    0.159895
    24  H    0.211086
    25  H    0.089972
    26  H    0.126881
    27  H    0.280488
    28  H    0.009886
    29  H    0.110341
    30  H    0.197660
    31  N    0.793395
    32  N    1.152090
    33  N    1.315002
    34  N    0.630605
    35  N    1.043312
    36  N    2.035658
    37  O   -1.466034
    38  O   -1.521468
    39  O   -1.561941
    40  O   -1.529468
 Sum of Mulliken charges =  -0.00000

 Dipole moment (field-independent basis, Debye):
    X=              4.9718    Y=              0.3451    Z=             -0.2418  Tot=              4.9896

 Test job not archived.
 1\1\GINC-SE110\SP\RHF\Aug-CC-pVDZ\C10H20N6O4\OHZDE\08-Apr-2025\0\\#t h
 f aug-cc-pvdz iop(5/13=1,5/36=2,99/5=2) pseudo=read geom=check guess=(
 read,tcheck) scf=(maxcycle=1)\\title\\0,1\C,0,-2.53778,-1.66735,0.7742
 87\C,0,3.04639,1.42061,0.497622\C,0,1.61005,1.59013,-0.0337296\C,0,0.5
 67547,1.7335,1.00196\C,0,-1.01767,2.74075,-0.679334\C,0,3.16882,-0.956
 693,0.211978\C,0,-0.720406,-2.10918,-1.12024\C,0,-1.35735,-2.51165,0.1
 52045\C,0,-1.92184,-0.356074,1.34031\C,0,-0.953654,1.80476,0.595466\H,
 0,1.59634,2.44608,-0.718651\H,0,-1.30811,2.74449,-2.40269\H,0,4.46186,

 Normal termination of Gaussian 16 at Tue Apr  8 22:42:38 2025.
