 Gaussian 16, Revision C.01,

 ----------------------------------------------------------------------
 #t hf aug-cc-pvdz symm=none int=(grid=ultrafine) guess=(read,tcheck) s
 table=(opt,rrhf)
 ----------------------------------------------------------------------
 -----
 title
 -----
 Symbolic Z-matrix:
 Charge =  0 Multiplicity = 1

 SCF Done:  E(RHF) =  -581.854872659     A.U. after   19 cycles
 Normal termination of Gaussian 16 at Tue Apr  8 21:00:55 2025.
 Gaussian 16:  ES64L-G16RevC.01  3-Jul-2019

 ----------------------------------------------------------------------
 #t hf aug-cc-pvdz iop(5/13=1,5/36=2,99/5=2) pseudo=read geom=check gue
 ss=(read,tcheck) scf=(maxcycle=1)
 ----------------------------------------------------------------------
 -----
 title
 -----
 Structure from the checkpoint file:  "ANI1ccx_1808_conf3_mol1.chk"
 Charge =  0 Multiplicity = 1

                         Standard orientation:
 ---------------------------------------------------------------------
 Center     Atomic      Atomic             Coordinates (Angstroms)
 Number     Number       Type             X           Y           Z
 ---------------------------------------------------------------------
      1          6           0       -1.818988    1.691891    0.358705
      2          6           0        2.912260   -0.901977    0.578995
      3          6           0        3.408621    0.271299    0.079981
      4          6           0        2.614591    1.164688   -0.504252
      5          6           0        1.603800   -1.209281    0.387318
      6          6           0        0.731238   -0.291099   -0.196712
      7          6           0       -0.682778   -0.624519   -0.226482
      8          6           0       -1.737409    0.301360    0.080346
      9          6           0        1.260041    0.897195   -0.646621
     10          1           0        0.580080    1.612189   -1.084890
     11          1           0        2.980372    2.172428   -0.904357
     12          1           0        4.482821    0.392268    0.324612
     13          1           0        3.442949   -1.675883    1.290250
     14          1           0        1.084579   -2.089791    0.784305
     15          7           0       -1.179021   -1.836219   -0.306655
     16          7           0       -1.942687    2.847621    0.463979
     17          7           0       -2.883470   -0.326956    0.049103
     18          8           0       -2.535351   -1.624958   -0.165321
 ---------------------------------------------------------------------

 SCF Done:  E(RHF) =  -582.426135107     A.U. after    2 cycles

 The electronic state is 1-A.
 Alpha  occ. eigenvalues --  -20.69367 -15.64805 -15.62753 -15.55947 -11.35791
 Alpha  occ. eigenvalues --  -11.34481 -11.32439 -11.28065 -11.27516 -11.27117
 Alpha  occ. eigenvalues --  -11.27009 -11.26765 -11.26637  -1.64671  -1.28072
 Alpha  occ. eigenvalues --   -1.26221  -1.24191  -1.19813  -1.07464  -1.05275
 Alpha  occ. eigenvalues --   -0.97328  -0.93884  -0.87724  -0.85520  -0.82342
 Alpha  occ. eigenvalues --   -0.75834  -0.73746  -0.70937  -0.68600  -0.65277
 Alpha  occ. eigenvalues --   -0.63781  -0.62116  -0.61862  -0.61656  -0.58537
 Alpha  occ. eigenvalues --   -0.57531  -0.56349  -0.53939  -0.53040  -0.51925
 Alpha  occ. eigenvalues --   -0.50009  -0.46876  -0.37923  -0.37759
 Alpha virt. eigenvalues --    0.01048   0.02636   0.03181   0.03692   0.05131
 Alpha virt. eigenvalues --    0.05662   0.06100   0.07207   0.08137   0.08980
 Alpha virt. eigenvalues --    0.09256   0.09774   0.11034   0.11449   0.11866

 Mulliken charges:
               1
     1  C   -2.642914
     2  C   -0.347497
     3  C    0.399123
     4  C   -0.003475
     5  C   -0.015859
     6  C    1.890425
     7  C   -2.207180
     8  C    0.805523
     9  C    0.379319
    10  H   -0.197709
    11  H   -0.110667
    12  H   -0.148183
    13  H   -0.080776
    14  H   -0.203421
    15  N    1.564751
    16  N    1.207317
    17  N    1.388520
    18  O   -1.677296
 Sum of Mulliken charges =  -0.00000

 Dipole moment (field-independent basis, Debye):
    X=              4.3498    Y=             -1.0988    Z=              0.0101  Tot=              4.4864

 Test job not archived.
 1\1\GINC-SE458\SP\RHF\Aug-CC-pVDZ\C9H5N3O1\OHZDE\08-Apr-2025\0\\#t hf
 aug-cc-pvdz iop(5/13=1,5/36=2,99/5=2) pseudo=read geom=check guess=(re
 ad,tcheck) scf=(maxcycle=1)\\title\\0,1\C,0,-1.81899,1.69189,0.358705\
 C,0,2.91226,-0.901975,0.578995\C,0,3.40862,0.271302,0.079981\C,0,2.614
 59,1.16469,-0.504252\C,0,1.6038,-1.20928,0.387318\C,0,0.731238,-0.2910
 98,-0.196712\C,0,-0.682778,-0.624519,-0.226482\C,0,-1.73741,0.301359,0
 .0803456\C,0,1.26004,0.897196,-0.646621\H,0,0.580078,1.61219,-1.08489\
 H,0,2.98037,2.17243,-0.904357\H,0,4.48282,0.392271,0.324612\H,0,3.4429

 Normal termination of Gaussian 16 at Tue Apr  8 21:01:07 2025.
