 Gaussian 16, Revision C.01,

 ----------------------------------------------------------------------
 #t hf aug-cc-pvdz symm=none int=(grid=ultrafine) guess=(read,tcheck) s
 table=(opt,rrhf)
 ----------------------------------------------------------------------
 -----
 title
 -----
 Symbolic Z-matrix:
 Charge =  0 Multiplicity = 1

 SCF Done:  E(RHF) =  -299.988636215     A.U. after   13 cycles
 Normal termination of Gaussian 16 at Tue Apr  8 21:38:45 2025.
 Gaussian 16:  ES64L-G16RevC.01  3-Jul-2019

 ----------------------------------------------------------------------
 #t hf aug-cc-pvdz iop(5/13=1,5/36=2,99/5=2) pseudo=read geom=check gue
 ss=(read,tcheck) scf=(maxcycle=1)
 ----------------------------------------------------------------------
 -----
 title
 -----
 Structure from the checkpoint file:  "ANI1ccx_426_conf3_mol2.chk"
 Charge =  0 Multiplicity = 1

                         Standard orientation:
 ---------------------------------------------------------------------
 Center     Atomic      Atomic             Coordinates (Angstroms)
 Number     Number       Type             X           Y           Z
 ---------------------------------------------------------------------
      1          6           0        1.725040    0.343524    0.089982
      2          1           0       -1.781450   -0.742573    0.975178
      3          1           0       -2.262270   -1.307480   -0.460944
      4          1           0       -2.301240    1.421700    0.281765
      5          1           0       -3.585010    0.433474    0.328401
      6          1           0       -0.010880   -0.295642    0.225939
      7          1           0        1.268700    1.325300    0.339638
      8          7           0       -1.845480   -0.511522   -0.010675
      9          7           0       -2.722110    0.614225   -0.187182
     10          8           0        0.877731   -0.671748    0.005314
     11          8           0        2.909150    0.219892   -0.110922
 ---------------------------------------------------------------------

 SCF Done:  E(RHF) =  -300.295960946     A.U. after    2 cycles

 The electronic state is 1-A.
 Alpha  occ. eigenvalues --  -20.58819 -20.52556 -15.55515 -15.54898 -11.38566
 Alpha  occ. eigenvalues --   -1.53632  -1.43993  -1.29413  -1.06941  -0.84934
 Alpha  occ. eigenvalues --   -0.78695  -0.75561  -0.74173  -0.68724  -0.64938
 Alpha  occ. eigenvalues --   -0.61214  -0.58001  -0.52284  -0.47995  -0.45556
 Alpha  occ. eigenvalues --   -0.43526
 Alpha virt. eigenvalues --    0.01349   0.04183   0.04630   0.05302   0.06664
 Alpha virt. eigenvalues --    0.07882   0.09676   0.11676   0.13615   0.14782
 Alpha virt. eigenvalues --    0.15608   0.15727   0.16936   0.17377   0.17742

 Mulliken charges:
               1
     1  C    1.449081
     2  H    0.198872
     3  H    0.142363
     4  H    0.111720
     5  H    0.135956
     6  H    0.632941
     7  H    0.094065
     8  N   -0.355488
     9  N   -0.192241
    10  O   -1.156974
    11  O   -1.060295
 Sum of Mulliken charges =  -0.00000

 Dipole moment (field-independent basis, Debye):
    X=             -6.3255    Y=              0.7838    Z=              2.9986  Tot=              7.0441

 Test job not archived.
 1\1\GINC-SE110\SP\RHF\Aug-CC-pVDZ\C1H6N2O2\OHZDE\08-Apr-2025\0\\#t hf
 aug-cc-pvdz iop(5/13=1,5/36=2,99/5=2) pseudo=read geom=check guess=(re
 ad,tcheck) scf=(maxcycle=1)\\title\\0,1\C,0,1.72504,0.343524,0.0899816
 \H,0,-1.78145,-0.742573,0.975178\H,0,-2.26227,-1.30748,-0.460944\H,0,-
 2.30124,1.4217,0.281765\H,0,-3.58501,0.433473,0.328401\H,0,-0.0108797,
 -0.295642,0.225939\H,0,1.2687,1.3253,0.339638\N,0,-1.84548,-0.511522,-
 0.0106747\N,0,-2.72211,0.614225,-0.187182\O,0,0.877731,-0.671748,0.005
 31362\O,0,2.90915,0.219892,-0.110922\\Version=ES64L-G16RevC.01\State=1

 Normal termination of Gaussian 16 at Tue Apr  8 21:38:47 2025.
