 Gaussian 16, Revision C.01,

 ----------------------------------------------------------------------
 #t hf aug-cc-pvdz symm=none int=(grid=ultrafine) guess=(read,tcheck) s
 table=(opt,rrhf)
 ----------------------------------------------------------------------
 -----
 title
 -----
 Symbolic Z-matrix:
 Charge =  0 Multiplicity = 1

 SCF Done:  E(RHF) =  -380.221150057     A.U. after   11 cycles
 Normal termination of Gaussian 16 at Tue Apr  8 21:05:27 2025.
 Gaussian 16:  ES64L-G16RevC.01  3-Jul-2019

 ----------------------------------------------------------------------
 #t hf aug-cc-pvdz iop(5/13=1,5/36=2,99/5=2) pseudo=read geom=check gue
 ss=(read,tcheck) scf=(maxcycle=1)
 ----------------------------------------------------------------------
 -----
 title
 -----
 Structure from the checkpoint file:  "ANI1ccx_1843_conf57_mol1.chk"
 Charge =  0 Multiplicity = 1

                         Standard orientation:
 ---------------------------------------------------------------------
 Center     Atomic      Atomic             Coordinates (Angstroms)
 Number     Number       Type             X           Y           Z
 ---------------------------------------------------------------------
      1          1           0        1.191871    1.173779   -0.196181
      2          1           0        0.639414    2.644499   -0.096075
      3          1           0        1.525880   -0.770199   -0.214798
      4          1           0        2.546901   -0.238339    0.753669
      5          1           0        0.127297   -2.653510    0.096677
      6          1           0       -0.388820   -1.226200    0.624165
      7          1           0       -1.729629    0.132675    0.674407
      8          1           0       -0.560097    0.717829    1.412591
      9          1           0       -1.177659   -0.693477   -1.280749
     10          1           0       -1.012189    0.806578   -1.192949
     11          8           0        0.356154    1.708470   -0.009735
     12          8           0        2.299601   -0.136583   -0.211144
     13          8           0        0.111523   -1.684810   -0.104768
     14          8           0       -1.221719    0.010673    1.493111
     15          8           0       -1.690929    0.115547   -1.240059
 ---------------------------------------------------------------------

 SCF Done:  E(RHF) =  -380.616408286     A.U. after    2 cycles

 The electronic state is 1-A.
 Alpha  occ. eigenvalues --  -20.58034 -20.56896 -20.56806 -20.54468 -20.53759
 Alpha  occ. eigenvalues --   -1.46819  -1.44687  -1.43944  -1.42341  -1.42195
 Alpha  occ. eigenvalues --   -0.74243  -0.72269  -0.70234  -0.69762  -0.69660
 Alpha  occ. eigenvalues --   -0.63246  -0.60990  -0.59523  -0.57982  -0.55018
 Alpha  occ. eigenvalues --   -0.51513  -0.50936  -0.49881  -0.49329  -0.47415
 Alpha virt. eigenvalues --    0.03014   0.03574   0.05042   0.06555   0.07617
 Alpha virt. eigenvalues --    0.07945   0.08494   0.09064   0.09570   0.10612
 Alpha virt. eigenvalues --    0.16308   0.18028   0.19490   0.20806   0.21790

 Mulliken charges:
               1
     1  H    0.754603
     2  H    0.518375
     3  H    0.772584
     4  H    0.395074
     5  H    0.459381
     6  H    0.779135
     7  H    0.599080
     8  H    0.528578
     9  H    0.547311
    10  H    0.570068
    11  O   -1.372580
    12  O   -1.084285
    13  O   -1.345609
    14  O   -1.104105
    15  O   -1.017611
 Sum of Mulliken charges =  -0.00000

 Dipole moment (field-independent basis, Debye):
    X=              2.5162    Y=             -0.4538    Z=              1.1579  Tot=              2.8068

 Test job not archived.
 1\1\GINC-SE030\SP\RHF\Aug-CC-pVDZ\H10O5\OHZDE\08-Apr-2025\0\\#t hf aug
 -cc-pvdz iop(5/13=1,5/36=2,99/5=2) pseudo=read geom=check guess=(read,
 tcheck) scf=(maxcycle=1)\\title\\0,1\H,0,1.19187,1.17378,-0.196182\H,0
 ,0.639413,2.6445,-0.0960762\H,0,1.52588,-0.770198,-0.214799\H,0,2.5469
 ,-0.238338,0.753668\H,0,0.127297,-2.65351,0.0966759\H,0,-0.38882,-1.22
 62,0.624164\H,0,-1.72963,0.132675,0.674406\H,0,-0.560098,0.717829,1.41
 259\H,0,-1.17766,-0.693477,-1.28075\H,0,-1.01219,0.806578,-1.19295\O,0
 ,0.356153,1.70847,-0.00973585\O,0,2.2996,-0.136582,-0.211145\O,0,0.111

 Normal termination of Gaussian 16 at Tue Apr  8 21:05:30 2025.
