 Gaussian 16, Revision C.01,

 ----------------------------------------------------------------------
 #t hf aug-cc-pvdz symm=none int=(grid=ultrafine) guess=(read,tcheck) s
 table=(opt,rrhf)
 ----------------------------------------------------------------------
 -----
 title
 -----
 Symbolic Z-matrix:
 Charge =  0 Multiplicity = 1

 SCF Done:  E(RHF) =  -509.534303763     A.U. after   14 cycles
 Normal termination of Gaussian 16 at Tue Apr  8 22:11:57 2025.
 Gaussian 16:  ES64L-G16RevC.01  3-Jul-2019

 ----------------------------------------------------------------------
 #t hf aug-cc-pvdz iop(5/13=1,5/36=2,99/5=2) pseudo=read geom=check gue
 ss=(read,tcheck) scf=(maxcycle=1)
 ----------------------------------------------------------------------
 -----
 title
 -----
 Structure from the checkpoint file:  "ANI1ccx_939_conf48_mol1.chk"
 Charge =  0 Multiplicity = 1

                         Standard orientation:
 ---------------------------------------------------------------------
 Center     Atomic      Atomic             Coordinates (Angstroms)
 Number     Number       Type             X           Y           Z
 ---------------------------------------------------------------------
      1          6           0       -0.769315    0.549381   -0.758924
      2          6           0       -1.425080   -0.496832    0.081710
      3          6           0        0.685313    0.270766   -1.077290
      4          6           0        1.668310   -0.033811    0.058393
      5          1           0       -0.737871    2.646660   -0.549001
      6          1           0       -1.903559    1.882711    0.127440
      7          1           0       -1.372850    0.630771   -1.682400
      8          1           0        0.843033   -0.600861   -1.650880
      9          1           0        1.191070    1.117599   -1.550340
     10          1           0        2.120480    0.115312    1.796790
     11          1           0       -1.530661   -2.408010    0.106632
     12          7           0       -0.885862    1.799810   -0.056937
     13          8           0       -2.279870   -0.332757    0.924391
     14          8           0        2.619070   -0.798676   -0.076709
     15          8           0        1.461860    0.645418    1.195080
     16          8           0       -0.971556   -1.728970   -0.295638
 ---------------------------------------------------------------------

 SCF Done:  E(RHF) =  -510.042073555     A.U. after    2 cycles

 The electronic state is 1-A.
 Alpha  occ. eigenvalues --  -20.61479 -20.60840 -20.55736 -20.53823 -15.49733
 Alpha  occ. eigenvalues --  -11.41201 -11.40136 -11.30887 -11.26809  -1.55730
 Alpha  occ. eigenvalues --   -1.54463  -1.46646  -1.43930  -1.22535  -1.07062
 Alpha  occ. eigenvalues --   -0.97294  -0.84105  -0.80474  -0.74309  -0.72847
 Alpha  occ. eigenvalues --   -0.71970  -0.69468  -0.66747  -0.65749  -0.64594
 Alpha  occ. eigenvalues --   -0.61592  -0.60618  -0.58128  -0.56490  -0.54608
 Alpha  occ. eigenvalues --   -0.49187  -0.47222  -0.46330  -0.45469  -0.43789
 Alpha virt. eigenvalues --    0.02758   0.03677   0.04363   0.04876   0.05168
 Alpha virt. eigenvalues --    0.06674   0.07323   0.09572   0.10324   0.11390
 Alpha virt. eigenvalues --    0.12254   0.13340   0.13899   0.14008   0.14821

 Mulliken charges:
               1
     1  C   -1.906434
     2  C    2.656311
     3  C   -0.204785
     4  C    2.092522
     5  H    0.130151
     6  H    0.254163
     7  H    0.268786
     8  H    0.147014
     9  H    0.293511
    10  H    0.373321
    11  H    0.389233
    12  N    0.618767
    13  O   -1.294386
    14  O   -1.268648
    15  O   -1.239047
    16  O   -1.310480
 Sum of Mulliken charges =  -0.00000

 Dipole moment (field-independent basis, Debye):
    X=             -1.6457    Y=              0.6681    Z=             -2.1397  Tot=              2.7808

 Test job not archived.
 1\1\GINC-SE343\SP\RHF\Aug-CC-pVDZ\C4H7N1O4\OHZDE\08-Apr-2025\0\\#t hf
 aug-cc-pvdz iop(5/13=1,5/36=2,99/5=2) pseudo=read geom=check guess=(re
 ad,tcheck) scf=(maxcycle=1)\\title\\0,1\C,0,-0.769315,0.549381,-0.7589
 24\C,0,-1.42508,-0.496832,0.0817106\C,0,0.685313,0.270767,-1.07729\C,0
 ,1.66831,-0.0338101,0.0583928\H,0,-0.737872,2.64666,-0.549001\H,0,-1.9
 0356,1.88271,0.12744\H,0,-1.37285,0.630771,-1.6824\H,0,0.843033,-0.600
 86,-1.65088\H,0,1.19107,1.1176,-1.55034\H,0,2.12048,0.115313,1.79679\H
 ,0,-1.53066,-2.40801,0.106632\N,0,-0.885863,1.79981,-0.0569367\O,0,-2.

 Normal termination of Gaussian 16 at Tue Apr  8 22:12:04 2025.
