 Gaussian 16, Revision C.01,

 ----------------------------------------------------------------------
 #t hf aug-cc-pvdz symm=none int=(grid=ultrafine) guess=(read,tcheck) s
 table=(opt,rrhf)
 ----------------------------------------------------------------------
 -----
 title
 -----
 Symbolic Z-matrix:
 Charge =  0 Multiplicity = 1

 SCF Done:  E(RHF) =  -298.817022902     A.U. after   14 cycles
 Normal termination of Gaussian 16 at Tue Apr  8 21:36:33 2025.
 Gaussian 16:  ES64L-G16RevC.01  3-Jul-2019

 ----------------------------------------------------------------------
 #t hf aug-cc-pvdz iop(5/13=1,5/36=2,99/5=2) pseudo=read geom=check gue
 ss=(read,tcheck) scf=(maxcycle=1)
 ----------------------------------------------------------------------
 -----
 title
 -----
 Structure from the checkpoint file:  "ANI1ccx_398_conf32_mol1.chk"
 Charge =  0 Multiplicity = 1

                         Standard orientation:
 ---------------------------------------------------------------------
 Center     Atomic      Atomic             Coordinates (Angstroms)
 Number     Number       Type             X           Y           Z
 ---------------------------------------------------------------------
      1          6           0       -0.471158    0.132499   -0.062042
      2          1           0       -1.852250   -1.440010   -0.213158
      3          1           0       -2.536400    0.137381   -0.070433
      4          1           0        0.618857   -1.491290    0.722122
      5          1           0        1.551260    0.782512    0.130347
      6          7           0       -1.663960   -0.416879    0.037069
      7          7           0        0.555437   -0.797751   -0.061454
      8          8           0       -0.211326    1.334420    0.042026
      9          8           0        1.811970   -0.119568   -0.045268
 ---------------------------------------------------------------------

 SCF Done:  E(RHF) =  -299.114776586     A.U. after    2 cycles

 The electronic state is 1-A.
 Alpha  occ. eigenvalues --  -20.57498 -20.52678 -15.57767 -15.55990 -11.40392
 Alpha  occ. eigenvalues --   -1.51505  -1.45288  -1.27105  -1.14325  -0.88373
 Alpha  occ. eigenvalues --   -0.81956  -0.75112  -0.71134  -0.65578  -0.62460
 Alpha  occ. eigenvalues --   -0.58490  -0.54942  -0.46902  -0.46227  -0.43280
 Alpha virt. eigenvalues --    0.02036   0.04593   0.05356   0.06916   0.10297
 Alpha virt. eigenvalues --    0.11090   0.12137   0.13685   0.15020   0.15997
 Alpha virt. eigenvalues --    0.16176   0.17005   0.17950   0.18554   0.20302

 Mulliken charges:
               1
     1  C   -0.069791
     2  H    0.145832
     3  H    0.179650
     4  H    0.217624
     5  H    0.329938
     6  N    0.497696
     7  N    0.967643
     8  O   -1.166869
     9  O   -1.101722
 Sum of Mulliken charges =  -0.00000

 Dipole moment (field-independent basis, Debye):
    X=             -3.3743    Y=             -2.6563    Z=              0.7499  Tot=              4.3594

 Test job not archived.
 1\1\GINC-SE048\SP\RHF\Aug-CC-pVDZ\C1H4N2O2\OHZDE\08-Apr-2025\0\\#t hf
 aug-cc-pvdz iop(5/13=1,5/36=2,99/5=2) pseudo=read geom=check guess=(re
 ad,tcheck) scf=(maxcycle=1)\\title\\0,1\C,0,-0.471158,0.132499,-0.0620
 422\H,0,-1.85225,-1.44001,-0.213158\H,0,-2.5364,0.137381,-0.0704333\H,
 0,0.618857,-1.49129,0.722122\H,0,1.55126,0.782512,0.130347\N,0,-1.6639
 6,-0.416879,0.0370692\N,0,0.555437,-0.797751,-0.0614536\O,0,-0.211326,
 1.33442,0.0420263\O,0,1.81197,-0.119568,-0.045268\\Version=ES64L-G16Re
 vC.01\State=1-A\HF=-299.1147766\RMSD=1.647e-02\Dipole=-1.3275335,-1.04

 Normal termination of Gaussian 16 at Tue Apr  8 21:36:35 2025.
