 Gaussian 16, Revision C.01,

 ----------------------------------------------------------------------
 #t hf aug-cc-pvdz symm=none int=(grid=ultrafine) guess=(read,tcheck) s
 table=(opt,rrhf)
 ----------------------------------------------------------------------
 -----
 title
 -----
 Symbolic Z-matrix:
 Charge =  0 Multiplicity = 1

 SCF Done:  E(RHF) =  -398.813941250     A.U. after   14 cycles
 Normal termination of Gaussian 16 at Tue Apr  8 19:18:46 2025.
 Gaussian 16:  ES64L-G16RevC.01  3-Jul-2019

 ----------------------------------------------------------------------
 #t hf aug-cc-pvdz iop(5/13=1,5/36=2,99/5=2) pseudo=read geom=check gue
 ss=(read,tcheck) scf=(maxcycle=1)
 ----------------------------------------------------------------------
 -----
 title
 -----
 Structure from the checkpoint file:  "ANI1ccx_1166_conf11_mol2.chk"
 Charge =  0 Multiplicity = 1

                         Standard orientation:
 ---------------------------------------------------------------------
 Center     Atomic      Atomic             Coordinates (Angstroms)
 Number     Number       Type             X           Y           Z
 ---------------------------------------------------------------------
      1          6           0       -0.113328    0.243794    0.726460
      2          6           0       -1.462630    0.067901   -0.012026
      3          6           0        0.739902    1.371430    0.004932
      4          6           0        2.034220    0.602944   -0.320969
      5          6           0        1.654400   -0.874461   -0.479407
      6          1           0       -0.888394   -1.679570   -0.033612
      7          1           0        2.466360   -1.590880   -0.338496
      8          1           0        1.198310   -1.080670   -1.447860
      9          1           0        2.650640    1.026910   -1.123810
     10          1           0        0.966560    2.232510    0.642425
     11          1           0        0.141370    1.769540   -0.829766
     12          1           0       -0.263146    0.409903    1.801420
     13          1           0        1.093140   -1.238390    1.491380
     14          1           0        2.658560    0.656037    0.595930
     15          7           0        0.636965   -1.023650    0.605695
     16          8           0       -2.251440    0.949096   -0.215856
     17          8           0       -1.698250   -1.175280   -0.348071
 ---------------------------------------------------------------------

 SCF Done:  E(RHF) =  -399.223349775     A.U. after    2 cycles

 The electronic state is 1-A.
 Alpha  occ. eigenvalues --  -20.57594 -20.51348 -15.52602 -11.37344 -11.29712
 Alpha  occ. eigenvalues --  -11.28563 -11.25530 -11.25445  -1.53686  -1.43752
 Alpha  occ. eigenvalues --   -1.25212  -1.05347  -1.02349  -0.88572  -0.83218
 Alpha  occ. eigenvalues --   -0.80192  -0.74453  -0.73679  -0.67310  -0.64658
 Alpha  occ. eigenvalues --   -0.63209  -0.60988  -0.58318  -0.57537  -0.53998
 Alpha  occ. eigenvalues --   -0.52877  -0.50291  -0.49956  -0.46252  -0.44837
 Alpha  occ. eigenvalues --   -0.41540
 Alpha virt. eigenvalues --    0.02280   0.03354   0.03615   0.04384   0.05579
 Alpha virt. eigenvalues --    0.05688   0.06382   0.06727   0.07871   0.11290
 Alpha virt. eigenvalues --    0.12090   0.12664   0.13304   0.13592   0.14013

 Mulliken charges:
               1
     1  C   -0.947678
     2  C    2.362799
     3  C   -0.150202
     4  C   -0.229650
     5  C   -0.187238
     6  H    0.571937
     7  H    0.054078
     8  H   -0.001702
     9  H    0.096734
    10  H    0.135062
    11  H    0.041755
    12  H    0.139973
    13  H    0.412119
    14  H    0.179788
    15  N    0.212394
    16  O   -1.352813
    17  O   -1.337356
 Sum of Mulliken charges =  -0.00000

 Dipole moment (field-independent basis, Debye):
    X=              5.8325    Y=             -1.1146    Z=              1.7279  Tot=              6.1843

 Test job not archived.
 1\1\GINC-SE179\SP\RHF\Aug-CC-pVDZ\C5H9N1O2\OHZDE\08-Apr-2025\0\\#t hf
 aug-cc-pvdz iop(5/13=1,5/36=2,99/5=2) pseudo=read geom=check guess=(re
 ad,tcheck) scf=(maxcycle=1)\\title\\0,1\C,0,-0.113328,0.243794,0.72646
 \C,0,-1.46263,0.0679016,-0.0120258\C,0,0.739902,1.37143,0.00493255\C,0
 ,2.03422,0.602944,-0.320969\C,0,1.6544,-0.874461,-0.479407\H,0,-0.8883
 94,-1.67957,-0.033612\H,0,2.46636,-1.59088,-0.338496\H,0,1.19831,-1.08
 067,-1.44786\H,0,2.65064,1.02691,-1.12381\H,0,0.96656,2.23251,0.642425
 \H,0,0.14137,1.76954,-0.829766\H,0,-0.263146,0.409903,1.80142\H,0,1.09

 Normal termination of Gaussian 16 at Tue Apr  8 19:18:53 2025.
