 Gaussian 16, Revision C.01,

 ----------------------------------------------------------------------
 #t hf aug-cc-pvdz symm=none int=(grid=ultrafine) guess=(read,tcheck) s
 table=(opt,rrhf)
 ----------------------------------------------------------------------
 -----
 title
 -----
 Symbolic Z-matrix:
 Charge =  0 Multiplicity = 1

 SCF Done:  E(RHF) =  -490.255903585     A.U. after   15 cycles
 Normal termination of Gaussian 16 at Tue Apr  8 21:51:03 2025.
 Gaussian 16:  ES64L-G16RevC.01  3-Jul-2019

 ----------------------------------------------------------------------
 #t hf aug-cc-pvdz iop(5/13=1,5/36=2,99/5=2) pseudo=read geom=check gue
 ss=(read,tcheck) scf=(maxcycle=1)
 ----------------------------------------------------------------------
 -----
 title
 -----
 Structure from the checkpoint file:  "ANI1ccx_703_conf47_mol1.chk"
 Charge =  0 Multiplicity = 1

                         Standard orientation:
 ---------------------------------------------------------------------
 Center     Atomic      Atomic             Coordinates (Angstroms)
 Number     Number       Type             X           Y           Z
 ---------------------------------------------------------------------
      1          6           0        0.038455   -0.082471    0.768826
      2          6           0        1.368129    0.334845    0.025362
      3          6           0       -1.152000    0.085150   -0.107310
      4          1           0       -0.703688   -1.697280    0.047943
      5          1           0       -0.245287    0.449893    1.737120
      6          1           0        2.333630   -0.394220   -1.385270
      7          1           0       -2.865412    1.251357   -0.426407
      8          8           0       -0.025641   -1.515879    0.842088
      9          8           0        1.766841   -0.773032   -0.680886
     10          8           0        1.844428    1.517953    0.078341
     11          8           0       -1.932162    1.365489   -0.004656
     12          8           0       -1.659309   -0.798893   -0.746719
 ---------------------------------------------------------------------

 SCF Done:  E(RHF) =  -490.732102666     A.U. after    2 cycles

 The electronic state is 1-A.
 Alpha  occ. eigenvalues --  -20.64280 -20.61947 -20.60745 -20.58130 -20.56202
 Alpha  occ. eigenvalues --  -11.45702 -11.45242 -11.36657  -1.58275  -1.55807
 Alpha  occ. eigenvalues --   -1.46015  -1.45538  -1.44109  -1.05845  -0.90461
 Alpha  occ. eigenvalues --   -0.80308  -0.78016  -0.74057  -0.73064  -0.71642
 Alpha  occ. eigenvalues --   -0.66680  -0.63729  -0.61278  -0.60894  -0.59308
 Alpha  occ. eigenvalues --   -0.54267  -0.52068  -0.50217  -0.49615  -0.48847
 Alpha  occ. eigenvalues --   -0.45046
 Alpha virt. eigenvalues --    0.03103   0.03609   0.04817   0.06114   0.07882
 Alpha virt. eigenvalues --    0.09136   0.09635   0.10944   0.11100   0.11685
 Alpha virt. eigenvalues --    0.12722   0.13433   0.14332   0.15720   0.16448

 Mulliken charges:
               1
     1  C    0.809299
     2  C    2.135935
     3  C    1.666960
     4  H    0.483761
     5  H    0.265138
     6  H    0.383043
     7  H    0.377716
     8  O   -1.321804
     9  O   -1.141656
    10  O   -1.200537
    11  O   -1.289481
    12  O   -1.168374
 Sum of Mulliken charges =  -0.00000

 Dipole moment (field-independent basis, Debye):
    X=             -1.3910    Y=             -0.0919    Z=             -1.4743  Tot=              2.0290

 Test job not archived.
 1\1\GINC-SE398\SP\RHF\Aug-CC-pVDZ\C3H4O5\OHZDE\08-Apr-2025\0\\#t hf au
 g-cc-pvdz iop(5/13=1,5/36=2,99/5=2) pseudo=read geom=check guess=(read
 ,tcheck) scf=(maxcycle=1)\\title\\0,1\C,0,0.0384551,-0.0824716,0.76882
 6\C,0,1.36813,0.334842,0.025362\C,0,-1.152,0.0851504,-0.10731\H,0,-0.7
 0369,-1.69728,0.0479429\H,0,-0.245286,0.449892,1.73712\H,0,2.33363,-0.
 394224,-1.38527\H,0,-2.86541,1.25136,-0.426407\O,0,-0.0256433,-1.51588
 ,0.842088\O,0,1.76684,-0.773035,-0.680886\O,0,1.84443,1.51795,0.078341
 2\O,0,-1.93216,1.36549,-0.00465641\O,0,-1.65931,-0.798892,-0.746719\\V

 Normal termination of Gaussian 16 at Tue Apr  8 21:51:08 2025.
