 Gaussian 16, Revision C.01,

 ----------------------------------------------------------------------
 #t hf aug-cc-pvdz symm=none int=(grid=ultrafine) guess=(read,tcheck) s
 table=(opt,rrhf)
 ----------------------------------------------------------------------
 -----
 title
 -----
 Symbolic Z-matrix:
 Charge =  0 Multiplicity = 1

 SCF Done:  E(RHF) =  -456.255828904     A.U. after   11 cycles
 Normal termination of Gaussian 16 at Tue Apr  8 21:06:42 2025.
 Gaussian 16:  ES64L-G16RevC.01  3-Jul-2019

 ----------------------------------------------------------------------
 #t hf aug-cc-pvdz iop(5/13=1,5/36=2,99/5=2) pseudo=read geom=check gue
 ss=(read,tcheck) scf=(maxcycle=1)
 ----------------------------------------------------------------------
 -----
 title
 -----
 Structure from the checkpoint file:  "ANI1ccx_1844_conf174_mol1.chk"
 Charge =  0 Multiplicity = 1

                         Standard orientation:
 ---------------------------------------------------------------------
 Center     Atomic      Atomic             Coordinates (Angstroms)
 Number     Number       Type             X           Y           Z
 ---------------------------------------------------------------------
      1          1           0        2.551771    0.458201   -0.549726
      2          1           0       -2.494288   -1.565089   -1.289540
      3          1           0       -2.593389   -0.467559   -0.223139
      4          1           0        2.675232   -2.018658   -1.096670
      5          1           0        1.686732   -1.590158    0.026289
      6          1           0        0.110806   -2.013248    1.481880
      7          1           0        2.973161    1.713962    0.325691
      8          1           0       -0.811474   -1.501898    0.317723
      9          1           0        0.051813    0.632302    1.029360
     10          1           0        0.712962    1.704442    0.134753
     11          1           0       -1.419979    1.584302   -0.163440
     12          1           0       -2.910709    1.905881    0.099743
     13          8           0        2.585291   -1.392828   -0.340910
     14          8           0       -0.125175    1.562122    0.701535
     15          8           0       -2.560968   -1.457599   -0.282199
     16          8           0        0.032980   -1.282438    0.798920
     17          8           0        2.391181    1.438432   -0.410575
     18          8           0       -2.389889    1.277001   -0.478385
 ---------------------------------------------------------------------

 SCF Done:  E(RHF) =  -456.727673347     A.U. after    2 cycles

 The electronic state is 1-A.
 Alpha  occ. eigenvalues --  -20.58483 -20.57101 -20.55759 -20.55408 -20.54206
 Alpha  occ. eigenvalues --  -20.53144  -1.45816  -1.44167  -1.43054  -1.41902
 Alpha  occ. eigenvalues --   -1.41313  -1.38086  -0.72899  -0.71356  -0.70314
 Alpha  occ. eigenvalues --   -0.68226  -0.67996  -0.66817  -0.62711  -0.60460
 Alpha  occ. eigenvalues --   -0.59030  -0.58364  -0.56224  -0.53475  -0.51761
 Alpha  occ. eigenvalues --   -0.50740  -0.49039  -0.48967  -0.47292  -0.45929
 Alpha virt. eigenvalues --    0.02725   0.04347   0.04606   0.05083   0.06169
 Alpha virt. eigenvalues --    0.07849   0.08136   0.08892   0.09095   0.10097
 Alpha virt. eigenvalues --    0.10600   0.12555   0.16847   0.18432   0.19731

 Mulliken charges:
               1
     1  H    0.646105
     2  H    0.381436
     3  H    0.722596
     4  H    0.356099
     5  H    0.728182
     6  H    0.466359
     7  H    0.407650
     8  H    0.763690
     9  H    0.637716
    10  H    0.710465
    11  H    0.893755
    12  H    0.336498
    13  O   -1.009301
    14  O   -1.392240
    15  O   -1.077045
    16  O   -1.375935
    17  O   -1.052819
    18  O   -1.143211
 Sum of Mulliken charges =  -0.00000

 Dipole moment (field-independent basis, Debye):
    X=              1.7850    Y=             -2.6500    Z=              0.4113  Tot=              3.2215

 Test job not archived.
 1\1\GINC-SE398\SP\RHF\Aug-CC-pVDZ\H12O6\OHZDE\08-Apr-2025\0\\#t hf aug
 -cc-pvdz iop(5/13=1,5/36=2,99/5=2) pseudo=read geom=check guess=(read,
 tcheck) scf=(maxcycle=1)\\title\\0,1\H,0,2.55177,0.458199,-0.549726\H,
 0,-2.49429,-1.56509,-1.28954\H,0,-2.59339,-0.46756,-0.223139\H,0,2.675
 23,-2.01866,-1.09667\H,0,1.68673,-1.59016,0.0262889\H,0,0.110804,-2.01
 325,1.48188\H,0,2.97316,1.71396,0.325691\H,0,-0.811476,-1.5019,0.31772
 3\H,0,0.0518118,0.6323,1.02936\H,0,0.712961,1.70444,0.134753\H,0,-1.41
 998,1.5843,-0.16344\H,0,-2.91071,1.90588,0.0997435\O,0,2.58529,-1.3928

 Normal termination of Gaussian 16 at Tue Apr  8 21:06:46 2025.
