 Gaussian 16, Revision C.01,

 ----------------------------------------------------------------------
 #t hf aug-cc-pvdz symm=none int=(grid=ultrafine) guess=(read,tcheck) s
 table=(opt,rrhf)
 ----------------------------------------------------------------------
 -----
 title
 -----
 Symbolic Z-matrix:
 Charge =  0 Multiplicity = 1

 SCF Done:  E(RHF) =  -294.648944745     A.U. after   15 cycles
 Normal termination of Gaussian 16 at Tue Apr  8 21:42:46 2025.
 Gaussian 16:  ES64L-G16RevC.01  3-Jul-2019

 ----------------------------------------------------------------------
 #t hf aug-cc-pvdz iop(5/13=1,5/36=2,99/5=2) pseudo=read geom=check gue
 ss=(read,tcheck) scf=(maxcycle=1)
 ----------------------------------------------------------------------
 -----
 title
 -----
 Structure from the checkpoint file:  "ANI1ccx_486_conf3_mol2.chk"
 Charge =  0 Multiplicity = 1

                         Standard orientation:
 ---------------------------------------------------------------------
 Center     Atomic      Atomic             Coordinates (Angstroms)
 Number     Number       Type             X           Y           Z
 ---------------------------------------------------------------------
      1          6           0       -1.169240    0.514764   -0.018115
      2          6           0        1.027683    0.739546    0.025670
      3          1           0       -2.209524    0.883152    0.029364
      4          1           0        1.909124    1.368368    0.007018
      5          7           0       -0.143252    1.349872   -0.020961
      6          7           0        1.210561   -0.585600    0.008727
      7          7           0        0.134352   -1.339512   -0.039596
      8          7           0       -1.037413   -0.821528    0.040157
 ---------------------------------------------------------------------

 SCF Done:  E(RHF) =  -294.940439835     A.U. after    2 cycles

 The electronic state is 1-A.
 Alpha  occ. eigenvalues --  -15.63325 -15.57532 -15.57416 -15.56030 -11.36759
 Alpha  occ. eigenvalues --  -11.36194  -1.45568  -1.30086  -1.26121  -1.04347
 Alpha  occ. eigenvalues --   -1.01130  -0.85773  -0.79658  -0.69530  -0.66767
 Alpha  occ. eigenvalues --   -0.66601  -0.60525  -0.53487  -0.51898  -0.49325
 Alpha  occ. eigenvalues --   -0.47728
 Alpha virt. eigenvalues --    0.00655   0.03046   0.03737   0.04546   0.08122
 Alpha virt. eigenvalues --    0.08224   0.09109   0.09890   0.11245   0.14067
 Alpha virt. eigenvalues --    0.14734   0.14971   0.17450   0.17882   0.19619

 Mulliken charges:
               1
     1  C   -0.444188
     2  C   -0.406364
     3  H    0.082299
     4  H    0.032721
     5  N    0.505962
     6  N    0.372895
     7  N   -0.461726
     8  N    0.318401
 Sum of Mulliken charges =  -0.00000

 Dipole moment (field-independent basis, Debye):
    X=             -0.5208    Y=              3.1282    Z=              0.0546  Tot=              3.1717

 Test job not archived.
 1\1\GINC-SE220\SP\RHF\Aug-CC-pVDZ\C2H2N4\OHZDE\08-Apr-2025\0\\#t hf au
 g-cc-pvdz iop(5/13=1,5/36=2,99/5=2) pseudo=read geom=check guess=(read
 ,tcheck) scf=(maxcycle=1)\\title\\0,1\C,0,-1.16925,0.514745,-0.0181145
 \C,0,1.02767,0.739563,0.02567\H,0,-2.20954,0.883116,0.0293641\H,0,1.90
 91,1.3684,0.00701843\N,0,-0.143275,1.34987,-0.0209614\N,0,1.21057,-0.5
 8558,0.00872692\N,0,0.134373,-1.33951,-0.039596\N,0,-1.0374,-0.821545,
 0.0401569\\Version=ES64L-G16RevC.01\State=1-A\HF=-294.9404398\RMSD=3.9
 61e-02\Dipole=-0.2049165,1.2307206,0.0214952\Quadrupole=3.2361414,-3.9

 Normal termination of Gaussian 16 at Tue Apr  8 21:42:49 2025.
