 Gaussian 16, Revision C.01,

 ----------------------------------------------------------------------
 #t hf aug-cc-pvdz symm=none int=(grid=ultrafine) guess=(read,tcheck) s
 table=(opt,rrhf)
 ----------------------------------------------------------------------
 -----
 title
 -----
 Symbolic Z-matrix:
 Charge =  0 Multiplicity = 1

 SCF Done:  E(RHF) =  -569.268325627     A.U. after   14 cycles
 Normal termination of Gaussian 16 at Tue Apr  8 19:53:09 2025.
 Gaussian 16:  ES64L-G16RevC.01  3-Jul-2019

 ----------------------------------------------------------------------
 #t hf aug-cc-pvdz iop(5/13=1,5/36=2,99/5=2) pseudo=read geom=check gue
 ss=(read,tcheck) scf=(maxcycle=1)
 ----------------------------------------------------------------------
 -----
 title
 -----
 Structure from the checkpoint file:  "ANI1ccx_1526_conf3_mol2.chk"
 Charge =  0 Multiplicity = 1

                         Standard orientation:
 ---------------------------------------------------------------------
 Center     Atomic      Atomic             Coordinates (Angstroms)
 Number     Number       Type             X           Y           Z
 ---------------------------------------------------------------------
      1          6           0        2.096889    0.118249   -0.428390
      2          6           0        1.813429   -0.368748    1.007470
      3          6           0        0.525977   -1.268450    1.026810
      4          6           0       -0.646448   -0.696063    0.239742
      5          6           0       -1.638861   -1.361730   -0.364150
      6          6           0       -2.774591   -0.386369   -0.703342
      7          6           0       -1.090061    0.705797    0.414070
      8          1           0       -3.679031   -0.647572   -0.155125
      9          1           0       -2.941781   -0.293206   -1.790800
     10          1           0       -1.765041   -2.439910   -0.421046
     11          1           0        0.842199   -2.233030    0.554609
     12          1           0        2.653959   -0.985966    1.405660
     13          1           0        1.657439    0.557392    1.585300
     14          1           0        1.039479    1.646170    0.002696
     15          1           0        0.266245   -1.399790    2.077930
     16          8           0       -2.281121    0.826037   -0.221634
     17          8           0        1.591219    1.277520   -0.730714
     18          8           0        2.663319   -0.565612   -1.222410
     19          8           0       -0.447352    1.629530    0.873199
 ---------------------------------------------------------------------

 SCF Done:  E(RHF) =  -569.834337319     A.U. after    2 cycles

 The electronic state is 1-A.
 Alpha  occ. eigenvalues --  -20.61834 -20.57564 -20.56334 -20.50941 -11.42542
 Alpha  occ. eigenvalues --  -11.37100 -11.34367 -11.30479 -11.28796 -11.28201
 Alpha  occ. eigenvalues --  -11.26178  -1.58039  -1.54198  -1.49253  -1.44059
 Alpha  occ. eigenvalues --   -1.15058  -1.06490  -1.01847  -0.91689  -0.86007
 Alpha  occ. eigenvalues --   -0.82899  -0.80200  -0.73429  -0.72637  -0.70662
 Alpha  occ. eigenvalues --   -0.68025  -0.67084  -0.64700  -0.64025  -0.61308
 Alpha  occ. eigenvalues --   -0.60379  -0.58862  -0.56164  -0.55609  -0.52828
 Alpha  occ. eigenvalues --   -0.51942  -0.48460  -0.46660  -0.44884  -0.42463
 Alpha  occ. eigenvalues --   -0.40931
 Alpha virt. eigenvalues --    0.01955   0.02987   0.03555   0.04280   0.05421
 Alpha virt. eigenvalues --    0.05564   0.05728   0.06671   0.08129   0.09044
 Alpha virt. eigenvalues --    0.09461   0.10698   0.11359   0.11884   0.12729

 Mulliken charges:
               1
     1  C    2.437638
     2  C   -0.524851
     3  C   -0.871936
     4  C    0.913384
     5  C   -0.316440
     6  C    0.481677
     7  C    1.766346
     8  H    0.168553
     9  H    0.210286
    10  H   -0.130671
    11  H    0.256574
    12  H    0.150997
    13  H    0.226829
    14  H    0.664259
    15  H    0.213483
    16  O   -1.419993
    17  O   -1.366836
    18  O   -1.372944
    19  O   -1.486354
 Sum of Mulliken charges =   0.00000

 Dipole moment (field-independent basis, Debye):
    X=             -5.0075    Y=             -3.5345    Z=              2.5766  Tot=              6.6488

 Test job not archived.
 1\1\GINC-SE060\SP\RHF\Aug-CC-pVDZ\C7H8O4\OHZDE\08-Apr-2025\0\\#t hf au
 g-cc-pvdz iop(5/13=1,5/36=2,99/5=2) pseudo=read geom=check guess=(read
 ,tcheck) scf=(maxcycle=1)\\title\\0,1\C,0,2.09689,0.118249,-0.42839\C,
 0,1.81343,-0.368748,1.00747\C,0,0.525978,-1.26845,1.02681\C,0,-0.64644
 7,-0.696063,0.239742\C,0,-1.63886,-1.36173,-0.36415\C,0,-2.77459,-0.38
 637,-0.703342\C,0,-1.09006,0.705797,0.41407\H,0,-3.67903,-0.647573,-0.
 155125\H,0,-2.94178,-0.293207,-1.7908\H,0,-1.76504,-2.43991,-0.421046\
 H,0,0.8422,-2.23303,0.554609\H,0,2.65396,-0.985965,1.40566\H,0,1.65744

 Normal termination of Gaussian 16 at Tue Apr  8 19:53:21 2025.
