 Gaussian 16, Revision C.01,

 ----------------------------------------------------------------------
 #t hf aug-cc-pvdz symm=none int=(grid=ultrafine) guess=(read,tcheck) s
 table=(opt,rrhf)
 ----------------------------------------------------------------------
 -----
 title
 -----
 Symbolic Z-matrix:
 Charge =  0 Multiplicity = 1

 SCF Done:  E(RHF) =  -810.419581068     A.U. after   14 cycles
 Normal termination of Gaussian 16 at Tue Apr  8 19:48:21 2025.
 Gaussian 16:  ES64L-G16RevC.01  3-Jul-2019

 ----------------------------------------------------------------------
 #t hf aug-cc-pvdz iop(5/13=1,5/36=2,99/5=2) pseudo=read geom=check gue
 ss=(read,tcheck) scf=(maxcycle=1)
 ----------------------------------------------------------------------
 -----
 title
 -----
 Structure from the checkpoint file:  "ANI1ccx_1427_conf21_mol1.chk"
 Charge =  0 Multiplicity = 1

                         Standard orientation:
 ---------------------------------------------------------------------
 Center     Atomic      Atomic             Coordinates (Angstroms)
 Number     Number       Type             X           Y           Z
 ---------------------------------------------------------------------
      1          6           0       -2.253970   -0.971523    0.550157
      2          6           0       -0.929108   -0.378373    0.053507
      3          6           0       -3.330110   -0.071719   -0.101580
      4          6           0        1.322870    0.695776    0.407344
      5          6           0        0.795087    2.208400    0.194151
      6          6           0        2.215710    0.168369   -0.699014
      7          6           0        2.735310   -1.144330   -0.150097
      8          1           0        0.208599    1.391709   -1.307870
      9          1           0        2.011051   -2.158130   -1.820460
     10          1           0        3.022621   -3.059610   -0.696724
     11          1           0        3.103840    0.805799   -0.782010
     12          1           0        1.788380    0.028975   -1.658260
     13          1           0        1.927130    0.693615    1.324520
     14          1           0        0.356249   -0.431147    1.810950
     15          1           0       -2.752090   -0.191218   -1.970110
     16          1           0       -2.966260    0.946431   -0.016793
     17          1           0       -4.331210   -0.110287    0.342994
     18          1           0       -2.348859   -1.950652    0.013543
     19          1           0       -1.694590   -1.434361    2.433320
     20          1           0       -2.903580   -0.377834    2.188190
     21          7           0       -2.563020   -1.257852    1.905960
     22          7           0        0.169183   -0.086424    0.840575
     23          7           0        2.432071   -2.244030   -0.886242
     24          8           0       -0.717653   -0.221645   -1.146980
     25          8           0       -3.567580   -0.340558   -1.485090
     26          8           0        0.803331    3.062960    0.995853
     27          8           0        3.299190   -1.264530    0.892604
     28          8           0        0.304754    2.254429   -1.057660
 ---------------------------------------------------------------------

 SCF Done:  E(RHF) =  -811.231148829     A.U. after    2 cycles

 The electronic state is 1-A.
 Alpha  occ. eigenvalues --  -20.59006 -20.55369 -20.55310 -20.54901 -20.52943
 Alpha  occ. eigenvalues --  -15.57149 -15.54516 -15.52920 -11.40701 -11.40436
 Alpha  occ. eigenvalues --  -11.37525 -11.32473 -11.30784 -11.30758 -11.27663
 Alpha  occ. eigenvalues --   -1.56537  -1.51269  -1.50016  -1.48964  -1.44813
 Alpha  occ. eigenvalues --   -1.27403  -1.24647  -1.23723  -1.09760  -1.03001
 Alpha  occ. eigenvalues --   -0.97008  -0.90473  -0.86991  -0.84718  -0.82653
 Alpha  occ. eigenvalues --   -0.78087  -0.76793  -0.76208  -0.75028  -0.72136
 Alpha  occ. eigenvalues --   -0.70411  -0.69617  -0.68195  -0.66653  -0.65411
 Alpha  occ. eigenvalues --   -0.64590  -0.63362  -0.61632  -0.60858  -0.59649
 Alpha  occ. eigenvalues --   -0.59189  -0.57393  -0.56262  -0.55769  -0.52860
 Alpha  occ. eigenvalues --   -0.50284  -0.49659  -0.47815  -0.46108  -0.45306
 Alpha  occ. eigenvalues --   -0.45057  -0.44407  -0.42147
 Alpha virt. eigenvalues --    0.02164   0.02781   0.04013   0.04362   0.04564
 Alpha virt. eigenvalues --    0.05059   0.05498   0.05827   0.06276   0.07664
 Alpha virt. eigenvalues --    0.08108   0.08332   0.09195   0.10375   0.10528

 Mulliken charges:
               1
     1  C   -2.311544
     2  C    0.434806
     3  C    1.162992
     4  C   -0.877569
     5  C    2.393999
     6  C   -0.144209
     7  C    0.474710
     8  H    0.768251
     9  H    0.119619
    10  H    0.151879
    11  H    0.277186
    12  H   -0.053685
    13  H    0.059527
    14  H    0.247468
    15  H    0.415331
    16  H    0.162606
    17  H    0.003048
    18  H    0.309343
    19  H    0.221135
    20  H    0.414280
    21  N    0.862000
    22  N    1.225151
    23  N    0.679837
    24  O   -1.632778
    25  O   -1.280555
    26  O   -1.361856
    27  O   -1.422106
    28  O   -1.298866
 Sum of Mulliken charges =  -0.00000

 Dipole moment (field-independent basis, Debye):
    X=              1.4522    Y=             -3.2776    Z=             -0.6157  Tot=              3.6374

 Test job not archived.
 1\1\GINC-SE249\SP\RHF\Aug-CC-pVDZ\C7H13N3O5\OHZDE\08-Apr-2025\0\\#t hf
  aug-cc-pvdz iop(5/13=1,5/36=2,99/5=2) pseudo=read geom=check guess=(r
 ead,tcheck) scf=(maxcycle=1)\\title\\0,1\C,0,-2.25397,-0.971522,0.5501
 57\C,0,-0.929108,-0.378372,0.0535068\C,0,-3.33011,-0.0717174,-0.10158\
 C,0,1.32287,0.695776,0.407344\C,0,0.795088,2.2084,0.194151\C,0,2.21571
 ,0.168369,-0.699014\C,0,2.73531,-1.14433,-0.150097\H,0,0.208599,1.3917
 1,-1.30787\H,0,2.01105,-2.15813,-1.82046\H,0,3.02262,-3.05961,-0.69672
 4\H,0,3.10384,0.805799,-0.78201\H,0,1.78838,0.0289747,-1.65826\H,0,1.9

 Normal termination of Gaussian 16 at Tue Apr  8 19:48:53 2025.
