 Gaussian 16, Revision C.01,

 ----------------------------------------------------------------------
 #t hf aug-cc-pvdz symm=none int=(grid=ultrafine) guess=(read,tcheck) s
 table=(opt,rrhf)
 ----------------------------------------------------------------------
 -----
 title
 -----
 Symbolic Z-matrix:
 Charge =  0 Multiplicity = 1

 SCF Done:  E(RHF) =  -205.853034637     A.U. after   14 cycles
 Normal termination of Gaussian 16 at Tue Apr  8 21:10:16 2025.
 Gaussian 16:  ES64L-G16RevC.01  3-Jul-2019

 ----------------------------------------------------------------------
 #t hf aug-cc-pvdz iop(5/13=1,5/36=2,99/5=2) pseudo=read geom=check gue
 ss=(read,tcheck) scf=(maxcycle=1)
 ----------------------------------------------------------------------
 -----
 title
 -----
 Structure from the checkpoint file:  "ANI1ccx_1869_conf32_mol2.chk"
 Charge =  0 Multiplicity = 1

                         Standard orientation:
 ---------------------------------------------------------------------
 Center     Atomic      Atomic             Coordinates (Angstroms)
 Number     Number       Type             X           Y           Z
 ---------------------------------------------------------------------
      1          1           0        1.038811    1.307900    0.146138
      2          1           0       -1.438959   -0.104038    0.010597
      3          1           0       -2.742539   -0.612818    0.545437
      4          7           0        0.893810    0.233598    0.041148
      5          8           0        1.984411   -0.284957   -0.035811
      6          8           0       -2.373659    0.006678   -0.087965
 ---------------------------------------------------------------------

 SCF Done:  E(RHF) =  -206.052900669     A.U. after    2 cycles

 The electronic state is 1-A.
 Alpha  occ. eigenvalues --  -20.65825 -20.54881 -15.67498  -1.61996  -1.43593
 Alpha  occ. eigenvalues --   -1.03267  -0.78044  -0.71759  -0.69422  -0.62872
 Alpha  occ. eigenvalues --   -0.57469  -0.49207  -0.45712
 Alpha virt. eigenvalues --    0.03119   0.03505   0.05036   0.08577   0.11581
 Alpha virt. eigenvalues --    0.15100   0.16504   0.18092   0.19475   0.22090
 Alpha virt. eigenvalues --    0.23109   0.23732   0.25244   0.26455   0.27576

 Mulliken charges:
               1
     1  H    0.082244
     2  H    0.473983
     3  H    0.318772
     4  N    0.756750
     5  O   -0.837877
     6  O   -0.793871
 Sum of Mulliken charges =  -0.00000

 Dipole moment (field-independent basis, Debye):
    X=              1.3091    Y=              0.5595    Z=              1.3764  Tot=              1.9802

 Test job not archived.
 1\1\GINC-SE079\SP\RHF\Aug-CC-pVDZ\H3N1O2\OHZDE\08-Apr-2025\0\\#t hf au
 g-cc-pvdz iop(5/13=1,5/36=2,99/5=2) pseudo=read geom=check guess=(read
 ,tcheck) scf=(maxcycle=1)\\title\\0,1\H,0,1.03881,1.3079,0.146138\H,0,
 -1.43896,-0.104038,0.0105966\H,0,-2.74254,-0.612818,0.545437\N,0,0.893
 809,0.233598,0.0411479\O,0,1.98441,-0.284956,-0.0358112\O,0,-2.37366,0
 .00667799,-0.0879647\\Version=ES64L-G16RevC.01\State=1-A\HF=-206.05290
 07\RMSD=1.108e-02\Dipole=0.5150401,0.2201401,0.5414995\Quadrupole=-2.5
 865802,1.8858588,0.7007214,3.884559,-2.4078591,-0.6009329\PG=C01 [X(H3

 Normal termination of Gaussian 16 at Tue Apr  8 21:10:17 2025.
