 Gaussian 16, Revision C.01,

 ----------------------------------------------------------------------
 #t hf aug-cc-pvdz symm=none int=(grid=ultrafine) guess=(read,tcheck) s
 table=(opt,rrhf)
 ----------------------------------------------------------------------
 -----
 title
 -----
 Symbolic Z-matrix:
 Charge =  0 Multiplicity = 1

 SCF Done:  E(RHF) =  -487.415409031     A.U. after   14 cycles
 Normal termination of Gaussian 16 at Tue Apr  8 22:00:07 2025.
 Gaussian 16:  ES64L-G16RevC.01  3-Jul-2019

 ----------------------------------------------------------------------
 #t hf aug-cc-pvdz iop(5/13=1,5/36=2,99/5=2) pseudo=read geom=check gue
 ss=(read,tcheck) scf=(maxcycle=1)
 ----------------------------------------------------------------------
 -----
 title
 -----
 Structure from the checkpoint file:  "ANI1ccx_877_conf2_mol1.chk"
 Charge =  0 Multiplicity = 1

                         Standard orientation:
 ---------------------------------------------------------------------
 Center     Atomic      Atomic             Coordinates (Angstroms)
 Number     Number       Type             X           Y           Z
 ---------------------------------------------------------------------
      1          6           0        0.893860   -1.131578   -0.051768
      2          6           0       -0.569222   -1.412521    0.105360
      3          6           0       -1.434350   -0.193122   -0.055466
      4          6           0        0.534218    1.333612    0.032217
      5          1           0       -0.811071   -2.114561   -0.654812
      6          1           0       -0.713051   -1.817601    1.085240
      7          1           0       -1.378154    1.806978   -0.206040
      8          1           0        2.290769    0.294311    0.014829
      9          7           0       -0.808957    1.022119   -0.261321
     10          7           0        1.310449    0.207867   -0.050157
     11          8           0        1.744953   -1.965896   -0.022306
     12          8           0       -2.675460   -0.274529    0.090596
     13          8           0        0.999760    2.445753    0.151595
 ---------------------------------------------------------------------

 SCF Done:  E(RHF) =  -487.895053077     A.U. after    2 cycles

 The electronic state is 1-A.
 Alpha  occ. eigenvalues --  -20.56593 -20.56504 -20.56264 -15.58964 -15.58020
 Alpha  occ. eigenvalues --  -11.44804 -11.42225 -11.41384 -11.30417  -1.53360
 Alpha  occ. eigenvalues --   -1.51876  -1.48429  -1.33822  -1.27110  -1.11584
 Alpha  occ. eigenvalues --   -0.97493  -0.93440  -0.87353  -0.81387  -0.73891
 Alpha  occ. eigenvalues --   -0.73344  -0.71167  -0.67671  -0.66369  -0.64958
 Alpha  occ. eigenvalues --   -0.64479  -0.62815  -0.54483  -0.51348  -0.49955
 Alpha  occ. eigenvalues --   -0.48123  -0.46832  -0.45280
 Alpha virt. eigenvalues --    0.02751   0.04276   0.04656   0.05013   0.07533
 Alpha virt. eigenvalues --    0.08204   0.08526   0.09152   0.09743   0.10202
 Alpha virt. eigenvalues --    0.12478   0.13050   0.13290   0.13604   0.13767

 Mulliken charges:
               1
     1  C    0.713523
     2  C   -0.290728
     3  C    0.799129
     4  C    0.441191
     5  H    0.283660
     6  H    0.319641
     7  H    0.198209
     8  H    0.167765
     9  N    0.545382
    10  N    0.660375
    11  O   -1.324546
    12  O   -1.329565
    13  O   -1.184034
 Sum of Mulliken charges =   0.00000

 Dipole moment (field-independent basis, Debye):
    X=              0.1386    Y=             -0.7632    Z=             -0.0144  Tot=              0.7758

 Test job not archived.
 1\1\GINC-SE343\SP\RHF\Aug-CC-pVDZ\C4H4N2O3\OHZDE\08-Apr-2025\0\\#t hf
 aug-cc-pvdz iop(5/13=1,5/36=2,99/5=2) pseudo=read geom=check guess=(re
 ad,tcheck) scf=(maxcycle=1)\\title\\0,1\C,0,0.893858,-1.13158,-0.05176
 82\C,0,-0.569224,-1.41252,0.10536\C,0,-1.43435,-0.19312,-0.0554658\C,0
 ,0.534221,1.33361,0.0322168\H,0,-0.811075,-2.11456,-0.654812\H,0,-0.71
 3054,-1.8176,1.08524\H,0,-1.37815,1.80698,-0.20604\H,0,2.29077,0.29430
 6,0.0148286\N,0,-0.808954,1.02212,-0.261321\N,0,1.31045,0.207864,-0.05
 01571\O,0,1.74495,-1.9659,-0.0223063\O,0,-2.67546,-0.274524,0.0905957\

 Normal termination of Gaussian 16 at Tue Apr  8 22:00:12 2025.
