 Gaussian 16, Revision C.01,

 ----------------------------------------------------------------------
 #t hf aug-cc-pvdz symm=none int=(grid=ultrafine) guess=(read,tcheck) s
 table=(opt,rrhf)
 ----------------------------------------------------------------------
 -----
 title
 -----
 Symbolic Z-matrix:
 Charge =  0 Multiplicity = 1

 SCF Done:  E(RHF) =  -276.582545059     A.U. after   14 cycles
 Normal termination of Gaussian 16 at Tue Apr  8 21:22:27 2025.
 Gaussian 16:  ES64L-G16RevC.01  3-Jul-2019

 ----------------------------------------------------------------------
 #t hf aug-cc-pvdz iop(5/13=1,5/36=2,99/5=2) pseudo=read geom=check gue
 ss=(read,tcheck) scf=(maxcycle=1)
 ----------------------------------------------------------------------
 -----
 title
 -----
 Structure from the checkpoint file:  "ANI1ccx_370_conf96_mol1.chk"
 Charge =  0 Multiplicity = 1

                         Standard orientation:
 ---------------------------------------------------------------------
 Center     Atomic      Atomic             Coordinates (Angstroms)
 Number     Number       Type             X           Y           Z
 ---------------------------------------------------------------------
      1          6           0        1.040660    0.281020   -0.021472
      2          1           0        2.187340    0.246166    0.157305
      3          7           0        0.103420    1.149739   -0.020983
      4          7           0       -1.088079    0.448755    0.029466
      5          7           0       -0.837992   -0.765635   -0.007991
      6          8           0        0.540907   -0.970287   -0.003989
 ---------------------------------------------------------------------

 SCF Done:  E(RHF) =  -276.853276902     A.U. after    2 cycles

 The electronic state is 1-A.
 Alpha  occ. eigenvalues --  -20.68358 -15.65632 -15.62990 -15.57001 -11.39955
 Alpha  occ. eigenvalues --   -1.65051  -1.40857  -1.26435  -0.96868  -0.95016
 Alpha  occ. eigenvalues --   -0.79386  -0.75362  -0.69401  -0.62417  -0.57254
 Alpha  occ. eigenvalues --   -0.55576  -0.54922  -0.50530
 Alpha virt. eigenvalues --    0.02950   0.05001   0.07495   0.07951   0.08632
 Alpha virt. eigenvalues --    0.12736   0.13426   0.14052   0.15076   0.15830
 Alpha virt. eigenvalues --    0.17795   0.18946   0.19886   0.21790   0.23504

 Mulliken charges:
               1
     1  C    0.191286
     2  H    0.268990
     3  N    0.392880
     4  N   -0.800326
     5  N    1.186067
     6  O   -1.238897
 Sum of Mulliken charges =   0.00000

 Dipole moment (field-independent basis, Debye):
    X=              3.8417    Y=             -0.7945    Z=              0.1129  Tot=              3.9246

 Test job not archived.
 1\1\GINC-SE250\SP\RHF\Aug-CC-pVDZ\C1H1N3O1\OHZDE\08-Apr-2025\0\\#t hf
 aug-cc-pvdz iop(5/13=1,5/36=2,99/5=2) pseudo=read geom=check guess=(re
 ad,tcheck) scf=(maxcycle=1)\\title\\0,1\C,0,1.04066,0.281024,-0.021472
 4\H,0,2.18734,0.246174,0.157305\N,0,0.103417,1.14974,-0.0209827\N,0,-1
 .08808,0.448751,0.0294658\N,0,-0.837988,-0.765638,-0.00799107\O,0,0.54
 0911,-0.970285,-0.00398932\\Version=ES64L-G16RevC.01\State=1-A\HF=-276
 .8532769\RMSD=4.203e-02\Dipole=1.5114296,-0.3125681,0.0444315\Quadrupo
 le=3.1563137,-3.5081274,0.3518136,0.2900419,0.2842891,0.0357783\PG=C01

 Normal termination of Gaussian 16 at Tue Apr  8 21:22:28 2025.
