 Gaussian 16, Revision C.01,

 ----------------------------------------------------------------------
 #t hf aug-cc-pvdz symm=none int=(grid=ultrafine) guess=(read,tcheck) s
 table=(opt,rrhf)
 ----------------------------------------------------------------------
 -----
 title
 -----
 Symbolic Z-matrix:
 Charge =  0 Multiplicity = 1

 SCF Done:  E(RHF) =  -743.658167070     A.U. after   14 cycles
 Normal termination of Gaussian 16 at Tue Apr  8 22:09:41 2025.
 Gaussian 16:  ES64L-G16RevC.01  3-Jul-2019

 ----------------------------------------------------------------------
 #t hf aug-cc-pvdz iop(5/13=1,5/36=2,99/5=2) pseudo=read geom=check gue
 ss=(read,tcheck) scf=(maxcycle=1)
 ----------------------------------------------------------------------
 -----
 title
 -----
 Structure from the checkpoint file:  "ANI1ccx_77_conf1_mol1.chk"
 Charge =  0 Multiplicity = 1

                         Standard orientation:
 ---------------------------------------------------------------------
 Center     Atomic      Atomic             Coordinates (Angstroms)
 Number     Number       Type             X           Y           Z
 ---------------------------------------------------------------------
      1          6           0       -3.450210    1.496279    0.295957
      2          6           0       -0.219492   -2.012190    0.028892
      3          6           0        2.122560   -1.772640   -0.550349
      4          6           0        2.702460   -1.316820    0.812899
      5          6           0        2.935780    0.926374    0.116589
      6          6           0       -1.563450   -1.627760   -0.574495
      7          6           0        0.010991    1.360680    0.049152
      8          6           0       -1.054290    0.784690   -0.914181
      9          6           0       -3.031820    0.060484    0.343582
     10          6           0        2.187130    2.216730    0.048433
     11          1           0        2.307730   -1.876010    1.671670
     12          1           0       -1.521500   -1.822710   -1.624910
     13          1           0       -2.344130   -2.175200   -0.078354
     14          1           0       -0.045672   -3.131670    0.014267
     15          1           0       -0.184804   -1.695340    1.089630
     16          1           0        2.309170   -2.917790   -0.449907
     17          1           0        2.763440   -1.420990   -1.396320
     18          1           0        3.777040   -1.554930    0.863735
     19          1           0        2.824410    0.491483   -0.918129
     20          1           0        0.469876    0.496720    0.527252
     21          1           0        2.089180    2.698380    1.100800
     22          1           0        2.796510    2.896460   -0.548814
     23          1           0       -0.526735    1.969720    0.748376
     24          1           0       -0.539906    0.511358   -1.884800
     25          1           0       -1.744270    1.529380   -1.254080
     26          1           0       -3.928050    1.768979   -0.686336
     27          1           0       -2.558810    2.239330    0.425597
     28          1           0       -4.119310    1.656679    1.178280
     29          1           0        3.998750    1.083790    0.267409
     30          7           0       -1.864390   -0.267770   -0.305989
     31          8           0        2.446570    0.043431    1.095060
     32          8           0       -3.726690   -0.745247    0.922620
     33          8           0        0.928023    2.156150   -0.615810
     34          8           0        0.775829   -1.400360   -0.757163
 ---------------------------------------------------------------------

 SCF Done:  E(RHF) =  -744.423249823     A.U. after    2 cycles

 The electronic state is 1-A.
 Alpha  occ. eigenvalues --  -20.55853 -20.55387 -20.54538 -20.49983 -15.51584
 Alpha  occ. eigenvalues --  -11.34804 -11.31198 -11.29897 -11.29480 -11.29418
 Alpha  occ. eigenvalues --  -11.29021 -11.26358 -11.26070 -11.25717 -11.24957
 Alpha  occ. eigenvalues --   -1.48994  -1.47458  -1.46481  -1.45576  -1.25710
 Alpha  occ. eigenvalues --   -1.06460  -1.04064  -1.02208  -0.99482  -0.95760
 Alpha  occ. eigenvalues --   -0.89742  -0.86972  -0.83340  -0.81248  -0.76212
 Alpha  occ. eigenvalues --   -0.72075  -0.71101  -0.70123  -0.68615  -0.67757
 Alpha  occ. eigenvalues --   -0.66433  -0.65553  -0.64588  -0.63879  -0.62118
 Alpha  occ. eigenvalues --   -0.61179  -0.59265  -0.58540  -0.57446  -0.56407
 Alpha  occ. eigenvalues --   -0.54986  -0.53120  -0.52591  -0.52391  -0.50640
 Alpha  occ. eigenvalues --   -0.50495  -0.48489  -0.48289  -0.47008  -0.44268
 Alpha  occ. eigenvalues --   -0.42232  -0.41388  -0.39872  -0.38809
 Alpha virt. eigenvalues --    0.02698   0.03106   0.03306   0.03999   0.04606
 Alpha virt. eigenvalues --    0.04812   0.05242   0.05629   0.05697   0.06913
 Alpha virt. eigenvalues --    0.07218   0.07573   0.08252   0.08575   0.09472

 Mulliken charges:
               1
     1  C   -0.800144
     2  C    0.413653
     3  C    0.050226
     4  C    0.538133
     5  C    0.483028
     6  C   -0.475595
     7  C    1.688824
     8  C   -1.727397
     9  C    1.304997
    10  C    0.088634
    11  H    0.021759
    12  H   -0.013683
    13  H    0.052131
    14  H    0.057526
    15  H    0.261623
    16  H    0.276632
    17  H    0.060075
    18  H    0.145393
    19  H    0.493975
    20  H    0.277903
    21  H    0.359741
    22  H   -0.038735
    23  H   -0.111221
    24  H    0.097436
    25  H   -0.042559
    26  H    0.368171
    27  H    0.360224
    28  H    0.088177
    29  H   -0.032198
    30  N    1.485342
    31  O   -1.516446
    32  O   -1.345200
    33  O   -1.574901
    34  O   -1.295524
 Sum of Mulliken charges =  -0.00000

 Dipole moment (field-independent basis, Debye):
    X=              4.1636    Y=             -0.1290    Z=             -1.2954  Tot=              4.3624

 Test job not archived.
 1\1\GINC-SE179\SP\RHF\Aug-CC-pVDZ\C10H19N1O4\OHZDE\08-Apr-2025\0\\#t h
 f aug-cc-pvdz iop(5/13=1,5/36=2,99/5=2) pseudo=read geom=check guess=(
 read,tcheck) scf=(maxcycle=1)\\title\\0,1\C,0,-3.45021,1.49628,0.29595
 7\C,0,-0.219492,-2.01219,0.0288919\C,0,2.12256,-1.77264,-0.550349\C,0,
 2.70246,-1.31682,0.812899\C,0,2.93578,0.926374,0.116589\C,0,-1.56345,-
 1.62776,-0.574495\C,0,0.0109907,1.36068,0.0491516\C,0,-1.05429,0.78469
 ,-0.914181\C,0,-3.03182,0.0604842,0.343582\C,0,2.18713,2.21673,0.04843
 22\H,0,2.30773,-1.87601,1.67167\H,0,-1.5215,-1.82271,-1.62491\H,0,-2.3

 Normal termination of Gaussian 16 at Tue Apr  8 22:10:29 2025.
