 Gaussian 16, Revision C.01,

 ----------------------------------------------------------------------
 #t hf aug-cc-pvdz symm=none int=(grid=ultrafine) guess=(read,tcheck) s
 table=(opt,rrhf)
 ----------------------------------------------------------------------
 -----
 title
 -----
 Symbolic Z-matrix:
 Charge =  0 Multiplicity = 1

 SCF Done:  E(RHF) =  -637.023874057     A.U. after   17 cycles
 Normal termination of Gaussian 16 at Tue Apr  8 21:03:47 2025.
 Gaussian 16:  ES64L-G16RevC.01  3-Jul-2019

 ----------------------------------------------------------------------
 #t hf aug-cc-pvdz iop(5/13=1,5/36=2,99/5=2) pseudo=read geom=check gue
 ss=(read,tcheck) scf=(maxcycle=1)
 ----------------------------------------------------------------------
 -----
 title
 -----
 Structure from the checkpoint file:  "ANI1ccx_1814_conf1_mol2.chk"
 Charge =  0 Multiplicity = 1

                         Standard orientation:
 ---------------------------------------------------------------------
 Center     Atomic      Atomic             Coordinates (Angstroms)
 Number     Number       Type             X           Y           Z
 ---------------------------------------------------------------------
      1          6           0        1.606910    1.205431    0.023717
      2          6           0        2.970040    0.606597   -0.051494
      3          6           0        0.848448   -1.103119    0.006630
      4          6           0       -1.230669   -0.993998    0.000034
      5          6           0       -2.613169   -1.269921    0.000277
      6          6           0       -3.489949   -0.193699   -0.040970
      7          6           0       -3.014880    1.138789   -0.027927
      8          6           0       -1.662540    1.394980    0.003337
      9          6           0       -0.801106    0.336303    0.049690
     10          1           0       -1.339250    2.407810   -0.036339
     11          1           0       -3.664520    2.006779    0.124981
     12          1           0       -4.565709   -0.304945   -0.029194
     13          1           0        3.780730    1.308612   -0.062401
     14          1           0        2.430122   -2.436359    0.241147
     15          1           0       -2.967248   -2.286781    0.036442
     16          7           0        0.608610    0.224287    0.117231
     17          7           0        3.183451   -0.656679   -0.027652
     18          7           0        2.154651   -1.474579   -0.005510
     19          7           0       -0.192665   -1.882710   -0.061032
     20          8           0        1.296130    2.388061   -0.026957
 ---------------------------------------------------------------------

 SCF Done:  E(RHF) =  -637.658992957     A.U. after    2 cycles

 The electronic state is 1-A.
 Alpha  occ. eigenvalues --  -20.55869 -15.61985 -15.61310 -15.59760 -15.50604
 Alpha  occ. eigenvalues --  -11.41184 -11.38568 -11.31812 -11.28492 -11.27954
 Alpha  occ. eigenvalues --  -11.25035 -11.24686 -11.24585 -11.24122  -1.49960
 Alpha  occ. eigenvalues --   -1.43990  -1.36914  -1.24703  -1.19702  -1.15263
 Alpha  occ. eigenvalues --   -1.06020  -1.02777  -0.97295  -0.96241  -0.89224
 Alpha  occ. eigenvalues --   -0.87098  -0.81917  -0.81528  -0.75875  -0.74046
 Alpha  occ. eigenvalues --   -0.72449  -0.69121  -0.67736  -0.65042  -0.64339
 Alpha  occ. eigenvalues --   -0.64185  -0.62233  -0.58912  -0.57387  -0.54797
 Alpha  occ. eigenvalues --   -0.54403  -0.50527  -0.49604  -0.47873  -0.46662
 Alpha  occ. eigenvalues --   -0.43152  -0.34945  -0.31801
 Alpha virt. eigenvalues --    0.02681   0.02911   0.03792   0.03938   0.04757
 Alpha virt. eigenvalues --    0.05354   0.06954   0.07888   0.08479   0.08924
 Alpha virt. eigenvalues --    0.09290   0.09903   0.10590   0.11319   0.11419

 Mulliken charges:
               1
     1  C    1.403502
     2  C   -0.505994
     3  C   -2.463814
     4  C   -1.746464
     5  C    1.843496
     6  C    0.356513
     7  C   -0.271021
     8  C    1.329429
     9  C   -0.668898
    10  H   -0.297785
    11  H   -0.229883
    12  H   -0.237360
    13  H   -0.039184
    14  H    0.219463
    15  H   -0.228696
    16  N    0.937637
    17  N    0.296989
    18  N    0.408232
    19  N    1.330820
    20  O   -1.436982
 Sum of Mulliken charges =  -0.00000

 Dipole moment (field-independent basis, Debye):
    X=              1.1006    Y=             -0.2496    Z=              0.6363  Tot=              1.2956

 Test job not archived.
 1\1\GINC-SE097\SP\RHF\Aug-CC-pVDZ\C9H6N4O1\OHZDE\08-Apr-2025\0\\#t hf
 aug-cc-pvdz iop(5/13=1,5/36=2,99/5=2) pseudo=read geom=check guess=(re
 ad,tcheck) scf=(maxcycle=1)\\title\\0,1\C,0,1.60691,1.20543,0.0237172\
 C,0,2.97004,0.606595,-0.0514939\C,0,0.848447,-1.10312,0.00663044\C,0,-
 1.23067,-0.993998,0.000034\C,0,-2.61317,-1.26992,0.00027684\C,0,-3.489
 95,-0.193698,-0.0409704\C,0,-3.01488,1.13879,-0.027927\C,0,-1.66254,1.
 39498,0.0033366\C,0,-0.801107,0.336303,0.0496899\H,0,-1.33925,2.40781,
 -0.0363387\H,0,-3.66452,2.00678,0.124981\H,0,-4.56571,-0.304943,-0.029

 Normal termination of Gaussian 16 at Tue Apr  8 21:04:04 2025.
