 Gaussian 16, Revision C.01,

 ----------------------------------------------------------------------
 #t hf aug-cc-pvdz symm=none int=(grid=ultrafine) guess=(read,tcheck) s
 table=(opt,rrhf)
 ----------------------------------------------------------------------
 -----
 title
 -----
 Symbolic Z-matrix:
 Charge =  0 Multiplicity = 1

 SCF Done:  E(RHF) =  -486.378252869     A.U. after   14 cycles
 Normal termination of Gaussian 16 at Tue Apr  8 21:44:58 2025.
 Gaussian 16:  ES64L-G16RevC.01  3-Jul-2019

 ----------------------------------------------------------------------
 #t hf aug-cc-pvdz iop(5/13=1,5/36=2,99/5=2) pseudo=read geom=check gue
 ss=(read,tcheck) scf=(maxcycle=1)
 ----------------------------------------------------------------------
 -----
 title
 -----
 Structure from the checkpoint file:  "ANI1ccx_517_conf3_mol1.chk"
 Charge =  0 Multiplicity = 1

                         Standard orientation:
 ---------------------------------------------------------------------
 Center     Atomic      Atomic             Coordinates (Angstroms)
 Number     Number       Type             X           Y           Z
 ---------------------------------------------------------------------
      1          6           0       -0.728706   -0.288172    0.005472
      2          6           0        0.699110    0.313389   -0.002445
      3          1           0       -2.847961   -0.783130   -0.058904
      4          1           0       -1.388960    1.622581    0.005360
      5          1           0        1.505189   -1.622690   -0.079744
      6          1           0        2.843260    0.758706   -0.007437
      7          7           0       -1.636460    0.632353    0.092499
      8          7           0        1.658419   -0.627501    0.090386
      9          8           0       -2.954330    0.203104   -0.032340
     10          8           0       -0.928323   -1.517739   -0.035558
     11          8           0        0.911896    1.517500   -0.049782
     12          8           0        2.959800   -0.222957   -0.027024
 ---------------------------------------------------------------------

 SCF Done:  E(RHF) =  -486.856602542     A.U. after    2 cycles

 The electronic state is 1-A.
 Alpha  occ. eigenvalues --  -20.63178 -20.62377 -20.56530 -20.55411 -15.62506
 Alpha  occ. eigenvalues --  -15.61632 -11.40964 -11.40332  -1.56398  -1.55547
 Alpha  occ. eigenvalues --   -1.49927  -1.47578  -1.24308  -1.20985  -0.94876
 Alpha  occ. eigenvalues --   -0.90708  -0.86013  -0.76284  -0.74120  -0.71300
 Alpha  occ. eigenvalues --   -0.69679  -0.68006  -0.64234  -0.63714  -0.61281
 Alpha  occ. eigenvalues --   -0.57153  -0.53736  -0.53068  -0.45390  -0.44181
 Alpha  occ. eigenvalues --   -0.42627
 Alpha virt. eigenvalues --    0.03486   0.04879   0.05487   0.05761   0.06878
 Alpha virt. eigenvalues --    0.09837   0.10520   0.11074   0.11361   0.11904
 Alpha virt. eigenvalues --    0.13712   0.15684   0.15890   0.16558   0.17981

 Mulliken charges:
               1
     1  C    0.422884
     2  C    0.526294
     3  H    0.385172
     4  H    0.183784
     5  H    0.144406
     6  H    0.372435
     7  N    1.684876
     8  N    1.639005
     9  O   -1.282104
    10  O   -1.397279
    11  O   -1.388513
    12  O   -1.290960
 Sum of Mulliken charges =  -0.00000

 Dipole moment (field-independent basis, Debye):
    X=             -0.1149    Y=              0.3079    Z=             -0.3195  Tot=              0.4583

 Test job not archived.
 1\1\GINC-SE367\SP\RHF\Aug-CC-pVDZ\C2H4N2O4\OHZDE\08-Apr-2025\0\\#t hf
 aug-cc-pvdz iop(5/13=1,5/36=2,99/5=2) pseudo=read geom=check guess=(re
 ad,tcheck) scf=(maxcycle=1)\\title\\0,1\C,0,-0.728706,-0.288173,0.0054
 7201\C,0,0.69911,0.313389,-0.00244479\H,0,-2.84796,-0.783131,-0.058903
 9\H,0,-1.38896,1.62258,0.00535966\H,0,1.50519,-1.62269,-0.0797444\H,0,
 2.84326,0.758706,-0.00743746\N,0,-1.63646,0.632352,0.0924992\N,0,1.658
 42,-0.627501,0.0903855\O,0,-2.95433,0.203103,-0.0323396\O,0,-0.928322,
 -1.51774,-0.0355585\O,0,0.911896,1.5175,-0.0497819\O,0,2.9598,-0.22295

 Normal termination of Gaussian 16 at Tue Apr  8 21:45:03 2025.
