 Gaussian 16, Revision C.01,

 ----------------------------------------------------------------------
 #t hf aug-cc-pvdz symm=none int=(grid=ultrafine) guess=(read,tcheck) s
 table=(opt,rrhf)
 ----------------------------------------------------------------------
 -----
 title
 -----
 Symbolic Z-matrix:
 Charge =  0 Multiplicity = 1

 SCF Done:  E(RHF) =  -558.627972302     A.U. after   15 cycles
 Normal termination of Gaussian 16 at Tue Apr  8 19:31:27 2025.
 Gaussian 16:  ES64L-G16RevC.01  3-Jul-2019

 ----------------------------------------------------------------------
 #t hf aug-cc-pvdz iop(5/13=1,5/36=2,99/5=2) pseudo=read geom=check gue
 ss=(read,tcheck) scf=(maxcycle=1)
 ----------------------------------------------------------------------
 -----
 title
 -----
 Structure from the checkpoint file:  "ANI1ccx_1352_conf1_mol1.chk"
 Charge =  0 Multiplicity = 1

                         Standard orientation:
 ---------------------------------------------------------------------
 Center     Atomic      Atomic             Coordinates (Angstroms)
 Number     Number       Type             X           Y           Z
 ---------------------------------------------------------------------
      1          6           0        2.853331   -1.483727    0.016525
      2          6           0        2.297548    1.025683    0.019806
      3          6           0        0.172681    0.985093   -0.025323
      4          6           0       -1.229812    1.162778   -0.011289
      5          6           0       -1.468669   -1.162562   -0.004551
      6          6           0        0.588678   -0.350339   -0.030609
      7          1           0       -3.410938   -1.900854    0.356141
      8          1           0       -2.156077   -3.095913   -0.390977
      9          1           0       -1.240045    3.313808   -0.251209
     10          1           0       -2.751054    2.450566    0.090480
     11          1           0        3.325988    1.351664    0.239256
     12          1           0        3.386141   -1.638356    1.018410
     13          1           0        2.127712   -2.333177    0.034753
     14          1           0        3.576991   -1.634306   -0.780835
     15          7           0        1.956020   -0.303189   -0.115424
     16          7           0        1.237707    1.862211    0.121231
     17          7           0       -1.780684    2.378398   -0.082051
     18          7           0       -2.052031    0.057633    0.085759
     19          7           0       -2.351058   -2.193413    0.068944
     20          7           0       -0.172993   -1.455210   -0.093226
 ---------------------------------------------------------------------

 SCF Done:  E(RHF) =  -559.183124571     A.U. after    2 cycles

 The electronic state is 1-A.
 Alpha  occ. eigenvalues --  -15.56368 -15.53155 -15.51223 -15.50420 -15.47585
 Alpha  occ. eigenvalues --  -15.47345 -11.34178 -11.34050 -11.31501 -11.30835
 Alpha  occ. eigenvalues --  -11.29628 -11.23711  -1.34923  -1.29492  -1.24807
 Alpha  occ. eigenvalues --   -1.18799  -1.17109  -1.14125  -1.01844  -0.98394
 Alpha  occ. eigenvalues --   -0.91163  -0.87356  -0.82696  -0.79347  -0.76474
 Alpha  occ. eigenvalues --   -0.72312  -0.71368  -0.67339  -0.66572  -0.65260
 Alpha  occ. eigenvalues --   -0.62450  -0.61564  -0.61256  -0.57470  -0.55721
 Alpha  occ. eigenvalues --   -0.54817  -0.52842  -0.49174  -0.45975  -0.44099
 Alpha  occ. eigenvalues --   -0.43535  -0.39912  -0.30502
 Alpha virt. eigenvalues --    0.03115   0.03920   0.04237   0.04630   0.04819
 Alpha virt. eigenvalues --    0.05641   0.06917   0.07903   0.08421   0.09318
 Alpha virt. eigenvalues --    0.10750   0.11217   0.11729   0.11864   0.12790

 Mulliken charges:
               1
     1  C   -0.268798
     2  C   -0.528390
     3  C   -0.637871
     4  C   -1.783051
     5  C   -1.139864
     6  C   -1.867716
     7  H    0.254022
     8  H    0.117613
     9  H    0.224142
    10  H    0.027193
    11  H   -0.088734
    12  H    0.232317
    13  H    0.096398
    14  H    0.040009
    15  N    1.301238
    16  N    1.016680
    17  N    0.913923
    18  N    0.618537
    19  N    0.670456
    20  N    0.801896
 Sum of Mulliken charges =   0.00000

 Dipole moment (field-independent basis, Debye):
    X=              1.1480    Y=             -0.5353    Z=             -0.2441  Tot=              1.2900

 Test job not archived.
 1\1\GINC-SE177\SP\RHF\Aug-CC-pVDZ\C6H8N6\OHZDE\08-Apr-2025\0\\#t hf au
 g-cc-pvdz iop(5/13=1,5/36=2,99/5=2) pseudo=read geom=check guess=(read
 ,tcheck) scf=(maxcycle=1)\\title\\0,1\C,0,2.85333,-1.48373,0.016525\C,
 0,2.29755,1.02568,0.0198061\C,0,0.172683,0.985093,-0.0253234\C,0,-1.22
 981,1.16278,-0.0112889\C,0,-1.46867,-1.16256,-0.00455096\C,0,0.588678,
 -0.35034,-0.0306092\H,0,-3.41094,-1.90085,0.356141\H,0,-2.15608,-3.095
 91,-0.390977\H,0,-1.24004,3.31381,-0.251209\H,0,-2.75105,2.45057,0.090
 4803\H,0,3.32599,1.35166,0.239256\H,0,3.38614,-1.63836,1.01841\H,0,2.1

 Normal termination of Gaussian 16 at Tue Apr  8 19:31:54 2025.
