 Gaussian 16, Revision C.01,

 ----------------------------------------------------------------------
 #t hf aug-cc-pvdz symm=none int=(grid=ultrafine) guess=(read,tcheck) s
 table=(opt,rrhf)
 ----------------------------------------------------------------------
 -----
 title
 -----
 Symbolic Z-matrix:
 Charge =  0 Multiplicity = 1

 SCF Done:  E(RHF) =  -722.749883636     A.U. after   14 cycles
 Normal termination of Gaussian 16 at Tue Apr  8 22:04:12 2025.
 Gaussian 16:  ES64L-G16RevC.01  3-Jul-2019

 ----------------------------------------------------------------------
 #t hf aug-cc-pvdz iop(5/13=1,5/36=2,99/5=2) pseudo=read geom=check gue
 ss=(read,tcheck) scf=(maxcycle=1)
 ----------------------------------------------------------------------
 -----
 title
 -----
 Structure from the checkpoint file:  "ANI1ccx_67_conf2_mol2.chk"
 Charge =  0 Multiplicity = 1

                         Standard orientation:
 ---------------------------------------------------------------------
 Center     Atomic      Atomic             Coordinates (Angstroms)
 Number     Number       Type             X           Y           Z
 ---------------------------------------------------------------------
      1          6           0       -2.268499    0.197593   -0.892101
      2          6           0        1.905081    0.438331    2.000210
      3          6           0        2.221831    0.937270    0.579063
      4          6           0        2.263810   -1.241280   -0.436559
      5          6           0        1.550540    0.064047   -0.560667
      6          6           0        1.910132    2.473120    0.385920
      7          6           0       -3.055830    0.069555    1.375450
      8          6           0       -2.961349    1.051812    0.236310
      9          6           0       -0.749871    0.629770   -1.124400
     10          6           0       -3.206190   -1.296838    0.677322
     11          1           0        3.315841    0.768887    0.437308
     12          1           0        2.078139   -2.964750    0.075052
     13          1           0        0.861428    2.586280    0.614185
     14          1           0        2.443012    3.038119    1.113560
     15          1           0        2.204422    2.748320   -0.691872
     16          1           0        2.056480   -0.614404    2.204520
     17          1           0        0.895616    0.822141    2.152290
     18          1           0        2.551521    1.023809    2.674220
     19          1           0        1.680011    0.552825   -1.527290
     20          1           0       -4.256760   -1.479237    0.391686
     21          1           0       -2.941431   -2.091948    1.400010
     22          1           0       -2.040620    0.054352    1.876710
     23          1           0       -3.876899    0.258670    2.098020
     24          1           0       -2.414409    1.950062    0.505109
     25          1           0       -3.961109    1.345742   -0.145052
     26          1           0       -2.789239    0.298398   -1.888370
     27          1           0       -2.501080   -1.826678   -1.120800
     28          1           0       -0.183965   -0.977225    0.090417
     29          7           0       -2.323320   -1.179698   -0.417253
     30          7           0        0.095922   -0.084854   -0.312868
     31          8           0        3.450410   -1.362281   -0.528350
     32          8           0       -0.350736    1.508531   -1.839310
     33          8           0        1.501939   -2.218970    0.043645
 ---------------------------------------------------------------------

 SCF Done:  E(RHF) =  -723.495951019     A.U. after    2 cycles

 The electronic state is 1-A.
 Alpha  occ. eigenvalues --  -20.61165 -20.53752 -20.50990 -15.51269 -15.49482
 Alpha  occ. eigenvalues --  -11.39366 -11.35061 -11.28989 -11.28335 -11.26529
 Alpha  occ. eigenvalues --  -11.24815 -11.24457 -11.24297 -11.22443 -11.22332
 Alpha  occ. eigenvalues --   -1.57832  -1.46858  -1.46515  -1.26186  -1.22415
 Alpha  occ. eigenvalues --   -1.08306  -1.05633  -1.01399  -0.98198  -0.92814
 Alpha  occ. eigenvalues --   -0.86311  -0.85207  -0.81498  -0.80621  -0.77893
 Alpha  occ. eigenvalues --   -0.75240  -0.73622  -0.71668  -0.69311  -0.67025
 Alpha  occ. eigenvalues --   -0.65376  -0.63681  -0.62529  -0.60984  -0.60791
 Alpha  occ. eigenvalues --   -0.59860  -0.59268  -0.57647  -0.56903  -0.55947
 Alpha  occ. eigenvalues --   -0.54444  -0.53626  -0.51071  -0.50119  -0.49621
 Alpha  occ. eigenvalues --   -0.48426  -0.48165  -0.47555  -0.46084  -0.45206
 Alpha  occ. eigenvalues --   -0.44102  -0.40555  -0.39393
 Alpha virt. eigenvalues --    0.02687   0.03205   0.03464   0.04037   0.04221
 Alpha virt. eigenvalues --    0.04587   0.04796   0.05338   0.05480   0.07145
 Alpha virt. eigenvalues --    0.07441   0.07835   0.08245   0.08578   0.09286

 Mulliken charges:
               1
     1  C   -0.955804
     2  C   -0.134321
     3  C   -0.623850
     4  C    3.178115
     5  C   -2.165519
     6  C   -0.268984
     7  C   -0.389403
     8  C   -0.301092
     9  C    1.115477
    10  C   -0.162147
    11  H    0.162408
    12  H    0.401951
    13  H    0.239809
    14  H    0.034872
    15  H    0.368833
    16  H    0.075511
    17  H    0.291849
    18  H    0.140386
    19  H   -0.002870
    20  H   -0.002020
    21  H    0.141975
    22  H    0.259344
    23  H    0.112009
    24  H    0.039560
    25  H    0.133818
    26  H    0.175364
    27  H    0.278458
    28  H    0.241636
    29  N    0.562448
    30  N    1.541825
    31  O   -1.485739
    32  O   -1.494908
    33  O   -1.508992
 Sum of Mulliken charges =  -0.00000

 Dipole moment (field-independent basis, Debye):
    X=             -3.5347    Y=             -2.5411    Z=              1.8942  Tot=              4.7476

 Test job not archived.
 1\1\GINC-SE099\SP\RHF\Aug-CC-pVDZ\C10H18N2O3\OHZDE\08-Apr-2025\0\\#t h
 f aug-cc-pvdz iop(5/13=1,5/36=2,99/5=2) pseudo=read geom=check guess=(
 read,tcheck) scf=(maxcycle=1)\\title\\0,1\C,0,-2.2685,0.197591,-0.8921
 01\C,0,1.90508,0.438331,2.00021\C,0,2.22183,0.93727,0.579063\C,0,2.263
 81,-1.24128,-0.436559\C,0,1.55054,0.0640474,-0.560667\C,0,1.91013,2.47
 312,0.38592\C,0,-3.05583,0.0695527,1.37545\C,0,-2.96135,1.05181,0.2363
 1\C,0,-0.749872,0.629769,-1.1244\C,0,-3.20619,-1.29684,0.677322\H,0,3.
 31584,0.768888,0.437308\H,0,2.07814,-2.96475,0.0750524\H,0,0.861426,2.

 Normal termination of Gaussian 16 at Tue Apr  8 22:04:59 2025.
