 Gaussian 16, Revision C.01,

 ----------------------------------------------------------------------
 #t hf aug-cc-pvdz symm=none int=(grid=ultrafine) guess=(read,tcheck) s
 table=(opt,rrhf)
 ----------------------------------------------------------------------
 -----
 title
 -----
 Symbolic Z-matrix:
 Charge =  0 Multiplicity = 1

 SCF Done:  E(RHF) =  -460.281704454     A.U. after   15 cycles
 Normal termination of Gaussian 16 at Tue Apr  8 21:23:36 2025.
 Gaussian 16:  ES64L-G16RevC.01  3-Jul-2019

 ----------------------------------------------------------------------
 #t hf aug-cc-pvdz iop(5/13=1,5/36=2,99/5=2) pseudo=read geom=check gue
 ss=(read,tcheck) scf=(maxcycle=1)
 ----------------------------------------------------------------------
 -----
 title
 -----
 Structure from the checkpoint file:  "ANI1ccx_373_conf10_mol2.chk"
 Charge =  0 Multiplicity = 1

                         Standard orientation:
 ---------------------------------------------------------------------
 Center     Atomic      Atomic             Coordinates (Angstroms)
 Number     Number       Type             X           Y           Z
 ---------------------------------------------------------------------
      1          6           0        0.029231    0.019941    0.079092
      2          1           0        2.763180   -1.115088    0.012728
      3          7           0       -1.410051   -0.014412    0.001466
      4          7           0        0.766834    1.137590    0.027098
      5          7           0        1.982438    0.701925   -0.068974
      6          7           0        1.928719   -0.570002   -0.043914
      7          7           0        0.739524   -1.083620    0.083778
      8          8           0       -1.937122    1.065277    0.003528
      9          8           0       -1.936730   -1.090893   -0.063961
 ---------------------------------------------------------------------

 SCF Done:  E(RHF) =  -460.735455538     A.U. after    2 cycles

 The electronic state is 1-A.
 Alpha  occ. eigenvalues --  -20.61330 -20.61297 -15.82209 -15.69386 -15.64817
 Alpha  occ. eigenvalues --  -15.62071 -15.59916 -11.38850  -1.71839  -1.57740
 Alpha  occ. eigenvalues --   -1.55336  -1.34583  -1.28749  -1.11919  -1.02727
 Alpha  occ. eigenvalues --   -0.94481  -0.88592  -0.82967  -0.81162  -0.77319
 Alpha  occ. eigenvalues --   -0.77200  -0.69052  -0.60888  -0.57850  -0.54845
 Alpha  occ. eigenvalues --   -0.52767  -0.51707  -0.50764  -0.47232
 Alpha virt. eigenvalues --    0.00900   0.01829   0.04486   0.07218   0.09853
 Alpha virt. eigenvalues --    0.10426   0.10994   0.11321   0.12400   0.13366
 Alpha virt. eigenvalues --    0.13812   0.15437   0.16556   0.16692   0.17505

 Mulliken charges:
               1
     1  C   -0.569106
     2  H    0.080258
     3  N    2.601416
     4  N    0.439158
     5  N   -0.329271
     6  N    0.047371
     7  N    0.418074
     8  O   -1.341080
     9  O   -1.346820
 Sum of Mulliken charges =   0.00000

 Dipole moment (field-independent basis, Debye):
    X=              4.0426    Y=             -2.0879    Z=              0.1805  Tot=              4.5535

 Test job not archived.
 1\1\GINC-SE460\SP\RHF\Aug-CC-pVDZ\C1H1N5O2\OHZDE\08-Apr-2025\0\\#t hf
 aug-cc-pvdz iop(5/13=1,5/36=2,99/5=2) pseudo=read geom=check guess=(re
 ad,tcheck) scf=(maxcycle=1)\\title\\0,1\C,0,0.0292321,0.0199416,0.0790
 924\H,0,2.76318,-1.11509,0.0127277\N,0,-1.41005,-0.0144101,0.00146648\
 N,0,0.766836,1.13759,0.027098\N,0,1.98244,0.701924,-0.0689743\N,0,1.92
 872,-0.570003,-0.0439141\N,0,0.739524,-1.08362,0.0837784\O,0,-1.93712,
 1.06528,0.00352832\O,0,-1.93673,-1.09089,-0.0639613\\Version=ES64L-G16
 RevC.01\State=1-A\HF=-460.7354555\RMSD=4.815e-02\Dipole=1.5904663,-0.8

 Normal termination of Gaussian 16 at Tue Apr  8 21:23:40 2025.
