 Gaussian 16, Revision C.01,

 ----------------------------------------------------------------------
 #t hf aug-cc-pvdz symm=none int=(grid=ultrafine) guess=(read,tcheck) s
 table=(opt,rrhf)
 ----------------------------------------------------------------------
 -----
 title
 -----
 Symbolic Z-matrix:
 Charge =  0 Multiplicity = 1

 SCF Done:  E(RHF) =  -1021.12640949     A.U. after   15 cycles
 Normal termination of Gaussian 16 at Tue Apr  8 22:07:26 2025.
 Gaussian 16:  ES64L-G16RevC.01  3-Jul-2019

 ----------------------------------------------------------------------
 #t hf aug-cc-pvdz iop(5/13=1,5/36=2,99/5=2) pseudo=read geom=check gue
 ss=(read,tcheck) scf=(maxcycle=1)
 ----------------------------------------------------------------------
 -----
 title
 -----
 Structure from the checkpoint file:  "ANI1ccx_54_conf10_mol2.chk"
 Charge =  0 Multiplicity = 1

                         Standard orientation:
 ---------------------------------------------------------------------
 Center     Atomic      Atomic             Coordinates (Angstroms)
 Number     Number       Type             X           Y           Z
 ---------------------------------------------------------------------
      1          6           0       -2.103619    1.188832    0.222027
      2          6           0        4.269910   -0.471083   -0.404707
      3          6           0        1.875870   -0.334502   -1.211320
      4          6           0        1.027340   -0.205483    1.186390
      5          6           0        0.718134    0.078109   -0.307336
      6          6           0        3.194360    0.425623   -0.952500
      7          6           0       -3.766700   -0.578748   -0.597166
      8          6           0       -2.716780    0.450085   -0.991061
      9          6           0       -0.871072    2.060151   -0.198937
     10          6           0       -3.224280   -1.918918   -0.241773
     11          1           0       -0.151682   -0.553195   -0.526267
     12          1           0       -0.560776   -1.313809    1.207760
     13          1           0        3.629510    0.017850    1.277850
     14          1           0        3.598720    0.788137   -1.911700
     15          1           0        3.073421    1.283130   -0.271714
     16          1           0        1.999780   -1.412810   -1.161070
     17          1           0        1.531590   -0.090081   -2.221160
     18          1           0        1.054701    2.104441   -0.788250
     19          1           0       -1.877601   -2.882209    0.585647
     20          1           0       -4.437780   -0.185248    0.209392
     21          1           0       -4.311260   -0.721719   -1.532620
     22          1           0       -3.154609    1.255852   -1.607040
     23          1           0       -1.993060   -0.086395   -1.606390
     24          1           0       -1.800980    0.463365    0.986696
     25          1           0       -2.675089    2.485822    1.682510
     26          1           0       -3.329909    2.821132    0.249014
     27          7           0       -3.101579    2.058392    0.865622
     28          7           0        0.342253    1.471831   -0.458991
     29          8           0       -0.952512    3.274661   -0.303313
     30          8           0       -3.778821   -2.998268   -0.473658
     31          8           0       -2.015680   -1.930569    0.379023
     32          8           0        1.999790    0.269639    1.736630
     33          8           0        5.010970   -1.103161   -1.114220
     34          8           0        4.347690   -0.525850    0.917332
     35          8           0        0.176230   -1.092729    1.803110
 ---------------------------------------------------------------------

 SCF Done:  E(RHF) =  -1022.14432752     A.U. after    2 cycles

 The electronic state is 1-A.
 Alpha  occ. eigenvalues --  -20.66218 -20.63389 -20.58150 -20.58036 -20.57779
 Alpha  occ. eigenvalues --  -20.53976 -20.52209 -15.56358 -15.51555 -11.44318
 Alpha  occ. eigenvalues --  -11.44061 -11.38954 -11.38392 -11.34484 -11.32048
 Alpha  occ. eigenvalues --  -11.29464 -11.29412 -11.29209 -11.27520  -1.60196
 Alpha  occ. eigenvalues --   -1.57048  -1.54062  -1.49605  -1.48812  -1.47775
 Alpha  occ. eigenvalues --   -1.44368  -1.28284  -1.22334  -1.12697  -1.12256
 Alpha  occ. eigenvalues --   -1.03650  -1.01295  -0.93040  -0.92349  -0.87656
 Alpha  occ. eigenvalues --   -0.86674  -0.83671  -0.82407  -0.79569  -0.76792
 Alpha  occ. eigenvalues --   -0.75648  -0.74014  -0.73430  -0.72060  -0.71620
 Alpha  occ. eigenvalues --   -0.69655  -0.68872  -0.68584  -0.66268  -0.65747
 Alpha  occ. eigenvalues --   -0.65388  -0.63961  -0.63354  -0.63044  -0.62415
 Alpha  occ. eigenvalues --   -0.62025  -0.59990  -0.59209  -0.57786  -0.57164
 Alpha  occ. eigenvalues --   -0.56611  -0.54606  -0.53638  -0.53009  -0.50941
 Alpha  occ. eigenvalues --   -0.50648  -0.49184  -0.48696  -0.48102  -0.45629
 Alpha  occ. eigenvalues --   -0.44558  -0.43957  -0.43230
 Alpha virt. eigenvalues --    0.01787   0.02278   0.02772   0.03228   0.04283
 Alpha virt. eigenvalues --    0.04759   0.05089   0.05240   0.06094   0.06692
 Alpha virt. eigenvalues --    0.07214   0.08017   0.08364   0.08701   0.08909

 Mulliken charges:
               1
     1  C   -2.383426
     2  C    2.414575
     3  C   -0.421031
     4  C    2.239940
     5  C   -0.115672
     6  C   -0.203996
     7  C   -0.615685
     8  C    0.092152
     9  C    0.999695
    10  C    2.401935
    11  H    0.070118
    12  H    0.835192
    13  H    0.648367
    14  H    0.101274
    15  H    0.137403
    16  H    0.092481
    17  H    0.150565
    18  H    0.210267
    19  H    0.391014
    20  H    0.376911
    21  H    0.307015
    22  H    0.138626
    23  H    0.074847
    24  H    0.125355
    25  H    0.190722
    26  H    0.278183
    27  N    0.874120
    28  N    0.677020
    29  O   -1.432087
    30  O   -1.364490
    31  O   -1.455094
    32  O   -1.569027
    33  O   -1.383483
    34  O   -1.371960
    35  O   -1.511824
 Sum of Mulliken charges =   0.00000

 Dipole moment (field-independent basis, Debye):
    X=             -5.7487    Y=              0.8746    Z=             -1.8933  Tot=              6.1154

 Test job not archived.
 1\1\GINC-SE460\SP\RHF\Aug-CC-pVDZ\C10H16N2O7\OHZDE\08-Apr-2025\0\\#t h
 f aug-cc-pvdz iop(5/13=1,5/36=2,99/5=2) pseudo=read geom=check guess=(
 read,tcheck) scf=(maxcycle=1)\\title\\0,1\C,0,-2.10362,1.18883,0.22202
 7\C,0,4.26991,-0.471083,-0.404707\C,0,1.87587,-0.334502,-1.21132\C,0,1
 .02734,-0.205484,1.18639\C,0,0.718134,0.0781079,-0.307336\C,0,3.19436,
 0.425623,-0.9525\C,0,-3.7667,-0.57875,-0.597166\C,0,-2.71678,0.450083,
 -0.991061\C,0,-0.871073,2.06015,-0.198937\C,0,-3.22428,-1.91892,-0.241
 773\H,0,-0.151682,-0.553196,-0.526267\H,0,-0.560776,-1.31381,1.20776\H

 Normal termination of Gaussian 16 at Tue Apr  8 22:08:27 2025.
