 Gaussian 16, Revision C.01,

 ----------------------------------------------------------------------
 #t hf aug-cc-pvdz symm=none int=(grid=ultrafine) guess=(read,tcheck) s
 table=(opt,rrhf)
 ----------------------------------------------------------------------
 -----
 title
 -----
 Symbolic Z-matrix:
 Charge =  0 Multiplicity = 1

 SCF Done:  E(RHF) =  -396.766324843     A.U. after   14 cycles
 Normal termination of Gaussian 16 at Tue Apr  8 21:52:58 2025.
 Gaussian 16:  ES64L-G16RevC.01  3-Jul-2019

 ----------------------------------------------------------------------
 #t hf aug-cc-pvdz iop(5/13=1,5/36=2,99/5=2) pseudo=read geom=check gue
 ss=(read,tcheck) scf=(maxcycle=1)
 ----------------------------------------------------------------------
 -----
 title
 -----
 Structure from the checkpoint file:  "ANI1ccx_744_conf15_mol1.chk"
 Charge =  0 Multiplicity = 1

                         Standard orientation:
 ---------------------------------------------------------------------
 Center     Atomic      Atomic             Coordinates (Angstroms)
 Number     Number       Type             X           Y           Z
 ---------------------------------------------------------------------
      1          6           0       -0.023695    0.741817    0.386626
      2          6           0        1.041039   -0.301651    0.085642
      3          6           0       -1.264251    0.055242    0.829202
      4          1           0       -0.751037    1.330850   -1.419460
      5          1           0        0.733931    1.835650   -1.132010
      6          1           0        0.376713    1.339570    1.223420
      7          1           0       -0.987676   -0.596177    1.629880
      8          1           0       -1.997401    0.763567    1.129370
      9          1           0       -2.506372   -1.335939    0.199906
     10          1           0       -0.299553   -1.033020   -0.909802
     11          7           0       -0.165039    1.708190   -0.669308
     12          8           0        2.184689   -0.214703    0.528914
     13          8           0       -1.845251   -0.742871   -0.228403
     14          8           0        0.669077   -1.196710   -0.781132
 ---------------------------------------------------------------------

 SCF Done:  E(RHF) =  -397.167395127     A.U. after    2 cycles

 The electronic state is 1-A.
 Alpha  occ. eigenvalues --  -20.60317 -20.59421 -20.52189 -15.51562 -11.38126
 Alpha  occ. eigenvalues --  -11.32020 -11.29121  -1.55535  -1.49379  -1.43347
 Alpha  occ. eigenvalues --   -1.22588  -1.05119  -0.90644  -0.83259  -0.78066
 Alpha  occ. eigenvalues --   -0.75602  -0.70286  -0.67465  -0.66085  -0.64055
 Alpha  occ. eigenvalues --   -0.61473  -0.60123  -0.56840  -0.54219  -0.49910
 Alpha  occ. eigenvalues --   -0.47988  -0.45370  -0.41704
 Alpha virt. eigenvalues --    0.02105   0.03881   0.03945   0.04889   0.06393
 Alpha virt. eigenvalues --    0.06954   0.07491   0.10257   0.11151   0.11648
 Alpha virt. eigenvalues --    0.13351   0.14036   0.14288   0.15705   0.15918

 Mulliken charges:
               1
     1  C   -1.753509
     2  C    2.272812
     3  C    1.089224
     4  H    0.207141
     5  H    0.201325
     6  H    0.024301
     7  H    0.091584
     8  H    0.066867
     9  H    0.379375
    10  H    0.687959
    11  N    0.604752
    12  O   -1.289658
    13  O   -1.308253
    14  O   -1.273920
 Sum of Mulliken charges =  -0.00000

 Dipole moment (field-independent basis, Debye):
    X=             -5.2652    Y=             -0.3660    Z=              0.4181  Tot=              5.2944

 Test job not archived.
 1\1\GINC-SE049\SP\RHF\Aug-CC-pVDZ\C3H7N1O3\OHZDE\08-Apr-2025\0\\#t hf
 aug-cc-pvdz iop(5/13=1,5/36=2,99/5=2) pseudo=read geom=check guess=(re
 ad,tcheck) scf=(maxcycle=1)\\title\\0,1\C,0,-0.0236943,0.741817,0.3866
 26\C,0,1.04104,-0.30165,0.0856423\C,0,-1.26425,0.0552419,0.829202\H,0,
 -0.751037,1.33085,-1.41946\H,0,0.733931,1.83565,-1.13201\H,0,0.376713,
 1.33957,1.22342\H,0,-0.987675,-0.596177,1.62988\H,0,-1.9974,0.763566,1
 .12937\H,0,-2.50637,-1.33594,0.199906\H,0,-0.299552,-1.03302,-0.909802
 \N,0,-0.165039,1.70819,-0.669308\O,0,2.18469,-0.214702,0.528914\O,0,-1

 Normal termination of Gaussian 16 at Tue Apr  8 21:53:04 2025.
