 Gaussian 16, Revision C.01,

 ----------------------------------------------------------------------
 #t hf aug-cc-pvdz symm=none int=(grid=ultrafine) guess=(read,tcheck) s
 table=(opt,rrhf)
 ----------------------------------------------------------------------
 -----
 title
 -----
 Symbolic Z-matrix:
 Charge =  0 Multiplicity = 1

 SCF Done:  E(RHF) =  -596.218619491     A.U. after   17 cycles
 Normal termination of Gaussian 16 at Tue Apr  8 22:01:46 2025.
 Gaussian 16:  ES64L-G16RevC.01  3-Jul-2019

 ----------------------------------------------------------------------
 #t hf aug-cc-pvdz iop(5/13=1,5/36=2,99/5=2) pseudo=read geom=check gue
 ss=(read,tcheck) scf=(maxcycle=1)
 ----------------------------------------------------------------------
 -----
 title
 -----
 Structure from the checkpoint file:  "ANI1ccx_883_conf3_mol1.chk"
 Charge =  0 Multiplicity = 1

                         Standard orientation:
 ---------------------------------------------------------------------
 Center     Atomic      Atomic             Coordinates (Angstroms)
 Number     Number       Type             X           Y           Z
 ---------------------------------------------------------------------
      1          6           0       -1.824220   -0.212091    0.087777
      2          6           0        0.273202   -1.058011   -0.047810
      3          6           0        0.827590    0.216797   -0.041782
      4          6           0       -0.091615    1.233179   -0.026786
      5          1           0       -3.522200   -1.355450   -0.084891
      6          1           0       -3.813929    0.280818   -0.044243
      7          1           0        0.528538   -2.950111   -0.062084
      8          1           0       -0.421650    3.075969   -0.108936
      9          7           0       -3.144800   -0.452287    0.043063
     10          7           0       -1.001650   -1.263551   -0.019352
     11          7           0        2.202231    0.600942    0.069179
     12          7           0       -1.404659    1.068249    0.020539
     13          8           0        1.099460   -2.125301   -0.042408
     14          8           0        2.989750   -0.324531    0.050581
     15          8           0        0.355995    2.474339   -0.048453
 ---------------------------------------------------------------------

 SCF Done:  E(RHF) =  -596.802326420     A.U. after    2 cycles

 The electronic state is 1-A.
 Alpha  occ. eigenvalues --  -20.60858 -20.60791 -20.58464 -15.63138 -15.54993
 Alpha  occ. eigenvalues --  -15.51098 -15.50886 -11.39682 -11.38730 -11.38115
 Alpha  occ. eigenvalues --  -11.25993  -1.56519  -1.54355  -1.52220  -1.35324
 Alpha  occ. eigenvalues --   -1.24862  -1.22116  -1.13516  -0.99680  -0.93193
 Alpha  occ. eigenvalues --   -0.91774  -0.85144  -0.81416  -0.76015  -0.74128
 Alpha  occ. eigenvalues --   -0.73396  -0.69290  -0.69126  -0.63787  -0.61911
 Alpha  occ. eigenvalues --   -0.61218  -0.60682  -0.60115  -0.57686  -0.57378
 Alpha  occ. eigenvalues --   -0.48978  -0.48301  -0.45431  -0.40382  -0.37142
 Alpha virt. eigenvalues --    0.02171   0.03862   0.04377   0.05209   0.05233
 Alpha virt. eigenvalues --    0.08530   0.09162   0.09650   0.10740   0.11712
 Alpha virt. eigenvalues --    0.12167   0.12270   0.12632   0.13225   0.13853

 Mulliken charges:
               1
     1  C   -1.243782
     2  C    0.844531
     3  C   -0.718630
     4  C    0.685685
     5  H    0.089013
     6  H    0.119925
     7  H    0.442762
     8  H    0.417251
     9  N    0.737526
    10  N    0.721010
    11  N    1.689337
    12  N    0.656000
    13  O   -1.611839
    14  O   -1.234665
    15  O   -1.594123
 Sum of Mulliken charges =  -0.00000

 Dipole moment (field-independent basis, Debye):
    X=             -5.9388    Y=             -1.0409    Z=             -0.4640  Tot=              6.0472

 Test job not archived.
 1\1\GINC-SE343\SP\RHF\Aug-CC-pVDZ\C4H4N4O3\OHZDE\08-Apr-2025\0\\#t hf
 aug-cc-pvdz iop(5/13=1,5/36=2,99/5=2) pseudo=read geom=check guess=(re
 ad,tcheck) scf=(maxcycle=1)\\title\\0,1\C,0,-1.82422,-0.21209,0.087776
 9\C,0,0.273202,-1.05801,-0.0478098\C,0,0.827589,0.216798,-0.0417825\C,
 0,-0.0916154,1.23318,-0.0267859\H,0,-3.5222,-1.35545,-0.0848913\H,0,-3
 .81393,0.280818,-0.0442427\H,0,0.528538,-2.95011,-0.0620844\H,0,-0.421
 651,3.07597,-0.108936\N,0,-3.1448,-0.452287,0.0430631\N,0,-1.00165,-1.
 26355,-0.0193522\N,0,2.20223,0.600943,0.069179\N,0,-1.40466,1.06825,0.

 Normal termination of Gaussian 16 at Tue Apr  8 22:01:54 2025.
