 Gaussian 16, Revision C.01,

 ----------------------------------------------------------------------
 #t hf aug-cc-pvdz symm=none int=(grid=ultrafine) guess=(read,tcheck) s
 table=(opt,rrhf)
 ----------------------------------------------------------------------
 -----
 title
 -----
 Symbolic Z-matrix:
 Charge =  0 Multiplicity = 1

 SCF Done:  E(RHF) =  -218.961365586     A.U. after   14 cycles
 Normal termination of Gaussian 16 at Tue Apr  8 21:10:16 2025.
 Gaussian 16:  ES64L-G16RevC.01  3-Jul-2019

 ----------------------------------------------------------------------
 #t hf aug-cc-pvdz iop(5/13=1,5/36=2,99/5=2) pseudo=read geom=check gue
 ss=(read,tcheck) scf=(maxcycle=1)
 ----------------------------------------------------------------------
 -----
 title
 -----
 Structure from the checkpoint file:  "ANI1ccx_1861_conf12_mol1.chk"
 Charge =  0 Multiplicity = 1

                         Standard orientation:
 ---------------------------------------------------------------------
 Center     Atomic      Atomic             Coordinates (Angstroms)
 Number     Number       Type             X           Y           Z
 ---------------------------------------------------------------------
      1          1           0        0.589266    1.082760    0.160236
      2          1           0        0.553805   -0.973576    0.235819
      3          7           0        1.474431    0.609105   -0.106731
      4          7           0        1.486471   -0.629896   -0.003857
      5          7           0       -1.340189    0.075206    0.512159
      6          7           0       -1.784009   -0.070014   -0.458150
 ---------------------------------------------------------------------

 SCF Done:  E(RHF) =  -219.173033214     A.U. after    2 cycles

 The electronic state is 1-A.
 Alpha  occ. eigenvalues --  -15.64606 -15.64250 -15.57855 -15.57378  -1.54637
 Alpha  occ. eigenvalues --   -1.36247  -0.96105  -0.85257  -0.81086  -0.71664
 Alpha  occ. eigenvalues --   -0.71548  -0.71254  -0.62818  -0.56699  -0.45653
 Alpha virt. eigenvalues --    0.04170   0.05323   0.06742   0.07615   0.08185
 Alpha virt. eigenvalues --    0.10616   0.12052   0.15209   0.15557   0.17884
 Alpha virt. eigenvalues --    0.18086   0.18304   0.19111   0.20572   0.20888

 Mulliken charges:
               1
     1  H    0.098409
     2  H    0.098996
     3  N   -0.105846
     4  N   -0.016292
     5  N   -0.083673
     6  N    0.008406
 Sum of Mulliken charges =   0.00000

 Dipole moment (field-independent basis, Debye):
    X=             -3.2721    Y=              0.1775    Z=              0.7987  Tot=              3.3729

 Test job not archived.
 1\1\GINC-SE329\SP\RHF\Aug-CC-pVDZ\H2N4\OHZDE\08-Apr-2025\0\\#t hf aug-
 cc-pvdz iop(5/13=1,5/36=2,99/5=2) pseudo=read geom=check guess=(read,t
 check) scf=(maxcycle=1)\\title\\0,1\H,0,0.589265,1.08276,0.160236\H,0,
 0.553804,-0.973576,0.235819\N,0,1.47443,0.609105,-0.106731\N,0,1.48647
 ,-0.629896,-0.00385676\N,0,-1.34019,0.0752063,0.512159\N,0,-1.78401,-0
 .0700134,-0.45815\\Version=ES64L-G16RevC.01\State=1-A\HF=-219.1730332\
 RMSD=5.418e-02\Dipole=-1.2873504,0.0698238,0.3142285\Quadrupole=-3.553
 2495,2.2784588,1.2747907,0.0643401,0.5738488,0.0082994\PG=C01 [X(H2N4)

 Normal termination of Gaussian 16 at Tue Apr  8 21:10:17 2025.
