 Gaussian 16, Revision C.01,

 ----------------------------------------------------------------------
 #t hf aug-cc-pvdz symm=none int=(grid=ultrafine) guess=(read,tcheck) s
 table=(opt,rrhf)
 ----------------------------------------------------------------------
 -----
 title
 -----
 Symbolic Z-matrix:
 Charge =  0 Multiplicity = 1

 SCF Done:  E(RHF) =  -410.050349797     A.U. after   13 cycles
 Normal termination of Gaussian 16 at Tue Apr  8 21:40:14 2025.
 Gaussian 16:  ES64L-G16RevC.01  3-Jul-2019

 ----------------------------------------------------------------------
 #t hf aug-cc-pvdz iop(5/13=1,5/36=2,99/5=2) pseudo=read geom=check gue
 ss=(read,tcheck) scf=(maxcycle=1)
 ----------------------------------------------------------------------
 -----
 title
 -----
 Structure from the checkpoint file:  "ANI1ccx_451_conf2_mol2.chk"
 Charge =  0 Multiplicity = 1

                         Standard orientation:
 ---------------------------------------------------------------------
 Center     Atomic      Atomic             Coordinates (Angstroms)
 Number     Number       Type             X           Y           Z
 ---------------------------------------------------------------------
      1          6           0       -0.274060   -0.012506   -0.275037
      2          1           0        3.585010   -1.103737    0.910495
      3          1           0        2.785450   -0.780538   -0.379311
      4          1           0       -2.428239   -1.895673   -0.665857
      5          1           0       -1.238619   -2.380702    0.366962
      6          1           0       -1.710721    0.080706    1.260470
      7          1           0        0.930939    1.425690   -0.888410
      8          1           0       -1.642673    2.087508   -0.169940
      9          1           0       -0.597367    2.400339    1.081850
     10          7           0       -1.951299   -1.661983    0.234740
     11          7           0       -1.472271   -0.321929    0.358512
     12          7           0        0.112372    1.211229   -0.316935
     13          7           0       -0.663923    2.340409    0.092416
     14          8           0        3.256349   -0.396623    0.369747
     15          8           0        0.466954   -0.944956   -0.675643
 ---------------------------------------------------------------------

 SCF Done:  E(RHF) =  -410.472151074     A.U. after    2 cycles

 The electronic state is 1-A.
 Alpha  occ. eigenvalues --  -20.53047 -20.49455 -15.56405 -15.55963 -15.55587
 Alpha  occ. eigenvalues --  -15.52938 -11.38266  -1.44926  -1.41428  -1.32730
 Alpha  occ. eigenvalues --   -1.27648  -1.13810  -1.07469  -0.88444  -0.80845
 Alpha  occ. eigenvalues --   -0.76185  -0.74585  -0.71426  -0.69793  -0.69520
 Alpha  occ. eigenvalues --   -0.62190  -0.59859  -0.54920  -0.53028  -0.48030
 Alpha  occ. eigenvalues --   -0.47592  -0.47009  -0.43200  -0.42119
 Alpha virt. eigenvalues --    0.02602   0.04686   0.05155   0.05681   0.06119
 Alpha virt. eigenvalues --    0.06133   0.06984   0.08091   0.11451   0.11903
 Alpha virt. eigenvalues --    0.13616   0.14218   0.15087   0.15988   0.16463

 Mulliken charges:
               1
     1  C   -0.292879
     2  H    0.350774
     3  H    0.447885
     4  H    0.126255
     5  H    0.103049
     6  H    0.119837
     7  H    0.220638
     8  H    0.157774
     9  H    0.117753
    10  N    0.094381
    11  N    0.096880
    12  N    0.409944
    13  N    0.093013
    14  O   -0.795947
    15  O   -1.249356
 Sum of Mulliken charges =  -0.00000

 Dipole moment (field-independent basis, Debye):
    X=             -2.2758    Y=              0.3246    Z=              1.0376  Tot=              2.5222

 Test job not archived.
 1\1\GINC-SE219\SP\RHF\Aug-CC-pVDZ\C1H8N4O2\OHZDE\08-Apr-2025\0\\#t hf
 aug-cc-pvdz iop(5/13=1,5/36=2,99/5=2) pseudo=read geom=check guess=(re
 ad,tcheck) scf=(maxcycle=1)\\title\\0,1\C,0,-0.274059,-0.0125048,-0.27
 5037\H,0,3.58501,-1.10374,0.910495\H,0,2.78545,-0.78054,-0.379311\H,0,
 -2.42824,-1.89567,-0.665857\H,0,-1.23862,-2.3807,0.366962\H,0,-1.71072
 ,0.0807083,1.26047\H,0,0.930941,1.42569,-0.88841\H,0,-1.64267,2.08751,
 -0.16994\H,0,-0.597364,2.40034,1.08185\N,0,-1.9513,-1.66198,0.23474\N,
 0,-1.47227,-0.321927,0.358512\N,0,0.112374,1.21123,-0.316935\N,0,-0.66

 Normal termination of Gaussian 16 at Tue Apr  8 21:40:19 2025.
