 Gaussian 16, Revision C.01,

 ----------------------------------------------------------------------
 #t hf aug-cc-pvdz symm=none int=(grid=ultrafine) guess=(read,tcheck) s
 table=(opt,rrhf)
 ----------------------------------------------------------------------
 -----
 title
 -----
 Symbolic Z-matrix:
 Charge =  0 Multiplicity = 1

 SCF Done:  E(RHF) =  -791.455025972     A.U. after   14 cycles
 Normal termination of Gaussian 16 at Tue Apr  8 20:44:09 2025.
 Gaussian 16:  ES64L-G16RevC.01  3-Jul-2019

 ----------------------------------------------------------------------
 #t hf aug-cc-pvdz iop(5/13=1,5/36=2,99/5=2) pseudo=read geom=check gue
 ss=(read,tcheck) scf=(maxcycle=1)
 ----------------------------------------------------------------------
 -----
 title
 -----
 Structure from the checkpoint file:  "ANI1ccx_1745_conf14_mol2.chk"
 Charge =  0 Multiplicity = 1

                         Standard orientation:
 ---------------------------------------------------------------------
 Center     Atomic      Atomic             Coordinates (Angstroms)
 Number     Number       Type             X           Y           Z
 ---------------------------------------------------------------------
      1          6           0        2.128479   -1.872291    0.133527
      2          6           0        1.514340   -0.414655    0.333164
      3          6           0        3.259279   -2.103562    1.158990
      4          6           0       -0.237398    1.151720   -0.482676
      5          6           0        0.701175    2.414570   -0.276916
      6          6           0       -1.339299    1.128141    0.582053
      7          6           0       -2.338410    0.089418    0.262984
      8          6           0       -3.453100   -0.259961    0.944262
      9          6           0       -3.144811   -1.503927   -0.815055
     10          1           0        2.326182    3.100849   -0.949813
     11          1           0       -4.808601   -1.825186    0.417101
     12          1           0       -3.238421   -2.332177   -1.522100
     13          1           0       -3.875070    0.152198    1.820540
     14          1           0       -1.834488    2.043312    0.662621
     15          1           0       -0.925270    0.932596    1.597850
     16          1           0       -0.720972    1.267241   -1.531670
     17          1           0        2.934069   -1.983472    2.231780
     18          1           0        3.984739   -1.369443    1.006990
     19          1           0        3.794108   -3.100732    0.995848
     20          1           0        1.370608   -2.569041    0.321477
     21          1           0        3.266419   -1.316962   -1.499430
     22          1           0        1.957769   -2.321971   -1.869550
     23          1           0        0.208597   -0.866314   -1.211720
     24          7           0        2.704949   -2.148592   -1.155500
     25          7           0        0.545012   -0.081582   -0.614463
     26          7           0       -2.136250   -0.727109   -0.834928
     27          7           0       -3.992911   -1.301677    0.237321
     28          8           0        0.354348    3.410430    0.348993
     29          8           0        1.935750    0.328949    1.202930
     30          8           0        1.856552    2.288759   -0.919295
 ---------------------------------------------------------------------

 SCF Done:  E(RHF) =  -792.255701710     A.U. after    2 cycles

 The electronic state is 1-A.
 Alpha  occ. eigenvalues --  -20.59303 -20.52794 -20.51036 -15.56950 -15.52434
 Alpha  occ. eigenvalues --  -15.50164 -15.49554 -11.39560 -11.35180 -11.31269
 Alpha  occ. eigenvalues --  -11.30791 -11.26962 -11.26779 -11.25822 -11.23433
 Alpha  occ. eigenvalues --  -11.21468  -1.54685  -1.45349  -1.43714  -1.36286
 Alpha  occ. eigenvalues --   -1.23259  -1.20313  -1.18793  -1.08011  -1.01976
 Alpha  occ. eigenvalues --   -0.98839  -0.93626  -0.88187  -0.86933  -0.83391
 Alpha  occ. eigenvalues --   -0.82549  -0.79611  -0.76369  -0.73265  -0.70655
 Alpha  occ. eigenvalues --   -0.69902  -0.69197  -0.66814  -0.66097  -0.64126
 Alpha  occ. eigenvalues --   -0.63305  -0.62443  -0.61554  -0.60262  -0.60068
 Alpha  occ. eigenvalues --   -0.57699  -0.55392  -0.53562  -0.53083  -0.52338
 Alpha  occ. eigenvalues --   -0.51404  -0.50532  -0.50420  -0.46913  -0.46503
 Alpha  occ. eigenvalues --   -0.45947  -0.43919  -0.41304  -0.39176  -0.34080
 Alpha virt. eigenvalues --    0.01913   0.03260   0.03850   0.04044   0.04584
 Alpha virt. eigenvalues --    0.04885   0.05196   0.05492   0.05729   0.06961
 Alpha virt. eigenvalues --    0.07381   0.07627   0.08832   0.09188   0.09813

 Mulliken charges:
               1
     1  C   -1.241073
     2  C    0.454905
     3  C   -0.024737
     4  C   -1.676309
     5  C    3.056042
     6  C   -0.022931
     7  C   -0.461577
     8  C   -0.132818
     9  C   -1.076237
    10  H    0.456966
    11  H   -0.059126
    12  H   -0.149201
    13  H   -0.359710
    14  H    0.146042
    15  H    0.294423
    16  H    0.370735
    17  H    0.208385
    18  H    0.017681
    19  H    0.241515
    20  H   -0.064653
    21  H    0.279079
    22  H    0.149798
    23  H    0.296236
    24  N    0.572003
    25  N    1.160769
    26  N    1.211806
    27  N    0.693939
    28  O   -1.390731
    29  O   -1.369025
    30  O   -1.582194
 Sum of Mulliken charges =   0.00000

 Dipole moment (field-independent basis, Debye):
    X=             -5.1315    Y=             -3.2299    Z=             -2.0327  Tot=              6.3951

 Test job not archived.
 1\1\GINC-SE044\SP\RHF\Aug-CC-pVDZ\C9H14N4O3\OHZDE\08-Apr-2025\0\\#t hf
  aug-cc-pvdz iop(5/13=1,5/36=2,99/5=2) pseudo=read geom=check guess=(r
 ead,tcheck) scf=(maxcycle=1)\\title\\0,1\C,0,2.12848,-1.87229,0.133527
 \C,0,1.51434,-0.414654,0.333164\C,0,3.25928,-2.10356,1.15899\C,0,-0.23
 7399,1.15172,-0.482676\C,0,0.701173,2.41457,-0.276916\C,0,-1.3393,1.12
 814,0.582053\C,0,-2.33841,0.089416,0.262984\C,0,-3.4531,-0.259964,0.94
 4262\C,0,-3.14481,-1.50393,-0.815055\H,0,2.32618,3.10085,-0.949813\H,0
 ,-4.8086,-1.82519,0.417101\H,0,-3.23842,-2.33218,-1.5221\H,0,-3.87507,

 Normal termination of Gaussian 16 at Tue Apr  8 20:44:47 2025.
