 Gaussian 16, Revision C.01,

 ----------------------------------------------------------------------
 #t hf aug-cc-pvdz symm=none int=(grid=ultrafine) guess=(read,tcheck) s
 table=(opt,rrhf)
 ----------------------------------------------------------------------
 -----
 title
 -----
 Symbolic Z-matrix:
 Charge =  0 Multiplicity = 1

 SCF Done:  E(RHF) =  -486.384816758     A.U. after   14 cycles
 Normal termination of Gaussian 16 at Tue Apr  8 21:44:58 2025.
 Gaussian 16:  ES64L-G16RevC.01  3-Jul-2019

 ----------------------------------------------------------------------
 #t hf aug-cc-pvdz iop(5/13=1,5/36=2,99/5=2) pseudo=read geom=check gue
 ss=(read,tcheck) scf=(maxcycle=1)
 ----------------------------------------------------------------------
 -----
 title
 -----
 Structure from the checkpoint file:  "ANI1ccx_517_conf9_mol2.chk"
 Charge =  0 Multiplicity = 1

                         Standard orientation:
 ---------------------------------------------------------------------
 Center     Atomic      Atomic             Coordinates (Angstroms)
 Number     Number       Type             X           Y           Z
 ---------------------------------------------------------------------
      1          6           0        0.694779    0.320687   -0.040749
      2          6           0       -0.693677   -0.304030   -0.049310
      3          1           0        2.889360    0.736602    0.147055
      4          1           0        1.470851   -1.603859   -0.038070
      5          1           0       -1.530080    1.611830    0.051680
      6          1           0       -2.845519   -0.773650    0.039738
      7          7           0        1.643041   -0.605255   -0.014459
      8          7           0       -1.659510    0.611513   -0.038142
      9          8           0        2.966541   -0.232726    0.065182
     10          8           0        0.911482    1.534191   -0.035121
     11          8           0       -0.904026   -1.511830   -0.024100
     12          8           0       -2.958489    0.196031    0.082559
 ---------------------------------------------------------------------

 SCF Done:  E(RHF) =  -486.862724639     A.U. after    2 cycles

 The electronic state is 1-A.
 Alpha  occ. eigenvalues --  -20.62931 -20.62557 -20.55894 -20.55590 -15.61937
 Alpha  occ. eigenvalues --  -15.61800 -11.40652 -11.40566  -1.56701  -1.55980
 Alpha  occ. eigenvalues --   -1.49555  -1.48604  -1.22902  -1.21827  -0.95928
 Alpha  occ. eigenvalues --   -0.91343  -0.86295  -0.76157  -0.74174  -0.71316
 Alpha  occ. eigenvalues --   -0.69591  -0.68100  -0.64395  -0.64075  -0.61794
 Alpha  occ. eigenvalues --   -0.57471  -0.53852  -0.52932  -0.45605  -0.43686
 Alpha  occ. eigenvalues --   -0.42369
 Alpha virt. eigenvalues --    0.03502   0.04858   0.05545   0.05757   0.06777
 Alpha virt. eigenvalues --    0.09986   0.10448   0.10771   0.11498   0.11833
 Alpha virt. eigenvalues --    0.13642   0.15825   0.15883   0.16994   0.18019

 Mulliken charges:
               1
     1  C    0.466693
     2  C    0.496931
     3  H    0.357199
     4  H    0.127905
     5  H    0.120647
     6  H    0.359677
     7  N    1.745764
     8  N    1.738512
     9  O   -1.311159
    10  O   -1.396372
    11  O   -1.400944
    12  O   -1.304854
 Sum of Mulliken charges =   0.00000

 Dipole moment (field-independent basis, Debye):
    X=              0.0434    Y=             -0.0629    Z=              0.1827  Tot=              0.1981

 Test job not archived.
 1\1\GINC-SE250\SP\RHF\Aug-CC-pVDZ\C2H4N2O4\OHZDE\08-Apr-2025\0\\#t hf
 aug-cc-pvdz iop(5/13=1,5/36=2,99/5=2) pseudo=read geom=check guess=(re
 ad,tcheck) scf=(maxcycle=1)\\title\\0,1\C,0,0.694778,0.320687,-0.04074
 92\C,0,-0.693678,-0.30403,-0.0493102\H,0,2.88936,0.736601,0.147055\H,0
 ,1.47085,-1.60386,-0.0380698\H,0,-1.53008,1.61183,0.0516803\H,0,-2.845
 52,-0.773649,0.039738\N,0,1.64304,-0.605256,-0.0144587\N,0,-1.65951,0.
 611513,-0.038142\O,0,2.96654,-0.232727,0.0651816\O,0,0.911482,1.53419,
 -0.0351213\O,0,-0.904027,-1.51183,-0.0240997\O,0,-2.95849,0.196032,0.0

 Normal termination of Gaussian 16 at Tue Apr  8 21:45:02 2025.
