 Gaussian 16, Revision C.01,

 ----------------------------------------------------------------------
 #t hf aug-cc-pvdz symm=none int=(grid=ultrafine) guess=(read,tcheck) s
 table=(opt,rrhf)
 ----------------------------------------------------------------------
 -----
 title
 -----
 Symbolic Z-matrix:
 Charge =  0 Multiplicity = 1

 SCF Done:  E(RHF) =  -541.260143978     A.U. after   15 cycles
 Normal termination of Gaussian 16 at Tue Apr  8 21:59:16 2025.
 Gaussian 16:  ES64L-G16RevC.01  3-Jul-2019

 ----------------------------------------------------------------------
 #t hf aug-cc-pvdz iop(5/13=1,5/36=2,99/5=2) pseudo=read geom=check gue
 ss=(read,tcheck) scf=(maxcycle=1)
 ----------------------------------------------------------------------
 -----
 title
 -----
 Structure from the checkpoint file:  "ANI1ccx_869_conf2_mol1.chk"
 Charge =  0 Multiplicity = 1

                         Standard orientation:
 ---------------------------------------------------------------------
 Center     Atomic      Atomic             Coordinates (Angstroms)
 Number     Number       Type             X           Y           Z
 ---------------------------------------------------------------------
      1          6           0        1.261829    0.152305   -0.041319
      2          6           0        0.317341    1.305480   -0.026403
      3          6           0       -1.710191   -0.146922   -0.009854
      4          6           0        0.589850   -1.155221   -0.041784
      5          1           0        2.766308   -0.772795    0.114699
      6          1           0       -1.646019    1.910362   -0.053664
      7          1           0       -1.213934   -2.093409    0.153346
      8          7           0        2.506819    0.185507   -0.005496
      9          7           0       -1.047390    1.054971   -0.072993
     10          7           0       -0.789778   -1.196239    0.039638
     11          8           0        0.751094    2.434049    0.073242
     12          8           0       -2.916942   -0.287378    0.021118
     13          8           0        1.247486   -2.182632    0.002355
 ---------------------------------------------------------------------

 SCF Done:  E(RHF) =  -541.786680104     A.U. after    2 cycles

 The electronic state is 1-A.
 Alpha  occ. eigenvalues --  -20.57836 -20.57434 -20.57329 -15.60353 -15.60066
 Alpha  occ. eigenvalues --  -15.57187 -11.45958 -11.42545 -11.42335 -11.34640
 Alpha  occ. eigenvalues --   -1.53516  -1.52189  -1.51598  -1.35193  -1.30481
 Alpha  occ. eigenvalues --   -1.27842  -1.05730  -0.97122  -0.95179  -0.86609
 Alpha  occ. eigenvalues --   -0.83357  -0.76460  -0.73769  -0.72942  -0.71675
 Alpha  occ. eigenvalues --   -0.68308  -0.66864  -0.64038  -0.61800  -0.56064
 Alpha  occ. eigenvalues --   -0.52224  -0.51591  -0.51459  -0.49372  -0.47529
 Alpha  occ. eigenvalues --   -0.46485
 Alpha virt. eigenvalues --   -0.01618   0.02876   0.04455   0.04934   0.07464
 Alpha virt. eigenvalues --    0.07858   0.08710   0.09119   0.10054   0.10836
 Alpha virt. eigenvalues --    0.11886   0.12404   0.12819   0.13118   0.13387

 Mulliken charges:
               1
     1  C   -1.895897
     2  C    1.433955
     3  C    0.325523
     4  C    1.304415
     5  H    0.178671
     6  H    0.332677
     7  H    0.254552
     8  N    1.074667
     9  N    0.469888
    10  N    0.538512
    11  O   -1.385545
    12  O   -1.210697
    13  O   -1.420723
 Sum of Mulliken charges =  -0.00000

 Dipole moment (field-independent basis, Debye):
    X=             -1.3860    Y=             -1.1472    Z=             -0.0215  Tot=              1.7993

 Test job not archived.
 1\1\GINC-SE252\SP\RHF\Aug-CC-pVDZ\C4H3N3O3\OHZDE\08-Apr-2025\0\\#t hf
 aug-cc-pvdz iop(5/13=1,5/36=2,99/5=2) pseudo=read geom=check guess=(re
 ad,tcheck) scf=(maxcycle=1)\\title\\0,1\C,0,1.26183,0.152307,-0.041318
 8\C,0,0.317341,1.30548,-0.0264027\C,0,-1.71019,-0.146924,-0.00985351\C
 ,0,0.589853,-1.15522,-0.0417837\H,0,2.76631,-0.772792,0.114699\H,0,-1.
 64602,1.91036,-0.0536636\H,0,-1.21393,-2.09341,0.153346\N,0,2.50682,0.
 18551,-0.00549565\N,0,-1.04739,1.05497,-0.0729929\N,0,-0.789775,-1.196
 24,0.0396375\O,0,0.751092,2.43405,0.0732423\O,0,-2.91694,-0.287381,0.0

 Normal termination of Gaussian 16 at Tue Apr  8 21:59:22 2025.
