 Gaussian 16, Revision C.01,

 ----------------------------------------------------------------------
 #t hf aug-cc-pvdz symm=none int=(grid=ultrafine) guess=(read,tcheck) s
 table=(opt,rrhf)
 ----------------------------------------------------------------------
 -----
 title
 -----
 Symbolic Z-matrix:
 Charge =  0 Multiplicity = 1

 SCF Done:  E(RHF) =  -456.270003053     A.U. after   11 cycles
 Normal termination of Gaussian 16 at Tue Apr  8 21:06:45 2025.
 Gaussian 16:  ES64L-G16RevC.01  3-Jul-2019

 ----------------------------------------------------------------------
 #t hf aug-cc-pvdz iop(5/13=1,5/36=2,99/5=2) pseudo=read geom=check gue
 ss=(read,tcheck) scf=(maxcycle=1)
 ----------------------------------------------------------------------
 -----
 title
 -----
 Structure from the checkpoint file:  "ANI1ccx_1844_conf109_mol1.chk"
 Charge =  0 Multiplicity = 1

                         Standard orientation:
 ---------------------------------------------------------------------
 Center     Atomic      Atomic             Coordinates (Angstroms)
 Number     Number       Type             X           Y           Z
 ---------------------------------------------------------------------
      1          1           0        0.754983   -2.089714    1.542080
      2          1           0       -1.814504   -1.276824   -0.465127
      3          1           0       -1.817471   -2.826054   -0.190808
      4          1           0       -0.183544    2.195970    0.210359
      5          1           0       -0.978730    2.484513    1.582130
      6          1           0       -2.002286    0.810151    0.325154
      7          1           0        0.213907   -1.986172    0.110973
      8          1           0       -2.991167    0.517993   -0.884669
      9          1           0        3.205459   -0.515981   -0.753597
     10          1           0        2.128557   -0.883612    0.339686
     11          1           0        1.735735    1.202132   -0.443095
     12          1           0        1.896711    2.685421   -0.598664
     13          8           0       -1.082870    2.210693    0.619137
     14          8           0        2.748100   -0.193920    0.039614
     15          8           0       -1.284148   -2.087816   -0.646872
     16          8           0       -2.681139    0.131917   -0.016293
     17          8           0        1.060432   -2.090945    0.613806
     18          8           0        1.221169    1.990344   -0.706195
 ---------------------------------------------------------------------

 SCF Done:  E(RHF) =  -456.742400154     A.U. after    2 cycles

 The electronic state is 1-A.
 Alpha  occ. eigenvalues --  -20.55712 -20.55538 -20.55441 -20.55052 -20.55036
 Alpha  occ. eigenvalues --  -20.53835  -1.44917  -1.44249  -1.43171  -1.42011
 Alpha  occ. eigenvalues --   -1.41445  -1.40385  -0.71899  -0.71410  -0.70613
 Alpha  occ. eigenvalues --   -0.70348  -0.69575  -0.69091  -0.61657  -0.60532
 Alpha  occ. eigenvalues --   -0.59592  -0.56775  -0.55080  -0.54023  -0.49658
 Alpha  occ. eigenvalues --   -0.49450  -0.49253  -0.48473  -0.48209  -0.48154
 Alpha virt. eigenvalues --    0.03262   0.04007   0.04667   0.05056   0.06362
 Alpha virt. eigenvalues --    0.06999   0.08437   0.08983   0.09490   0.10706
 Alpha virt. eigenvalues --    0.10780   0.11406   0.17323   0.19282   0.19459

 Mulliken charges:
               1
     1  H    0.404056
     2  H    0.754989
     3  H    0.360416
     4  H    0.778576
     5  H    0.392374
     6  H    0.757973
     7  H    0.767501
     8  H    0.400137
     9  H    0.351472
    10  H    0.769445
    11  H    0.709145
    12  H    0.314367
    13  O   -1.151833
    14  O   -1.092652
    15  O   -1.124422
    16  O   -1.149270
    17  O   -1.188080
    18  O   -1.054191
 Sum of Mulliken charges =  -0.00000

 Dipole moment (field-independent basis, Debye):
    X=              0.1883    Y=              0.7051    Z=              1.4183  Tot=              1.5951

 Test job not archived.
 1\1\GINC-SE016\SP\RHF\Aug-CC-pVDZ\H12O6\OHZDE\08-Apr-2025\0\\#t hf aug
 -cc-pvdz iop(5/13=1,5/36=2,99/5=2) pseudo=read geom=check guess=(read,
 tcheck) scf=(maxcycle=1)\\title\\0,1\H,0,0.754991,-2.08971,1.54208\H,0
 ,-1.8145,-1.27683,-0.465127\H,0,-1.81746,-2.82606,-0.190808\H,0,-0.183
 553,2.19597,0.210359\H,0,-0.978741,2.48451,1.58213\H,0,-2.00229,0.8101
 44,0.325154\H,0,0.213914,-1.98617,0.110973\H,0,-2.99117,0.517982,-0.88
 4669\H,0,3.20546,-0.515967,-0.753597\H,0,2.12856,-0.883602,0.339686\H,
 0,1.73573,1.20214,-0.443095\H,0,1.8967,2.68543,-0.598664\O,0,-1.08288,

 Normal termination of Gaussian 16 at Tue Apr  8 21:06:50 2025.
