 Gaussian 16, Revision C.01,

 ----------------------------------------------------------------------
 #t hf aug-cc-pvdz symm=none int=(grid=ultrafine) guess=(read,tcheck) s
 table=(opt,rrhf)
 ----------------------------------------------------------------------
 -----
 title
 -----
 Symbolic Z-matrix:
 Charge =  0 Multiplicity = 1

 SCF Done:  E(RHF) =  -489.691470730     A.U. after   15 cycles
 Normal termination of Gaussian 16 at Tue Apr  8 22:14:08 2025.
 Gaussian 16:  ES64L-G16RevC.01  3-Jul-2019

 ----------------------------------------------------------------------
 #t hf aug-cc-pvdz iop(5/13=1,5/36=2,99/5=2) pseudo=read geom=check gue
 ss=(read,tcheck) scf=(maxcycle=1)
 ----------------------------------------------------------------------
 -----
 title
 -----
 Structure from the checkpoint file:  "ANI1ccx_957_conf48_mol1.chk"
 Charge =  0 Multiplicity = 1

                         Standard orientation:
 ---------------------------------------------------------------------
 Center     Atomic      Atomic             Coordinates (Angstroms)
 Number     Number       Type             X           Y           Z
 ---------------------------------------------------------------------
      1          6           0        0.716829    0.316861    0.876480
      2          6           0        1.378320   -0.643293   -0.131385
      3          6           0       -0.753474   -0.100158    1.126289
      4          6           0       -1.721320   -0.135008   -0.103356
      5          1           0        2.072539    0.854675   -0.749428
      6          1           0       -2.163832    1.385158   -1.554501
      7          1           0       -0.473368    0.999917   -1.294431
      8          1           0       -1.210131    0.530970    1.863249
      9          1           0        1.190839    0.069775    1.816749
     10          1           0        0.167124    2.099791    0.093130
     11          1           0        1.339727    2.247412    1.243719
     12          1           0       -0.845146   -1.123650    1.708079
     13          7           0        1.001058    1.678782    0.479692
     14          7           0       -1.467441    0.916198   -1.030181
     15          8           0       -2.661260   -0.845770   -0.124440
     16          8           0        1.332731   -1.852248   -0.009797
     17          8           0        2.011629   -0.034396   -1.100931
 ---------------------------------------------------------------------

 SCF Done:  E(RHF) =  -490.182902968     A.U. after    2 cycles

 The electronic state is 1-A.
 Alpha  occ. eigenvalues --  -20.59983 -20.53901 -20.52913 -15.54257 -15.53428
 Alpha  occ. eigenvalues --  -11.39117 -11.38105 -11.31548 -11.28058  -1.56560
 Alpha  occ. eigenvalues --   -1.50238  -1.45008  -1.25352  -1.21294  -1.05992
 Alpha  occ. eigenvalues --   -0.94932  -0.84105  -0.82490  -0.79480  -0.75251
 Alpha  occ. eigenvalues --   -0.74094  -0.71709  -0.68092  -0.65772  -0.64990
 Alpha  occ. eigenvalues --   -0.62837  -0.60149  -0.58374  -0.55514  -0.52724
 Alpha  occ. eigenvalues --   -0.51161  -0.46564  -0.46335  -0.43799  -0.43085
 Alpha virt. eigenvalues --    0.01604   0.03191   0.03916   0.04497   0.05635
 Alpha virt. eigenvalues --    0.06589   0.07352   0.07466   0.09407   0.10572
 Alpha virt. eigenvalues --    0.11269   0.12115   0.13243   0.13567   0.14189

 Mulliken charges:
               1
     1  C   -1.965773
     2  C    2.559843
     3  C   -0.024460
     4  C    0.378679
     5  H    0.463440
     6  H    0.041781
     7  H    0.142960
     8  H    0.126839
     9  H    0.254460
    10  H    0.324417
    11  H    0.336864
    12  H    0.304879
    13  N    0.273048
    14  N    0.541442
    15  O   -1.160634
    16  O   -1.368158
    17  O   -1.229624
 Sum of Mulliken charges =  -0.00000

 Dipole moment (field-independent basis, Debye):
    X=              0.7689    Y=              6.6704    Z=              2.2861  Tot=              7.0931

 Test job not archived.
 1\1\GINC-SE334\SP\RHF\Aug-CC-pVDZ\C4H8N2O3\OHZDE\08-Apr-2025\0\\#t hf
 aug-cc-pvdz iop(5/13=1,5/36=2,99/5=2) pseudo=read geom=check guess=(re
 ad,tcheck) scf=(maxcycle=1)\\title\\0,1\C,0,0.71683,0.31686,0.876481\C
 ,0,1.37832,-0.643295,-0.131384\C,0,-0.753474,-0.100158,1.12629\C,0,-1.
 72132,-0.135007,-0.103355\H,0,2.07254,0.854672,-0.749427\H,0,-2.16383,
 1.38516,-1.5545\H,0,-0.473366,0.999917,-1.29443\H,0,-1.21013,0.530971,
 1.86325\H,0,1.19084,0.0697733,1.81675\H,0,0.167127,2.09979,0.0931308\H
 ,0,1.33973,2.24741,1.24372\H,0,-0.845147,-1.12365,1.70808\N,0,1.00106,

 Normal termination of Gaussian 16 at Tue Apr  8 22:14:15 2025.
