 Gaussian 16, Revision C.01,

 ----------------------------------------------------------------------
 #t hf aug-cc-pvdz symm=none int=(grid=ultrafine) guess=(read,tcheck) s
 table=(opt,rrhf)
 ----------------------------------------------------------------------
 -----
 title
 -----
 Symbolic Z-matrix:
 Charge =  0 Multiplicity = 1

 SCF Done:  E(RHF) =  -489.704085901     A.U. after   14 cycles
 Normal termination of Gaussian 16 at Tue Apr  8 22:13:40 2025.
 Gaussian 16:  ES64L-G16RevC.01  3-Jul-2019

 ----------------------------------------------------------------------
 #t hf aug-cc-pvdz iop(5/13=1,5/36=2,99/5=2) pseudo=read geom=check gue
 ss=(read,tcheck) scf=(maxcycle=1)
 ----------------------------------------------------------------------
 -----
 title
 -----
 Structure from the checkpoint file:  "ANI1ccx_957_conf18_mol1.chk"
 Charge =  0 Multiplicity = 1

                         Standard orientation:
 ---------------------------------------------------------------------
 Center     Atomic      Atomic             Coordinates (Angstroms)
 Number     Number       Type             X           Y           Z
 ---------------------------------------------------------------------
      1          6           0       -0.790733    0.603993   -0.712517
      2          6           0       -1.451490   -0.448471    0.096438
      3          6           0        0.626800    0.197567   -1.187440
      4          6           0        1.587680   -0.357199   -0.125952
      5          1           0       -0.953927    0.607401    1.630280
      6          1           0        2.504420    0.333897    1.523230
      7          1           0        1.635450    1.489881    0.693430
      8          1           0        1.051440    1.087581   -1.629660
      9          1           0       -1.286390    0.766152   -1.642090
     10          1           0        0.001972    2.447320   -0.059692
     11          1           0       -1.665820    2.369840   -0.196623
     12          1           0        0.525728   -0.544527   -1.998260
     13          7           0       -0.815893    1.822940    0.023261
     14          7           0        2.185170    0.669559    0.630690
     15          8           0        1.785000   -1.496829    0.042657
     16          8           0       -1.822630   -1.480740   -0.362439
     17          8           0       -1.366290   -0.269979    1.404600
 ---------------------------------------------------------------------

 SCF Done:  E(RHF) =  -490.197206774     A.U. after    2 cycles

 The electronic state is 1-A.
 Alpha  occ. eigenvalues --  -20.59105 -20.53510 -20.52576 -15.54023 -15.53391
 Alpha  occ. eigenvalues --  -11.38149 -11.37160 -11.30649 -11.27595  -1.54732
 Alpha  occ. eigenvalues --   -1.50862  -1.45301  -1.25360  -1.22867  -1.06609
 Alpha  occ. eigenvalues --   -0.95836  -0.84212  -0.81967  -0.77974  -0.75639
 Alpha  occ. eigenvalues --   -0.74489  -0.71838  -0.69007  -0.65474  -0.64433
 Alpha  occ. eigenvalues --   -0.61754  -0.60708  -0.58128  -0.56263  -0.54632
 Alpha  occ. eigenvalues --   -0.49628  -0.47450  -0.46329  -0.44093  -0.42859
 Alpha virt. eigenvalues --    0.01377   0.03325   0.03690   0.04408   0.05607
 Alpha virt. eigenvalues --    0.06275   0.06840   0.07403   0.09098   0.10226
 Alpha virt. eigenvalues --    0.11083   0.12726   0.12978   0.13172   0.14310

 Mulliken charges:
               1
     1  C   -1.360681
     2  C    2.705577
     3  C   -0.471090
     4  C    0.616720
     5  H    0.504745
     6  H    0.213382
     7  H   -0.002775
     8  H    0.175762
     9  H    0.128402
    10  H    0.271516
    11  H    0.333346
    12  H    0.121941
    13  N    0.226684
    14  N    0.552784
    15  O   -1.254031
    16  O   -1.369019
    17  O   -1.393262
 Sum of Mulliken charges =  -0.00000

 Dipole moment (field-independent basis, Debye):
    X=              0.5694    Y=              7.5617    Z=             -0.6815  Tot=              7.6137

 Test job not archived.
 1\1\GINC-SE132\SP\RHF\Aug-CC-pVDZ\C4H8N2O3\OHZDE\08-Apr-2025\0\\#t hf
 aug-cc-pvdz iop(5/13=1,5/36=2,99/5=2) pseudo=read geom=check guess=(re
 ad,tcheck) scf=(maxcycle=1)\\title\\0,1\C,0,-0.790733,0.603993,-0.7125
 17\C,0,-1.45149,-0.448471,0.0964382\C,0,0.6268,0.197567,-1.18744\C,0,1
 .58768,-0.3572,-0.125952\H,0,-0.953927,0.607401,1.63028\H,0,2.50442,0.
 333896,1.52323\H,0,1.63545,1.48988,0.69343\H,0,1.05144,1.08758,-1.6296
 6\H,0,-1.28639,0.766152,-1.64209\H,0,0.001972,2.44732,-0.0596923\H,0,-
 1.66582,2.36984,-0.196623\H,0,0.525728,-0.544527,-1.99826\N,0,-0.81589

 Normal termination of Gaussian 16 at Tue Apr  8 22:13:48 2025.
