 Gaussian 16, Revision C.01,

 ----------------------------------------------------------------------
 #t hf aug-cc-pvdz symm=none int=(grid=ultrafine) guess=(read,tcheck) s
 table=(opt,rrhf)
 ----------------------------------------------------------------------
 -----
 title
 -----
 Symbolic Z-matrix:
 Charge =  0 Multiplicity = 1

 SCF Done:  E(RHF) =  -464.384124798     A.U. after   15 cycles
 Normal termination of Gaussian 16 at Tue Apr  8 21:41:41 2025.
 Gaussian 16:  ES64L-G16RevC.01  3-Jul-2019

 ----------------------------------------------------------------------
 #t hf aug-cc-pvdz iop(5/13=1,5/36=2,99/5=2) pseudo=read geom=check gue
 ss=(read,tcheck) scf=(maxcycle=1)
 ----------------------------------------------------------------------
 -----
 title
 -----
 Structure from the checkpoint file:  "ANI1ccx_474_conf14_mol1.chk"
 Charge =  0 Multiplicity = 1

                         Standard orientation:
 ---------------------------------------------------------------------
 Center     Atomic      Atomic             Coordinates (Angstroms)
 Number     Number       Type             X           Y           Z
 ---------------------------------------------------------------------
      1          6           0        1.271329   -0.540140    0.160641
      2          6           0        0.108551    1.489421   -0.000046
      3          1           0        2.792299   -0.238299   -0.920471
      4          7           0        1.069931    0.760541   -0.195331
      5          7           0       -2.364121   -0.413180   -0.356752
      6          7           0       -2.889882   -1.338216   -0.145867
      7          8           0        2.398739   -0.979627   -0.448566
      8          8           0       -0.637705    2.361562    0.193922
      9          8           0        0.516081   -1.197110    0.859963
 ---------------------------------------------------------------------

 SCF Done:  E(RHF) =  -464.824791458     A.U. after    2 cycles

 The electronic state is 1-A.
 Alpha  occ. eigenvalues --  -20.65932 -20.62825 -20.55974 -15.61846 -15.61581
 Alpha  occ. eigenvalues --  -15.57185 -11.47689 -11.46668  -1.60046  -1.57163
 Alpha  occ. eigenvalues --   -1.50697  -1.48151  -1.33265  -1.00636  -0.84029
 Alpha  occ. eigenvalues --   -0.81934  -0.78448  -0.73684  -0.72866  -0.68999
 Alpha  occ. eigenvalues --   -0.68022  -0.67853  -0.66989  -0.65044  -0.62756
 Alpha  occ. eigenvalues --   -0.56442  -0.52778  -0.48310  -0.48110
 Alpha virt. eigenvalues --    0.02910   0.06773   0.07780   0.08325   0.09140
 Alpha virt. eigenvalues --    0.09533   0.10008   0.10264   0.11138   0.11393
 Alpha virt. eigenvalues --    0.11564   0.12467   0.13809   0.16472   0.17352

 Mulliken charges:
               1
     1  C    1.548826
     2  C    0.274629
     3  H    0.455291
     4  N    0.715387
     5  N    0.198830
     6  N   -0.237903
     7  O   -1.125638
     8  O   -0.780041
     9  O   -1.049381
 Sum of Mulliken charges =  -0.00000

 Dipole moment (field-independent basis, Debye):
    X=              1.1224    Y=              2.3324    Z=             -1.7806  Tot=              3.1417

 Test job not archived.
 1\1\GINC-SE116\SP\RHF\Aug-CC-pVDZ\C2H1N3O3\OHZDE\08-Apr-2025\0\\#t hf
 aug-cc-pvdz iop(5/13=1,5/36=2,99/5=2) pseudo=read geom=check guess=(re
 ad,tcheck) scf=(maxcycle=1)\\title\\0,1\C,0,1.27133,-0.54014,0.160641\
 C,0,0.10855,1.48942,-0.0000459\H,0,2.7923,-0.238297,-0.920471\N,0,1.06
 993,0.760541,-0.195331\N,0,-2.36412,-0.413184,-0.356752\N,0,-2.88988,-
 1.33822,-0.145867\O,0,2.39874,-0.979625,-0.448566\O,0,-0.637707,2.3615
 6,0.193922\O,0,0.516083,-1.19711,0.859963\\Version=ES64L-G16RevC.01\St
 ate=1-A\HF=-464.8247915\RMSD=2.987e-02\Dipole=0.4415866,0.9176342,-0.7

 Normal termination of Gaussian 16 at Tue Apr  8 21:42:04 2025.
