 Gaussian 16, Revision C.01,

 ----------------------------------------------------------------------
 #t hf aug-cc-pvdz symm=none int=(grid=ultrafine) guess=(read,tcheck) s
 table=(opt,rrhf)
 ----------------------------------------------------------------------
 -----
 title
 -----
 Symbolic Z-matrix:
 Charge =  0 Multiplicity = 1

 SCF Done:  E(RHF) =  -481.290038302     A.U. after   15 cycles
 Normal termination of Gaussian 16 at Tue Apr  8 21:33:45 2025.
 Gaussian 16:  ES64L-G16RevC.01  3-Jul-2019

 ----------------------------------------------------------------------
 #t hf aug-cc-pvdz iop(5/13=1,5/36=2,99/5=2) pseudo=read geom=check gue
 ss=(read,tcheck) scf=(maxcycle=1)
 ----------------------------------------------------------------------
 -----
 title
 -----
 Structure from the checkpoint file:  "ANI1ccx_380_conf1_mol1.chk"
 Charge =  0 Multiplicity = 1

                         Standard orientation:
 ---------------------------------------------------------------------
 Center     Atomic      Atomic             Coordinates (Angstroms)
 Number     Number       Type             X           Y           Z
 ---------------------------------------------------------------------
      1          6           0       -0.006566    0.718478    0.024169
      2          1           0        2.747520    0.188590   -0.755798
      3          1           0       -2.771670    0.148184    0.772740
      4          7           0        1.064540   -0.170329   -0.016824
      5          7           0        0.648250   -1.428520    0.004523
      6          7           0       -0.616938   -1.443260   -0.010715
      7          7           0       -1.040050   -0.189686    0.016268
      8          8           0        2.333280    0.166398    0.114794
      9          8           0       -2.356720    0.147327   -0.119456
     10          8           0       -0.017444    1.933140   -0.009678
 ---------------------------------------------------------------------

 SCF Done:  E(RHF) =  -481.763436957     A.U. after    2 cycles

 The electronic state is 1-A.
 Alpha  occ. eigenvalues --  -20.66166 -20.65723 -20.53580 -15.66800 -15.66577
 Alpha  occ. eigenvalues --  -15.63699 -15.63153 -11.42632  -1.62315  -1.59009
 Alpha  occ. eigenvalues --   -1.50489  -1.47876  -1.27133  -1.22494  -0.99733
 Alpha  occ. eigenvalues --   -0.98019  -0.87521  -0.83994  -0.77832  -0.74613
 Alpha  occ. eigenvalues --   -0.68791  -0.66326  -0.64043  -0.61813  -0.58300
 Alpha  occ. eigenvalues --   -0.57807  -0.55795  -0.53006  -0.46573  -0.41428
 Alpha virt. eigenvalues --    0.02066   0.04564   0.05923   0.08257   0.10004
 Alpha virt. eigenvalues --    0.10549   0.11140   0.12565   0.12791   0.13625
 Alpha virt. eigenvalues --    0.15523   0.16137   0.16440   0.17805   0.19405

 Mulliken charges:
               1
     1  C    1.112943
     2  H    0.255309
     3  H    0.288736
     4  N    1.265412
     5  N   -0.259820
     6  N   -0.202581
     7  N    1.229587
     8  O   -1.354133
     9  O   -1.318439
    10  O   -1.017013
 Sum of Mulliken charges =  -0.00000

 Dipole moment (field-independent basis, Debye):
    X=             -0.0074    Y=             -0.7075    Z=              0.1051  Tot=              0.7153

 Test job not archived.
 1\1\GINC-SE250\SP\RHF\Aug-CC-pVDZ\C1H2N4O3\OHZDE\08-Apr-2025\0\\#t hf
 aug-cc-pvdz iop(5/13=1,5/36=2,99/5=2) pseudo=read geom=check guess=(re
 ad,tcheck) scf=(maxcycle=1)\\title\\0,1\C,0,-0.00656598,0.718478,0.024
 1692\H,0,2.74752,0.188591,-0.755798\H,0,-2.77167,0.148183,0.77274\N,0,
 1.06454,-0.170329,-0.016824\N,0,0.64825,-1.42852,0.00452253\N,0,-0.616
 938,-1.44326,-0.0107152\N,0,-1.04005,-0.189687,0.0162681\O,0,2.33328,0
 .166399,0.114794\O,0,-2.35672,0.147326,-0.119456\O,0,-0.0174452,1.9331
 4,-0.00967793\\Version=ES64L-G16RevC.01\State=1-A\HF=-481.763437\RMSD=

 Normal termination of Gaussian 16 at Tue Apr  8 21:33:49 2025.
