 Gaussian 16, Revision C.01,

 ----------------------------------------------------------------------
 #t hf aug-cc-pvdz symm=none int=(grid=ultrafine) guess=(read,tcheck) s
 table=(opt,rrhf)
 ----------------------------------------------------------------------
 -----
 title
 -----
 Symbolic Z-matrix:
 Charge =  0 Multiplicity = 1

 SCF Done:  E(RHF) =  -467.576197336     A.U. after   14 cycles
 Normal termination of Gaussian 16 at Tue Apr  8 22:07:17 2025.
 Gaussian 16:  ES64L-G16RevC.01  3-Jul-2019

 ----------------------------------------------------------------------
 #t hf aug-cc-pvdz iop(5/13=1,5/36=2,99/5=2) pseudo=read geom=check gue
 ss=(read,tcheck) scf=(maxcycle=1)
 ----------------------------------------------------------------------
 -----
 title
 -----
 Structure from the checkpoint file:  "ANI1ccx_903_conf1_mol1.chk"
 Charge =  0 Multiplicity = 1

                         Standard orientation:
 ---------------------------------------------------------------------
 Center     Atomic      Atomic             Coordinates (Angstroms)
 Number     Number       Type             X           Y           Z
 ---------------------------------------------------------------------
      1          6           0        2.766091   -0.194947   -0.019083
      2          6           0        1.280951   -0.018175   -0.009188
      3          6           0       -0.629271    1.325150    0.031860
      4          6           0       -0.911087   -1.178220    0.024251
      5          1           0        3.136080    0.444054   -0.779391
      6          1           0        3.103483   -1.249373   -0.147252
      7          1           0        3.126251    0.207886    0.922796
      8          1           0       -2.372819    0.243092    0.078994
      9          1           0        0.927522   -2.103827   -0.097320
     10          7           0        0.787078    1.176063    0.043045
     11          7           0       -1.328359    0.115261    0.037072
     12          7           0        0.498094   -1.164208    0.007343
     13          8           0       -1.202093    2.381519   -0.063652
     14          8           0       -1.630195   -2.135831   -0.030984
 ---------------------------------------------------------------------

 SCF Done:  E(RHF) =  -468.036793180     A.U. after    2 cycles

 The electronic state is 1-A.
 Alpha  occ. eigenvalues --  -20.55306 -20.53331 -15.59329 -15.57086 -15.51733
 Alpha  occ. eigenvalues --  -11.43505 -11.41123 -11.39190 -11.28289  -1.51976
 Alpha  occ. eigenvalues --   -1.48903  -1.35715  -1.26100  -1.23153  -1.06513
 Alpha  occ. eigenvalues --   -0.96261  -0.92153  -0.84603  -0.83292  -0.71834
 Alpha  occ. eigenvalues --   -0.70979  -0.69897  -0.66897  -0.64091  -0.63103
 Alpha  occ. eigenvalues --   -0.61389  -0.59773  -0.55353  -0.52068  -0.49362
 Alpha  occ. eigenvalues --   -0.46353  -0.45892  -0.44150
 Alpha virt. eigenvalues --    0.01995   0.03702   0.04447   0.04773   0.05605
 Alpha virt. eigenvalues --    0.07880   0.08468   0.08936   0.09932   0.10523
 Alpha virt. eigenvalues --    0.11058   0.12078   0.12870   0.13619   0.13957

 Mulliken charges:
               1
     1  C    0.028772
     2  C   -1.663144
     3  C    0.411871
     4  C    0.280919
     5  H    0.198059
     6  H    0.182483
     7  H    0.277625
     8  H    0.265073
     9  H    0.236972
    10  N    1.033180
    11  N    0.655232
    12  N    0.500686
    13  O   -1.199360
    14  O   -1.208369
 Sum of Mulliken charges =  -0.00000

 Dipole moment (field-independent basis, Debye):
    X=              4.0766    Y=             -3.6782    Z=              0.1165  Tot=              5.4920

 Test job not archived.
 1\1\GINC-SE038\SP\RHF\Aug-CC-pVDZ\C4H5N3O2\OHZDE\08-Apr-2025\0\\#t hf
 aug-cc-pvdz iop(5/13=1,5/36=2,99/5=2) pseudo=read geom=check guess=(re
 ad,tcheck) scf=(maxcycle=1)\\title\\0,1\C,0,2.76609,-0.194954,-0.01908
 32\C,0,1.28095,-0.0181792,-0.00918757\C,0,-0.62927,1.32515,0.0318597\C
 ,0,-0.91109,-1.17822,0.0242509\H,0,3.13608,0.444047,-0.779391\H,0,3.10
 348,-1.24938,-0.147252\H,0,3.12625,0.207879,0.922796\H,0,-2.37282,0.24
 3095,0.0789944\H,0,0.927517,-2.10383,-0.0973195\N,0,0.787079,1.17606,0
 .0430446\N,0,-1.32836,0.115262,0.0370721\N,0,0.498091,-1.16421,0.00734

 Normal termination of Gaussian 16 at Tue Apr  8 22:07:23 2025.
