 Gaussian 16, Revision C.01,

 ----------------------------------------------------------------------
 #t hf aug-cc-pvdz symm=none int=(grid=ultrafine) guess=(read,tcheck) s
 table=(opt,rrhf)
 ----------------------------------------------------------------------
 -----
 title
 -----
 Symbolic Z-matrix:
 Charge =  0 Multiplicity = 1

 SCF Done:  E(RHF) =  -663.586891533     A.U. after   13 cycles
 Normal termination of Gaussian 16 at Tue Apr  8 19:27:25 2025.
 Gaussian 16:  ES64L-G16RevC.01  3-Jul-2019

 ----------------------------------------------------------------------
 #t hf aug-cc-pvdz iop(5/13=1,5/36=2,99/5=2) pseudo=read geom=check gue
 ss=(read,tcheck) scf=(maxcycle=1)
 ----------------------------------------------------------------------
 -----
 title
 -----
 Structure from the checkpoint file:  "ANI1ccx_1233_conf2_mol1.chk"
 Charge =  0 Multiplicity = 1

                         Standard orientation:
 ---------------------------------------------------------------------
 Center     Atomic      Atomic             Coordinates (Angstroms)
 Number     Number       Type             X           Y           Z
 ---------------------------------------------------------------------
      1          6           0        0.156508   -0.562118   -1.026460
      2          6           0        1.008779    0.722287   -0.903278
      3          6           0        0.403434    1.591540    0.171517
      4          6           0       -0.013421    0.530381    1.168010
      5          6           0       -0.541824   -0.700657    0.348278
      6          6           0       -2.023840   -0.767857    0.134567
      7          1           0       -2.046751    0.953761   -0.610920
      8          1           0       -2.270570   -1.771221   -0.278362
      9          1           0       -2.435880   -0.798036    1.187900
     10          1           0        0.548765   -1.472010    1.638230
     11          1           0        1.933819    0.211074    1.465050
     12          1           0       -0.799142    0.802777    1.863350
     13          1           0       -0.603842    2.934349   -0.870068
     14          1           0        1.077978    2.358080    0.630349
     15          1           0        2.493380   -0.490034   -0.938825
     16          1           0        1.163539    1.186910   -1.857830
     17          1           0       -0.623070   -0.334412   -1.780600
     18          1           0        0.844920   -1.937590   -2.338500
     19          1           0        0.832660   -2.374470   -0.634667
     20          7           0        1.016220   -1.670760   -1.360280
     21          8           0        2.370739    0.348460   -0.482470
     22          8           0       -0.804964    2.242839   -0.225520
     23          8           0        1.070369    0.077321    1.944710
     24          8           0       -0.177080   -1.887120    1.047510
     25          8           0       -2.604961    0.161586   -0.697850
 ---------------------------------------------------------------------

 SCF Done:  E(RHF) =  -664.263642719     A.U. after    2 cycles

 The electronic state is 1-A.
 Alpha  occ. eigenvalues --  -20.59617 -20.57342 -20.55329 -20.54770 -20.53796
 Alpha  occ. eigenvalues --  -15.50372 -11.32073 -11.30374 -11.29940 -11.29226
 Alpha  occ. eigenvalues --  -11.27615 -11.26892  -1.50370  -1.48892  -1.45796
 Alpha  occ. eigenvalues --   -1.44925  -1.43408  -1.20494  -1.10999  -1.00192
 Alpha  occ. eigenvalues --   -0.96401  -0.90488  -0.83133  -0.79107  -0.75728
 Alpha  occ. eigenvalues --   -0.74048  -0.72538  -0.71202  -0.69117  -0.67660
 Alpha  occ. eigenvalues --   -0.66564  -0.65183  -0.62689  -0.61192  -0.59405
 Alpha  occ. eigenvalues --   -0.58971  -0.57159  -0.55412  -0.53600  -0.52260
 Alpha  occ. eigenvalues --   -0.51240  -0.50369  -0.48962  -0.46517  -0.45351
 Alpha  occ. eigenvalues --   -0.44428  -0.42940  -0.40578
 Alpha virt. eigenvalues --    0.02485   0.03047   0.04049   0.04696   0.05511
 Alpha virt. eigenvalues --    0.05686   0.05779   0.06060   0.06715   0.08661
 Alpha virt. eigenvalues --    0.09205   0.09709   0.10348   0.11676   0.12250

 Mulliken charges:
               1
     1  C   -2.006461
     2  C    1.390514
     3  C    1.329767
     4  C    1.000488
     5  C    0.308522
     6  C    1.431522
     7  H    0.571527
     8  H    0.197920
     9  H    0.223104
    10  H    0.309002
    11  H    0.487985
    12  H    0.073845
    13  H    0.275453
    14  H    0.184455
    15  H    0.451756
    16  H   -0.048255
    17  H    0.082280
    18  H    0.378133
    19  H    0.493829
    20  N    0.453580
    21  O   -1.506377
    22  O   -1.433157
    23  O   -1.617807
    24  O   -1.726460
    25  O   -1.305162
 Sum of Mulliken charges =  -0.00000

 Dipole moment (field-independent basis, Debye):
    X=              1.8002    Y=              2.1330    Z=             -2.1469  Tot=              3.5213

 Test job not archived.
 1\1\GINC-SE087\SP\RHF\Aug-CC-pVDZ\C6H13N1O5\OHZDE\08-Apr-2025\0\\#t hf
  aug-cc-pvdz iop(5/13=1,5/36=2,99/5=2) pseudo=read geom=check guess=(r
 ead,tcheck) scf=(maxcycle=1)\\title\\0,1\C,0,0.156508,-0.562118,-1.026
 46\C,0,1.00878,0.722287,-0.903278\C,0,0.403435,1.59154,0.171517\C,0,-0
 .01342,0.530381,1.16801\C,0,-0.541824,-0.700656,0.348278\C,0,-2.02384,
 -0.767856,0.134567\H,0,-2.04675,0.953762,-0.61092\H,0,-2.27057,-1.7712
 2,-0.278362\H,0,-2.43588,-0.798035,1.1879\H,0,0.548765,-1.47201,1.6382
 3\H,0,1.93382,0.211074,1.46505\H,0,-0.799141,0.802778,1.86335\H,0,-0.6

 Normal termination of Gaussian 16 at Tue Apr  8 19:27:48 2025.
