 Gaussian 16, Revision C.01,

 ----------------------------------------------------------------------
 #t hf aug-cc-pvdz symm=none int=(grid=ultrafine) guess=(read,tcheck) s
 table=(opt,rrhf)
 ----------------------------------------------------------------------
 -----
 title
 -----
 Symbolic Z-matrix:
 Charge =  0 Multiplicity = 1

 SCF Done:  E(RHF) =  -380.196166691     A.U. after   11 cycles
 Normal termination of Gaussian 16 at Tue Apr  8 21:02:25 2025.
 Gaussian 16:  ES64L-G16RevC.01  3-Jul-2019

 ----------------------------------------------------------------------
 #t hf aug-cc-pvdz iop(5/13=1,5/36=2,99/5=2) pseudo=read geom=check gue
 ss=(read,tcheck) scf=(maxcycle=1)
 ----------------------------------------------------------------------
 -----
 title
 -----
 Structure from the checkpoint file:  "ANI1ccx_1843_conf216_mol1.chk"
 Charge =  0 Multiplicity = 1

                         Standard orientation:
 ---------------------------------------------------------------------
 Center     Atomic      Atomic             Coordinates (Angstroms)
 Number     Number       Type             X           Y           Z
 ---------------------------------------------------------------------
      1          1           0        0.339137   -1.521329    0.352825
      2          1           0       -0.549398   -1.914469    1.704800
      3          1           0        1.872170   -0.259831   -0.330676
      4          1           0        2.128060   -1.576089   -1.249410
      5          1           0        2.078679    1.868171    0.505961
      6          1           0        0.763917    1.466131   -0.050738
      7          1           0       -1.447281    1.312241   -0.079788
      8          1           0       -1.099320    0.713386    1.322290
      9          1           0       -3.064990   -0.285352   -1.196780
     10          1           0       -1.813240   -0.819799   -0.337632
     11          8           0       -0.527854   -1.346899    0.947046
     12          8           0        1.832140   -1.255089   -0.326894
     13          8           0        1.699529    1.419241   -0.297170
     14          8           0       -0.888702    1.459341    0.717304
     15          8           0       -2.016080   -0.149476   -1.120390
 ---------------------------------------------------------------------

 SCF Done:  E(RHF) =  -380.589272391     A.U. after    2 cycles

 The electronic state is 1-A.
 Alpha  occ. eigenvalues --  -20.56604 -20.55595 -20.55384 -20.54798 -20.53478
 Alpha  occ. eigenvalues --   -1.44203  -1.42486  -1.41858  -1.40483  -1.39366
 Alpha  occ. eigenvalues --   -0.71775  -0.70247  -0.69417  -0.68336  -0.66561
 Alpha  occ. eigenvalues --   -0.60950  -0.58670  -0.57337  -0.56497  -0.53070
 Alpha  occ. eigenvalues --   -0.49613  -0.49105  -0.48781  -0.48171  -0.47001
 Alpha virt. eigenvalues --    0.03298   0.04447   0.04867   0.05242   0.07567
 Alpha virt. eigenvalues --    0.08112   0.08674   0.09117   0.10738   0.11143
 Alpha virt. eigenvalues --    0.17732   0.18253   0.19602   0.20198   0.20496

 Mulliken charges:
               1
     1  H    0.891748
     2  H    0.396764
     3  H    0.732814
     4  H    0.401410
     5  H    0.348437
     6  H    0.711738
     7  H    0.646252
     8  H    0.566060
     9  H    0.460787
    10  H    0.615031
    11  O   -1.322782
    12  O   -1.115847
    13  O   -1.087238
    14  O   -1.235440
    15  O   -1.009733
 Sum of Mulliken charges =  -0.00000

 Dipole moment (field-independent basis, Debye):
    X=             -1.0371    Y=             -1.9578    Z=              1.0556  Tot=              2.4542

 Test job not archived.
 1\1\GINC-SE081\SP\RHF\Aug-CC-pVDZ\H10O5\OHZDE\08-Apr-2025\0\\#t hf aug
 -cc-pvdz iop(5/13=1,5/36=2,99/5=2) pseudo=read geom=check guess=(read,
 tcheck) scf=(maxcycle=1)\\title\\0,1\H,0,0.339137,-1.52133,0.352825\H,
 0,-0.549398,-1.91447,1.7048\H,0,1.87217,-0.259832,-0.330676\H,0,2.1280
 6,-1.57609,-1.24941\H,0,2.07868,1.86817,0.505961\H,0,0.763918,1.46613,
 -0.0507378\H,0,-1.44728,1.31224,-0.0797879\H,0,-1.09932,0.713385,1.322
 29\H,0,-3.06499,-0.285352,-1.19678\H,0,-1.81324,-0.8198,-0.337632\O,0,
 -0.527854,-1.3469,0.947046\O,0,1.83214,-1.25509,-0.326894\O,0,1.69953,

 Normal termination of Gaussian 16 at Tue Apr  8 21:02:28 2025.
