 Gaussian 16, Revision C.01,

 ----------------------------------------------------------------------
 #t hf aug-cc-pvdz symm=none int=(grid=ultrafine) guess=(read,tcheck) s
 table=(opt,rrhf)
 ----------------------------------------------------------------------
 -----
 title
 -----
 Symbolic Z-matrix:
 Charge =  0 Multiplicity = 1

 SCF Done:  E(RHF) =  -603.003838841     A.U. after   18 cycles
 Normal termination of Gaussian 16 at Tue Apr  8 21:01:16 2025.
 Gaussian 16:  ES64L-G16RevC.01  3-Jul-2019

 ----------------------------------------------------------------------
 #t hf aug-cc-pvdz iop(5/13=1,5/36=2,99/5=2) pseudo=read geom=check gue
 ss=(read,tcheck) scf=(maxcycle=1)
 ----------------------------------------------------------------------
 -----
 title
 -----
 Structure from the checkpoint file:  "ANI1ccx_1812_conf1_mol2.chk"
 Charge =  0 Multiplicity = 1

                         Standard orientation:
 ---------------------------------------------------------------------
 Center     Atomic      Atomic             Coordinates (Angstroms)
 Number     Number       Type             X           Y           Z
 ---------------------------------------------------------------------
      1          6           0        2.866540   -0.343970    0.021143
      2          6           0        1.390290    0.037043   -0.078415
      3          6           0        0.451874   -0.953861    0.041838
      4          6           0       -0.892779   -0.608461   -0.025103
      5          6           0       -1.960601   -1.516908   -0.113970
      6          6           0       -3.229401   -1.076588   -0.192375
      7          6           0       -2.609230    1.162242    0.201914
      8          6           0       -1.249950    0.787977    0.180269
      9          6           0       -0.200820    1.696511   -0.010629
     10          1           0       -0.283952    2.753761    0.117760
     11          1           0       -2.868329    2.239182    0.351848
     12          1           0       -3.993261   -1.766807   -0.366901
     13          1           0        3.199311    1.481669   -0.281599
     14          1           0        0.694285   -1.969770    0.067254
     15          1           0       -1.779542   -2.555349   -0.006326
     16          7           0       -3.600190    0.287801    0.050108
     17          7           0        1.083201    1.292650   -0.193143
     18          8           0        3.684390    0.682173   -0.137273
     19          8           0        3.222469   -1.475892    0.258670
 ---------------------------------------------------------------------

 SCF Done:  E(RHF) =  -603.597729842     A.U. after    2 cycles

 The electronic state is 1-A.
 Alpha  occ. eigenvalues --  -20.60236 -20.54074 -15.54197 -15.54107 -11.40506
 Alpha  occ. eigenvalues --  -11.32857 -11.32683 -11.31406 -11.30702 -11.30123
 Alpha  occ. eigenvalues --  -11.28805 -11.26829 -11.26516  -1.55895  -1.46166
 Alpha  occ. eigenvalues --   -1.30852  -1.26496  -1.14384  -1.10463  -1.06727
 Alpha  occ. eigenvalues --   -0.96530  -0.93614  -0.88291  -0.86573  -0.81471
 Alpha  occ. eigenvalues --   -0.76946  -0.76593  -0.72471  -0.68410  -0.68103
 Alpha  occ. eigenvalues --   -0.65535  -0.65270  -0.64813  -0.62414  -0.60994
 Alpha  occ. eigenvalues --   -0.57707  -0.56916  -0.55142  -0.50812  -0.48481
 Alpha  occ. eigenvalues --   -0.47879  -0.45374  -0.44924  -0.40813  -0.35433
 Alpha virt. eigenvalues --    0.01817   0.02554   0.03006   0.03155   0.04055
 Alpha virt. eigenvalues --    0.04690   0.06022   0.06680   0.07060   0.07898
 Alpha virt. eigenvalues --    0.08817   0.09692   0.09847   0.10814   0.11108

 Mulliken charges:
               1
     1  C    2.091422
     2  C   -2.006754
     3  C    1.643159
     4  C   -0.165890
     5  C    1.474632
     6  C   -1.119913
     7  C   -1.501423
     8  C    1.437847
     9  C   -0.942775
    10  H   -0.239383
    11  H   -0.107227
    12  H   -0.285281
    13  H    0.470510
    14  H   -0.312842
    15  H   -0.267958
    16  N    1.084406
    17  N    1.432071
    18  O   -1.357978
    19  O   -1.326624
 Sum of Mulliken charges =  -0.00000

 Dipole moment (field-independent basis, Debye):
    X=             -3.2177    Y=              1.5696    Z=             -0.2532  Tot=              3.5890

 Test job not archived.
 1\1\GINC-SE081\SP\RHF\Aug-CC-pVDZ\C9H6N2O2\OHZDE\08-Apr-2025\0\\#t hf
 aug-cc-pvdz iop(5/13=1,5/36=2,99/5=2) pseudo=read geom=check guess=(re
 ad,tcheck) scf=(maxcycle=1)\\title\\0,1\C,0,2.86654,-0.343969,0.021142
 7\C,0,1.39029,0.0370438,-0.0784149\C,0,0.451875,-0.953861,0.0418385\C,
 0,-0.892778,-0.608462,-0.0251026\C,0,-1.9606,-1.51691,-0.11397\C,0,-3.
 2294,-1.07659,-0.192375\C,0,-2.60923,1.16224,0.201914\C,0,-1.24995,0.7
 87976,0.180269\C,0,-0.200821,1.69651,-0.0106291\H,0,-0.283953,2.75376,
 0.11776\H,0,-2.86833,2.23918,0.351848\H,0,-3.99326,-1.76681,-0.366901\

 Normal termination of Gaussian 16 at Tue Apr  8 21:01:30 2025.
