 Gaussian 16, Revision C.01,

 ----------------------------------------------------------------------
 #t hf aug-cc-pvdz symm=none int=(grid=ultrafine) guess=(read,tcheck) s
 table=(opt,rrhf)
 ----------------------------------------------------------------------
 -----
 title
 -----
 Symbolic Z-matrix:
 Charge =  0 Multiplicity = 1

 SCF Done:  E(RHF) =  -590.430833036     A.U. after   16 cycles
 Normal termination of Gaussian 16 at Tue Apr  8 22:11:15 2025.
 Gaussian 16:  ES64L-G16RevC.01  3-Jul-2019

 ----------------------------------------------------------------------
 #t hf aug-cc-pvdz iop(5/13=1,5/36=2,99/5=2) pseudo=read geom=check gue
 ss=(read,tcheck) scf=(maxcycle=1)
 ----------------------------------------------------------------------
 -----
 title
 -----
 Structure from the checkpoint file:  "ANI1ccx_928_conf4_mol1.chk"
 Charge =  0 Multiplicity = 1

                         Standard orientation:
 ---------------------------------------------------------------------
 Center     Atomic      Atomic             Coordinates (Angstroms)
 Number     Number       Type             X           Y           Z
 ---------------------------------------------------------------------
      1          6           0        0.798623    1.617820   -0.626230
      2          6           0       -0.322640    1.573600    0.521155
      3          6           0       -1.790020   -0.378669    1.159240
      4          6           0        1.407650   -0.801818   -1.028440
      5          1           0        0.850096   -1.032680   -1.934510
      6          1           0        0.318463    1.662700    1.426320
      7          1           0       -1.710130   -0.567013    2.254420
      8          1           0        1.385932    2.493799   -0.189914
      9          1           0        0.447062    1.802920   -1.539350
     10          1           0       -0.835399    2.621260    0.602317
     11          7           0        2.500120   -0.858791    0.780975
     12          7           0       -1.235859    0.581166    0.330131
     13          7           0       -2.618700   -1.167779    0.468070
     14          7           0       -2.670730   -0.656362   -0.780411
     15          7           0       -1.754239    0.289811   -0.965465
     16          7           0        1.449871    0.396882   -0.439514
     17          7           0        2.066740   -1.611711   -0.233504
     18          7           0        2.117411    0.305843    0.729196
 ---------------------------------------------------------------------

 SCF Done:  E(RHF) =  -591.021944255     A.U. after    2 cycles

 The electronic state is 1-A.
 Alpha  occ. eigenvalues --  -15.63634 -15.62062 -15.61928 -15.61172 -15.59863
 Alpha  occ. eigenvalues --  -15.58241 -15.55818 -15.53960 -11.36491 -11.34744
 Alpha  occ. eigenvalues --  -11.33068 -11.32560  -1.52148  -1.46414  -1.31670
 Alpha  occ. eigenvalues --   -1.29194  -1.24484  -1.20948  -1.10177  -1.02230
 Alpha  occ. eigenvalues --   -0.96725  -0.93271  -0.91955  -0.89174  -0.81090
 Alpha  occ. eigenvalues --   -0.79252  -0.76718  -0.72275  -0.72088  -0.70501
 Alpha  occ. eigenvalues --   -0.65029  -0.63806  -0.62881  -0.61593  -0.58747
 Alpha  occ. eigenvalues --   -0.55343  -0.53725  -0.53565  -0.51759  -0.49105
 Alpha  occ. eigenvalues --   -0.47940  -0.46353  -0.45433
 Alpha virt. eigenvalues --    0.02201   0.02811   0.02928   0.03816   0.04680
 Alpha virt. eigenvalues --    0.05162   0.06425   0.07539   0.08292   0.09018
 Alpha virt. eigenvalues --    0.09648   0.10924   0.11394   0.12149   0.12467

 Mulliken charges:
               1
     1  C   -0.356081
     2  C   -0.710313
     3  C   -0.140700
     4  C   -0.148742
     5  H   -0.031212
     6  H    0.161655
     7  H    0.000377
     8  H    0.245156
     9  H   -0.345576
    10  H    0.103032
    11  N   -0.621487
    12  N    1.388339
    13  N    0.155435
    14  N   -0.375316
    15  N   -0.499083
    16  N    1.211546
    17  N    0.191592
    18  N   -0.228621
 Sum of Mulliken charges =  -0.00000

 Dipole moment (field-independent basis, Debye):
    X=             -0.0144    Y=              5.4800    Z=              0.2580  Tot=              5.4861

 Test job not archived.
 1\1\GINC-SE393\SP\RHF\Aug-CC-pVDZ\C4H6N8\OHZDE\08-Apr-2025\0\\#t hf au
 g-cc-pvdz iop(5/13=1,5/36=2,99/5=2) pseudo=read geom=check guess=(read
 ,tcheck) scf=(maxcycle=1)\\title\\0,1\C,0,0.798622,1.61782,-0.62623\C,
 0,-0.322641,1.5736,0.521155\C,0,-1.79002,-0.37867,1.15924\C,0,1.40765,
 -0.801817,-1.02844\H,0,0.850096,-1.03268,-1.93451\H,0,0.318462,1.6627,
 1.42632\H,0,-1.71013,-0.567014,2.25442\H,0,1.38593,2.4938,-0.189914\H,
 0,0.447061,1.80292,-1.53935\H,0,-0.835401,2.62126,0.602317\N,0,2.50012
 ,-0.85879,0.780975\N,0,-1.23586,0.581165,0.330131\N,0,-2.6187,-1.16778

 Normal termination of Gaussian 16 at Tue Apr  8 22:11:28 2025.
