 Gaussian 16, Revision C.01,

 ----------------------------------------------------------------------
 #t hf aug-cc-pvdz symm=none int=(grid=ultrafine) guess=(read,tcheck) s
 table=(opt,rrhf)
 ----------------------------------------------------------------------
 -----
 title
 -----
 Symbolic Z-matrix:
 Charge =  0 Multiplicity = 1

 SCF Done:  E(RHF) =  -444.555786180     A.U. after   15 cycles
 Normal termination of Gaussian 16 at Tue Apr  8 21:42:52 2025.
 Gaussian 16:  ES64L-G16RevC.01  3-Jul-2019

 ----------------------------------------------------------------------
 #t hf aug-cc-pvdz iop(5/13=1,5/36=2,99/5=2) pseudo=read geom=check gue
 ss=(read,tcheck) scf=(maxcycle=1)
 ----------------------------------------------------------------------
 -----
 title
 -----
 Structure from the checkpoint file:  "ANI1ccx_488_conf2_mol2.chk"
 Charge =  0 Multiplicity = 1

                         Standard orientation:
 ---------------------------------------------------------------------
 Center     Atomic      Atomic             Coordinates (Angstroms)
 Number     Number       Type             X           Y           Z
 ---------------------------------------------------------------------
      1          6           0       -1.290970   -0.394416    0.161544
      2          6           0        0.071536    1.528269   -0.068616
      3          1           0       -2.857009   -0.173009   -1.043090
      4          1           0       -2.850502   -1.712766   -0.225328
      5          7           0       -2.466280   -0.785060   -0.362001
      6          7           0       -0.981400    0.950266   -0.289545
      7          7           0        2.006390   -0.738472   -0.451863
      8          7           0        2.802429   -1.420466   -0.115495
      9          8           0        0.995264    2.186187    0.256801
     10          8           0       -0.558246   -1.056340    0.898596
 ---------------------------------------------------------------------

 SCF Done:  E(RHF) =  -444.980292956     A.U. after    2 cycles

 The electronic state is 1-A.
 Alpha  occ. eigenvalues --  -20.63424 -20.53734 -15.61344 -15.61239 -15.55826
 Alpha  occ. eigenvalues --  -15.55329 -11.45185 -11.43659  -1.56545  -1.48357
 Alpha  occ. eigenvalues --   -1.48200  -1.30881  -1.25540  -0.95562  -0.82559
 Alpha  occ. eigenvalues --   -0.81488  -0.77179  -0.75200  -0.69962  -0.68424
 Alpha  occ. eigenvalues --   -0.67451  -0.66238  -0.66071  -0.64546  -0.62102
 Alpha  occ. eigenvalues --   -0.54591  -0.49062  -0.46106  -0.45888
 Alpha virt. eigenvalues --    0.02424   0.05011   0.07515   0.08399   0.09481
 Alpha virt. eigenvalues --    0.09900   0.10296   0.10430   0.11366   0.11908
 Alpha virt. eigenvalues --    0.12010   0.12836   0.13103   0.13820   0.15391

 Mulliken charges:
               1
     1  C    0.211774
     2  C    0.371812
     3  H    0.104375
     4  H    0.129353
     5  N    0.604309
     6  N    0.588780
     7  N    0.230014
     8  N   -0.291017
     9  O   -0.857290
    10  O   -1.092109
 Sum of Mulliken charges =  -0.00000

 Dipole moment (field-independent basis, Debye):
    X=             -2.8662    Y=             -0.2392    Z=             -2.2258  Tot=              3.6368

 Test job not archived.
 1\1\GINC-SE331\SP\RHF\Aug-CC-pVDZ\C2H2N4O2\OHZDE\08-Apr-2025\0\\#t hf
 aug-cc-pvdz iop(5/13=1,5/36=2,99/5=2) pseudo=read geom=check guess=(re
 ad,tcheck) scf=(maxcycle=1)\\title\\0,1\C,0,-1.29097,-0.394417,0.16154
 4\C,0,0.0715321,1.52827,-0.0686157\H,0,-2.85701,-0.173013,-1.04309\H,0
 ,-2.8505,-1.71277,-0.225328\N,0,-2.46628,-0.785064,-0.362001\N,0,-0.98
 1403,0.950265,-0.289545\N,0,2.00639,-0.738468,-0.451863\N,0,2.80243,-1
 .42046,-0.115495\O,0,0.995259,2.18619,0.256801\O,0,-0.558245,-1.05634,
 0.898596\\Version=ES64L-G16RevC.01\State=1-A\HF=-444.980293\RMSD=3.085

 Normal termination of Gaussian 16 at Tue Apr  8 21:42:56 2025.
