 Gaussian 16, Revision C.01,

 ----------------------------------------------------------------------
 #t hf aug-cc-pvdz symm=none int=(grid=ultrafine) guess=(read,tcheck) s
 table=(opt,rrhf)
 ----------------------------------------------------------------------
 -----
 title
 -----
 Symbolic Z-matrix:
 Charge =  0 Multiplicity = 1

 SCF Done:  E(RHF) =  -380.218938480     A.U. after   11 cycles
 Normal termination of Gaussian 16 at Tue Apr  8 21:06:29 2025.
 Gaussian 16:  ES64L-G16RevC.01  3-Jul-2019

 ----------------------------------------------------------------------
 #t hf aug-cc-pvdz iop(5/13=1,5/36=2,99/5=2) pseudo=read geom=check gue
 ss=(read,tcheck) scf=(maxcycle=1)
 ----------------------------------------------------------------------
 -----
 title
 -----
 Structure from the checkpoint file:  "ANI1ccx_1843_conf92_mol1.chk"
 Charge =  0 Multiplicity = 1

                         Standard orientation:
 ---------------------------------------------------------------------
 Center     Atomic      Atomic             Coordinates (Angstroms)
 Number     Number       Type             X           Y           Z
 ---------------------------------------------------------------------
      1          1           0       -1.055868   -1.215431   -0.135772
      2          1           0       -0.655950   -2.627641    0.084169
      3          1           0       -1.766279    0.758525   -0.463290
      4          1           0       -2.721029    0.255574    0.542319
      5          1           0       -0.081878    2.719100   -0.034370
      6          1           0        0.154078    1.183630    0.642031
      7          1           0        1.665092    0.039868    0.582736
      8          1           0        0.630001   -0.665047    1.575600
      9          1           0        1.279541    0.549794   -1.271880
     10          1           0        1.235712   -0.896959   -0.978517
     11          8           0       -0.292913   -1.758780    0.124383
     12          8           0       -2.360558   -0.007024   -0.308456
     13          8           0       -0.235079    1.755700   -0.128587
     14          8           0        1.169772    0.190482    1.422810
     15          8           0        1.883352   -0.193054   -1.178030
 ---------------------------------------------------------------------

 SCF Done:  E(RHF) =  -380.614426972     A.U. after    2 cycles

 The electronic state is 1-A.
 Alpha  occ. eigenvalues --  -20.56793 -20.56770 -20.55700 -20.55356 -20.55284
 Alpha  occ. eigenvalues --   -1.46948  -1.45079  -1.44686  -1.42818  -1.41047
 Alpha  occ. eigenvalues --   -0.73734  -0.72748  -0.70774  -0.69744  -0.69637
 Alpha  occ. eigenvalues --   -0.63950  -0.60779  -0.58683  -0.58351  -0.55123
 Alpha  occ. eigenvalues --   -0.51698  -0.50740  -0.50024  -0.48743  -0.48093
 Alpha virt. eigenvalues --    0.03132   0.03776   0.05090   0.06270   0.07517
 Alpha virt. eigenvalues --    0.08108   0.08493   0.08967   0.09700   0.10739
 Alpha virt. eigenvalues --    0.16426   0.18634   0.19666   0.20895   0.22174

 Mulliken charges:
               1
     1  H    0.748214
     2  H    0.447734
     3  H    0.625004
     4  H    0.382472
     5  H    0.420208
     6  H    0.833927
     7  H    0.689407
     8  H    0.560307
     9  H    0.493665
    10  H    0.593446
    11  O   -1.237520
    12  O   -1.007258
    13  O   -1.225026
    14  O   -1.273683
    15  O   -1.050898
 Sum of Mulliken charges =  -0.00000

 Dipole moment (field-independent basis, Debye):
    X=             -2.6401    Y=              0.0075    Z=              1.1686  Tot=              2.8871

 Test job not archived.
 1\1\GINC-SE163\SP\RHF\Aug-CC-pVDZ\H10O5\OHZDE\08-Apr-2025\0\\#t hf aug
 -cc-pvdz iop(5/13=1,5/36=2,99/5=2) pseudo=read geom=check guess=(read,
 tcheck) scf=(maxcycle=1)\\title\\0,1\H,0,-1.05587,-1.21543,-0.135772\H
 ,0,-0.655953,-2.62764,0.084169\H,0,-1.76628,0.758526,-0.46329\H,0,-2.7
 2103,0.255576,0.542319\H,0,-0.0818779,2.7191,-0.0343704\H,0,0.154077,1
 .18363,0.642031\H,0,1.66509,0.0398667,0.582736\H,0,0.629999,-0.665047,
 1.5756\H,0,1.27954,0.549793,-1.27188\H,0,1.23571,-0.89696,-0.978517\O,
 0,-0.292916,-1.75878,0.124383\O,0,-2.36056,-0.00702193,-0.308456\O,0,-

 Normal termination of Gaussian 16 at Tue Apr  8 21:06:33 2025.
