 Gaussian 16, Revision C.01,

 ----------------------------------------------------------------------
 #t hf aug-cc-pvdz symm=none int=(grid=ultrafine) guess=(read,tcheck) s
 table=(opt,rrhf)
 ----------------------------------------------------------------------
 -----
 title
 -----
 Symbolic Z-matrix:
 Charge =  0 Multiplicity = 1

 SCF Done:  E(RHF) =  -577.529989169     A.U. after   15 cycles
 Normal termination of Gaussian 16 at Tue Apr  8 22:13:53 2025.
 Gaussian 16:  ES64L-G16RevC.01  3-Jul-2019

 ----------------------------------------------------------------------
 #t hf aug-cc-pvdz iop(5/13=1,5/36=2,99/5=2) pseudo=read geom=check gue
 ss=(read,tcheck) scf=(maxcycle=1)
 ----------------------------------------------------------------------
 -----
 title
 -----
 Structure from the checkpoint file:  "ANI1ccx_949_conf2_mol1.chk"
 Charge =  0 Multiplicity = 1

                         Standard orientation:
 ---------------------------------------------------------------------
 Center     Atomic      Atomic             Coordinates (Angstroms)
 Number     Number       Type             X           Y           Z
 ---------------------------------------------------------------------
      1          6           0       -1.306540    0.788186   -0.046397
      2          6           0       -1.707720   -1.324270   -0.040389
      3          6           0        1.454580   -1.151170   -0.550463
      4          6           0        2.084660   -0.181443    0.354160
      5          1           0        2.763140    1.588880    0.368030
      6          1           0        1.200480   -2.058300    0.078604
      7          1           0        0.250159   -0.720209   -2.211770
      8          1           0        2.133660   -1.636680   -1.306170
      9          1           0       -1.000529    2.758930    0.331855
     10          1           0        0.132818    1.922040   -0.759672
     11          1           0       -1.514880   -2.333480   -0.230844
     12          7           0       -0.830732    2.036930   -0.433139
     13          7           0       -2.354950    0.559760    0.709463
     14          7           0       -2.558470   -0.758880    0.735857
     15          7           0       -0.823113   -0.368637   -0.501860
     16          7           0        0.282986   -0.554628   -1.200270
     17          8           0        2.297020    1.019140   -0.239940
     18          8           0        2.312380   -0.357990    1.522210
 ---------------------------------------------------------------------

 SCF Done:  E(RHF) =  -578.111384615     A.U. after    2 cycles

 The electronic state is 1-A.
 Alpha  occ. eigenvalues --  -20.62283 -20.56676 -15.59850 -15.57645 -15.53382
 Alpha  occ. eigenvalues --  -15.51552 -15.49217 -11.41885 -11.33603 -11.32766
 Alpha  occ. eigenvalues --  -11.28936  -1.57592  -1.47941  -1.43576  -1.33350
 Alpha  occ. eigenvalues --   -1.23013  -1.16596  -1.08826  -1.04113  -0.91612
 Alpha  occ. eigenvalues --   -0.89073  -0.85498  -0.81689  -0.77839  -0.73640
 Alpha  occ. eigenvalues --   -0.73037  -0.72097  -0.69385  -0.67920  -0.65998
 Alpha  occ. eigenvalues --   -0.64519  -0.61457  -0.59587  -0.54337  -0.53135
 Alpha  occ. eigenvalues --   -0.50714  -0.50071  -0.48542  -0.46832  -0.44504
 Alpha  occ. eigenvalues --   -0.36132
 Alpha virt. eigenvalues --    0.01870   0.02905   0.03621   0.04018   0.05626
 Alpha virt. eigenvalues --    0.05938   0.06813   0.07980   0.09680   0.10714
 Alpha virt. eigenvalues --    0.10787   0.11606   0.11892   0.12321   0.13674

 Mulliken charges:
               1
     1  C   -1.485863
     2  C   -0.027890
     3  C   -0.998853
     4  C    2.505334
     5  H    0.404479
     6  H    0.197440
     7  H    0.187153
     8  H    0.148306
     9  H    0.271141
    10  H    0.191323
    11  H   -0.216602
    12  N    0.651398
    13  N    0.144508
    14  N    0.190638
    15  N    0.930522
    16  N   -0.390442
    17  O   -1.452827
    18  O   -1.249764
 Sum of Mulliken charges =  -0.00000

 Dipole moment (field-independent basis, Debye):
    X=              6.2807    Y=             -0.6482    Z=             -4.7470  Tot=              7.8994

 Test job not archived.
 1\1\GINC-SE334\SP\RHF\Aug-CC-pVDZ\C4H7N5O2\OHZDE\08-Apr-2025\0\\#t hf
 aug-cc-pvdz iop(5/13=1,5/36=2,99/5=2) pseudo=read geom=check guess=(re
 ad,tcheck) scf=(maxcycle=1)\\title\\0,1\C,0,-1.30654,0.788186,-0.04639
 71\C,0,-1.70772,-1.32427,-0.0403886\C,0,1.45458,-1.15117,-0.550463\C,0
 ,2.08466,-0.181443,0.35416\H,0,2.76314,1.58888,0.36803\H,0,1.20048,-2.
 0583,0.0786042\H,0,0.250159,-0.720209,-2.21177\H,0,2.13366,-1.63668,-1
 .30617\H,0,-1.00053,2.75893,0.331855\H,0,0.132817,1.92204,-0.759672\H,
 0,-1.51488,-2.33348,-0.230844\N,0,-0.830733,2.03693,-0.433139\N,0,-2.3

 Normal termination of Gaussian 16 at Tue Apr  8 22:14:03 2025.
