 Gaussian 16, Revision C.01,

 ----------------------------------------------------------------------
 #t hf aug-cc-pvdz symm=none int=(grid=ultrafine) guess=(read,tcheck) s
 table=(opt,rrhf)
 ----------------------------------------------------------------------
 -----
 title
 -----
 Symbolic Z-matrix:
 Charge =  0 Multiplicity = 1

 SCF Done:  E(RHF) =  -489.663807516     A.U. after   14 cycles
 Normal termination of Gaussian 16 at Tue Apr  8 22:12:58 2025.
 Gaussian 16:  ES64L-G16RevC.01  3-Jul-2019

 ----------------------------------------------------------------------
 #t hf aug-cc-pvdz iop(5/13=1,5/36=2,99/5=2) pseudo=read geom=check gue
 ss=(read,tcheck) scf=(maxcycle=1)
 ----------------------------------------------------------------------
 -----
 title
 -----
 Structure from the checkpoint file:  "ANI1ccx_957_conf111_mol1.chk"
 Charge =  0 Multiplicity = 1

                         Standard orientation:
 ---------------------------------------------------------------------
 Center     Atomic      Atomic             Coordinates (Angstroms)
 Number     Number       Type             X           Y           Z
 ---------------------------------------------------------------------
      1          6           0        0.566653   -0.743252   -0.300757
      2          6           0        1.150970    0.740485   -0.259803
      3          6           0       -0.444809   -0.841632    0.842587
      4          6           0       -1.740761    0.008645    0.325482
      5          1           0        2.750129   -0.056287    0.336932
      6          1           0       -3.272511   -0.462769   -1.021210
      7          1           0        0.009058   -0.337810    1.704360
      8          1           0       -0.657529   -1.850960    1.179330
      9          1           0       -1.973561   -1.537250   -1.131000
     10          1           0        1.801769   -2.281950   -0.681214
     11          1           0        1.618939   -1.946160    0.765378
     12          1           0        0.089836   -0.792086   -1.251300
     13          7           0        1.809929   -1.473700   -0.136301
     14          7           0       -2.358031   -0.708522   -0.684822
     15          8           0       -2.102710    1.117520    0.587709
     16          8           0        0.494113    1.749490   -0.600106
     17          8           0        2.393380    0.827410    0.287590
 ---------------------------------------------------------------------

 SCF Done:  E(RHF) =  -490.157332927     A.U. after    2 cycles

 The electronic state is 1-A.
 Alpha  occ. eigenvalues --  -20.58182 -20.52412 -20.52301 -15.54568 -15.52958
 Alpha  occ. eigenvalues --  -11.39024 -11.38078 -11.31889 -11.28999  -1.52096
 Alpha  occ. eigenvalues --   -1.47823  -1.41740  -1.26520  -1.21843  -1.06754
 Alpha  occ. eigenvalues --   -0.93631  -0.84598  -0.81737  -0.78343  -0.74840
 Alpha  occ. eigenvalues --   -0.72864  -0.70221  -0.67319  -0.64063  -0.62206
 Alpha  occ. eigenvalues --   -0.61231  -0.58538  -0.57304  -0.56205  -0.53989
 Alpha  occ. eigenvalues --   -0.52805  -0.45050  -0.43814  -0.42765  -0.41506
 Alpha virt. eigenvalues --    0.01088   0.02746   0.03298   0.04771   0.05809
 Alpha virt. eigenvalues --    0.06258   0.06558   0.07027   0.09621   0.10084
 Alpha virt. eigenvalues --    0.10941   0.12188   0.12717   0.13156   0.14260

 Mulliken charges:
               1
     1  C   -1.816786
     2  C    2.584503
     3  C   -0.121553
     4  C    0.723321
     5  H    0.470888
     6  H    0.075447
     7  H    0.261835
     8  H    0.000343
     9  H    0.044633
    10  H    0.248919
    11  H    0.441350
    12  H    0.055075
    13  N    0.368019
    14  N    0.632549
    15  O   -1.302820
    16  O   -1.342185
    17  O   -1.323540
 Sum of Mulliken charges =  -0.00000

 Dipole moment (field-independent basis, Debye):
    X=              0.2650    Y=             -8.9665    Z=             -0.4194  Tot=              8.9802

 Test job not archived.
 1\1\GINC-SE365\SP\RHF\Aug-CC-pVDZ\C4H8N2O3\OHZDE\08-Apr-2025\0\\#t hf
 aug-cc-pvdz iop(5/13=1,5/36=2,99/5=2) pseudo=read geom=check guess=(re
 ad,tcheck) scf=(maxcycle=1)\\title\\0,1\C,0,0.566654,-0.743252,-0.3007
 57\C,0,1.15097,0.740485,-0.259803\C,0,-0.444808,-0.841632,0.842587\C,0
 ,-1.74076,0.00864475,0.325482\H,0,2.75013,-0.0562864,0.336932\H,0,-3.2
 7251,-0.462769,-1.02121\H,0,0.00905868,-0.33781,1.70436\H,0,-0.657528,
 -1.85096,1.17933\H,0,-1.97356,-1.53725,-1.131\H,0,1.80177,-2.28195,-0.
 681214\H,0,1.61894,-1.94616,0.765378\H,0,0.0898371,-0.792086,-1.2513\N

 Normal termination of Gaussian 16 at Tue Apr  8 22:13:05 2025.
