 Gaussian 16, Revision C.01,

 ----------------------------------------------------------------------
 #t hf aug-cc-pvdz symm=none int=(grid=ultrafine) guess=(read,tcheck) s
 table=(opt,rrhf)
 ----------------------------------------------------------------------
 -----
 title
 -----
 Symbolic Z-matrix:
 Charge =  0 Multiplicity = 1

 SCF Done:  E(RHF) =  -923.684860008     A.U. after   14 cycles
 Normal termination of Gaussian 16 at Tue Apr  8 21:24:57 2025.
 Gaussian 16:  ES64L-G16RevC.01  3-Jul-2019

 ----------------------------------------------------------------------
 #t hf aug-cc-pvdz iop(5/13=1,5/36=2,99/5=2) pseudo=read geom=check gue
 ss=(read,tcheck) scf=(maxcycle=1)
 ----------------------------------------------------------------------
 -----
 title
 -----
 Structure from the checkpoint file:  "ANI1ccx_1787_conf11_mol2.chk"
 Charge =  0 Multiplicity = 1

                         Standard orientation:
 ---------------------------------------------------------------------
 Center     Atomic      Atomic             Coordinates (Angstroms)
 Number     Number       Type             X           Y           Z
 ---------------------------------------------------------------------
      1          6           0       -1.680060   -1.252139   -0.200741
      2          6           0        1.572333    2.343538    0.484415
      3          6           0        2.324742    1.470167   -0.538456
      4          6           0        1.550251    0.389271   -1.247970
      5          6           0       -0.870352    2.556410   -0.230863
      6          6           0        1.357660   -0.913478   -0.443343
      7          6           0       -3.147010   -0.954985   -0.024292
      8          6           0       -0.824793   -0.639362    0.918614
      9          6           0        2.683699   -1.594513   -0.092969
     10          1           0        2.675073    2.134537   -1.288800
     11          1           0        1.834249   -2.370302    1.584300
     12          1           0       -2.267087    2.136321    1.145360
     13          1           0       -0.786059    2.753110    1.816760
     14          1           0       -0.942605    2.051710   -2.012390
     15          1           0        0.541500    4.081789    0.163041
     16          1           0        1.199603    1.747248    1.363430
     17          1           0        2.387394    3.040417    0.824823
     18          1           0        3.187142    1.051726   -0.022891
     19          1           0        2.028461    0.080497   -2.168260
     20          1           0        0.550729    0.796323   -1.577250
     21          1           0       -1.537732   -3.082229    0.670291
     22          1           0       -1.417210   -0.825761   -1.193570
     23          1           0       -3.294489    0.140821   -0.086536
     24          1           0       -1.900672   -3.135659   -0.980318
     25          1           0       -4.762920   -1.401286   -1.030770
     26          1           0        1.074391   -0.275128    1.548760
     27          1           0        0.831244   -1.649142   -1.037490
     28          1           0       -3.542060   -1.314827    0.918066
     29          7           0       -1.360462   -2.682019   -0.249133
     30          7           0        0.554402   -0.665031    0.782225
     31          7           0        0.496736    3.148529   -0.251789
     32          7           0       -1.518617    2.055721   -1.180260
     33          7           0       -1.430517    2.701271    1.030400
     34          8           0        3.681389   -1.597054   -0.747903
     35          8           0       -1.370219   -0.196327    1.899710
     36          8           0       -3.819961   -1.584297   -1.101270
     37          8           0        2.652719   -2.409683    1.036580
 ---------------------------------------------------------------------

 SCF Done:  E(RHF) =  -924.621474199     A.U. after    2 cycles

 The electronic state is 1-A.
 Alpha  occ. eigenvalues --  -20.59640 -20.55531 -20.54908 -20.53498 -15.54889
 Alpha  occ. eigenvalues --  -15.52030 -15.51424 -15.50334 -15.47832 -11.40743
 Alpha  occ. eigenvalues --  -11.38040 -11.35616 -11.31588 -11.29695 -11.28592
 Alpha  occ. eigenvalues --  -11.28523 -11.24981 -11.24011  -1.53657  -1.49205
 Alpha  occ. eigenvalues --   -1.45837  -1.45355  -1.28955  -1.26136  -1.20098
 Alpha  occ. eigenvalues --   -1.17818  -1.16274  -1.09257  -1.02113  -1.01266
 Alpha  occ. eigenvalues --   -0.93163  -0.89929  -0.84730  -0.82838  -0.81449
 Alpha  occ. eigenvalues --   -0.80023  -0.77215  -0.76953  -0.75974  -0.71877
 Alpha  occ. eigenvalues --   -0.70249  -0.69257  -0.68539  -0.67756  -0.67172
 Alpha  occ. eigenvalues --   -0.66474  -0.66106  -0.64085  -0.62859  -0.62352
 Alpha  occ. eigenvalues --   -0.61351  -0.60054  -0.59179  -0.58822  -0.56802
 Alpha  occ. eigenvalues --   -0.55649  -0.55172  -0.52639  -0.52234  -0.51030
 Alpha  occ. eigenvalues --   -0.50500  -0.48810  -0.47877  -0.46164  -0.45399
 Alpha  occ. eigenvalues --   -0.45123  -0.44649  -0.43837  -0.43324  -0.41864
 Alpha virt. eigenvalues --    0.02713   0.03317   0.03407   0.03691   0.04272
 Alpha virt. eigenvalues --    0.04348   0.04503   0.05314   0.06290   0.06971
 Alpha virt. eigenvalues --    0.07214   0.07547   0.08075   0.08355   0.09099

 Mulliken charges:
               1
     1  C   -1.908295
     2  C   -0.503538
     3  C   -0.230547
     4  C    0.449118
     5  C   -5.029155
     6  C   -1.517091
     7  C    1.177236
     8  C    0.837713
     9  C    2.694904
    10  H    0.039154
    11  H    0.496426
    12  H    0.109703
    13  H    0.143047
    14  H    0.221787
    15  H    0.237568
    16  H    0.156804
    17  H    0.149360
    18  H    0.124700
    19  H    0.075705
    20  H    0.190745
    21  H    0.321974
    22  H    0.141669
    23  H    0.181407
    24  H    0.264269
    25  H    0.334762
    26  H    0.188580
    27  H    0.158555
    28  H    0.088315
    29  N    0.396162
    30  N    1.685536
    31  N    0.834161
    32  N    1.775061
    33  N    1.510158
    34  O   -1.375328
    35  O   -1.652971
    36  O   -1.327271
    37  O   -1.440384
 Sum of Mulliken charges =  -0.00000

 Dipole moment (field-independent basis, Debye):
    X=             -1.9724    Y=              1.6370    Z=              2.2007  Tot=              3.3784

 Test job not archived.
 1\1\GINC-SE041\SP\RHF\Aug-CC-pVDZ\C9H19N5O4\OHZDE\08-Apr-2025\0\\#t hf
  aug-cc-pvdz iop(5/13=1,5/36=2,99/5=2) pseudo=read geom=check guess=(r
 ead,tcheck) scf=(maxcycle=1)\\title\\0,1\C,0,-1.68006,-1.25214,-0.2007
 41\C,0,1.57233,2.34354,0.484415\C,0,2.32474,1.47017,-0.538456\C,0,1.55
 025,0.389273,-1.24797\C,0,-0.870355,2.55641,-0.230863\C,0,1.35766,-0.9
 13476,-0.443343\C,0,-3.14701,-0.954987,-0.0242927\C,0,-0.824793,-0.639
 362,0.918614\C,0,2.6837,-1.59451,-0.0929698\H,0,2.67507,2.13454,-1.288
 8\H,0,1.83425,-2.3703,1.5843\H,0,-2.26709,2.13632,1.14536\H,0,-0.78606

 Normal termination of Gaussian 16 at Tue Apr  8 21:26:08 2025.
