 Gaussian 16, Revision C.01,

 ----------------------------------------------------------------------
 #t hf aug-cc-pvdz symm=none int=(grid=ultrafine) guess=(read,tcheck) s
 table=(opt,rrhf)
 ----------------------------------------------------------------------
 -----
 title
 -----
 Symbolic Z-matrix:
 Charge =  0 Multiplicity = 1

 SCF Done:  E(RHF) =  -406.480296881     A.U. after   16 cycles
 Normal termination of Gaussian 16 at Tue Apr  8 21:33:38 2025.
 Gaussian 16:  ES64L-G16RevC.01  3-Jul-2019

 ----------------------------------------------------------------------
 #t hf aug-cc-pvdz iop(5/13=1,5/36=2,99/5=2) pseudo=read geom=check gue
 ss=(read,tcheck) scf=(maxcycle=1)
 ----------------------------------------------------------------------
 -----
 title
 -----
 Structure from the checkpoint file:  "ANI1ccx_379_conf8_mol1.chk"
 Charge =  0 Multiplicity = 1

                         Standard orientation:
 ---------------------------------------------------------------------
 Center     Atomic      Atomic             Coordinates (Angstroms)
 Number     Number       Type             X           Y           Z
 ---------------------------------------------------------------------
      1          6           0        0.033444    0.779321    0.022697
      2          1           0        2.105369   -0.631749    0.992515
      3          1           0        2.227679   -0.596361   -0.695789
      4          7           0        1.751099   -0.913139    0.070418
      5          7           0        0.459150   -0.475261   -0.113700
      6          7           0       -0.555525   -1.309689   -0.045933
      7          7           0       -1.661811   -0.649274   -0.012174
      8          8           0       -1.289650    0.742646    0.096838
      9          8           0        0.729137    1.755320   -0.062236
 ---------------------------------------------------------------------

 SCF Done:  E(RHF) =  -406.880295151     A.U. after    2 cycles

 The electronic state is 1-A.
 Alpha  occ. eigenvalues --  -20.67065 -20.54832 -15.67407 -15.66813 -15.65313
 Alpha  occ. eigenvalues --  -15.58599 -11.44253  -1.65098  -1.50278  -1.46457
 Alpha  occ. eigenvalues --   -1.33591  -1.19841  -1.03719  -0.93585  -0.84475
 Alpha  occ. eigenvalues --   -0.84181  -0.75337  -0.72429  -0.68756  -0.64504
 Alpha  occ. eigenvalues --   -0.61192  -0.59786  -0.58082  -0.54884  -0.48213
 Alpha  occ. eigenvalues --   -0.44950
 Alpha virt. eigenvalues --    0.02197   0.03301   0.05315   0.08491   0.09358
 Alpha virt. eigenvalues --    0.09714   0.10106   0.11822   0.12559   0.13964
 Alpha virt. eigenvalues --    0.16110   0.16863   0.17519   0.18123   0.19422

 Mulliken charges:
               1
     1  C    1.414744
     2  H    0.218533
     3  H    0.151901
     4  N    0.420664
     5  N   -0.300883
     6  N   -0.766494
     7  N    1.162741
     8  O   -1.255653
     9  O   -1.045552
 Sum of Mulliken charges =  -0.00000

 Dipole moment (field-independent basis, Debye):
    X=              2.3722    Y=             -1.1859    Z=              0.5164  Tot=              2.7020

 Test job not archived.
 1\1\GINC-SE126\SP\RHF\Aug-CC-pVDZ\C1H2N4O2\OHZDE\08-Apr-2025\0\\#t hf
 aug-cc-pvdz iop(5/13=1,5/36=2,99/5=2) pseudo=read geom=check guess=(re
 ad,tcheck) scf=(maxcycle=1)\\title\\0,1\C,0,0.0334438,0.77932,0.022696
 6\H,0,2.10537,-0.631749,0.992515\H,0,2.22768,-0.59636,-0.695789\N,0,1.
 7511,-0.913139,0.070418\N,0,0.459151,-0.475262,-0.1137\N,0,-0.555523,-
 1.30969,-0.0459327\N,0,-1.66181,-0.649276,-0.0121741\O,0,-1.28965,0.74
 2644,0.0968381\O,0,0.729137,1.75532,-0.0622365\\Version=ES64L-G16RevC.
 01\State=1-A\HF=-406.8802952\RMSD=4.268e-02\Dipole=0.9333109,-0.466573

 Normal termination of Gaussian 16 at Tue Apr  8 21:33:41 2025.
