 Gaussian 16, Revision C.01,

 ----------------------------------------------------------------------
 #t hf aug-cc-pvdz symm=none int=(grid=ultrafine) guess=(read,tcheck) s
 table=(opt,rrhf)
 ----------------------------------------------------------------------
 -----
 title
 -----
 Symbolic Z-matrix:
 Charge =  0 Multiplicity = 1

 SCF Done:  E(RHF) =  -469.354524883     A.U. after   13 cycles
 Normal termination of Gaussian 16 at Tue Apr  8 21:49:59 2025.
 Gaussian 16:  ES64L-G16RevC.01  3-Jul-2019

 ----------------------------------------------------------------------
 #t hf aug-cc-pvdz iop(5/13=1,5/36=2,99/5=2) pseudo=read geom=check gue
 ss=(read,tcheck) scf=(maxcycle=1)
 ----------------------------------------------------------------------
 -----
 title
 -----
 Structure from the checkpoint file:  "ANI1ccx_672_conf2_mol2.chk"
 Charge =  0 Multiplicity = 1

                         Standard orientation:
 ---------------------------------------------------------------------
 Center     Atomic      Atomic             Coordinates (Angstroms)
 Number     Number       Type             X           Y           Z
 ---------------------------------------------------------------------
      1          6           0       -1.249359   -0.358254   -0.028177
      2          6           0        1.247611   -0.335353   -0.029021
      3          6           0        0.010553    1.538710    0.294341
      4          1           0       -0.019779   -1.877150    0.487156
      5          1           0        0.092301    1.411810    1.361320
      6          1           0       -0.034724    2.565330   -0.037935
      7          7           0        0.021529   -0.893584    0.286119
      8          8           0       -2.230510   -1.040817   -0.132966
      9          8           0        2.248520   -1.020853   -0.062367
     10          8           0        1.172192    0.970990   -0.308610
     11          8           0       -1.220368    0.976239   -0.150586
 ---------------------------------------------------------------------

 SCF Done:  E(RHF) =  -469.808002620     A.U. after    2 cycles

 The electronic state is 1-A.
 Alpha  occ. eigenvalues --  -20.64975 -20.64744 -20.56521 -20.55871 -15.58965
 Alpha  occ. eigenvalues --  -11.46379 -11.46177 -11.41419  -1.63239  -1.57736
 Alpha  occ. eigenvalues --   -1.50698  -1.48674  -1.29533  -1.03644  -0.96138
 Alpha  occ. eigenvalues --   -0.87843  -0.84585  -0.80071  -0.73928  -0.68918
 Alpha  occ. eigenvalues --   -0.68039  -0.67391  -0.67270  -0.63167  -0.59461
 Alpha  occ. eigenvalues --   -0.53748  -0.51302  -0.51044  -0.48080  -0.47044
 Alpha virt. eigenvalues --    0.02686   0.03887   0.04882   0.07039   0.08249
 Alpha virt. eigenvalues --    0.10116   0.10433   0.10452   0.10693   0.12820
 Alpha virt. eigenvalues --    0.13010   0.13592   0.14009   0.15153   0.15926

 Mulliken charges:
               1
     1  C    1.300023
     2  C    1.288220
     3  C    1.099035
     4  H    0.092592
     5  H    0.212009
     6  H   -0.004407
     7  N    0.684292
     8  O   -1.120159
     9  O   -1.140002
    10  O   -1.209600
    11  O   -1.202003
 Sum of Mulliken charges =  -0.00000

 Dipole moment (field-independent basis, Debye):
    X=             -0.1667    Y=              2.5964    Z=              1.6801  Tot=              3.0971

 Test job not archived.
 1\1\GINC-SE398\SP\RHF\Aug-CC-pVDZ\C3H3N1O4\OHZDE\08-Apr-2025\0\\#t hf
 aug-cc-pvdz iop(5/13=1,5/36=2,99/5=2) pseudo=read geom=check guess=(re
 ad,tcheck) scf=(maxcycle=1)\\title\\0,1\C,0,-1.24936,-0.358256,-0.0281
 77\C,0,1.24761,-0.335351,-0.0290208\C,0,0.0105498,1.53871,0.294341\H,0
 ,-0.019777,-1.87715,0.487156\H,0,0.0922981,1.41181,1.36132\H,0,-0.0347
 284,2.56533,-0.0379351\N,0,0.0215293,-0.893584,0.286119\O,0,-2.23051,-
 1.04082,-0.132966\O,0,2.24852,-1.02085,-0.0623675\O,0,1.17219,0.970991
 ,-0.30861\O,0,-1.22037,0.976237,-0.150586\\Version=ES64L-G16RevC.01\St

 Normal termination of Gaussian 16 at Tue Apr  8 21:50:03 2025.
