 Gaussian 16, Revision C.01,

 ----------------------------------------------------------------------
 #t hf aug-cc-pvdz symm=none int=(grid=ultrafine) guess=(read,tcheck) s
 table=(opt,rrhf)
 ----------------------------------------------------------------------
 -----
 title
 -----
 Symbolic Z-matrix:
 Charge =  0 Multiplicity = 1

 SCF Done:  E(RHF) =  -373.429342674     A.U. after   15 cycles
 Normal termination of Gaussian 16 at Tue Apr  8 21:48:53 2025.
 Gaussian 16:  ES64L-G16RevC.01  3-Jul-2019

 ----------------------------------------------------------------------
 #t hf aug-cc-pvdz iop(5/13=1,5/36=2,99/5=2) pseudo=read geom=check gue
 ss=(read,tcheck) scf=(maxcycle=1)
 ----------------------------------------------------------------------
 -----
 title
 -----
 Structure from the checkpoint file:  "ANI1ccx_655_conf6_mol1.chk"
 Charge =  0 Multiplicity = 1

                         Standard orientation:
 ---------------------------------------------------------------------
 Center     Atomic      Atomic             Coordinates (Angstroms)
 Number     Number       Type             X           Y           Z
 ---------------------------------------------------------------------
      1          6           0        1.809641   -0.691616   -0.034744
      2          6           0       -0.420470    0.321339    0.019157
      3          6           0       -1.850689   -0.082399   -0.014769
      4          1           0        2.261871   -1.693399   -0.114926
      5          1           0       -0.034417   -1.677259    0.127489
      6          7           0        0.416506   -0.786278    0.072762
      7          7           0       -2.960779   -0.411934   -0.038725
      8          8           0        2.429671    0.336065   -0.024272
      9          8           0       -0.135724    1.473211    0.015686
 ---------------------------------------------------------------------

 SCF Done:  E(RHF) =  -373.786274443     A.U. after    2 cycles

 The electronic state is 1-A.
 Alpha  occ. eigenvalues --  -20.59097 -20.57399 -15.60569 -15.57060 -11.45227
 Alpha  occ. eigenvalues --  -11.41465 -11.32404  -1.55042  -1.51584  -1.31796
 Alpha  occ. eigenvalues --   -1.27408  -1.02981  -0.89012  -0.87187  -0.75807
 Alpha  occ. eigenvalues --   -0.71151  -0.69414  -0.67302  -0.65528  -0.59113
 Alpha  occ. eigenvalues --   -0.56385  -0.53462  -0.52061  -0.49011  -0.46620
 Alpha virt. eigenvalues --    0.01569   0.03651   0.04349   0.07124   0.07616
 Alpha virt. eigenvalues --    0.09196   0.09772   0.10305   0.11072   0.12408
 Alpha virt. eigenvalues --    0.12634   0.13143   0.14085   0.14818   0.15256

 Mulliken charges:
               1
     1  C    0.570597
     2  C    1.258276
     3  C   -1.586734
     4  H    0.091707
     5  H    0.155699
     6  N    0.646238
     7  N    0.918658
     8  O   -0.992388
     9  O   -1.062054
 Sum of Mulliken charges =   0.00000

 Dipole moment (field-independent basis, Debye):
    X=              1.7868    Y=             -4.2456    Z=              0.0663  Tot=              4.6067

 Test job not archived.
 1\1\GINC-SE368\SP\RHF\Aug-CC-pVDZ\C3H2N2O2\OHZDE\08-Apr-2025\0\\#t hf
 aug-cc-pvdz iop(5/13=1,5/36=2,99/5=2) pseudo=read geom=check guess=(re
 ad,tcheck) scf=(maxcycle=1)\\title\\0,1\C,0,1.80964,-0.691617,-0.03474
 35\C,0,-0.420471,0.321338,0.0191572\C,0,-1.85069,-0.0823995,-0.0147685
 \H,0,2.26187,-1.6934,-0.114926\H,0,-0.0344177,-1.67726,0.127489\N,0,0.
 416505,-0.786279,0.0727617\N,0,-2.96078,-0.411935,-0.0387251\O,0,2.429
 67,0.336064,-0.0242722\O,0,-0.135725,1.47321,0.015686\\Version=ES64L-G
 16RevC.01\State=1-A\HF=-373.7862744\RMSD=4.271e-02\Dipole=0.7029743,-1

 Normal termination of Gaussian 16 at Tue Apr  8 21:48:56 2025.
