 Gaussian 16, Revision C.01,

 ----------------------------------------------------------------------
 #t hf aug-cc-pvdz symm=none int=(grid=ultrafine) guess=(read,tcheck) s
 table=(opt,rrhf)
 ----------------------------------------------------------------------
 -----
 title
 -----
 Symbolic Z-matrix:
 Charge =  0 Multiplicity = 1

 SCF Done:  E(RHF) =  -599.027848700     A.U. after   16 cycles
 Normal termination of Gaussian 16 at Tue Apr  8 20:27:13 2025.
 Gaussian 16:  ES64L-G16RevC.01  3-Jul-2019

 ----------------------------------------------------------------------
 #t hf aug-cc-pvdz iop(5/13=1,5/36=2,99/5=2) pseudo=read geom=check gue
 ss=(read,tcheck) scf=(maxcycle=1)
 ----------------------------------------------------------------------
 -----
 title
 -----
 Structure from the checkpoint file:  "ANI1ccx_1666_conf1_mol2.chk"
 Charge =  0 Multiplicity = 1

                         Standard orientation:
 ---------------------------------------------------------------------
 Center     Atomic      Atomic             Coordinates (Angstroms)
 Number     Number       Type             X           Y           Z
 ---------------------------------------------------------------------
      1          6           0        1.068060    1.899670    0.478745
      2          6           0       -0.191960    1.922570   -0.341681
      3          6           0       -1.066770    0.715685   -0.161842
      4          6           0       -2.802890   -1.198099    0.164714
      5          6           0       -1.454640   -1.601860    0.180868
      6          6           0       -0.544393   -0.573108   -0.048055
      7          6           0        0.912230   -0.604477   -0.057035
      8          6           0        1.698880    0.589275    0.119842
      9          1           0       -1.084830   -2.592750    0.520405
     10          1           0       -3.537800   -1.923029    0.352219
     11          1           0        0.075964    2.016730   -1.433650
     12          1           0        0.913672    1.895650    1.601900
     13          1           0        1.733530    2.761390    0.290438
     14          1           0       -0.751707    2.804470   -0.129636
     15          7           0        2.932390    0.208441    0.101398
     16          7           0       -2.359380    0.978829   -0.180035
     17          7           0       -3.219420    0.024005    0.010870
     18          7           0        1.688250   -1.610520   -0.217627
     19          8           0        2.955900   -1.133210   -0.152155
 ---------------------------------------------------------------------

 SCF Done:  E(RHF) =  -599.625818865     A.U. after    2 cycles

 The electronic state is 1-A.
 Alpha  occ. eigenvalues --  -20.67371 -15.60340 -15.59761 -15.56338 -15.55585
 Alpha  occ. eigenvalues --  -11.31349 -11.31189 -11.30876 -11.30300 -11.30192
 Alpha  occ. eigenvalues --  -11.29643 -11.28874 -11.27050  -1.63096  -1.38129
 Alpha  occ. eigenvalues --   -1.24708  -1.23926  -1.17223  -1.13953  -1.09100
 Alpha  occ. eigenvalues --   -0.98397  -0.96206  -0.90793  -0.86434  -0.85072
 Alpha  occ. eigenvalues --   -0.78049  -0.76120  -0.72559  -0.70795  -0.69585
 Alpha  occ. eigenvalues --   -0.66681  -0.64023  -0.63981  -0.61675  -0.60275
 Alpha  occ. eigenvalues --   -0.57305  -0.56689  -0.54875  -0.53607  -0.51548
 Alpha  occ. eigenvalues --   -0.50861  -0.46519  -0.46283  -0.42136  -0.40217
 Alpha virt. eigenvalues --    0.01049   0.02938   0.03390   0.03800   0.04474
 Alpha virt. eigenvalues --    0.04723   0.05506   0.07179   0.07844   0.08633
 Alpha virt. eigenvalues --    0.09349   0.10036   0.10625   0.11887   0.12110

 Mulliken charges:
               1
     1  C   -0.100247
     2  C   -0.024567
     3  C   -1.227527
     4  C   -0.616137
     5  C    0.588322
     6  C    1.376170
     7  C   -1.415538
     8  C   -0.957202
     9  H   -0.115406
    10  H   -0.187624
    11  H    0.332872
    12  H    0.303721
    13  H    0.116485
    14  H    0.097263
    15  N    1.491699
    16  N    0.044886
    17  N    0.394674
    18  N    1.521929
    19  O   -1.623772
 Sum of Mulliken charges =  -0.00000

 Dipole moment (field-independent basis, Debye):
    X=             -0.1923    Y=              0.0860    Z=              1.0055  Tot=              1.0273

 Test job not archived.
 1\1\GINC-SE097\SP\RHF\Aug-CC-pVDZ\C8H6N4O1\OHZDE\08-Apr-2025\0\\#t hf
 aug-cc-pvdz iop(5/13=1,5/36=2,99/5=2) pseudo=read geom=check guess=(re
 ad,tcheck) scf=(maxcycle=1)\\title\\0,1\C,0,1.06806,1.89967,0.478745\C
 ,0,-0.19196,1.92257,-0.341681\C,0,-1.06677,0.715685,-0.161842\C,0,-2.8
 0289,-1.1981,0.164714\C,0,-1.45464,-1.60186,0.180868\C,0,-0.544393,-0.
 573108,-0.0480548\C,0,0.91223,-0.604477,-0.0570353\C,0,1.69888,0.58927
 5,0.119842\H,0,-1.08483,-2.59275,0.520405\H,0,-3.5378,-1.92303,0.35221
 9\H,0,0.0759643,2.01673,-1.43365\H,0,0.913672,1.89565,1.6019\H,0,1.733

 Normal termination of Gaussian 16 at Tue Apr  8 20:27:27 2025.
