 Gaussian 16, Revision C.01,

 ----------------------------------------------------------------------
 #t hf aug-cc-pvdz symm=none int=(grid=ultrafine) guess=(read,tcheck) s
 table=(opt,rrhf)
 ----------------------------------------------------------------------
 -----
 title
 -----
 Symbolic Z-matrix:
 Charge =  0 Multiplicity = 1

 SCF Done:  E(RHF) =  -380.227590261     A.U. after   11 cycles
 Normal termination of Gaussian 16 at Tue Apr  8 21:02:24 2025.
 Gaussian 16:  ES64L-G16RevC.01  3-Jul-2019

 ----------------------------------------------------------------------
 #t hf aug-cc-pvdz iop(5/13=1,5/36=2,99/5=2) pseudo=read geom=check gue
 ss=(read,tcheck) scf=(maxcycle=1)
 ----------------------------------------------------------------------
 -----
 title
 -----
 Structure from the checkpoint file:  "ANI1ccx_1843_conf20_mol1.chk"
 Charge =  0 Multiplicity = 1

                         Standard orientation:
 ---------------------------------------------------------------------
 Center     Atomic      Atomic             Coordinates (Angstroms)
 Number     Number       Type             X           Y           Z
 ---------------------------------------------------------------------
      1          1           0       -1.806700    0.135620   -0.471293
      2          1           0       -2.141331    0.415280   -1.971210
      3          1           0       -0.755355   -0.875757    0.959760
      4          1           0       -1.668910   -0.485482    2.185670
      5          1           0       -0.239427   -1.371389   -0.945151
      6          1           0        1.060151   -1.290408   -0.110527
      7          1           0        1.716949    0.634258    0.141393
      8          1           0        2.850200    0.122305   -0.818392
      9          1           0       -0.155685    1.232111    0.924905
     10          1           0       -0.107955    1.542461   -0.565274
     11          8           0       -1.409830    0.252312   -1.349470
     12          8           0       -1.342650   -0.149026    1.327030
     13          8           0        0.161926   -1.718889   -0.136471
     14          8           0        2.360150   -0.118864   -0.011137
     15          8           0        0.386412    1.727092    0.253813
 ---------------------------------------------------------------------

 SCF Done:  E(RHF) =  -380.623185316     A.U. after    2 cycles

 The electronic state is 1-A.
 Alpha  occ. eigenvalues --  -20.57822 -20.56596 -20.54549 -20.54448 -20.54098
 Alpha  occ. eigenvalues --   -1.46813  -1.44570  -1.43147  -1.42523  -1.40870
 Alpha  occ. eigenvalues --   -0.75637  -0.71596  -0.70804  -0.69203  -0.68993
 Alpha  occ. eigenvalues --   -0.62460  -0.60694  -0.58267  -0.57729  -0.54902
 Alpha  occ. eigenvalues --   -0.51688  -0.50729  -0.48590  -0.48173  -0.47656
 Alpha virt. eigenvalues --    0.03010   0.03943   0.04866   0.06635   0.07710
 Alpha virt. eigenvalues --    0.08369   0.08537   0.09022   0.09242   0.11699
 Alpha virt. eigenvalues --    0.16567   0.18705   0.19613   0.20644   0.22000

 Mulliken charges:
               1
     1  H    0.607177
     2  H    0.457087
     3  H    0.746803
     4  H    0.459223
     5  H    0.548764
     6  H    0.653471
     7  H    0.712901
     8  H    0.375821
     9  H    0.642410
    10  H    0.606047
    11  O   -1.039257
    12  O   -1.215234
    13  O   -1.253399
    14  O   -1.023658
    15  O   -1.278157
 Sum of Mulliken charges =  -0.00000

 Dipole moment (field-independent basis, Debye):
    X=             -2.8140    Y=              0.1559    Z=             -1.4186  Tot=              3.1552

 Test job not archived.
 1\1\GINC-SE454\SP\RHF\Aug-CC-pVDZ\H10O5\OHZDE\08-Apr-2025\0\\#t hf aug
 -cc-pvdz iop(5/13=1,5/36=2,99/5=2) pseudo=read geom=check guess=(read,
 tcheck) scf=(maxcycle=1)\\title\\0,1\H,0,-1.8067,0.13562,-0.471293\H,0
 ,-2.14133,0.41528,-1.97121\H,0,-0.755355,-0.875758,0.95976\H,0,-1.6689
 1,-0.485482,2.18567\H,0,-0.239428,-1.37139,-0.945151\H,0,1.06015,-1.29
 041,-0.110527\H,0,1.71695,0.634255,0.141393\H,0,2.8502,0.122302,-0.818
 392\H,0,-0.155684,1.23211,0.924905\H,0,-0.107954,1.54246,-0.565274\O,0
 ,-1.40983,0.252312,-1.34947\O,0,-1.34265,-0.149026,1.32703\O,0,0.16192

 Normal termination of Gaussian 16 at Tue Apr  8 21:02:28 2025.
