 Gaussian 16, Revision C.01,

 ----------------------------------------------------------------------
 #t hf aug-cc-pvdz symm=none int=(grid=ultrafine) guess=(read,tcheck) s
 table=(opt,rrhf)
 ----------------------------------------------------------------------
 -----
 title
 -----
 Symbolic Z-matrix:
 Charge =  0 Multiplicity = 1

 SCF Done:  E(RHF) =  -555.314240367     A.U. after   17 cycles
 Normal termination of Gaussian 16 at Tue Apr  8 22:04:17 2025.
 Gaussian 16:  ES64L-G16RevC.01  3-Jul-2019

 ----------------------------------------------------------------------
 #t hf aug-cc-pvdz iop(5/13=1,5/36=2,99/5=2) pseudo=read geom=check gue
 ss=(read,tcheck) scf=(maxcycle=1)
 ----------------------------------------------------------------------
 -----
 title
 -----
 Structure from the checkpoint file:  "ANI1ccx_886_conf9_mol1.chk"
 Charge =  0 Multiplicity = 1

                         Standard orientation:
 ---------------------------------------------------------------------
 Center     Atomic      Atomic             Coordinates (Angstroms)
 Number     Number       Type             X           Y           Z
 ---------------------------------------------------------------------
      1          6           0        1.279071    0.703386    0.000108
      2          6           0       -0.926477    0.727377    0.067602
      3          6           0       -0.939321   -0.717009   -0.022050
      4          6           0        1.281570   -0.674573    0.042017
      5          1           0        2.421222    2.317898   -0.213458
      6          1           0        3.290001    0.858320   -0.476474
      7          1           0        2.303279   -2.294812    0.206017
      8          1           0        3.275350   -0.980350    0.532629
      9          7           0        2.524051    1.324158   -0.010251
     10          7           0        0.199837    1.457509    0.023435
     11          7           0       -2.167929    1.119161    0.051556
     12          7           0       -2.153810   -1.133359   -0.086048
     13          7           0        0.194494   -1.416471    0.001242
     14          7           0        2.530460   -1.356882   -0.048316
     15          8           0       -2.918579   -0.011869   -0.012014
 ---------------------------------------------------------------------

 SCF Done:  E(RHF) =  -555.864170740     A.U. after    2 cycles

 The electronic state is 1-A.
 Alpha  occ. eigenvalues --  -20.66610 -15.58458 -15.58287 -15.56412 -15.56174
 Alpha  occ. eigenvalues --  -15.55146 -15.54802 -11.37803 -11.37723 -11.32045
 Alpha  occ. eigenvalues --  -11.31835  -1.62039  -1.37301  -1.30084  -1.27177
 Alpha  occ. eigenvalues --   -1.23766  -1.19201  -1.17318  -1.00960  -0.93376
 Alpha  occ. eigenvalues --   -0.90533  -0.84208  -0.81998  -0.77294  -0.73841
 Alpha  occ. eigenvalues --   -0.73241  -0.72289  -0.71170  -0.65567  -0.63741
 Alpha  occ. eigenvalues --   -0.59598  -0.58534  -0.58228  -0.54049  -0.53374
 Alpha  occ. eigenvalues --   -0.52168  -0.47974  -0.41780  -0.39349
 Alpha virt. eigenvalues --   -0.02086   0.01598   0.03349   0.05060   0.05537
 Alpha virt. eigenvalues --    0.07799   0.08421   0.09491   0.09749   0.10292
 Alpha virt. eigenvalues --    0.11282   0.11974   0.11987   0.12721   0.12795

 Mulliken charges:
               1
     1  C   -1.757694
     2  C   -1.287956
     3  C   -1.186106
     4  C   -1.742221
     5  H    0.102846
     6  H    0.202234
     7  H    0.103240
     8  H    0.246069
     9  N    0.853471
    10  N    1.176791
    11  N    1.470211
    12  N    1.494442
    13  N    1.105200
    14  N    0.759377
    15  O   -1.539904
 Sum of Mulliken charges =   0.00000

 Dipole moment (field-independent basis, Debye):
    X=              8.1706    Y=              0.0437    Z=              0.3530  Tot=              8.1783

 Test job not archived.
 1\1\GINC-SE454\SP\RHF\Aug-CC-pVDZ\C4H4N6O1\OHZDE\08-Apr-2025\0\\#t hf
 aug-cc-pvdz iop(5/13=1,5/36=2,99/5=2) pseudo=read geom=check guess=(re
 ad,tcheck) scf=(maxcycle=1)\\title\\0,1\C,0,1.27907,0.703387,0.0001083
 4\C,0,-0.926478,0.727377,0.067602\C,0,-0.939321,-0.717009,-0.0220496\C
 ,0,1.28157,-0.674572,0.042017\H,0,2.42122,2.3179,-0.213458\H,0,3.29,0.
 858322,-0.476474\H,0,2.30328,-2.29481,0.206017\H,0,3.27535,-0.980348,0
 .532629\N,0,2.52405,1.32416,-0.0102507\N,0,0.199836,1.45751,0.0234351\
 N,0,-2.16793,1.11916,0.0515565\N,0,-2.15381,-1.13336,-0.0860483\N,0,0.

 Normal termination of Gaussian 16 at Tue Apr  8 22:04:25 2025.
