 Gaussian 16, Revision C.01,

 ----------------------------------------------------------------------
 #t hf aug-cc-pvdz symm=none int=(grid=ultrafine) guess=(read,tcheck) s
 table=(opt,rrhf)
 ----------------------------------------------------------------------
 -----
 title
 -----
 Symbolic Z-matrix:
 Charge =  0 Multiplicity = 1

 SCF Done:  E(RHF) =  -791.926477796     A.U. after   14 cycles
 Normal termination of Gaussian 16 at Tue Apr  8 19:31:52 2025.
 Gaussian 16:  ES64L-G16RevC.01  3-Jul-2019

 ----------------------------------------------------------------------
 #t hf aug-cc-pvdz iop(5/13=1,5/36=2,99/5=2) pseudo=read geom=check gue
 ss=(read,tcheck) scf=(maxcycle=1)
 ----------------------------------------------------------------------
 -----
 title
 -----
 Structure from the checkpoint file:  "ANI1ccx_1216_conf21_mol1.chk"
 Charge =  0 Multiplicity = 1

                         Standard orientation:
 ---------------------------------------------------------------------
 Center     Atomic      Atomic             Coordinates (Angstroms)
 Number     Number       Type             X           Y           Z
 ---------------------------------------------------------------------
      1          6           0        0.510635    2.052680    0.196560
      2          6           0       -1.814980    0.271413   -1.204290
      3          6           0       -0.167250   -1.690370   -1.257270
      4          6           0        2.168520    0.306821   -0.257895
      5          6           0        0.945448    0.305264    1.833160
      6          6           0       -1.709429   -1.159771    0.735160
      7          1           0       -2.783990   -0.676252    0.736933
      8          1           0       -1.858289   -2.326571    0.912791
      9          1           0        1.869620    0.106855    2.342090
     10          1           0        0.494741    1.124460    2.484240
     11          1           0        2.980510   -0.294602    0.347920
     12          1           0        2.678770    1.171821   -0.779103
     13          1           0       -0.288454   -2.785920   -1.074060
     14          1           0       -1.443720    0.516693   -2.218640
     15          1           0       -2.896500    0.089008   -1.166170
     16          1           0        0.075322    2.569860    1.008770
     17          1           0        1.370439    2.836141   -0.036263
     18          1           0       -0.345057   -1.545350   -2.396800
     19          7           0       -1.190439   -0.919298   -0.583241
     20          7           0        1.061980    0.743931    0.555034
     21          8           0        0.199527   -0.915325    1.915450
     22          8           0       -0.370177    1.998630   -0.954970
     23          8           0       -1.649601    1.601849   -0.480283
     24          8           0        1.232931   -1.695229   -0.756270
     25          8           0        1.884130   -0.548183   -1.441130
     26          8           0       -1.115790   -0.451092    1.687600
 ---------------------------------------------------------------------

 SCF Done:  E(RHF) =  -792.709665187     A.U. after    2 cycles

 The electronic state is 1-A.
 Alpha  occ. eigenvalues --  -20.61069 -20.60909 -20.60752 -20.60728 -20.60711
 Alpha  occ. eigenvalues --  -20.60568 -15.51664 -15.51369 -11.34518 -11.34431
 Alpha  occ. eigenvalues --  -11.34236 -11.34197 -11.34000 -11.32744  -1.62690
 Alpha  occ. eigenvalues --   -1.58950  -1.55033  -1.34749  -1.29694  -1.27787
 Alpha  occ. eigenvalues --   -1.25149  -1.20122  -0.97493  -0.96158  -0.94921
 Alpha  occ. eigenvalues --   -0.93567  -0.84118  -0.82239  -0.74596  -0.73988
 Alpha  occ. eigenvalues --   -0.73596  -0.72113  -0.69897  -0.69278  -0.67417
 Alpha  occ. eigenvalues --   -0.65606  -0.64455  -0.63164  -0.62654  -0.61451
 Alpha  occ. eigenvalues --   -0.59617  -0.56017  -0.55690  -0.55153  -0.53755
 Alpha  occ. eigenvalues --   -0.51696  -0.49980  -0.48130  -0.47801  -0.46894
 Alpha  occ. eigenvalues --   -0.46741  -0.44308  -0.42973  -0.42333  -0.40776
 Alpha virt. eigenvalues --    0.03689   0.03966   0.04552   0.04583   0.04821
 Alpha virt. eigenvalues --    0.04939   0.05576   0.05742   0.06938   0.08123
 Alpha virt. eigenvalues --    0.08492   0.09553   0.10032   0.10933   0.11662

 Mulliken charges:
               1
     1  C    0.527554
     2  C    0.329590
     3  C    0.317621
     4  C    0.265465
     5  C    0.344138
     6  C   -0.084515
     7  H    0.166698
     8  H    0.237661
     9  H   -0.162905
    10  H    0.240030
    11  H    0.243774
    12  H    0.019801
    13  H   -0.001234
    14  H    0.089483
    15  H    0.096861
    16  H   -0.171446
    17  H    0.294151
    18  H    0.331863
    19  N    1.142696
    20  N    1.341421
    21  O   -0.858081
    22  O   -0.892765
    23  O   -0.887139
    24  O   -0.927017
    25  O   -0.929202
    26  O   -1.074503
 Sum of Mulliken charges =   0.00000

 Dipole moment (field-independent basis, Debye):
    X=             -0.0595    Y=              0.7881    Z=              0.4296  Tot=              0.8996

 Test job not archived.
 1\1\GINC-SE045\SP\RHF\Aug-CC-pVDZ\C6H12N2O6\OHZDE\08-Apr-2025\0\\#t hf
  aug-cc-pvdz iop(5/13=1,5/36=2,99/5=2) pseudo=read geom=check guess=(r
 ead,tcheck) scf=(maxcycle=1)\\title\\0,1\C,0,0.510636,2.05268,0.19656\
 C,0,-1.81498,0.271414,-1.20429\C,0,-0.167251,-1.69037,-1.25727\C,0,2.1
 6852,0.30682,-0.257895\C,0,0.945448,0.305264,1.83316\C,0,-1.70943,-1.1
 5977,0.73516\H,0,-2.78399,-0.676251,0.736933\H,0,-1.85829,-2.32657,0.9
 12791\H,0,1.86962,0.106854,2.34209\H,0,0.494741,1.12446,2.48424\H,0,2.
 98051,-0.294603,0.34792\H,0,2.67877,1.17182,-0.779103\H,0,-0.288455,-2

 Normal termination of Gaussian 16 at Tue Apr  8 19:32:28 2025.
