 Gaussian 16, Revision C.01,

 ----------------------------------------------------------------------
 #t hf aug-cc-pvdz symm=none int=(grid=ultrafine) guess=(read,tcheck) s
 table=(opt,rrhf)
 ----------------------------------------------------------------------
 -----
 title
 -----
 Symbolic Z-matrix:
 Charge =  0 Multiplicity = 1

 SCF Done:  E(RHF) =  -467.582075802     A.U. after   15 cycles
 Normal termination of Gaussian 16 at Tue Apr  8 22:07:19 2025.
 Gaussian 16:  ES64L-G16RevC.01  3-Jul-2019

 ----------------------------------------------------------------------
 #t hf aug-cc-pvdz iop(5/13=1,5/36=2,99/5=2) pseudo=read geom=check gue
 ss=(read,tcheck) scf=(maxcycle=1)
 ----------------------------------------------------------------------
 -----
 title
 -----
 Structure from the checkpoint file:  "ANI1ccx_903_conf1_mol2.chk"
 Charge =  0 Multiplicity = 1

                         Standard orientation:
 ---------------------------------------------------------------------
 Center     Atomic      Atomic             Coordinates (Angstroms)
 Number     Number       Type             X           Y           Z
 ---------------------------------------------------------------------
      1          6           0        2.749441   -0.062310    0.009345
      2          6           0        1.274452   -0.092981   -0.010759
      3          6           0       -0.760465   -1.268449   -0.016966
      4          6           0       -0.787537    1.256230    0.011933
      5          1           0        3.114147   -0.548227    0.936200
      6          1           0        3.155920    0.949711   -0.002117
      7          1           0        3.190127   -0.602376   -0.849886
      8          1           0       -2.403150    0.021892    0.026300
      9          1           0        1.144687    1.996053   -0.033520
     10          7           0        0.639524   -1.253273   -0.012010
     11          7           0       -1.384010   -0.000960   -0.006397
     12          7           0        0.616136    1.129506   -0.004911
     13          8           0       -1.414983   -2.284597    0.013789
     14          8           0       -1.354846    2.292234    0.001827
 ---------------------------------------------------------------------

 SCF Done:  E(RHF) =  -468.041793803     A.U. after    2 cycles

 The electronic state is 1-A.
 Alpha  occ. eigenvalues --  -20.55513 -20.52615 -15.59462 -15.56890 -15.51725
 Alpha  occ. eigenvalues --  -11.43539 -11.40613 -11.39786 -11.28781  -1.53314
 Alpha  occ. eigenvalues --   -1.48136  -1.35069  -1.25703  -1.22543  -1.06978
 Alpha  occ. eigenvalues --   -0.94759  -0.92190  -0.84976  -0.83714  -0.73003
 Alpha  occ. eigenvalues --   -0.70995  -0.70507  -0.67105  -0.63590  -0.63382
 Alpha  occ. eigenvalues --   -0.60496  -0.59868  -0.55094  -0.51838  -0.49733
 Alpha  occ. eigenvalues --   -0.46474  -0.45428  -0.43487
 Alpha virt. eigenvalues --    0.01913   0.03690   0.04354   0.04635   0.05607
 Alpha virt. eigenvalues --    0.07172   0.08414   0.08892   0.10045   0.10822
 Alpha virt. eigenvalues --    0.10935   0.12102   0.12696   0.13645   0.14104

 Mulliken charges:
               1
     1  C   -0.067565
     2  C   -1.487750
     3  C    0.366621
     4  C    0.299960
     5  H    0.306243
     6  H    0.097758
     7  H    0.284433
     8  H    0.212588
     9  H    0.215024
    10  N    1.015856
    11  N    0.632280
    12  N    0.517652
    13  O   -1.208020
    14  O   -1.185080
 Sum of Mulliken charges =  -0.00000

 Dipole moment (field-independent basis, Debye):
    X=              4.5821    Y=              3.6893    Z=              0.0035  Tot=              5.8827

 Test job not archived.
 1\1\GINC-SE118\SP\RHF\Aug-CC-pVDZ\C4H5N3O2\OHZDE\08-Apr-2025\0\\#t hf
 aug-cc-pvdz iop(5/13=1,5/36=2,99/5=2) pseudo=read geom=check guess=(re
 ad,tcheck) scf=(maxcycle=1)\\title\\0,1\C,0,2.74944,-0.0623411,0.00934
 502\C,0,1.27445,-0.0929949,-0.0107595\C,0,-0.76048,-1.26844,-0.0169656
 \C,0,-0.787523,1.25624,0.0119333\H,0,3.11414,-0.548262,0.9362\H,0,3.15
 593,0.949675,-0.00211735\H,0,3.19012,-0.602412,-0.849886\H,0,-2.40315,
 0.0219207,0.0262997\H,0,1.14471,1.99604,-0.03352\N,0,0.639509,-1.25328
 ,-0.0120102\N,0,-1.38401,-0.00094303,-0.00639675\N,0,0.616149,1.1295,-

 Normal termination of Gaussian 16 at Tue Apr  8 22:07:25 2025.
