 Gaussian 16, Revision C.01,

 ----------------------------------------------------------------------
 #t hf aug-cc-pvdz symm=none int=(grid=ultrafine) guess=(read,tcheck) s
 table=(opt,rrhf)
 ----------------------------------------------------------------------
 -----
 title
 -----
 Symbolic Z-matrix:
 Charge =  0 Multiplicity = 1

 SCF Done:  E(RHF) =  -681.664094651     A.U. after   15 cycles
 Normal termination of Gaussian 16 at Tue Apr  8 19:45:43 2025.
 Gaussian 16:  ES64L-G16RevC.01  3-Jul-2019

 ----------------------------------------------------------------------
 #t hf aug-cc-pvdz iop(5/13=1,5/36=2,99/5=2) pseudo=read geom=check gue
 ss=(read,tcheck) scf=(maxcycle=1)
 ----------------------------------------------------------------------
 -----
 title
 -----
 Structure from the checkpoint file:  "ANI1ccx_1434_conf3_mol1.chk"
 Charge =  0 Multiplicity = 1

                         Standard orientation:
 ---------------------------------------------------------------------
 Center     Atomic      Atomic             Coordinates (Angstroms)
 Number     Number       Type             X           Y           Z
 ---------------------------------------------------------------------
      1          6           0        1.929129    0.656555    0.160494
      2          6           0        0.498376    1.107900   -0.003744
      3          6           0        2.144299   -0.576348   -0.614631
      4          6           0        3.664739   -0.774290   -0.815891
      5          6           0       -1.883911    0.546785    0.151809
      6          6           0       -2.744441   -0.675216    0.262450
      7          6           0       -2.274141    1.315660   -1.180420
      8          1           0       -1.576891   -1.491690   -1.066050
      9          1           0       -3.289591    1.396169   -1.244500
     10          1           0       -1.865371    2.333820   -1.170460
     11          1           0       -1.886261    0.766811   -2.101300
     12          1           0       -2.077861    1.209220    0.999071
     13          1           0       -0.204924   -0.794369    0.511644
     14          1           0        3.910269   -1.749079   -1.175970
     15          1           0        4.101439    0.023188   -1.408040
     16          1           0        4.086709   -0.608797    0.202451
     17          1           0        1.871939   -1.528130    1.002880
     18          1           0        1.677419   -0.514745   -1.648800
     19          1           0        2.489519    1.427281   -0.320082
     20          1           0        3.260099    0.897602    1.637600
     21          1           0        1.642349    0.767464    2.225820
     22          7           0        2.361829    0.395752    1.552840
     23          7           0       -0.474796    0.152026    0.128467
     24          8           0        0.171555    2.290290   -0.067402
     25          8           0        1.646849   -1.722780    0.082129
     26          8           0       -3.616411   -0.800002    1.057940
     27          8           0       -2.371041   -1.714440   -0.569391
 ---------------------------------------------------------------------

 SCF Done:  E(RHF) =  -682.354759887     A.U. after    2 cycles

 The electronic state is 1-A.
 Alpha  occ. eigenvalues --  -20.59917 -20.56359 -20.54565 -20.53176 -15.54897
 Alpha  occ. eigenvalues --  -15.54362 -11.39843 -11.37761 -11.31068 -11.30703
 Alpha  occ. eigenvalues --  -11.29618 -11.24469 -11.24079  -1.54229  -1.47857
 Alpha  occ. eigenvalues --   -1.47060  -1.46480  -1.26044  -1.22562  -1.08082
 Alpha  occ. eigenvalues --   -1.05491  -0.97741  -0.92794  -0.84987  -0.83058
 Alpha  occ. eigenvalues --   -0.81918  -0.79029  -0.74928  -0.73770  -0.70844
 Alpha  occ. eigenvalues --   -0.68939  -0.66556  -0.65976  -0.64082  -0.63324
 Alpha  occ. eigenvalues --   -0.62101  -0.60374  -0.59095  -0.58334  -0.57105
 Alpha  occ. eigenvalues --   -0.56584  -0.55150  -0.54520  -0.52628  -0.51069
 Alpha  occ. eigenvalues --   -0.49354  -0.47981  -0.46501  -0.45137  -0.43468
 Alpha  occ. eigenvalues --   -0.42816
 Alpha virt. eigenvalues --    0.02388   0.03188   0.03657   0.03928   0.04658
 Alpha virt. eigenvalues --    0.04876   0.05527   0.06257   0.06274   0.07391
 Alpha virt. eigenvalues --    0.08076   0.08690   0.09384   0.09932   0.10158

 Mulliken charges:
               1
     1  C   -0.489508
     2  C    0.204137
     3  C    0.767277
     4  C   -0.357032
     5  C   -1.663446
     6  C    2.542732
     7  C    0.019555
     8  H    0.471142
     9  H   -0.096335
    10  H    0.233796
    11  H    0.304513
    12  H   -0.113836
    13  H    0.195360
    14  H    0.135546
    15  H    0.193475
    16  H    0.215027
    17  H    0.393113
    18  H    0.161556
    19  H   -0.005190
    20  H    0.331481
    21  H    0.277802
    22  N    0.302369
    23  N    1.474918
    24  O   -1.413605
    25  O   -1.406837
    26  O   -1.301274
    27  O   -1.376736
 Sum of Mulliken charges =   0.00000

 Dipole moment (field-independent basis, Debye):
    X=              5.0776    Y=              1.6047    Z=             -0.7609  Tot=              5.3792

 Test job not archived.
 1\1\GINC-SE455\SP\RHF\Aug-CC-pVDZ\C7H14N2O4\OHZDE\08-Apr-2025\0\\#t hf
  aug-cc-pvdz iop(5/13=1,5/36=2,99/5=2) pseudo=read geom=check guess=(r
 ead,tcheck) scf=(maxcycle=1)\\title\\0,1\C,0,1.92913,0.656554,0.160494
 \C,0,0.498377,1.1079,-0.00374344\C,0,2.1443,-0.576349,-0.614631\C,0,3.
 66474,-0.774291,-0.815891\C,0,-1.88391,0.546785,0.151809\C,0,-2.74444,
 -0.675216,0.26245\C,0,-2.27414,1.31566,-1.18042\H,0,-1.57689,-1.49169,
 -1.06605\H,0,-3.28959,1.39617,-1.2445\H,0,-1.86537,2.33382,-1.17046\H,
 0,-1.88626,0.766811,-2.1013\H,0,-2.07786,1.20922,0.999071\H,0,-0.20492

 Normal termination of Gaussian 16 at Tue Apr  8 19:46:09 2025.
