 Gaussian 16, Revision C.01,

 ----------------------------------------------------------------------
 #t hf aug-cc-pvdz symm=none int=(grid=ultrafine) guess=(read,tcheck) s
 table=(opt,rrhf)
 ----------------------------------------------------------------------
 -----
 title
 -----
 Symbolic Z-matrix:
 Charge =  0 Multiplicity = 1

 SCF Done:  E(RHF) =  -299.987104187     A.U. after   13 cycles
 Normal termination of Gaussian 16 at Tue Apr  8 21:38:35 2025.
 Gaussian 16:  ES64L-G16RevC.01  3-Jul-2019

 ----------------------------------------------------------------------
 #t hf aug-cc-pvdz iop(5/13=1,5/36=2,99/5=2) pseudo=read geom=check gue
 ss=(read,tcheck) scf=(maxcycle=1)
 ----------------------------------------------------------------------
 -----
 title
 -----
 Structure from the checkpoint file:  "ANI1ccx_426_conf1_mol1.chk"
 Charge =  0 Multiplicity = 1

                         Standard orientation:
 ---------------------------------------------------------------------
 Center     Atomic      Atomic             Coordinates (Angstroms)
 Number     Number       Type             X           Y           Z
 ---------------------------------------------------------------------
      1          6           0       -1.453050   -0.048930    0.234235
      2          1           0        1.891990   -1.267569    0.528926
      3          1           0        2.915480   -1.136200   -0.760103
      4          1           0        2.050370    1.062730    0.688301
      5          1           0        1.286710    0.577216   -0.723453
      6          1           0       -2.588790   -1.508238   -0.059531
      7          1           0       -0.898060   -0.745571    0.882312
      8          7           0        2.633940   -0.706876    0.113901
      9          7           0        2.153710    0.584289   -0.194814
     10          8           0       -2.582340   -0.555946   -0.229110
     11          8           0       -1.099280    1.077111    0.054676
 ---------------------------------------------------------------------

 SCF Done:  E(RHF) =  -300.293748331     A.U. after    2 cycles

 The electronic state is 1-A.
 Alpha  occ. eigenvalues --  -20.63342 -20.56094 -15.51104 -15.49790 -11.41761
 Alpha  occ. eigenvalues --   -1.58084  -1.48560  -1.25538  -1.01725  -0.89198
 Alpha  occ. eigenvalues --   -0.81787  -0.72493  -0.70905  -0.68926  -0.65630
 Alpha  occ. eigenvalues --   -0.64756  -0.60747  -0.49956  -0.47784  -0.47165
 Alpha  occ. eigenvalues --   -0.42576
 Alpha virt. eigenvalues --    0.01609   0.03951   0.05075   0.06387   0.07512
 Alpha virt. eigenvalues --    0.07929   0.09693   0.11401   0.13165   0.14430
 Alpha virt. eigenvalues --    0.15232   0.16253   0.16946   0.18447   0.19348

 Mulliken charges:
               1
     1  C    1.458257
     2  H    0.072623
     3  H    0.124148
     4  H    0.077924
     5  H    0.095313
     6  H    0.406627
     7  H    0.102570
     8  N   -0.257784
     9  N   -0.102264
    10  O   -0.975418
    11  O   -1.001996
 Sum of Mulliken charges =  -0.00000

 Dipole moment (field-independent basis, Debye):
    X=             -2.7216    Y=             -4.7287    Z=              0.8482  Tot=              5.5216

 Test job not archived.
 1\1\GINC-SE087\SP\RHF\Aug-CC-pVDZ\C1H6N2O2\OHZDE\08-Apr-2025\0\\#t hf
 aug-cc-pvdz iop(5/13=1,5/36=2,99/5=2) pseudo=read geom=check guess=(re
 ad,tcheck) scf=(maxcycle=1)\\title\\0,1\C,0,-1.45305,-0.0489318,0.2342
 35\H,0,1.89199,-1.26757,0.528926\H,0,2.91548,-1.1362,-0.760103\H,0,2.0
 5037,1.06273,0.688301\H,0,1.28671,0.577215,-0.723453\H,0,-2.58879,-1.5
 0824,-0.059531\H,0,-0.89806,-0.745572,0.882312\N,0,2.63394,-0.706876,0
 .113901\N,0,2.15371,0.584289,-0.194814\O,0,-2.58234,-0.555948,-0.22911
 \O,0,-1.09928,1.07711,0.0546764\\Version=ES64L-G16RevC.01\State=1-A\HF

 Normal termination of Gaussian 16 at Tue Apr  8 21:38:39 2025.
