 Gaussian 16, Revision C.01,

 ----------------------------------------------------------------------
 #t hf aug-cc-pvdz symm=none int=(grid=ultrafine) guess=(read,tcheck) s
 table=(opt,rrhf)
 ----------------------------------------------------------------------
 -----
 title
 -----
 Symbolic Z-matrix:
 Charge =  0 Multiplicity = 1

 SCF Done:  E(RHF) =  -456.247628254     A.U. after   12 cycles
 Normal termination of Gaussian 16 at Tue Apr  8 21:07:45 2025.
 Gaussian 16:  ES64L-G16RevC.01  3-Jul-2019

 ----------------------------------------------------------------------
 #t hf aug-cc-pvdz iop(5/13=1,5/36=2,99/5=2) pseudo=read geom=check gue
 ss=(read,tcheck) scf=(maxcycle=1)
 ----------------------------------------------------------------------
 -----
 title
 -----
 Structure from the checkpoint file:  "ANI1ccx_1844_conf254_mol1.chk"
 Charge =  0 Multiplicity = 1

                         Standard orientation:
 ---------------------------------------------------------------------
 Center     Atomic      Atomic             Coordinates (Angstroms)
 Number     Number       Type             X           Y           Z
 ---------------------------------------------------------------------
      1          1           0       -0.632175   -1.862750    1.636100
      2          1           0       -2.413950    0.383120   -0.189257
      3          1           0       -2.986498   -0.933798   -0.858096
      4          1           0        1.497348    1.528723    0.438797
      5          1           0        0.603894    2.328602    1.474620
      6          1           0       -0.726113    1.796909   -0.154245
      7          1           0       -1.423627   -1.490042    0.417359
      8          1           0       -1.994404    2.526067   -0.787207
      9          1           0        2.292345   -2.341105   -0.235634
     10          1           0        0.752235   -1.920938   -0.282685
     11          1           0        2.306791   -0.386944   -0.289365
     12          1           0        3.097869    0.848743   -0.699620
     13          8           0        0.753810    2.208102    0.519504
     14          8           0        1.557654   -1.783296   -0.818161
     15          8           0       -2.810388   -0.482208    0.046652
     16          8           0       -1.591302    1.620988   -0.663457
     17          8           0       -0.711138   -2.056890    0.730179
     18          8           0        2.754650    0.433732    0.126436
 ---------------------------------------------------------------------

 SCF Done:  E(RHF) =  -456.719208441     A.U. after    2 cycles

 The electronic state is 1-A.
 Alpha  occ. eigenvalues --  -20.57081 -20.56099 -20.55931 -20.55471 -20.54368
 Alpha  occ. eigenvalues --  -20.53659  -1.45114  -1.44514  -1.43546  -1.42290
 Alpha  occ. eigenvalues --   -1.41297  -1.39711  -0.72326  -0.71747  -0.70337
 Alpha  occ. eigenvalues --   -0.70155  -0.69811  -0.67862  -0.61541  -0.60206
 Alpha  occ. eigenvalues --   -0.60123  -0.56866  -0.56490  -0.53351  -0.49887
 Alpha  occ. eigenvalues --   -0.49639  -0.49438  -0.48901  -0.48773  -0.47424
 Alpha virt. eigenvalues --    0.03238   0.04063   0.04639   0.04984   0.06317
 Alpha virt. eigenvalues --    0.07126   0.08321   0.08945   0.09848   0.10190
 Alpha virt. eigenvalues --    0.11073   0.11347   0.17238   0.18415   0.18853

 Mulliken charges:
               1
     1  H    0.356288
     2  H    0.817801
     3  H    0.389397
     4  H    0.732186
     5  H    0.373901
     6  H    0.804711
     7  H    0.723968
     8  H    0.374169
     9  H    0.431647
    10  H    0.701327
    11  H    0.753246
    12  H    0.348377
    13  O   -1.149575
    14  O   -1.145837
    15  O   -1.111629
    16  O   -1.201111
    17  O   -1.118926
    18  O   -1.079941
 Sum of Mulliken charges =  -0.00000

 Dipole moment (field-independent basis, Debye):
    X=              1.0474    Y=              1.1465    Z=              0.8588  Tot=              1.7745

 Test job not archived.
 1\1\GINC-SE163\SP\RHF\Aug-CC-pVDZ\H12O6\OHZDE\08-Apr-2025\0\\#t hf aug
 -cc-pvdz iop(5/13=1,5/36=2,99/5=2) pseudo=read geom=check guess=(read,
 tcheck) scf=(maxcycle=1)\\title\\0,1\H,0,-0.632179,-1.86275,1.6361\H,0
 ,-2.41395,0.383123,-0.189257\H,0,-2.9865,-0.933794,-0.858096\H,0,1.497
 35,1.52872,0.438797\H,0,0.603897,2.3286,1.47462\H,0,-0.726111,1.79691,
 -0.154245\H,0,-1.42363,-1.49004,0.417359\H,0,-1.9944,2.52607,-0.787207
 \H,0,2.29234,-2.34111,-0.235634\H,0,0.752231,-1.92094,-0.282685\H,0,2.
 30679,-0.386949,-0.289365\H,0,3.09787,0.848737,-0.69962\O,0,0.753813,2

 Normal termination of Gaussian 16 at Tue Apr  8 21:07:50 2025.
