 Gaussian 16, Revision C.01,

 ----------------------------------------------------------------------
 #t hf aug-cc-pvdz symm=none int=(grid=ultrafine) guess=(read,tcheck) s
 table=(opt,rrhf)
 ----------------------------------------------------------------------
 -----
 title
 -----
 Symbolic Z-matrix:
 Charge =  0 Multiplicity = 1

 SCF Done:  E(RHF) =  -456.243221126     A.U. after   11 cycles
 Normal termination of Gaussian 16 at Tue Apr  8 21:08:41 2025.
 Gaussian 16:  ES64L-G16RevC.01  3-Jul-2019

 ----------------------------------------------------------------------
 #t hf aug-cc-pvdz iop(5/13=1,5/36=2,99/5=2) pseudo=read geom=check gue
 ss=(read,tcheck) scf=(maxcycle=1)
 ----------------------------------------------------------------------
 -----
 title
 -----
 Structure from the checkpoint file:  "ANI1ccx_1844_conf502_mol1.chk"
 Charge =  0 Multiplicity = 1

                         Standard orientation:
 ---------------------------------------------------------------------
 Center     Atomic      Atomic             Coordinates (Angstroms)
 Number     Number       Type             X           Y           Z
 ---------------------------------------------------------------------
      1          1           0       -0.564665    0.494838   -0.256312
      2          1           0        1.657991    1.286710    0.158300
      3          1           0        1.858811    2.689370    0.789276
      4          1           0       -1.129010   -1.199529   -0.548556
      5          1           0        1.542059   -2.961780   -0.159845
      6          1           0        0.606906   -1.880940    0.583056
      7          1           0       -1.940460   -0.777135    0.652998
      8          1           0       -4.456320    0.034131    0.195897
      9          1           0        3.986920    0.018209   -0.745012
     10          1           0        2.950090   -0.772862    0.079728
     11          1           0       -0.453040    2.029741   -0.268439
     12          1           0       -3.099850    0.561309   -0.240320
     13          8           0       -1.094040   -1.153789    0.389322
     14          8           0       -1.134669    1.342861   -0.385001
     15          8           0        3.150780    0.024480   -0.263737
     16          8           0       -3.637800   -0.205890   -0.151626
     17          8           0        1.422899   -1.996890   -0.009534
     18          8           0        1.172901    2.048970    0.390479
 ---------------------------------------------------------------------

 SCF Done:  E(RHF) =  -456.718910277     A.U. after    2 cycles

 The electronic state is 1-A.
 Alpha  occ. eigenvalues --  -20.55653 -20.55409 -20.54849 -20.54773 -20.54289
 Alpha  occ. eigenvalues --  -20.51264  -1.46406  -1.45360  -1.44876  -1.43185
 Alpha  occ. eigenvalues --   -1.41775  -1.37916  -0.74896  -0.74584  -0.72638
 Alpha  occ. eigenvalues --   -0.70309  -0.69720  -0.66799  -0.61171  -0.60235
 Alpha  occ. eigenvalues --   -0.57894  -0.56502  -0.55636  -0.51455  -0.50194
 Alpha  occ. eigenvalues --   -0.49868  -0.49393  -0.49269  -0.49129  -0.45060
 Alpha virt. eigenvalues --    0.03388   0.04202   0.04423   0.05537   0.06596
 Alpha virt. eigenvalues --    0.07683   0.08019   0.08771   0.10128   0.11110
 Alpha virt. eigenvalues --    0.11256   0.13154   0.18629   0.19541   0.19980

 Mulliken charges:
               1
     1  H    0.581995
     2  H    0.629118
     3  H    0.425032
     4  H    0.472486
     5  H    0.401543
     6  H    0.620883
     7  H    0.601902
     8  H    0.367735
     9  H    0.402100
    10  H    0.470884
    11  H    0.671280
    12  H    0.453464
    13  O   -1.146360
    14  O   -1.185941
    15  O   -0.875346
    16  O   -0.817442
    17  O   -1.034015
    18  O   -1.039319
 Sum of Mulliken charges =  -0.00000

 Dipole moment (field-independent basis, Debye):
    X=              1.9250    Y=             -1.1523    Z=              0.6907  Tot=              2.3474

 Test job not archived.
 1\1\GINC-SE338\SP\RHF\Aug-CC-pVDZ\H12O6\OHZDE\08-Apr-2025\0\\#t hf aug
 -cc-pvdz iop(5/13=1,5/36=2,99/5=2) pseudo=read geom=check guess=(read,
 tcheck) scf=(maxcycle=1)\\title\\0,1\H,0,-0.564665,0.494837,-0.256312\
 H,0,1.65799,1.28671,0.1583\H,0,1.85881,2.68937,0.789276\H,0,-1.12901,-
 1.19953,-0.548556\H,0,1.54206,-2.96178,-0.159845\H,0,0.606907,-1.88094
 ,0.583056\H,0,-1.94046,-0.777136,0.652998\H,0,-4.45632,0.0341283,0.195
 897\H,0,3.98692,0.0182104,-0.745012\H,0,2.95009,-0.772861,0.079728\H,0
 ,-0.453041,2.02974,-0.268439\H,0,-3.09985,0.561307,-0.24032\O,0,-1.094

 Normal termination of Gaussian 16 at Tue Apr  8 21:08:45 2025.
