 Gaussian 16, Revision C.01,

 ----------------------------------------------------------------------
 #t hf aug-cc-pvdz symm=none int=(grid=ultrafine) guess=(read,tcheck) s
 table=(opt,rrhf)
 ----------------------------------------------------------------------
 -----
 title
 -----
 Symbolic Z-matrix:
 Charge =  0 Multiplicity = 1

 SCF Done:  E(RHF) =  -414.366122216     A.U. after   15 cycles
 Normal termination of Gaussian 16 at Tue Apr  8 21:36:44 2025.
 Gaussian 16:  ES64L-G16RevC.01  3-Jul-2019

 ----------------------------------------------------------------------
 #t hf aug-cc-pvdz iop(5/13=1,5/36=2,99/5=2) pseudo=read geom=check gue
 ss=(read,tcheck) scf=(maxcycle=1)
 ----------------------------------------------------------------------
 -----
 title
 -----
 Structure from the checkpoint file:  "ANI1ccx_410_conf3_mol1.chk"
 Charge =  0 Multiplicity = 1

                         Standard orientation:
 ---------------------------------------------------------------------
 Center     Atomic      Atomic             Coordinates (Angstroms)
 Number     Number       Type             X           Y           Z
 ---------------------------------------------------------------------
      1          6           0       -2.432190   -0.420169    0.060388
      2          1           0       -0.541508   -0.508980   -0.062296
      3          1           0       -2.367611   -1.517129    0.227519
      4          1           0        1.905200    1.208080    1.001730
      5          1           0        3.409879   -0.681385   -0.391658
      6          8           0       -1.253740    0.141497   -0.244129
      7          8           0       -3.455470    0.199706    0.129678
      8          8           0        1.906300    1.205460    0.043829
      9          8           0        1.599820   -0.150081   -0.315344
     10          8           0        2.726489   -0.894029    0.243763
 ---------------------------------------------------------------------

 SCF Done:  E(RHF) =  -414.767391012     A.U. after    2 cycles

 The electronic state is 1-A.
 Alpha  occ. eigenvalues --  -20.71903 -20.66087 -20.65423 -20.60628 -20.54181
 Alpha  occ. eigenvalues --  -11.39837  -1.68265  -1.54615  -1.47488  -1.45819
 Alpha  occ. eigenvalues --   -1.23985  -0.86375  -0.79587  -0.78574  -0.69872
 Alpha  occ. eigenvalues --   -0.69130  -0.67738  -0.66326  -0.62705  -0.58187
 Alpha  occ. eigenvalues --   -0.54320  -0.53481  -0.50583  -0.47511  -0.44921
 Alpha virt. eigenvalues --    0.03086   0.03995   0.04394   0.07636   0.08870
 Alpha virt. eigenvalues --    0.10212   0.12596   0.14014   0.15114   0.15695
 Alpha virt. eigenvalues --    0.16558   0.18005   0.18394   0.19979   0.20929

 Mulliken charges:
               1
     1  C    1.459128
     2  H    0.439403
     3  H    0.145295
     4  H    0.436172
     5  H    0.481572
     6  O   -1.082356
     7  O   -0.979994
     8  O   -0.432785
     9  O    0.054866
    10  O   -0.521300
 Sum of Mulliken charges =  -0.00000

 Dipole moment (field-independent basis, Debye):
    X=              4.8724    Y=             -2.3856    Z=              0.9990  Tot=              5.5163

 Test job not archived.
 1\1\GINC-SE458\SP\RHF\Aug-CC-pVDZ\C1H4O5\OHZDE\08-Apr-2025\0\\#t hf au
 g-cc-pvdz iop(5/13=1,5/36=2,99/5=2) pseudo=read geom=check guess=(read
 ,tcheck) scf=(maxcycle=1)\\title\\0,1\C,0,-2.43219,-0.42017,0.0603886\
 H,0,-0.541508,-0.508981,-0.0622954\H,0,-2.36761,-1.51713,0.227519\H,0,
 1.9052,1.20808,1.00173\H,0,3.40988,-0.681385,-0.391658\O,0,-1.25374,0.
 141496,-0.244129\O,0,-3.45547,0.199705,0.129678\O,0,1.9063,1.20546,0.0
 438294\O,0,1.59982,-0.150081,-0.315344\O,0,2.72649,-0.894029,0.243763\
 \Version=ES64L-G16RevC.01\State=1-A\HF=-414.767391\RMSD=6.945e-03\Dipo

 Normal termination of Gaussian 16 at Tue Apr  8 21:36:47 2025.
