 Gaussian 16, Revision C.01,

 ----------------------------------------------------------------------
 #t hf aug-cc-pvdz symm=none int=(grid=ultrafine) guess=(read,tcheck) s
 table=(opt,rrhf)
 ----------------------------------------------------------------------
 -----
 title
 -----
 Symbolic Z-matrix:
 Charge =  0 Multiplicity = 1

 SCF Done:  E(RHF) =  -598.342084964     A.U. after   16 cycles
 Normal termination of Gaussian 16 at Tue Apr  8 19:28:11 2025.
 Gaussian 16:  ES64L-G16RevC.01  3-Jul-2019

 ----------------------------------------------------------------------
 #t hf aug-cc-pvdz iop(5/13=1,5/36=2,99/5=2) pseudo=read geom=check gue
 ss=(read,tcheck) scf=(maxcycle=1)
 ----------------------------------------------------------------------
 -----
 title
 -----
 Structure from the checkpoint file:  "ANI1ccx_1320_conf7_mol1.chk"
 Charge =  0 Multiplicity = 1

                         Standard orientation:
 ---------------------------------------------------------------------
 Center     Atomic      Atomic             Coordinates (Angstroms)
 Number     Number       Type             X           Y           Z
 ---------------------------------------------------------------------
      1          6           0        1.524151   -2.203578    0.180361
      2          6           0       -0.416579   -0.775271   -0.038168
      3          6           0       -2.482050   -1.227402   -0.121151
      4          6           0       -1.084531    0.432905    0.082830
      5          6           0       -0.286671    1.723670    0.041970
      6          6           0        1.771279    0.232193   -0.055996
      7          1           0        1.715867    2.274112   -0.161130
      8          1           0       -3.227971    0.747442   -0.041250
      9          1           0       -3.385479   -1.803222   -0.209981
     10          1           0        2.189461   -2.286778   -0.655856
     11          1           0        0.733510   -2.976009    0.145474
     12          1           0        2.105571   -2.292858    1.124380
     13          7           0        0.930267   -0.860721    0.093975
     14          7           0       -1.286989   -1.788291   -0.165170
     15          7           0       -2.428011    0.130260    0.110670
     16          7           0        1.072598    1.489811   -0.121483
     17          8           0       -0.737789    2.844450    0.093670
     18          8           0        2.950339    0.211149   -0.114501
 ---------------------------------------------------------------------

 SCF Done:  E(RHF) =  -598.933864062     A.U. after    2 cycles

 The electronic state is 1-A.
 Alpha  occ. eigenvalues --  -20.53709 -20.52750 -15.59772 -15.56436 -15.55859
 Alpha  occ. eigenvalues --  -15.52100 -11.41759 -11.39341 -11.34911 -11.33092
 Alpha  occ. eigenvalues --  -11.28590 -11.28359  -1.51787  -1.48008  -1.38227
 Alpha  occ. eigenvalues --   -1.31366  -1.24870  -1.21132  -1.06642  -0.99536
 Alpha  occ. eigenvalues --   -0.94738  -0.91773  -0.87625  -0.83556  -0.79930
 Alpha  occ. eigenvalues --   -0.73799  -0.72218  -0.71196  -0.67501  -0.66742
 Alpha  occ. eigenvalues --   -0.66577  -0.65271  -0.62356  -0.62241  -0.57857
 Alpha  occ. eigenvalues --   -0.56240  -0.52607  -0.51686  -0.48684  -0.46052
 Alpha  occ. eigenvalues --   -0.45001  -0.44088  -0.33640
 Alpha virt. eigenvalues --    0.02296   0.04137   0.04218   0.05294   0.05549
 Alpha virt. eigenvalues --    0.06297   0.06510   0.07489   0.09198   0.09392
 Alpha virt. eigenvalues --    0.10039   0.10781   0.11771   0.12262   0.12964

 Mulliken charges:
               1
     1  C   -0.234080
     2  C   -2.125617
     3  C   -0.378357
     4  C   -0.806247
     5  C    1.139016
     6  C    0.797620
     7  H    0.230841
     8  H    0.044814
     9  H   -0.070875
    10  H    0.189552
    11  H    0.102320
    12  H    0.264701
    13  N    1.016426
    14  N    0.992840
    15  N    0.910104
    16  N    0.643511
    17  O   -1.453470
    18  O   -1.263100
 Sum of Mulliken charges =  -0.00000

 Dipole moment (field-independent basis, Debye):
    X=             -3.5915    Y=             -2.4351    Z=             -0.1469  Tot=              4.3417

 Test job not archived.
 1\1\GINC-SE115\SP\RHF\Aug-CC-pVDZ\C6H6N4O2\OHZDE\08-Apr-2025\0\\#t hf
 aug-cc-pvdz iop(5/13=1,5/36=2,99/5=2) pseudo=read geom=check guess=(re
 ad,tcheck) scf=(maxcycle=1)\\title\\0,1\C,0,1.52415,-2.20358,0.180361\
 C,0,-0.416579,-0.775271,-0.0381684\C,0,-2.48205,-1.2274,-0.121151\C,0,
 -1.08453,0.432906,0.0828295\C,0,-0.286669,1.72367,0.0419695\C,0,1.7712
 8,0.232191,-0.0559965\H,0,1.71587,2.27411,-0.16113\H,0,-3.22797,0.7474
 44,-0.0412505\H,0,-3.38548,-1.80322,-0.209981\H,0,2.18946,-2.28678,-0.
 655856\H,0,0.733508,-2.97601,0.145474\H,0,2.10557,-2.29286,1.12438\N,0

 Normal termination of Gaussian 16 at Tue Apr  8 19:28:25 2025.
