 Gaussian 16, Revision C.01,

 ----------------------------------------------------------------------
 #t hf aug-cc-pvdz symm=none int=(grid=ultrafine) guess=(read,tcheck) s
 table=(opt,rrhf)
 ----------------------------------------------------------------------
 -----
 title
 -----
 Symbolic Z-matrix:
 Charge =  0 Multiplicity = 1

 SCF Done:  E(RHF) =  -623.039711742     A.U. after   16 cycles
 Normal termination of Gaussian 16 at Tue Apr  8 19:51:33 2025.
 Gaussian 16:  ES64L-G16RevC.01  3-Jul-2019

 ----------------------------------------------------------------------
 #t hf aug-cc-pvdz iop(5/13=1,5/36=2,99/5=2) pseudo=read geom=check gue
 ss=(read,tcheck) scf=(maxcycle=1)
 ----------------------------------------------------------------------
 -----
 title
 -----
 Structure from the checkpoint file:  "ANI1ccx_1508_conf11_mol1.chk"
 Charge =  0 Multiplicity = 1

                         Standard orientation:
 ---------------------------------------------------------------------
 Center     Atomic      Atomic             Coordinates (Angstroms)
 Number     Number       Type             X           Y           Z
 ---------------------------------------------------------------------
      1          6           0        2.686451   -0.883594    0.081287
      2          6           0        1.313010   -0.056868    0.038834
      3          6           0        0.564199    2.150569   -0.242651
      4          6           0       -0.723598    1.669178   -0.003959
      5          6           0       -0.934475    0.384481    0.032097
      6          6           0       -2.564030   -0.127292    0.060856
      7          6           0        0.064663   -0.592045   -0.048863
      8          1           0        0.894485   -2.485611    0.224808
      9          1           0       -1.859309   -1.879332   -0.567752
     10          1           0       -1.533351    2.261388    0.404748
     11          1           0        2.732381   -1.569650   -0.820362
     12          1           0        2.624111   -1.514110    1.065040
     13          1           0        3.382870    0.778689    0.079938
     14          1           0        0.649484    3.208249   -0.252659
     15          7           0        1.498790    1.209599   -0.091828
     16          8           0       -3.470900    0.682428    0.267823
     17          8           0        3.723040   -0.111207    0.080179
     18          8           0       -2.743159   -1.394943   -0.229607
     19          8           0        0.013579   -1.992951    0.007034
 ---------------------------------------------------------------------

 SCF Done:  E(RHF) =  -623.657632762     A.U. after    2 cycles

 The electronic state is 1-A.
 Alpha  occ. eigenvalues --  -20.63147 -20.62226 -20.55471 -20.54563 -15.53685
 Alpha  occ. eigenvalues --  -11.42576 -11.35141 -11.32812 -11.31074 -11.30394
 Alpha  occ. eigenvalues --  -11.30284 -11.26439  -1.54930  -1.52103  -1.51196
 Alpha  occ. eigenvalues --   -1.44709  -1.31214  -1.13721  -1.08942  -0.96051
 Alpha  occ. eigenvalues --   -0.93196  -0.88528  -0.84562  -0.80744  -0.76689
 Alpha  occ. eigenvalues --   -0.75394  -0.72216  -0.68603  -0.67909  -0.66639
 Alpha  occ. eigenvalues --   -0.64871  -0.63835  -0.62560  -0.61148  -0.60881
 Alpha  occ. eigenvalues --   -0.57488  -0.55313  -0.51845  -0.48178  -0.47361
 Alpha  occ. eigenvalues --   -0.44991  -0.44000  -0.42643  -0.36872
 Alpha virt. eigenvalues --    0.02326   0.03247   0.04076   0.04681   0.05004
 Alpha virt. eigenvalues --    0.05354   0.05552   0.07211   0.07573   0.08706
 Alpha virt. eigenvalues --    0.09367   0.09543   0.10684   0.11578   0.12083

 Mulliken charges:
               1
     1  C    0.935732
     2  C   -2.338053
     3  C   -0.790025
     4  C    0.678853
     5  C    0.575748
     6  C    1.554627
     7  C    2.379913
     8  H    0.517111
     9  H    0.579156
    10  H   -0.127823
    11  H    0.231720
    12  H    0.318914
    13  H    0.368765
    14  H   -0.158503
    15  N    1.271883
    16  O   -1.246656
    17  O   -1.344620
    18  O   -1.395466
    19  O   -2.011276
 Sum of Mulliken charges =  -0.00000

 Dipole moment (field-independent basis, Debye):
    X=              2.5573    Y=             -1.2179    Z=             -0.3846  Tot=              2.8585

 Test job not archived.
 1\1\GINC-SE186\SP\RHF\Aug-CC-pVDZ\C7H7N1O4\OHZDE\08-Apr-2025\0\\#t hf
 aug-cc-pvdz iop(5/13=1,5/36=2,99/5=2) pseudo=read geom=check guess=(re
 ad,tcheck) scf=(maxcycle=1)\\title\\0,1\C,0,2.68645,-0.883594,0.081286
 7\C,0,1.31301,-0.0568671,0.0388342\C,0,0.5642,2.15057,-0.242651\C,0,-0
 .723598,1.66918,-0.00395943\C,0,-0.934475,0.384483,0.0320967\C,0,-2.56
 403,-0.12729,0.0608558\C,0,0.0646629,-0.592044,-0.0488632\H,0,0.894484
 ,-2.48561,0.224808\H,0,-1.85931,-1.87933,-0.567752\H,0,-1.53335,2.2613
 9,0.404748\H,0,2.73238,-1.56965,-0.820362\H,0,2.62411,-1.51411,1.06504

 Normal termination of Gaussian 16 at Tue Apr  8 19:51:47 2025.
