 Gaussian 16, Revision C.01,

 ----------------------------------------------------------------------
 #t hf aug-cc-pvdz symm=none int=(grid=ultrafine) guess=(read,tcheck) s
 table=(opt,rrhf)
 ----------------------------------------------------------------------
 -----
 title
 -----
 Symbolic Z-matrix:
 Charge =  0 Multiplicity = 1

 SCF Done:  E(RHF) =  -982.085885499     A.U. after   14 cycles
 Normal termination of Gaussian 16 at Tue Apr  8 20:52:38 2025.
 Gaussian 16:  ES64L-G16RevC.01  3-Jul-2019

 ----------------------------------------------------------------------
 #t hf aug-cc-pvdz iop(5/13=1,5/36=2,99/5=2) pseudo=read geom=check gue
 ss=(read,tcheck) scf=(maxcycle=1)
 ----------------------------------------------------------------------
 -----
 title
 -----
 Structure from the checkpoint file:  "ANI1ccx_1743_conf19_mol1.chk"
 Charge =  0 Multiplicity = 1

                         Standard orientation:
 ---------------------------------------------------------------------
 Center     Atomic      Atomic             Coordinates (Angstroms)
 Number     Number       Type             X           Y           Z
 ---------------------------------------------------------------------
      1          6           0        1.427630    1.890870    0.336520
      2          6           0        0.141618    1.898190   -0.652870
      3          6           0        2.721640    1.382120   -0.409401
      4          6           0        2.670130   -0.092510   -0.793681
      5          6           0        2.866320   -1.158490    0.221224
      6          6           0       -0.827485   -0.379456   -0.026510
      7          6           0       -1.158840   -1.460209   -0.994234
      8          6           0       -1.749060   -0.264075    1.132919
      9          6           0       -3.190060    0.140788    0.796225
     10          1           0        0.436343   -2.439050   -0.438068
     11          1           0       -5.022700   -0.321201    0.964835
     12          1           0       -1.305450    0.467899    1.787379
     13          1           0       -1.804400   -1.162809    1.750339
     14          1           0        0.155760   -0.596310    0.382626
     15          1           0       -1.491380    0.990440   -1.347231
     16          1           0        3.672840   -1.754451    1.740609
     17          1           0        3.428790   -0.319981   -1.553911
     18          1           0        1.736510   -0.333621   -1.248861
     19          1           0        2.870921    1.972280   -1.318771
     20          1           0        3.603370    1.544650    0.221703
     21          1           0        1.503321    3.009490    0.601720
     22          1           0        2.156160    0.946283    1.962849
     23          1           0        0.632848    1.465200    2.245219
     24          7           0        1.273290    1.059980    1.538769
     25          7           0       -0.704096    0.827312   -0.756692
     26          8           0        0.042347    2.935580   -1.286961
     27          8           0        2.227789   -2.177380    0.238782
     28          8           0        3.801690   -0.944247    1.167609
     29          8           0       -2.135890   -1.399589   -1.699821
     30          8           0       -3.502590    1.235811    0.295132
     31          8           0       -4.119040   -0.714350    1.239639
     32          8           0       -0.310388   -2.488729   -1.065141
 ---------------------------------------------------------------------

 SCF Done:  E(RHF) =  -983.060650432     A.U. after    2 cycles

 The electronic state is 1-A.
 Alpha  occ. eigenvalues --  -20.63849 -20.61841 -20.59850 -20.57530 -20.54054
 Alpha  occ. eigenvalues --  -20.53809 -20.51887 -15.53828 -15.52340 -11.43168
 Alpha  occ. eigenvalues --  -11.41186 -11.39722 -11.37626 -11.31574 -11.30962
 Alpha  occ. eigenvalues --  -11.28191 -11.27966 -11.27955  -1.59133  -1.54881
 Alpha  occ. eigenvalues --   -1.54797  -1.48974  -1.46539  -1.45659  -1.43624
 Alpha  occ. eigenvalues --   -1.27701  -1.22305  -1.11113  -1.10394  -0.99902
 Alpha  occ. eigenvalues --   -0.98322  -0.90669  -0.86048  -0.85134  -0.83954
 Alpha  occ. eigenvalues --   -0.81024  -0.78779  -0.75237  -0.74969  -0.71754
 Alpha  occ. eigenvalues --   -0.71379  -0.71001  -0.69830  -0.69478  -0.68705
 Alpha  occ. eigenvalues --   -0.67511  -0.65393  -0.64873  -0.63142  -0.62522
 Alpha  occ. eigenvalues --   -0.61835  -0.61211  -0.60296  -0.59328  -0.58449
 Alpha  occ. eigenvalues --   -0.57663  -0.56388  -0.55216  -0.54454  -0.52921
 Alpha  occ. eigenvalues --   -0.51322  -0.48411  -0.47256  -0.47245  -0.46457
 Alpha  occ. eigenvalues --   -0.45528  -0.44437  -0.42367  -0.41838
 Alpha virt. eigenvalues --    0.01730   0.02720   0.03062   0.03552   0.04179
 Alpha virt. eigenvalues --    0.04876   0.05336   0.06163   0.06287   0.07608
 Alpha virt. eigenvalues --    0.08363   0.08823   0.09365   0.10126   0.10277

 Mulliken charges:
               1
     1  C   -1.264788
     2  C    0.742704
     3  C   -0.154230
     4  C   -0.297749
     5  C    2.548563
     6  C   -0.733230
     7  C    2.484184
     8  C   -0.908169
     9  C    2.855842
    10  H    0.622628
    11  H    0.415104
    12  H    0.216447
    13  H    0.169820
    14  H    0.059112
    15  H    0.376438
    16  H    0.308798
    17  H    0.233087
    18  H    0.131265
    19  H    0.127786
    20  H    0.164709
    21  H    0.194522
    22  H    0.142975
    23  H    0.258717
    24  N    0.484368
    25  N    0.775499
    26  O   -1.461130
    27  O   -1.440506
    28  O   -1.427144
    29  O   -1.472924
    30  O   -1.364434
    31  O   -1.375659
    32  O   -1.412605
 Sum of Mulliken charges =  -0.00000

 Dipole moment (field-independent basis, Debye):
    X=              5.4055    Y=             -1.0006    Z=              6.0494  Tot=              8.1741

 Test job not archived.
 1\1\GINC-SE068\SP\RHF\Aug-CC-pVDZ\C9H14N2O7\OHZDE\08-Apr-2025\0\\#t hf
  aug-cc-pvdz iop(5/13=1,5/36=2,99/5=2) pseudo=read geom=check guess=(r
 ead,tcheck) scf=(maxcycle=1)\\title\\0,1\C,0,1.42763,1.89087,0.336521\
 C,0,0.141618,1.89819,-0.652869\C,0,2.72164,1.38212,-0.4094\C,0,2.67013
 ,-0.0925097,-0.79368\C,0,2.86632,-1.15849,0.221225\C,0,-0.827485,-0.37
 9457,-0.0265086\C,0,-1.15884,-1.46021,-0.994233\C,0,-1.74906,-0.264076
 ,1.13292\C,0,-3.19006,0.140787,0.796226\H,0,0.436344,-2.43905,-0.43806
 7\H,0,-5.0227,-0.321203,0.964836\H,0,-1.30545,0.467898,1.78738\H,0,-1.

 Normal termination of Gaussian 16 at Tue Apr  8 20:53:31 2025.
