 Gaussian 16, Revision C.01,

 ----------------------------------------------------------------------
 #t hf aug-cc-pvdz symm=none int=(grid=ultrafine) guess=(read,tcheck) s
 table=(opt,rrhf)
 ----------------------------------------------------------------------
 -----
 title
 -----
 Symbolic Z-matrix:
 Charge =  0 Multiplicity = 1

 SCF Done:  E(RHF) =  -489.708535755     A.U. after   14 cycles
 Normal termination of Gaussian 16 at Tue Apr  8 22:14:05 2025.
 Gaussian 16:  ES64L-G16RevC.01  3-Jul-2019

 ----------------------------------------------------------------------
 #t hf aug-cc-pvdz iop(5/13=1,5/36=2,99/5=2) pseudo=read geom=check gue
 ss=(read,tcheck) scf=(maxcycle=1)
 ----------------------------------------------------------------------
 -----
 title
 -----
 Structure from the checkpoint file:  "ANI1ccx_957_conf4_mol1.chk"
 Charge =  0 Multiplicity = 1

                         Standard orientation:
 ---------------------------------------------------------------------
 Center     Atomic      Atomic             Coordinates (Angstroms)
 Number     Number       Type             X           Y           Z
 ---------------------------------------------------------------------
      1          6           0        0.486850    0.414362    0.323684
      2          6           0        1.871260   -0.069813    0.001254
      3          6           0       -0.535051   -0.659976   -0.162284
      4          6           0       -2.035200   -0.319619   -0.083640
      5          1           0        3.075581   -1.415027    0.474938
      6          1           0       -1.426191    1.041859    1.224060
      7          1           0       -0.314366   -0.887309   -1.243450
      8          1           0       -0.420943   -1.607971    0.281795
      9          1           0       -3.160621    1.042097    1.009010
     10          1           0        0.858213    2.423511    0.064020
     11          1           0        0.192218    1.685540   -1.251720
     12          1           0        0.545666    0.483297    1.432310
     13          7           0        0.212552    1.726950   -0.245676
     14          7           0       -2.255250    0.648195    0.804146
     15          8           0       -2.800339   -1.023083   -0.739028
     16          8           0        2.571000    0.198954   -0.935364
     17          8           0        2.257111   -1.123588    0.877600
 ---------------------------------------------------------------------

 SCF Done:  E(RHF) =  -490.202191500     A.U. after    2 cycles

 The electronic state is 1-A.
 Alpha  occ. eigenvalues --  -20.60517 -20.56714 -20.50875 -15.53602 -15.51536
 Alpha  occ. eigenvalues --  -11.41281 -11.36638 -11.32003 -11.26646  -1.55051
 Alpha  occ. eigenvalues --   -1.46326  -1.44841  -1.25348  -1.22137  -1.06035
 Alpha  occ. eigenvalues --   -0.96333  -0.84606  -0.81566  -0.77750  -0.74990
 Alpha  occ. eigenvalues --   -0.72382  -0.70935  -0.68284  -0.64798  -0.63155
 Alpha  occ. eigenvalues --   -0.62066  -0.61083  -0.58446  -0.55943  -0.53071
 Alpha  occ. eigenvalues --   -0.49778  -0.49066  -0.45795  -0.43320  -0.41575
 Alpha virt. eigenvalues --    0.02627   0.03763   0.04197   0.04682   0.05837
 Alpha virt. eigenvalues --    0.06269   0.06807   0.07643   0.09831   0.11148
 Alpha virt. eigenvalues --    0.11429   0.12341   0.13145   0.13503   0.13727

 Mulliken charges:
               1
     1  C   -1.680069
     2  C    2.594615
     3  C   -0.003308
     4  C    0.175293
     5  H    0.387068
     6  H    0.185926
     7  H    0.303013
     8  H    0.079148
     9  H    0.091294
    10  H    0.215843
    11  H    0.323146
    12  H    0.149408
    13  N    0.392727
    14  N    0.708748
    15  O   -1.259110
    16  O   -1.358921
    17  O   -1.304820
 Sum of Mulliken charges =  -0.00000

 Dipole moment (field-independent basis, Debye):
    X=              2.1387    Y=              2.3245    Z=              2.7743  Tot=              4.2041

 Test job not archived.
 1\1\GINC-SE393\SP\RHF\Aug-CC-pVDZ\C4H8N2O3\OHZDE\08-Apr-2025\0\\#t hf
 aug-cc-pvdz iop(5/13=1,5/36=2,99/5=2) pseudo=read geom=check guess=(re
 ad,tcheck) scf=(maxcycle=1)\\title\\0,1\C,0,0.48685,0.414362,0.323684\
 C,0,1.87126,-0.0698148,0.00125376\C,0,-0.535052,-0.659975,-0.162284\C,
 0,-2.0352,-0.319617,-0.0836399\H,0,3.07558,-1.41503,0.474938\H,0,-1.42
 619,1.04186,1.22406\H,0,-0.314367,-0.887309,-1.24345\H,0,-0.420945,-1.
 60797,0.281795\H,0,-3.16062,1.0421,1.00901\H,0,0.858215,2.42351,0.0640
 201\H,0,0.192219,1.68554,-1.25172\H,0,0.545666,0.483297,1.43231\N,0,0.

 Normal termination of Gaussian 16 at Tue Apr  8 22:14:13 2025.
