 Gaussian 16, Revision C.01,

 ----------------------------------------------------------------------
 #t hf aug-cc-pvdz symm=none int=(grid=ultrafine) guess=(read,tcheck) s
 table=(opt,rrhf)
 ----------------------------------------------------------------------
 -----
 title
 -----
 Symbolic Z-matrix:
 Charge =  0 Multiplicity = 1

 SCF Done:  E(RHF) =  -458.431494169     A.U. after   18 cycles
 Normal termination of Gaussian 16 at Tue Apr  8 21:45:12 2025.
 Gaussian 16:  ES64L-G16RevC.01  3-Jul-2019

 ----------------------------------------------------------------------
 #t hf aug-cc-pvdz iop(5/13=1,5/36=2,99/5=2) pseudo=read geom=check gue
 ss=(read,tcheck) scf=(maxcycle=1)
 ----------------------------------------------------------------------
 -----
 title
 -----
 Structure from the checkpoint file:  "ANI1ccx_509_conf2_mol2.chk"
 Charge =  0 Multiplicity = 1

                         Standard orientation:
 ---------------------------------------------------------------------
 Center     Atomic      Atomic             Coordinates (Angstroms)
 Number     Number       Type             X           Y           Z
 ---------------------------------------------------------------------
      1          6           0        1.240920   -0.137598    0.241001
      2          6           0       -1.291720   -0.110926   -0.174458
      3          1           0        2.623670   -0.916861   -0.813772
      4          1           0        2.825970    0.836853   -0.610799
      5          1           0       -2.873080   -1.087901    0.237015
      6          7           0        2.348810   -0.073343   -0.430558
      7          7           0        0.603557    0.714122    0.987036
      8          7           0        0.040076    1.704069    0.051951
      9          7           0       -0.849285    1.181909   -0.562391
     10          7           0       -2.539800   -0.175871   -0.031438
     11          7           0       -0.601600   -1.422781    0.008348
     12          7           0        0.673703   -1.548240    0.089666
 ---------------------------------------------------------------------

 SCF Done:  E(RHF) =  -458.876959633     A.U. after    2 cycles

 The electronic state is 1-A.
 Alpha  occ. eigenvalues --  -15.63435 -15.63183 -15.62441 -15.60159 -15.58030
 Alpha  occ. eigenvalues --  -15.52730 -15.49538 -11.41857 -11.37233  -1.46018
 Alpha  occ. eigenvalues --   -1.39874  -1.33700  -1.26891  -1.20261  -1.03207
 Alpha  occ. eigenvalues --   -1.01720  -0.91147  -0.87521  -0.83982  -0.78050
 Alpha  occ. eigenvalues --   -0.76605  -0.70018  -0.69455  -0.67077  -0.61437
 Alpha  occ. eigenvalues --   -0.59389  -0.55016  -0.53926  -0.51037  -0.47694
 Alpha  occ. eigenvalues --   -0.45811  -0.42592
 Alpha virt. eigenvalues --   -0.02550   0.01748   0.04010   0.04924   0.05488
 Alpha virt. eigenvalues --    0.07748   0.08268   0.09351   0.10644   0.10963
 Alpha virt. eigenvalues --    0.11442   0.12201   0.12482   0.13153   0.15164

 Mulliken charges:
               1
     1  C   -1.845286
     2  C   -1.070562
     3  H    0.196717
     4  H    0.212394
     5  H    0.221158
     6  N    0.789306
     7  N    0.477011
     8  N    0.111740
     9  N    0.010465
    10  N    0.829946
    11  N    0.027219
    12  N    0.039892
 Sum of Mulliken charges =  -0.00000

 Dipole moment (field-independent basis, Debye):
    X=              4.8094    Y=             -2.0930    Z=             -2.1307  Tot=              5.6614

 Test job not archived.
 1\1\GINC-SE159\SP\RHF\Aug-CC-pVDZ\C2H3N7\OHZDE\08-Apr-2025\0\\#t hf au
 g-cc-pvdz iop(5/13=1,5/36=2,99/5=2) pseudo=read geom=check guess=(read
 ,tcheck) scf=(maxcycle=1)\\title\\0,1\C,0,1.24092,-0.137598,0.241001\C
 ,0,-1.29172,-0.110925,-0.174458\H,0,2.62367,-0.916861,-0.813772\H,0,2.
 82597,0.836853,-0.610799\H,0,-2.87308,-1.0879,0.237015\N,0,2.34881,-0.
 0733432,-0.430558\N,0,0.603557,0.714122,0.987036\N,0,0.0400763,1.70407
 ,0.0519513\N,0,-0.849285,1.18191,-0.562391\N,0,-2.5398,-0.17587,-0.031
 4382\N,0,-0.6016,-1.42278,0.00834784\N,0,0.673703,-1.54824,0.0896661\\

 Normal termination of Gaussian 16 at Tue Apr  8 21:45:18 2025.
