 Gaussian 16, Revision C.01,

 ----------------------------------------------------------------------
 #t hf aug-cc-pvdz symm=none int=(grid=ultrafine) guess=(read,tcheck) s
 table=(opt,rrhf)
 ----------------------------------------------------------------------
 -----
 title
 -----
 Symbolic Z-matrix:
 Charge =  0 Multiplicity = 1

 SCF Done:  E(RHF) =  -403.510093180     A.U. after   15 cycles
 Normal termination of Gaussian 16 at Tue Apr  8 21:42:53 2025.
 Gaussian 16:  ES64L-G16RevC.01  3-Jul-2019

 ----------------------------------------------------------------------
 #t hf aug-cc-pvdz iop(5/13=1,5/36=2,99/5=2) pseudo=read geom=check gue
 ss=(read,tcheck) scf=(maxcycle=1)
 ----------------------------------------------------------------------
 -----
 title
 -----
 Structure from the checkpoint file:  "ANI1ccx_490_conf2_mol2.chk"
 Charge =  0 Multiplicity = 1

                         Standard orientation:
 ---------------------------------------------------------------------
 Center     Atomic      Atomic             Coordinates (Angstroms)
 Number     Number       Type             X           Y           Z
 ---------------------------------------------------------------------
      1          6           0        0.001216   -0.682060   -0.033245
      2          6           0        0.000932    0.681541   -0.023025
      3          1           0       -1.806289   -1.876391    0.066135
      4          1           0        1.828549    1.873201    0.019838
      5          7           0        2.036790   -0.149433    0.011211
      6          7           0        1.267280   -1.181269    0.003559
      7          7           0       -1.316580   -0.991481    0.000647
      8          7           0       -2.049690    0.145909    0.009599
      9          7           0       -1.262951    1.181699    0.003605
     10          7           0        1.320129    0.995476    0.007328
 ---------------------------------------------------------------------

 SCF Done:  E(RHF) =  -403.906898909     A.U. after    2 cycles

 The electronic state is 1-A.
 Alpha  occ. eigenvalues --  -15.62091 -15.62040 -15.61661 -15.61602 -15.57195
 Alpha  occ. eigenvalues --  -15.57109 -11.31504 -11.31387  -1.47815  -1.44289
 Alpha  occ. eigenvalues --   -1.26780  -1.23275  -1.14493  -0.98867  -0.93923
 Alpha  occ. eigenvalues --   -0.93214  -0.86384  -0.80241  -0.74122  -0.69143
 Alpha  occ. eigenvalues --   -0.66993  -0.62800  -0.61442  -0.54159  -0.52451
 Alpha  occ. eigenvalues --   -0.51334  -0.45644  -0.39600
 Alpha virt. eigenvalues --    0.02336   0.03058   0.04614   0.08518   0.08667
 Alpha virt. eigenvalues --    0.09865   0.09997   0.11549   0.12043   0.12212
 Alpha virt. eigenvalues --    0.12602   0.13931   0.14900   0.15686   0.17070

 Mulliken charges:
               1
     1  C   -0.732115
     2  C   -0.756661
     3  H    0.020206
     4  H    0.019223
     5  N   -0.328065
     6  N    0.403782
     7  N    0.632626
     8  N   -0.300117
     9  N    0.408440
    10  N    0.632680
 Sum of Mulliken charges =  -0.00000

 Dipole moment (field-independent basis, Debye):
    X=              0.0906    Y=             -0.0339    Z=              0.0678  Tot=              0.1181

 Test job not archived.
 1\1\GINC-SE453\SP\RHF\Aug-CC-pVDZ\C2H2N6\OHZDE\08-Apr-2025\0\\#t hf au
 g-cc-pvdz iop(5/13=1,5/36=2,99/5=2) pseudo=read geom=check guess=(read
 ,tcheck) scf=(maxcycle=1)\\title\\0,1\C,0,0.00121577,-0.68206,-0.03324
 47\C,0,0.00093225,0.681541,-0.0230251\H,0,-1.80629,-1.87639,0.0661352\
 H,0,1.82855,1.8732,0.0198381\N,0,2.03679,-0.149434,0.011211\N,0,1.2672
 8,-1.18127,0.00355882\N,0,-1.31658,-0.99148,0.00064727\N,0,-2.04969,0.
 14591,0.00959948\N,0,-1.26295,1.1817,0.00360517\N,0,1.32013,0.995475,0
 .00732761\\Version=ES64L-G16RevC.01\State=1-A\HF=-403.9068989\RMSD=6.5

 Normal termination of Gaussian 16 at Tue Apr  8 21:42:57 2025.
