 Gaussian 16, Revision C.01,

 ----------------------------------------------------------------------
 #t hf aug-cc-pvdz symm=none int=(grid=ultrafine) guess=(read,tcheck) s
 table=(opt,rrhf)
 ----------------------------------------------------------------------
 -----
 title
 -----
 Symbolic Z-matrix:
 Charge =  0 Multiplicity = 1

 SCF Done:  E(RHF) =  -617.817325259     A.U. after   14 cycles
 Normal termination of Gaussian 16 at Tue Apr  8 19:18:56 2025.
 Gaussian 16:  ES64L-G16RevC.01  3-Jul-2019

 ----------------------------------------------------------------------
 #t hf aug-cc-pvdz iop(5/13=1,5/36=2,99/5=2) pseudo=read geom=check gue
 ss=(read,tcheck) scf=(maxcycle=1)
 ----------------------------------------------------------------------
 -----
 title
 -----
 Structure from the checkpoint file:  "ANI1ccx_1023_conf1_mol1.chk"
 Charge =  0 Multiplicity = 1

                         Standard orientation:
 ---------------------------------------------------------------------
 Center     Atomic      Atomic             Coordinates (Angstroms)
 Number     Number       Type             X           Y           Z
 ---------------------------------------------------------------------
      1          6           0       -1.701391   -0.820256   -0.099032
      2          6           0       -0.761155    1.292611   -0.030248
      3          6           0        1.674823    1.589336   -0.491594
      4          6           0        2.393201    0.515738    0.367719
      5          6           0        1.735658   -0.913607    0.274975
      6          1           0        1.042396   -2.063383   -1.084780
      7          1           0        2.448012    0.789792    1.399550
      8          1           0        3.452851    0.593405   -0.007787
      9          1           0        1.629313    1.165086   -1.479710
     10          1           0        0.346034    2.898309    0.512932
     11          1           0        2.328445    2.477965   -0.570830
     12          1           0       -2.752237    1.397675    0.273719
     13          1           0       -3.602782   -1.307644    0.000706
     14          1           0       -1.911685   -2.850057   -0.085902
     15          1           0       -0.524174   -2.276210    0.533628
     16          1           0       -2.071104    2.955653    0.032069
     17          7           0       -1.252154   -2.127378   -0.132497
     18          7           0       -2.945261   -0.495560   -0.121320
     19          7           0       -0.673915   -0.011575   -0.267835
     20          7           0       -1.895766    1.990003    0.384719
     21          7           0        0.351449    2.041799   -0.043867
     22          8           0        1.777747   -1.404264   -0.983043
     23          8           0        1.281957   -1.538803    1.184430
 ---------------------------------------------------------------------

 SCF Done:  E(RHF) =  -618.443817336     A.U. after    2 cycles

 The electronic state is 1-A.
 Alpha  occ. eigenvalues --  -20.57795 -20.52644 -15.54088 -15.51976 -15.48560
 Alpha  occ. eigenvalues --  -15.45649 -15.44470 -11.39261 -11.38042 -11.32433
 Alpha  occ. eigenvalues --  -11.29725 -11.26547  -1.53252  -1.44245  -1.32548
 Alpha  occ. eigenvalues --   -1.26726  -1.19219  -1.15779  -1.12449  -1.05789
 Alpha  occ. eigenvalues --   -0.94276  -0.89885  -0.81601  -0.79816  -0.77625
 Alpha  occ. eigenvalues --   -0.73299  -0.71741  -0.71279  -0.69553  -0.68325
 Alpha  occ. eigenvalues --   -0.66139  -0.65405  -0.64816  -0.62414  -0.58541
 Alpha  occ. eigenvalues --   -0.57492  -0.54959  -0.54446  -0.53399  -0.48434
 Alpha  occ. eigenvalues --   -0.47011  -0.45714  -0.44900  -0.43467  -0.42719
 Alpha  occ. eigenvalues --   -0.37850
 Alpha virt. eigenvalues --    0.02414   0.03499   0.04322   0.04670   0.04784
 Alpha virt. eigenvalues --    0.05753   0.05943   0.06559   0.07787   0.08488
 Alpha virt. eigenvalues --    0.09059   0.10838   0.11079   0.11715   0.12087

 Mulliken charges:
               1
     1  C   -2.363102
     2  C   -1.857760
     3  C   -0.566328
     4  C   -0.516424
     5  C    2.752235
     6  H    0.467209
     7  H    0.050833
     8  H    0.343530
     9  H    0.099420
    10  H    0.250536
    11  H    0.045789
    12  H    0.319479
    13  H    0.120770
    14  H    0.142274
    15  H    0.057707
    16  H    0.105143
    17  N    0.494785
    18  N    0.708820
    19  N    0.803812
    20  N    0.721437
    21  N    0.764708
    22  O   -1.528969
    23  O   -1.415900
 Sum of Mulliken charges =   0.00000

 Dipole moment (field-independent basis, Debye):
    X=              1.5511    Y=              3.3923    Z=             -0.2812  Tot=              3.7406

 Test job not archived.
 1\1\GINC-SE150\SP\RHF\Aug-CC-pVDZ\C5H11N5O2\OHZDE\08-Apr-2025\0\\#t hf
  aug-cc-pvdz iop(5/13=1,5/36=2,99/5=2) pseudo=read geom=check guess=(r
 ead,tcheck) scf=(maxcycle=1)\\title\\0,1\C,0,-1.70139,-0.820259,-0.099
 0319\C,0,-0.761158,1.29261,-0.0302478\C,0,1.67482,1.58934,-0.491594\C,
 0,2.3932,0.515744,0.367719\C,0,1.73566,-0.913603,0.274975\H,0,1.0424,-
 2.06338,-1.08478\H,0,2.44801,0.789798,1.39955\H,0,3.45285,0.593413,-0.
 00778692\H,0,1.62931,1.16509,-1.47971\H,0,0.346028,2.89831,0.512932\H,
 0,2.32844,2.47797,-0.57083\H,0,-2.75224,1.39767,0.273719\H,0,-3.60278,

 Normal termination of Gaussian 16 at Tue Apr  8 19:19:14 2025.
