 Gaussian 16, Revision C.01,

 ----------------------------------------------------------------------
 #t hf aug-cc-pvdz symm=none int=(grid=ultrafine) guess=(read,tcheck) s
 table=(opt,rrhf)
 ----------------------------------------------------------------------
 -----
 title
 -----
 Symbolic Z-matrix:
 Charge =  0 Multiplicity = 1

 SCF Done:  E(RHF) =  -585.392500231     A.U. after   15 cycles
 Normal termination of Gaussian 16 at Tue Apr  8 22:16:13 2025.
 Gaussian 16:  ES64L-G16RevC.01  3-Jul-2019

 ----------------------------------------------------------------------
 #t hf aug-cc-pvdz iop(5/13=1,5/36=2,99/5=2) pseudo=read geom=check gue
 ss=(read,tcheck) scf=(maxcycle=1)
 ----------------------------------------------------------------------
 -----
 title
 -----
 Structure from the checkpoint file:  "ANI1ccx_978_conf9_mol1.chk"
 Charge =  0 Multiplicity = 1

                         Standard orientation:
 ---------------------------------------------------------------------
 Center     Atomic      Atomic             Coordinates (Angstroms)
 Number     Number       Type             X           Y           Z
 ---------------------------------------------------------------------
      1          6           0        0.283790   -1.336980   -0.584399
      2          6           0       -0.198196   -0.194689    0.345180
      3          6           0       -1.603700   -0.590318    0.884903
      4          6           0        0.839602    0.032268    1.441980
      5          1           0        2.407769   -0.020333    0.477288
      6          1           0        1.108610   -1.039279    1.787840
      7          1           0        0.294156    0.614337    2.200300
      8          1           0       -2.067511    0.228881    1.551280
      9          1           0       -3.209190   -0.859929    0.016862
     10          1           0        0.138823   -2.324090   -0.189267
     11          1           0       -0.232355   -1.336370   -1.560380
     12          1           0        1.915100   -0.677182   -1.517650
     13          1           0       -1.486340   -1.590080    1.478810
     14          7           0       -0.239743    1.018010   -0.479742
     15          8           0        0.572063    1.067690   -1.432200
     16          8           0        1.685210   -1.291909   -0.804389
     17          8           0       -2.342270   -0.709487   -0.313201
     18          8           0        2.002219    0.647591    1.022140
     19          8           0       -1.057201    1.838150   -0.148964
 ---------------------------------------------------------------------

 SCF Done:  E(RHF) =  -585.974802008     A.U. after    2 cycles

 The electronic state is 1-A.
 Alpha  occ. eigenvalues --  -20.60532 -20.58536 -20.58352 -20.56264 -20.55281
 Alpha  occ. eigenvalues --  -15.78869 -11.34239 -11.31938 -11.31623 -11.30813
 Alpha  occ. eigenvalues --   -1.67110  -1.51120  -1.49951  -1.48283  -1.46130
 Alpha  occ. eigenvalues --   -1.17044  -0.99267  -0.95036  -0.93799  -0.84236
 Alpha  occ. eigenvalues --   -0.77287  -0.76692  -0.75355  -0.72814  -0.70816
 Alpha  occ. eigenvalues --   -0.67540  -0.66632  -0.65223  -0.61911  -0.60163
 Alpha  occ. eigenvalues --   -0.59272  -0.56086  -0.54126  -0.51685  -0.49684
 Alpha  occ. eigenvalues --   -0.48975  -0.47773  -0.46057  -0.44793  -0.43558
 Alpha virt. eigenvalues --    0.02469   0.03509   0.03887   0.04664   0.05417
 Alpha virt. eigenvalues --    0.05634   0.06321   0.06685   0.07943   0.09487
 Alpha virt. eigenvalues --    0.10993   0.12213   0.13029   0.13509   0.14350

 Mulliken charges:
               1
     1  C    1.500322
     2  C   -2.938888
     3  C    0.832651
     4  C    1.184716
     5  H    0.349053
     6  H    0.418339
     7  H    0.195236
     8  H    0.302541
     9  H    0.264676
    10  H   -0.043322
    11  H    0.258392
    12  H    0.370626
    13  H    0.406447
    14  N    3.639453
    15  O   -1.606120
    16  O   -1.216638
    17  O   -1.075751
    18  O   -1.204204
    19  O   -1.637530
 Sum of Mulliken charges =   0.00000

 Dipole moment (field-independent basis, Debye):
    X=             -2.5473    Y=             -3.7220    Z=              2.0657  Tot=              4.9608

 Test job not archived.
 1\1\GINC-SE105\SP\RHF\Aug-CC-pVDZ\C4H9N1O5\OHZDE\08-Apr-2025\0\\#t hf
 aug-cc-pvdz iop(5/13=1,5/36=2,99/5=2) pseudo=read geom=check guess=(re
 ad,tcheck) scf=(maxcycle=1)\\title\\0,1\C,0,0.28379,-1.33698,-0.584399
 \C,0,-0.198196,-0.194689,0.34518\C,0,-1.6037,-0.590317,0.884903\C,0,0.
 839603,0.0322677,1.44198\H,0,2.40777,-0.0203344,0.477288\H,0,1.10861,-
 1.03928,1.78784\H,0,0.294157,0.614337,2.2003\H,0,-2.06751,0.228882,1.5
 5128\H,0,-3.20919,-0.859928,0.0168617\H,0,0.138823,-2.32409,-0.189267\
 H,0,-0.232355,-1.33637,-1.56038\H,0,1.9151,-0.677183,-1.51765\H,0,-1.4

 Normal termination of Gaussian 16 at Tue Apr  8 22:16:24 2025.
