 Gaussian 16, Revision C.01,

 ----------------------------------------------------------------------
 #t hf aug-cc-pvdz symm=none int=(grid=ultrafine) guess=(read,tcheck) s
 table=(opt,rrhf)
 ----------------------------------------------------------------------
 -----
 title
 -----
 Symbolic Z-matrix:
 Charge =  0 Multiplicity = 1

 SCF Done:  E(RHF) =  -276.588020690     A.U. after   14 cycles
 Normal termination of Gaussian 16 at Tue Apr  8 21:19:24 2025.
 Gaussian 16:  ES64L-G16RevC.01  3-Jul-2019

 ----------------------------------------------------------------------
 #t hf aug-cc-pvdz iop(5/13=1,5/36=2,99/5=2) pseudo=read geom=check gue
 ss=(read,tcheck) scf=(maxcycle=1)
 ----------------------------------------------------------------------
 -----
 title
 -----
 Structure from the checkpoint file:  "ANI1ccx_370_conf72_mol1.chk"
 Charge =  0 Multiplicity = 1

                         Standard orientation:
 ---------------------------------------------------------------------
 Center     Atomic      Atomic             Coordinates (Angstroms)
 Number     Number       Type             X           Y           Z
 ---------------------------------------------------------------------
      1          6           0       -1.038050    0.041808   -0.012857
      2          1           0       -2.132620   -0.014793    0.091737
      3          7           0       -0.357623    1.146057    0.013492
      4          7           0        0.953083    0.642272   -0.031593
      5          7           0        0.946961   -0.578848    0.045004
      6          8           0       -0.304502   -1.087802   -0.025365
 ---------------------------------------------------------------------

 SCF Done:  E(RHF) =  -276.859803937     A.U. after    2 cycles

 The electronic state is 1-A.
 Alpha  occ. eigenvalues --  -20.69617 -15.65054 -15.62142 -15.57852 -11.39661
 Alpha  occ. eigenvalues --   -1.67486  -1.41281  -1.26441  -0.96618  -0.95522
 Alpha  occ. eigenvalues --   -0.80941  -0.76510  -0.69903  -0.62702  -0.58246
 Alpha  occ. eigenvalues --   -0.55943  -0.54795  -0.50548
 Alpha virt. eigenvalues --    0.03042   0.05669   0.07519   0.07892   0.08967
 Alpha virt. eigenvalues --    0.12808   0.13053   0.14332   0.15188   0.15794
 Alpha virt. eigenvalues --    0.17617   0.18938   0.20047   0.22424   0.24090

 Mulliken charges:
               1
     1  C    0.378106
     2  H    0.129487
     3  N    0.390103
     4  N   -0.820035
     5  N    1.176091
     6  O   -1.253752
 Sum of Mulliken charges =  -0.00000

 Dipole moment (field-independent basis, Debye):
    X=             -3.4970    Y=             -1.5692    Z=              0.0192  Tot=              3.8330

 Test job not archived.
 1\1\GINC-SE460\SP\RHF\Aug-CC-pVDZ\C1H1N3O1\OHZDE\08-Apr-2025\0\\#t hf
 aug-cc-pvdz iop(5/13=1,5/36=2,99/5=2) pseudo=read geom=check guess=(re
 ad,tcheck) scf=(maxcycle=1)\\title\\0,1\C,0,-1.03805,0.0418153,-0.0128
 573\H,0,-2.13262,-0.0147787,0.0917373\N,0,-0.357616,1.14606,0.0134921\
 N,0,0.953087,0.642266,-0.0315927\N,0,0.946957,-0.578854,0.0450043\O,0,
 -0.304509,-1.0878,-0.025365\\Version=ES64L-G16RevC.01\State=1-A\HF=-27
 6.8598039\RMSD=4.268e-02\Dipole=-1.3758257,-0.6173762,0.0075536\Quadru
 pole=2.489821,-3.0162888,0.5264678,0.7250832,-0.1559255,-0.0083225\PG=

 Normal termination of Gaussian 16 at Tue Apr  8 21:19:26 2025.
