 Gaussian 16, Revision C.01,

 ----------------------------------------------------------------------
 #t hf aug-cc-pvdz symm=none int=(grid=ultrafine) guess=(read,tcheck) s
 table=(opt,rrhf)
 ----------------------------------------------------------------------
 -----
 title
 -----
 Symbolic Z-matrix:
 Charge =  0 Multiplicity = 1

 SCF Done:  E(RHF) =  -578.469513505     A.U. after   16 cycles
 Normal termination of Gaussian 16 at Tue Apr  8 19:30:31 2025.
 Gaussian 16:  ES64L-G16RevC.01  3-Jul-2019

 ----------------------------------------------------------------------
 #t hf aug-cc-pvdz iop(5/13=1,5/36=2,99/5=2) pseudo=read geom=check gue
 ss=(read,tcheck) scf=(maxcycle=1)
 ----------------------------------------------------------------------
 -----
 title
 -----
 Structure from the checkpoint file:  "ANI1ccx_1340_conf12_mol2.chk"
 Charge =  0 Multiplicity = 1

                         Standard orientation:
 ---------------------------------------------------------------------
 Center     Atomic      Atomic             Coordinates (Angstroms)
 Number     Number       Type             X           Y           Z
 ---------------------------------------------------------------------
      1          6           0        2.739178   -1.607152   -0.020693
      2          6           0        2.349490    0.895690    0.010596
      3          6           0        0.247668    0.983504    0.002836
      4          6           0        0.564940   -0.355443    0.006267
      5          6           0       -1.673451   -0.945712   -0.022395
      6          6           0       -1.166339    1.416932    0.003358
      7          1           0       -2.395153   -2.818547   -0.447949
      8          1           0       -3.500212   -1.571666   -0.145478
      9          1           0       -0.094911   -2.285029    0.216751
     10          1           0        3.422221    1.095268   -0.050128
     11          1           0        2.723708   -2.104152    0.963102
     12          1           0        2.432437   -2.283892   -0.800330
     13          1           0        3.750688   -1.254353   -0.238067
     14          7           0        1.927049   -0.410794    0.024353
     15          7           0        1.384191    1.782139   -0.008601
     16          7           0       -0.356269   -1.343189   -0.004935
     17          7           0       -2.582992   -1.964747    0.088076
     18          7           0       -2.076030    0.301882   -0.004060
     19          8           0       -1.597418    2.542302   -0.005194
 ---------------------------------------------------------------------

 SCF Done:  E(RHF) =  -579.049305970     A.U. after    2 cycles

 The electronic state is 1-A.
 Alpha  occ. eigenvalues --  -20.48943 -15.58879 -15.58669 -15.55008 -15.50595
 Alpha  occ. eigenvalues --  -15.48255 -11.39062 -11.34101 -11.33467 -11.32349
 Alpha  occ. eigenvalues --  -11.31713 -11.25306  -1.43739  -1.38805  -1.34259
 Alpha  occ. eigenvalues --   -1.24911  -1.21724  -1.18162  -1.05919  -1.01496
 Alpha  occ. eigenvalues --   -0.92565  -0.91075  -0.87761  -0.80913  -0.79304
 Alpha  occ. eigenvalues --   -0.76648  -0.72040  -0.71449  -0.70366  -0.67478
 Alpha  occ. eigenvalues --   -0.66386  -0.63600  -0.61722  -0.60130  -0.59771
 Alpha  occ. eigenvalues --   -0.54703  -0.53046  -0.50233  -0.48092  -0.44205
 Alpha  occ. eigenvalues --   -0.41123  -0.40252  -0.32873
 Alpha virt. eigenvalues --    0.00873   0.02182   0.02897   0.03243   0.04968
 Alpha virt. eigenvalues --    0.05701   0.06177   0.07763   0.08811   0.09899
 Alpha virt. eigenvalues --    0.09997   0.11312   0.11505   0.11830   0.12636

 Mulliken charges:
               1
     1  C   -0.325435
     2  C   -0.245010
     3  C   -0.593106
     4  C   -1.510753
     5  C   -1.790406
     6  C    0.761844
     7  H    0.159575
     8  H    0.279470
     9  H    0.125433
    10  H   -0.070998
    11  H    0.211589
    12  H    0.074214
    13  H    0.051263
    14  N    1.284839
    15  N    0.961715
    16  N    0.515054
    17  N    0.726070
    18  N    0.831694
    19  O   -1.447052
 Sum of Mulliken charges =  -0.00000

 Dipole moment (field-independent basis, Debye):
    X=              5.0115    Y=            -11.2195    Z=             -0.9515  Tot=             12.3246

 Test job not archived.
 1\1\GINC-SE090\SP\RHF\Aug-CC-pVDZ\C6H7N5O1\OHZDE\08-Apr-2025\0\\#t hf
 aug-cc-pvdz iop(5/13=1,5/36=2,99/5=2) pseudo=read geom=check guess=(re
 ad,tcheck) scf=(maxcycle=1)\\title\\0,1\C,0,2.73918,-1.60715,-0.020693
 3\C,0,2.34949,0.895691,0.0105963\C,0,0.247668,0.983504,0.00283647\C,0,
 0.564941,-0.355443,0.00626708\C,0,-1.67345,-0.945714,-0.0223946\C,0,-1
 .16634,1.41693,0.00335774\H,0,-2.39515,-2.81855,-0.447949\H,0,-3.50021
 ,-1.57167,-0.145478\H,0,-0.094908,-2.28503,0.216751\H,0,3.42222,1.0952
 7,-0.0501278\H,0,2.72371,-2.10415,0.963102\H,0,2.43244,-2.28389,-0.800

 Normal termination of Gaussian 16 at Tue Apr  8 19:30:44 2025.
