 Gaussian 16, Revision C.01,

 ----------------------------------------------------------------------
 #t hf aug-cc-pvdz symm=none int=(grid=ultrafine) guess=(read,tcheck) s
 table=(opt,rrhf)
 ----------------------------------------------------------------------
 -----
 title
 -----
 Symbolic Z-matrix:
 Charge =  0 Multiplicity = 1

 SCF Done:  E(RHF) =  -304.171731938     A.U. after   12 cycles
 Normal termination of Gaussian 16 at Tue Apr  8 21:13:24 2025.
 Gaussian 16:  ES64L-G16RevC.01  3-Jul-2019

 ----------------------------------------------------------------------
 #t hf aug-cc-pvdz iop(5/13=1,5/36=2,99/5=2) pseudo=read geom=check gue
 ss=(read,tcheck) scf=(maxcycle=1)
 ----------------------------------------------------------------------
 -----
 title
 -----
 Structure from the checkpoint file:  "ANI1ccx_1904_conf29_mol1.chk"
 Charge =  0 Multiplicity = 1

                         Standard orientation:
 ---------------------------------------------------------------------
 Center     Atomic      Atomic             Coordinates (Angstroms)
 Number     Number       Type             X           Y           Z
 ---------------------------------------------------------------------
      1          1           0       -0.261045   -2.544810   -0.514555
      2          1           0        0.555037   -1.324281    0.026003
      3          1           0       -1.506240   -0.579816   -0.077274
      4          1           0       -2.506608    0.300824    0.724994
      5          1           0       -0.532525    1.409911   -0.197292
      6          1           0        0.200564    2.654479    0.552643
      7          1           0        1.474842    0.530527    0.137828
      8          1           0        2.533951   -0.245431   -0.710053
      9          8           0       -0.300004   -1.760779    0.111447
     10          8           0       -2.008648    0.260990   -0.127029
     11          8           0        0.359655    1.808989   -0.062871
     12          8           0        1.954251   -0.334375    0.085666
 ---------------------------------------------------------------------

 SCF Done:  E(RHF) =  -304.485907378     A.U. after    2 cycles

 The electronic state is 1-A.
 Alpha  occ. eigenvalues --  -20.56601 -20.55021 -20.55000 -20.54344  -1.44289
 Alpha  occ. eigenvalues --   -1.42539  -1.42075  -1.40577  -0.71711  -0.70313
 Alpha  occ. eigenvalues --   -0.69752  -0.69077  -0.60941  -0.58776  -0.56177
 Alpha  occ. eigenvalues --   -0.53995  -0.50027  -0.49236  -0.48605  -0.48077
 Alpha virt. eigenvalues --    0.03464   0.04121   0.04904   0.06550   0.07759
 Alpha virt. eigenvalues --    0.08370   0.09851   0.11200   0.17588   0.18255
 Alpha virt. eigenvalues --    0.19035   0.20556   0.21605   0.22187   0.22789

 Mulliken charges:
               1
     1  H    0.367803
     2  H    0.694037
     3  H    0.700133
     4  H    0.358329
     5  H    0.604309
     6  H    0.448222
     7  H    0.690608
     8  H    0.366752
     9  O   -1.052086
    10  O   -1.004550
    11  O   -1.117349
    12  O   -1.056207
 Sum of Mulliken charges =  -0.00000

 Dipole moment (field-independent basis, Debye):
    X=              0.1187    Y=              0.4730    Z=             -0.1110  Tot=              0.5002

 Test job not archived.
 1\1\GINC-SE250\SP\RHF\Aug-CC-pVDZ\H8O4\OHZDE\08-Apr-2025\0\\#t hf aug-
 cc-pvdz iop(5/13=1,5/36=2,99/5=2) pseudo=read geom=check guess=(read,t
 check) scf=(maxcycle=1)\\title\\0,1\H,0,-0.261041,-2.54481,-0.514555\H
 ,0,0.555038,-1.32428,0.0260034\H,0,-1.50624,-0.579819,-0.0772743\H,0,-
 2.50661,0.300819,0.724994\H,0,-0.532529,1.40991,-0.197292\H,0,0.200557
 ,2.65448,0.552643\H,0,1.47484,0.53053,0.137828\H,0,2.53395,-0.245426,-
 0.710053\O,0,-0.300002,-1.76078,0.111447\O,0,-2.00865,0.260986,-0.1270
 29\O,0,0.35965,1.80899,-0.0628707\O,0,1.95425,-0.334371,0.0856657\\Ver

 Normal termination of Gaussian 16 at Tue Apr  8 21:13:28 2025.
