 Gaussian 16, Revision C.01,

 ----------------------------------------------------------------------
 #t hf aug-cc-pvdz symm=none int=(grid=ultrafine) guess=(read,tcheck) s
 table=(opt,rrhf)
 ----------------------------------------------------------------------
 -----
 title
 -----
 Symbolic Z-matrix:
 Charge =  0 Multiplicity = 1

 SCF Done:  E(RHF) =  -331.688801970     A.U. after   14 cycles
 Normal termination of Gaussian 16 at Tue Apr  8 21:32:33 2025.
 Gaussian 16:  ES64L-G16RevC.01  3-Jul-2019

 ----------------------------------------------------------------------
 #t hf aug-cc-pvdz iop(5/13=1,5/36=2,99/5=2) pseudo=read geom=check gue
 ss=(read,tcheck) scf=(maxcycle=1)
 ----------------------------------------------------------------------
 -----
 title
 -----
 Structure from the checkpoint file:  "ANI1ccx_378_conf1_mol2.chk"
 Charge =  0 Multiplicity = 1

                         Standard orientation:
 ---------------------------------------------------------------------
 Center     Atomic      Atomic             Coordinates (Angstroms)
 Number     Number       Type             X           Y           Z
 ---------------------------------------------------------------------
      1          6           0        0.791191    0.011723   -0.005954
      2          1           0        0.167481   -2.021131    0.005238
      3          1           0        0.079660    2.050599    0.039054
      4          7           0       -0.098904   -1.050651    0.038938
      5          7           0       -1.381201   -0.647501   -0.024019
      6          7           0       -1.405921    0.614172   -0.017133
      7          7           0       -0.117546    1.065929    0.024477
      8          8           0        2.003839    0.003319   -0.020552
 ---------------------------------------------------------------------

 SCF Done:  E(RHF) =  -332.016480388     A.U. after    2 cycles

 The electronic state is 1-A.
 Alpha  occ. eigenvalues --  -20.53423 -15.63162 -15.62651 -15.60497 -15.60337
 Alpha  occ. eigenvalues --  -11.42188  -1.52007  -1.47434  -1.29470  -1.23818
 Alpha  occ. eigenvalues --   -0.98115  -0.97101  -0.86321  -0.76507  -0.75477
 Alpha  occ. eigenvalues --   -0.67906  -0.63464  -0.58751  -0.57709  -0.56179
 Alpha  occ. eigenvalues --   -0.46448  -0.42354
 Alpha virt. eigenvalues --    0.02488   0.05092   0.06899   0.09477   0.09646
 Alpha virt. eigenvalues --    0.10007   0.10547   0.13057   0.14504   0.15091
 Alpha virt. eigenvalues --    0.15290   0.16478   0.16957   0.18077   0.20014

 Mulliken charges:
               1
     1  C    0.714034
     2  H    0.102029
     3  H    0.092819
     4  N    0.265768
     5  N   -0.245717
     6  N   -0.194046
     7  N    0.275372
     8  O   -1.010259
 Sum of Mulliken charges =  -0.00000

 Dipole moment (field-independent basis, Debye):
    X=             -0.4216    Y=              0.0066    Z=              0.0255  Tot=              0.4224

 Test job not archived.
 1\1\GINC-SE127\SP\RHF\Aug-CC-pVDZ\C1H2N4O1\OHZDE\08-Apr-2025\0\\#t hf
 aug-cc-pvdz iop(5/13=1,5/36=2,99/5=2) pseudo=read geom=check guess=(re
 ad,tcheck) scf=(maxcycle=1)\\title\\0,1\C,0,0.791192,0.0117236,-0.0059
 5436\H,0,0.167481,-2.02113,0.00523799\H,0,0.079661,2.0506,0.0390539\N,
 0,-0.0989038,-1.05065,0.0389385\N,0,-1.3812,-0.6475,-0.0240188\N,0,-1.
 40592,0.614173,-0.0171326\N,0,-0.117545,1.06593,0.0244769\O,0,2.00384,
 0.00331939,-0.0205517\\Version=ES64L-G16RevC.01\State=1-A\HF=-332.0164
 804\RMSD=4.389e-02\Dipole=-0.1658751,0.0025821,0.0100173\Quadrupole=-8

 Normal termination of Gaussian 16 at Tue Apr  8 21:32:37 2025.
