 Gaussian 16, Revision C.01,

 ----------------------------------------------------------------------
 #t hf aug-cc-pvdz symm=none int=(grid=ultrafine) guess=(read,tcheck) s
 table=(opt,rrhf)
 ----------------------------------------------------------------------
 -----
 title
 -----
 Symbolic Z-matrix:
 Charge =  0 Multiplicity = 1

 SCF Done:  E(RHF) =  -302.699248702     A.U. after   13 cycles
 Normal termination of Gaussian 16 at Tue Apr  8 21:45:34 2025.
 Gaussian 16:  ES64L-G16RevC.01  3-Jul-2019

 ----------------------------------------------------------------------
 #t hf aug-cc-pvdz iop(5/13=1,5/36=2,99/5=2) pseudo=read geom=check gue
 ss=(read,tcheck) scf=(maxcycle=1)
 ----------------------------------------------------------------------
 -----
 title
 -----
 Structure from the checkpoint file:  "ANI1ccx_528_conf34_mol1.chk"
 Charge =  0 Multiplicity = 1

                         Standard orientation:
 ---------------------------------------------------------------------
 Center     Atomic      Atomic             Coordinates (Angstroms)
 Number     Number       Type             X           Y           Z
 ---------------------------------------------------------------------
      1          6           0       -0.684242   -0.780881    0.064762
      2          6           0        0.515124    0.114659   -0.029230
      3          1           0       -1.614129    0.920392    0.131861
      4          1           0       -0.595923   -1.359719    0.993213
      5          1           0       -0.681466   -1.574130   -0.746576
      6          1           0        1.766791   -1.330799   -0.124429
      7          8           0       -1.842869   -0.021269   -0.065236
      8          8           0        1.774841   -0.385564   -0.009386
      9          8           0        0.335457    1.324531    0.016214
 ---------------------------------------------------------------------

 SCF Done:  E(RHF) =  -303.000504344     A.U. after    2 cycles

 The electronic state is 1-A.
 Alpha  occ. eigenvalues --  -20.62838 -20.56362 -20.55460 -11.41647 -11.33175
 Alpha  occ. eigenvalues --   -1.56534  -1.48539  -1.45126  -1.01652  -0.85620
 Alpha  occ. eigenvalues --   -0.78464  -0.70220  -0.68814  -0.63843  -0.63095
 Alpha  occ. eigenvalues --   -0.60977  -0.53154  -0.48971  -0.47188  -0.46069
 Alpha virt. eigenvalues --    0.02221   0.04424   0.04787   0.06249   0.09199
 Alpha virt. eigenvalues --    0.10995   0.11509   0.11791   0.13334   0.14401
 Alpha virt. eigenvalues --    0.15762   0.15932   0.19154   0.21549   0.21758

 Mulliken charges:
               1
     1  C    0.696882
     2  C    1.810533
     3  H    0.375058
     4  H    0.189012
     5  H    0.181415
     6  H    0.372962
     7  O   -1.195514
     8  O   -1.255653
     9  O   -1.174696
 Sum of Mulliken charges =  -0.00000

 Dipole moment (field-independent basis, Debye):
    X=              0.8564    Y=             -3.7055    Z=              0.1913  Tot=              3.8080

 Test job not archived.
 1\1\GINC-SE116\SP\RHF\Aug-CC-pVDZ\C2H4O3\OHZDE\08-Apr-2025\0\\#t hf au
 g-cc-pvdz iop(5/13=1,5/36=2,99/5=2) pseudo=read geom=check guess=(read
 ,tcheck) scf=(maxcycle=1)\\title\\0,1\C,0,-0.684243,-0.780881,0.064761
 7\C,0,0.515123,0.114658,-0.02923\H,0,-1.61413,0.920392,0.131861\H,0,-0
 .595924,-1.35972,0.993213\H,0,-0.681467,-1.57413,-0.746576\H,0,1.76679
 ,-1.3308,-0.124429\O,0,-1.84287,-0.0212688,-0.0652358\O,0,1.77484,-0.3
 85565,-0.00938594\O,0,0.335456,1.32453,0.0162143\\Version=ES64L-G16Rev
 C.01\State=1-A\HF=-303.0005043\RMSD=1.083e-02\Dipole=0.3369296,-1.4578

 Normal termination of Gaussian 16 at Tue Apr  8 21:45:37 2025.
