 Gaussian 16, Revision C.01,

 ----------------------------------------------------------------------
 #t hf aug-cc-pvdz symm=none int=(grid=ultrafine) guess=(read,tcheck) s
 table=(opt,rrhf)
 ----------------------------------------------------------------------
 -----
 title
 -----
 Symbolic Z-matrix:
 Charge =  0 Multiplicity = 1

 SCF Done:  E(RHF) =  -761.795511718     A.U. after   14 cycles
 Normal termination of Gaussian 16 at Tue Apr  8 21:33:36 2025.
 Gaussian 16:  ES64L-G16RevC.01  3-Jul-2019

 ----------------------------------------------------------------------
 #t hf aug-cc-pvdz iop(5/13=1,5/36=2,99/5=2) pseudo=read geom=check gue
 ss=(read,tcheck) scf=(maxcycle=1)
 ----------------------------------------------------------------------
 -----
 title
 -----
 Structure from the checkpoint file:  "ANI1ccx_190_conf5_mol1.chk"
 Charge =  0 Multiplicity = 1

                         Standard orientation:
 ---------------------------------------------------------------------
 Center     Atomic      Atomic             Coordinates (Angstroms)
 Number     Number       Type             X           Y           Z
 ---------------------------------------------------------------------
      1          6           0       -2.297160    0.147944    0.910671
      2          6           0        2.283791   -1.168469   -1.407780
      3          6           0        1.722321   -2.308519    0.746974
      4          6           0        2.304481   -1.035669    0.129319
      5          6           0        2.170530    1.481761    0.068834
      6          6           0        0.906993   -1.349959   -2.070220
      7          6           0       -3.435140    0.977683   -0.987095
      8          6           0       -3.190999   -0.535432   -1.252660
      9          6           0       -2.787879   -1.118151    0.126078
     10          6           0       -0.849291   -0.054980    1.426930
     11          6           0        1.517050    0.247609    0.621500
     12          1           0        1.704051   -2.352119    1.837240
     13          1           0        1.892429    3.073621   -0.774760
     14          1           0        0.276661   -2.153510   -1.674460
     15          1           0        1.071111   -1.544259   -3.138200
     16          1           0        0.431829   -0.370266   -2.044050
     17          1           0        2.764621   -0.271520   -1.821020
     18          1           0        2.899531   -2.044449   -1.654550
     19          1           0        2.286002   -3.175999    0.410038
     20          1           0        0.677113   -2.468200    0.445670
     21          1           0        3.367421   -0.848071    0.465975
     22          1           0       -4.414480    1.168578   -0.540450
     23          1           0       -0.296153    0.979693   -0.141363
     24          1           0       -3.383390    1.618619   -1.894720
     25          1           0       -2.367439   -0.642604   -1.966840
     26          1           0       -4.070099   -1.037991   -1.650350
     27          1           0       -3.704519   -1.507351    0.573516
     28          1           0       -2.078949   -1.946571    0.127764
     29          1           0       -2.957330    0.361888    1.736560
     30          1           0       -2.487740    2.151979    0.409352
     31          1           0        1.681730    0.240109    1.706000
     32          7           0       -2.353520    1.271879   -0.057349
     33          7           0        0.084252    0.237811    0.451713
     34          8           0        3.333920    1.793071    0.117193
     35          8           0       -0.570983   -0.542221    2.506510
     36          8           0        1.302600    2.311361   -0.504598
 ---------------------------------------------------------------------

 SCF Done:  E(RHF) =  -762.582622820     A.U. after    2 cycles

 The electronic state is 1-A.
 Alpha  occ. eigenvalues --  -20.61310 -20.54049 -20.51186 -15.51307 -15.50416
 Alpha  occ. eigenvalues --  -11.39909 -11.35451 -11.28924 -11.28378 -11.27283
 Alpha  occ. eigenvalues --  -11.24941 -11.24896 -11.24357 -11.23000 -11.22281
 Alpha  occ. eigenvalues --  -11.21718  -1.56958  -1.45747  -1.45440  -1.25587
 Alpha  occ. eigenvalues --   -1.22585  -1.09724  -1.04844  -1.02867  -0.99521
 Alpha  occ. eigenvalues --   -0.97122  -0.87955  -0.86339  -0.83871  -0.82110
 Alpha  occ. eigenvalues --   -0.80094  -0.76710  -0.74586  -0.73696  -0.70915
 Alpha  occ. eigenvalues --   -0.69725  -0.67345  -0.65041  -0.63739  -0.62939
 Alpha  occ. eigenvalues --   -0.61961  -0.60414  -0.60106  -0.59564  -0.58015
 Alpha  occ. eigenvalues --   -0.57130  -0.56209  -0.54863  -0.54471  -0.52783
 Alpha  occ. eigenvalues --   -0.51509  -0.51118  -0.50726  -0.48534  -0.48073
 Alpha  occ. eigenvalues --   -0.47903  -0.47506  -0.46932  -0.44860  -0.43931
 Alpha  occ. eigenvalues --   -0.40844  -0.40141
 Alpha virt. eigenvalues --    0.02616   0.03130   0.03169   0.03920   0.04035
 Alpha virt. eigenvalues --    0.04394   0.04666   0.05187   0.05385   0.06897
 Alpha virt. eigenvalues --    0.07282   0.07575   0.07917   0.08045   0.09194

 Mulliken charges:
               1
     1  C   -0.544519
     2  C   -0.286005
     3  C   -0.104645
     4  C   -0.410778
     5  C    3.300826
     6  C   -0.234455
     7  C   -0.256305
     8  C   -0.087198
     9  C   -0.368510
    10  C    1.177709
    11  C   -2.067886
    12  H    0.113783
    13  H    0.477169
    14  H    0.141065
    15  H    0.039655
    16  H    0.212005
    17  H    0.190034
    18  H    0.094513
    19  H    0.065644
    20  H    0.196927
    21  H    0.172541
    22  H   -0.014881
    23  H    0.446520
    24  H    0.092020
    25  H    0.090115
    26  H    0.088449
    27  H    0.094827
    28  H   -0.017625
    29  H    0.053476
    30  H    0.250348
    31  H    0.143986
    32  N    0.359413
    33  N    1.277588
    34  O   -1.530348
    35  O   -1.566041
    36  O   -1.589414
 Sum of Mulliken charges =  -0.00000

 Dipole moment (field-independent basis, Debye):
    X=             -3.5897    Y=              1.1726    Z=             -2.8156  Tot=              4.7105

 Test job not archived.
 1\1\GINC-SE038\SP\RHF\Aug-CC-pVDZ\C11H20N2O3\OHZDE\08-Apr-2025\0\\#t h
 f aug-cc-pvdz iop(5/13=1,5/36=2,99/5=2) pseudo=read geom=check guess=(
 read,tcheck) scf=(maxcycle=1)\\title\\0,1\C,0,-2.29716,0.147945,0.9106
 71\C,0,2.28379,-1.16847,-1.40778\C,0,1.72232,-2.30852,0.746974\C,0,2.3
 0448,-1.03567,0.129319\C,0,2.17053,1.48176,0.0688343\C,0,0.906992,-1.3
 4996,-2.07022\C,0,-3.43514,0.977684,-0.987095\C,0,-3.191,-0.535431,-1.
 25266\C,0,-2.78788,-1.11815,0.126078\C,0,-0.849291,-0.0549803,1.42693\
 C,0,1.51705,0.247608,0.6215\H,0,1.70405,-2.35212,1.83724\H,0,1.89243,3

 Normal termination of Gaussian 16 at Tue Apr  8 21:34:36 2025.
