 Gaussian 16, Revision C.01,

 ----------------------------------------------------------------------
 #t hf aug-cc-pvdz symm=none int=(grid=ultrafine) guess=(read,tcheck) s
 table=(opt,rrhf)
 ----------------------------------------------------------------------
 -----
 title
 -----
 Symbolic Z-matrix:
 Charge =  0 Multiplicity = 1

 SCF Done:  E(RHF) =  -603.561537977     A.U. after   15 cycles
 Normal termination of Gaussian 16 at Tue Apr  8 22:19:31 2025.
 Gaussian 16:  ES64L-G16RevC.01  3-Jul-2019

 ----------------------------------------------------------------------
 #t hf aug-cc-pvdz iop(5/13=1,5/36=2,99/5=2) pseudo=read geom=check gue
 ss=(read,tcheck) scf=(maxcycle=1)
 ----------------------------------------------------------------------
 -----
 title
 -----
 Structure from the checkpoint file:  "ANI1ccx_999_conf11_mol1.chk"
 Charge =  0 Multiplicity = 1

                         Standard orientation:
 ---------------------------------------------------------------------
 Center     Atomic      Atomic             Coordinates (Angstroms)
 Number     Number       Type             X           Y           Z
 ---------------------------------------------------------------------
      1          6           0       -1.728851    0.967578    0.509541
      2          6           0       -1.840160   -0.045226   -0.570094
      3          6           0        0.807420   -0.193716   -0.964163
      4          6           0        1.488700   -0.941933    0.177384
      5          6           0        1.338929    1.246291   -0.892530
      6          1           0       -0.095123   -0.755356    1.435739
      7          1           0        2.052409    1.807052    0.911502
      8          1           0        2.408519    1.232232   -1.230661
      9          1           0        0.832475    1.887641   -1.527181
     10          1           0        1.395140   -0.589008   -1.851691
     11          1           0       -0.958714    1.742590    0.248219
     12          1           0       -2.742231    1.314159    0.518226
     13          1           0       -2.130130   -0.455491    2.050399
     14          1           0       -1.155911    0.655825    2.554169
     15          1           0       -0.774427   -1.397860   -1.665461
     16          7           0       -1.384820    0.080841    1.681069
     17          7           0       -0.661643   -0.474632   -1.227161
     18          8           0        1.323008    2.058021    0.305637
     19          8           0       -2.892200   -0.696185   -0.865513
     20          8           0        2.646010   -1.220238    0.070064
     21          8           0        0.810307   -1.251999    1.217129
 ---------------------------------------------------------------------

 SCF Done:  E(RHF) =  -604.164180288     A.U. after    2 cycles

 The electronic state is 1-A.
 Alpha  occ. eigenvalues --  -20.57781 -20.56161 -20.53412 -20.51352 -15.56678
 Alpha  occ. eigenvalues --  -15.55008 -11.39107 -11.37676 -11.31934 -11.31897
 Alpha  occ. eigenvalues --  -11.31640  -1.53783  -1.46374  -1.44747  -1.43941
 Alpha  occ. eigenvalues --   -1.25019  -1.22441  -1.06266  -1.02299  -0.91754
 Alpha  occ. eigenvalues --   -0.83680  -0.82491  -0.76488  -0.74951  -0.73069
 Alpha  occ. eigenvalues --   -0.71483  -0.67782  -0.66642  -0.65661  -0.65037
 Alpha  occ. eigenvalues --   -0.63278  -0.61512  -0.59087  -0.58305  -0.57185
 Alpha  occ. eigenvalues --   -0.54515  -0.51866  -0.49284  -0.47542  -0.45825
 Alpha  occ. eigenvalues --   -0.44838  -0.44007  -0.40997
 Alpha virt. eigenvalues --    0.02193   0.03515   0.03999   0.04061   0.04996
 Alpha virt. eigenvalues --    0.05429   0.06004   0.07269   0.07689   0.08498
 Alpha virt. eigenvalues --    0.09803   0.10145   0.11835   0.12043   0.12704

 Mulliken charges:
               1
     1  C   -0.251472
     2  C    0.735395
     3  C   -1.498769
     4  C    2.641025
     5  C    0.878341
     6  H    0.864374
     7  H    0.311329
     8  H    0.176106
     9  H   -0.149743
    10  H    0.329068
    11  H    0.273100
    12  H    0.092460
    13  H    0.181874
    14  H    0.288624
    15  H    0.258158
    16  N   -0.294643
    17  N    0.843346
    18  O   -1.112944
    19  O   -1.386693
    20  O   -1.403561
    21  O   -1.775374
 Sum of Mulliken charges =  -0.00000

 Dipole moment (field-independent basis, Debye):
    X=             -1.6135    Y=              3.6426    Z=              1.6379  Tot=              4.3075

 Test job not archived.
 1\1\GINC-SE127\SP\RHF\Aug-CC-pVDZ\C5H10N2O4\OHZDE\08-Apr-2025\0\\#t hf
  aug-cc-pvdz iop(5/13=1,5/36=2,99/5=2) pseudo=read geom=check guess=(r
 ead,tcheck) scf=(maxcycle=1)\\title\\0,1\C,0,-1.72885,0.967579,0.50954
 2\C,0,-1.84016,-0.045225,-0.570093\C,0,0.80742,-0.193717,-0.964162\C,0
 ,1.4887,-0.941934,0.177385\C,0,1.33893,1.24629,-0.892529\H,0,-0.095122
 8,-0.755356,1.43574\H,0,2.05241,1.80705,0.911503\H,0,2.40852,1.23223,-
 1.23066\H,0,0.832477,1.88764,-1.52718\H,0,1.39514,-0.589009,-1.85169\H
 ,0,-0.958713,1.74259,0.24822\H,0,-2.74223,1.31416,0.518227\H,0,-2.1301

 Normal termination of Gaussian 16 at Tue Apr  8 22:19:46 2025.
