 Gaussian 16, Revision C.01,

 ----------------------------------------------------------------------
 #t hf aug-cc-pvdz symm=none int=(grid=ultrafine) guess=(read,tcheck) s
 table=(opt,rrhf)
 ----------------------------------------------------------------------
 -----
 title
 -----
 Symbolic Z-matrix:
 Charge =  0 Multiplicity = 1

 SCF Done:  E(RHF) =  -869.299051020     A.U. after   14 cycles
 Normal termination of Gaussian 16 at Tue Apr  8 20:19:42 2025.
 Gaussian 16:  ES64L-G16RevC.01  3-Jul-2019

 ----------------------------------------------------------------------
 #t hf aug-cc-pvdz iop(5/13=1,5/36=2,99/5=2) pseudo=read geom=check gue
 ss=(read,tcheck) scf=(maxcycle=1)
 ----------------------------------------------------------------------
 -----
 title
 -----
 Structure from the checkpoint file:  "ANI1ccx_1593_conf11_mol1.chk"
 Charge =  0 Multiplicity = 1

                         Standard orientation:
 ---------------------------------------------------------------------
 Center     Atomic      Atomic             Coordinates (Angstroms)
 Number     Number       Type             X           Y           Z
 ---------------------------------------------------------------------
      1          6           0       -2.253401   -1.161238   -0.208472
      2          6           0       -0.901758   -1.063619    0.566740
      3          6           0       -2.349340   -0.049526   -1.242769
      4          6           0       -1.861579    1.320402   -0.824254
      5          6           0        1.450710   -0.526055    0.461796
      6          6           0        1.448801    0.919051    1.100131
      7          6           0        2.592030   -0.610109   -0.577685
      8          6           0        2.673219   -2.061782   -1.084989
      9          1           0        2.270802    1.944889    2.139321
     10          1           0        3.249128   -2.234272   -1.986999
     11          1           0        3.098908   -2.748052   -0.375676
     12          1           0        1.670948   -2.434701   -1.325439
     13          1           0        1.906521    1.084579   -1.276689
     14          1           0        3.490760   -0.262451   -0.104165
     15          1           0        1.487229   -1.227111    1.328311
     16          1           0        0.089581   -0.731050   -1.250279
     17          1           0       -0.185484    2.170931   -0.677273
     18          1           0       -3.425770    0.029119   -1.448789
     19          1           0       -1.788680   -0.301410   -2.153199
     20          1           0       -2.229472   -2.104408   -0.678785
     21          1           0       -3.614422   -2.303457    0.690371
     22          1           0       -2.771141   -1.323967    1.698061
     23          7           0       -3.271121   -1.390957    0.817337
     24          7           0        0.183984   -0.800468   -0.215173
     25          8           0       -0.800576   -1.246969    1.765841
     26          8           0       -2.414918    1.972122    0.069708
     27          8           0       -0.706229    1.687061   -1.334469
     28          8           0        1.072332    1.965040    0.577376
     29          8           0        2.261730    0.281528   -1.674769
     30          8           0        2.283781    0.988542    2.104201
 ---------------------------------------------------------------------

 SCF Done:  E(RHF) =  -870.169870480     A.U. after    2 cycles

 The electronic state is 1-A.
 Alpha  occ. eigenvalues --  -20.64099 -20.58239 -20.58158 -20.57215 -20.53728
 Alpha  occ. eigenvalues --  -20.52361 -15.55013 -15.48238 -11.43860 -11.38960
 Alpha  occ. eigenvalues --  -11.37526 -11.33514 -11.33228 -11.29775 -11.26843
 Alpha  occ. eigenvalues --  -11.25281  -1.61755  -1.54643  -1.49164  -1.48874
 Alpha  occ. eigenvalues --   -1.46780  -1.42525  -1.26768  -1.20588  -1.09301
 Alpha  occ. eigenvalues --   -1.06242  -1.00714  -0.93533  -0.88598  -0.86446
 Alpha  occ. eigenvalues --   -0.83380  -0.81942  -0.78165  -0.76058  -0.74210
 Alpha  occ. eigenvalues --   -0.73174  -0.70622  -0.69342  -0.68656  -0.67561
 Alpha  occ. eigenvalues --   -0.66619  -0.66474  -0.65324  -0.63714  -0.63099
 Alpha  occ. eigenvalues --   -0.60914  -0.59722  -0.58130  -0.56944  -0.56667
 Alpha  occ. eigenvalues --   -0.55900  -0.55210  -0.53184  -0.52726  -0.51245
 Alpha  occ. eigenvalues --   -0.48961  -0.47636  -0.46167  -0.45505  -0.43964
 Alpha  occ. eigenvalues --   -0.43327  -0.42555
 Alpha virt. eigenvalues --    0.02541   0.02916   0.03431   0.03907   0.04637
 Alpha virt. eigenvalues --    0.04781   0.05710   0.06170   0.06188   0.07963
 Alpha virt. eigenvalues --    0.08152   0.08527   0.09258   0.10066   0.10554

 Mulliken charges:
               1
     1  C   -2.145782
     2  C    0.941452
     3  C   -0.538308
     4  C    2.688637
     5  C   -1.794174
     6  C    2.950952
     7  C    1.276159
     8  C   -0.180260
     9  H    0.305985
    10  H    0.110435
    11  H    0.126264
    12  H    0.181817
    13  H    0.422340
    14  H   -0.075352
    15  H    0.054785
    16  H    0.326793
    17  H    0.613296
    18  H    0.227292
    19  H    0.235000
    20  H    0.078329
    21  H    0.300764
    22  H    0.147900
    23  N    0.928048
    24  N    1.358135
    25  O   -1.478350
    26  O   -1.373168
    27  O   -1.427550
    28  O   -1.426138
    29  O   -1.484024
    30  O   -1.351276
 Sum of Mulliken charges =   0.00000

 Dipole moment (field-independent basis, Debye):
    X=              4.1424    Y=             -3.5485    Z=             -1.6520  Tot=              5.6991

 Test job not archived.
 1\1\GINC-SE068\SP\RHF\Aug-CC-pVDZ\C8H14N2O6\OHZDE\08-Apr-2025\0\\#t hf
  aug-cc-pvdz iop(5/13=1,5/36=2,99/5=2) pseudo=read geom=check guess=(r
 ead,tcheck) scf=(maxcycle=1)\\title\\0,1\C,0,-2.2534,-1.16124,-0.20847
 3\C,0,-0.901757,-1.06362,0.566739\C,0,-2.34934,-0.0495287,-1.24277\C,0
 ,-1.86158,1.3204,-0.824255\C,0,1.45071,-0.526054,0.461795\C,0,1.4488,0
 .919052,1.10013\C,0,2.59203,-0.610107,-0.577686\C,0,2.67322,-2.06178,-
 1.08499\H,0,2.2708,1.94489,2.13932\H,0,3.24913,-2.23427,-1.987\H,0,3.0
 9891,-2.74805,-0.375677\H,0,1.67095,-2.4347,-1.32544\H,0,1.90652,1.084

 Normal termination of Gaussian 16 at Tue Apr  8 20:20:22 2025.
