 Gaussian 16, Revision C.01,

 ----------------------------------------------------------------------
 #t hf aug-cc-pvdz symm=none int=(grid=ultrafine) guess=(read,tcheck) s
 table=(opt,rrhf)
 ----------------------------------------------------------------------
 -----
 title
 -----
 Symbolic Z-matrix:
 Charge =  0 Multiplicity = 1

 SCF Done:  E(RHF) =  -758.533056011     A.U. after   14 cycles
 Normal termination of Gaussian 16 at Tue Apr  8 20:54:24 2025.
 Gaussian 16:  ES64L-G16RevC.01  3-Jul-2019

 ----------------------------------------------------------------------
 #t hf aug-cc-pvdz iop(5/13=1,5/36=2,99/5=2) pseudo=read geom=check gue
 ss=(read,tcheck) scf=(maxcycle=1)
 ----------------------------------------------------------------------
 -----
 title
 -----
 Structure from the checkpoint file:  "ANI1ccx_1759_conf27_mol1.chk"
 Charge =  0 Multiplicity = 1

                         Standard orientation:
 ---------------------------------------------------------------------
 Center     Atomic      Atomic             Coordinates (Angstroms)
 Number     Number       Type             X           Y           Z
 ---------------------------------------------------------------------
      1          6           0       -1.820411   -0.607674    0.081672
      2          6           0        2.155599   -2.100310   -0.675611
      3          6           0        2.760029   -1.259510    0.448868
      4          6           0        2.425019    1.268720    0.035440
      5          6           0        0.931033   -1.367270   -1.225270
      6          6           0       -2.656061    1.832690   -0.753909
      7          6           0       -2.925441    0.395414    0.016049
      8          6           0       -0.455492   -0.093170    0.488998
      9          6           0        1.840339   -0.078991    0.639556
     10          1           0        2.784139   -1.720280    1.438970
     11          1           0        0.588401    1.936930    0.594931
     12          1           0       -0.001283   -1.934090   -1.471870
     13          1           0        1.173619   -0.911996   -2.159780
     14          1           0        1.716969   -2.975770   -0.250761
     15          1           0        2.872759   -2.370330   -1.472400
     16          1           0        3.841929   -1.032010    0.203456
     17          1           0        1.495429    0.238824    1.586480
     18          1           0       -2.348721    1.652320   -1.808310
     19          1           0       -1.790591    2.495040   -0.427637
     20          1           0       -4.295921   -0.858177   -0.308288
     21          1           0       -3.340321    0.537943    0.981288
     22          1           0       -1.559301   -1.022950   -0.923411
     23          1           0       -1.714161   -2.593190    0.698987
     24          1           0       -2.220681   -1.346540    1.864160
     25          1           0       -3.600511    2.434259   -0.761817
     26          7           0       -2.248761   -1.728880    0.941039
     27          7           0        0.689328   -0.378813   -0.197034
     28          8           0        3.416579    1.477390   -0.614532
     29          8           0       -0.464952    0.640009    1.467620
     30          8           0       -3.976851   -0.100087   -0.755343
     31          8           0        1.498549    2.268250    0.236407
 ---------------------------------------------------------------------

 SCF Done:  E(RHF) =  -759.303689135     A.U. after    2 cycles

 The electronic state is 1-A.
 Alpha  occ. eigenvalues --  -20.57262 -20.54653 -20.54069 -20.53693 -15.56428
 Alpha  occ. eigenvalues --  -15.52683 -11.38864 -11.38179 -11.30583 -11.30572
 Alpha  occ. eigenvalues --  -11.30117 -11.29517 -11.26174 -11.26031 -11.24862
 Alpha  occ. eigenvalues --   -1.51610  -1.50046  -1.47353  -1.43149  -1.31124
 Alpha  occ. eigenvalues --   -1.21938  -1.10502  -1.06257  -1.03128  -0.96130
 Alpha  occ. eigenvalues --   -0.92562  -0.86450  -0.86268  -0.80613  -0.79918
 Alpha  occ. eigenvalues --   -0.76612  -0.75074  -0.73605  -0.71057  -0.70456
 Alpha  occ. eigenvalues --   -0.67054  -0.66809  -0.65084  -0.63840  -0.62321
 Alpha  occ. eigenvalues --   -0.60305  -0.58732  -0.58164  -0.58100  -0.56901
 Alpha  occ. eigenvalues --   -0.55093  -0.54731  -0.53753  -0.53206  -0.52037
 Alpha  occ. eigenvalues --   -0.50076  -0.48776  -0.48403  -0.46401  -0.45781
 Alpha  occ. eigenvalues --   -0.45193  -0.42631  -0.41028
 Alpha virt. eigenvalues --    0.01929   0.03036   0.03488   0.03840   0.04200
 Alpha virt. eigenvalues --    0.04648   0.05035   0.05361   0.06275   0.07222
 Alpha virt. eigenvalues --    0.07756   0.07942   0.08766   0.09302   0.09769

 Mulliken charges:
               1
     1  C   -2.192636
     2  C   -0.224992
     3  C   -0.084479
     4  C    2.455316
     5  C   -0.225878
     6  C   -0.377788
     7  C    1.750223
     8  C    0.106952
     9  C   -0.655859
    10  H    0.219888
    11  H    0.622366
    12  H   -0.004832
    13  H   -0.043865
    14  H    0.136055
    15  H    0.193941
    16  H    0.131600
    17  H   -0.030948
    18  H    0.200115
    19  H    0.168302
    20  H    0.301731
    21  H    0.013967
    22  H    0.161625
    23  H    0.267045
    24  H    0.328372
    25  H    0.171427
    26  N    0.554709
    27  N    1.723334
    28  O   -1.344121
    29  O   -1.423539
    30  O   -1.341253
    31  O   -1.556779
 Sum of Mulliken charges =  -0.00000

 Dipole moment (field-independent basis, Debye):
    X=             -1.2751    Y=             -5.9646    Z=              0.9868  Tot=              6.1787

 Test job not archived.
 1\1\GINC-SE177\SP\RHF\Aug-CC-pVDZ\C9H16N2O4\OHZDE\08-Apr-2025\0\\#t hf
  aug-cc-pvdz iop(5/13=1,5/36=2,99/5=2) pseudo=read geom=check guess=(r
 ead,tcheck) scf=(maxcycle=1)\\title\\0,1\C,0,-1.82041,-0.607674,0.0816
 719\C,0,2.1556,-2.10031,-0.675611\C,0,2.76003,-1.25951,0.448868\C,0,2.
 42502,1.26872,0.0354399\C,0,0.931034,-1.36727,-1.22527\C,0,-2.65606,1.
 83269,-0.753909\C,0,-2.92544,0.395414,0.0160491\C,0,-0.455491,-0.09317
 01,0.488998\C,0,1.84034,-0.0789909,0.639556\H,0,2.78414,-1.72028,1.438
 97\H,0,0.588402,1.93693,0.594931\H,0,-0.00128245,-1.93409,-1.47187\H,0

 Normal termination of Gaussian 16 at Tue Apr  8 20:55:05 2025.
