 Gaussian 16, Revision C.01,

 ----------------------------------------------------------------------
 #t hf aug-cc-pvdz symm=none int=(grid=ultrafine) guess=(read,tcheck) s
 table=(opt,rrhf)
 ----------------------------------------------------------------------
 -----
 title
 -----
 Symbolic Z-matrix:
 Charge =  0 Multiplicity = 1

 SCF Done:  E(RHF) =  -809.785073495     A.U. after   14 cycles
 Normal termination of Gaussian 16 at Tue Apr  8 20:41:11 2025.
 Gaussian 16:  ES64L-G16RevC.01  3-Jul-2019

 ----------------------------------------------------------------------
 #t hf aug-cc-pvdz iop(5/13=1,5/36=2,99/5=2) pseudo=read geom=check gue
 ss=(read,tcheck) scf=(maxcycle=1)
 ----------------------------------------------------------------------
 -----
 title
 -----
 Structure from the checkpoint file:  "ANI1ccx_1634_conf21_mol1.chk"
 Charge =  0 Multiplicity = 1

                         Standard orientation:
 ---------------------------------------------------------------------
 Center     Atomic      Atomic             Coordinates (Angstroms)
 Number     Number       Type             X           Y           Z
 ---------------------------------------------------------------------
      1          6           0       -3.206140   -0.445666   -0.695079
      2          6           0       -2.840550   -0.242648    0.716677
      3          6           0       -0.258300    0.066364    0.367663
      4          6           0       -0.112102    1.315060   -0.549645
      5          6           0       -0.097224   -1.314640   -0.385830
      6          6           0        1.186650   -2.067801   -0.210540
      7          6           0        2.465680   -1.638521   -0.953585
      8          6           0        3.310540    0.223810    0.434891
      9          1           0       -1.338919    2.446290    0.602505
     10          1           0        3.552561    2.049199   -0.289115
     11          1           0        4.009011    1.990008    1.304711
     12          1           0        3.805940   -0.284603    2.192681
     13          1           0        2.130081    0.420400   -1.193569
     14          1           0        2.454200   -1.800271   -2.038449
     15          1           0        3.246430   -2.213821   -0.500286
     16          1           0        1.371560   -2.091681    0.885109
     17          1           0        1.008729   -3.081000   -0.502406
     18          1           0       -0.367599   -1.118450   -1.418079
     19          1           0       -0.919170   -1.923610   -0.070838
     20          1           0        0.519417    0.082482    1.134151
     21          1           0       -1.431170   -0.012747    2.094591
     22          1           0       -3.048930   -1.500039   -0.923816
     23          1           0       -2.519380    0.136120   -1.363289
     24          1           0       -5.138470   -0.671532   -0.265074
     25          1           0       -4.761679    0.818723   -0.579730
     26          7           0       -4.611790   -0.095906   -0.898480
     27          7           0       -1.516010    0.101394    1.092941
     28          7           0        2.838440   -0.204066   -0.765642
     29          7           0        3.536410   -0.694132    1.291251
     30          7           0        3.378641    1.606699    0.593566
     31          8           0       -3.670760   -0.399561    1.634811
     32          8           0        0.622658    1.282770   -1.507529
     33          8           0       -0.782371    2.414400   -0.203759
 ---------------------------------------------------------------------

 SCF Done:  E(RHF) =  -810.613795824     A.U. after    2 cycles

 The electronic state is 1-A.
 Alpha  occ. eigenvalues --  -20.62426 -20.56040 -20.53454 -15.54914 -15.52587
 Alpha  occ. eigenvalues --  -15.49674 -15.48940 -15.44455 -11.42577 -11.38440
 Alpha  occ. eigenvalues --  -11.33733 -11.32307 -11.29608 -11.25903 -11.25118
 Alpha  occ. eigenvalues --  -11.23249  -1.56837  -1.48255  -1.46569  -1.29430
 Alpha  occ. eigenvalues --   -1.25876  -1.20954  -1.18190  -1.13852  -1.08653
 Alpha  occ. eigenvalues --   -1.02218  -0.99266  -0.93859  -0.88098  -0.84824
 Alpha  occ. eigenvalues --   -0.82217  -0.79838  -0.76803  -0.76424  -0.74310
 Alpha  occ. eigenvalues --   -0.73028  -0.72448  -0.70153  -0.69252  -0.65855
 Alpha  occ. eigenvalues --   -0.65367  -0.64729  -0.63736  -0.63177  -0.62576
 Alpha  occ. eigenvalues --   -0.60464  -0.59706  -0.58928  -0.57192  -0.55315
 Alpha  occ. eigenvalues --   -0.54681  -0.52416  -0.51852  -0.49631  -0.48847
 Alpha  occ. eigenvalues --   -0.47601  -0.47167  -0.46486  -0.44875  -0.44472
 Alpha  occ. eigenvalues --   -0.42919  -0.38575
 Alpha virt. eigenvalues --    0.02554   0.03238   0.03262   0.03937   0.04534
 Alpha virt. eigenvalues --    0.04574   0.05243   0.05541   0.06143   0.06982
 Alpha virt. eigenvalues --    0.07624   0.08114   0.08237   0.08321   0.09492

 Mulliken charges:
               1
     1  C   -1.383370
     2  C    0.883023
     3  C   -1.433730
     4  C    2.692488
     5  C    0.479124
     6  C   -0.664610
     7  C   -0.609732
     8  C   -3.160842
     9  H    0.496373
    10  H    0.110110
    11  H    0.112315
    12  H    0.077214
    13  H    0.010004
    14  H    0.030247
    15  H    0.214071
    16  H    0.351083
    17  H    0.072389
    18  H    0.037090
    19  H    0.016827
    20  H    0.304463
    21  H    0.401124
    22  H    0.186933
    23  H    0.261770
    24  H    0.233619
    25  H    0.126338
    26  N    0.643189
    27  N    0.744496
    28  N    1.415607
    29  N    1.165342
    30  N    0.629614
    31  O   -1.414019
    32  O   -1.472388
    33  O   -1.556157
 Sum of Mulliken charges =  -0.00000

 Dipole moment (field-independent basis, Debye):
    X=              0.5187    Y=              1.5708    Z=              1.3478  Tot=              2.1338

 Test job not archived.
 1\1\GINC-SE087\SP\RHF\Aug-CC-pVDZ\C8H17N5O3\OHZDE\08-Apr-2025\0\\#t hf
  aug-cc-pvdz iop(5/13=1,5/36=2,99/5=2) pseudo=read geom=check guess=(r
 ead,tcheck) scf=(maxcycle=1)\\title\\0,1\C,0,-3.20614,-0.445667,-0.695
 08\C,0,-2.84055,-0.242649,0.716676\C,0,-0.2583,0.0663636,0.367662\C,0,
 -0.112103,1.31506,-0.549646\C,0,-0.0972243,-1.31464,-0.385831\C,0,1.18
 665,-2.0678,-0.210541\C,0,2.46568,-1.63852,-0.953586\C,0,3.31054,0.223
 811,0.43489\H,0,-1.33892,2.44629,0.602504\H,0,3.55256,2.0492,-0.289116
 \H,0,4.00901,1.99001,1.30471\H,0,3.80594,-0.284602,2.19268\H,0,2.13008

 Normal termination of Gaussian 16 at Tue Apr  8 20:41:59 2025.
