 Gaussian 16, Revision C.01,

 ----------------------------------------------------------------------
 #t hf aug-cc-pvdz symm=none int=(grid=ultrafine) guess=(read,tcheck) s
 table=(opt,rrhf)
 ----------------------------------------------------------------------
 -----
 title
 -----
 Symbolic Z-matrix:
 Charge =  0 Multiplicity = 1

 SCF Done:  E(RHF) =  -424.697819714     A.U. after   15 cycles
 Normal termination of Gaussian 16 at Tue Apr  8 21:43:55 2025.
 Gaussian 16:  ES64L-G16RevC.01  3-Jul-2019

 ----------------------------------------------------------------------
 #t hf aug-cc-pvdz iop(5/13=1,5/36=2,99/5=2) pseudo=read geom=check gue
 ss=(read,tcheck) scf=(maxcycle=1)
 ----------------------------------------------------------------------
 -----
 title
 -----
 Structure from the checkpoint file:  "ANI1ccx_507_conf10_mol2.chk"
 Charge =  0 Multiplicity = 1

                         Standard orientation:
 ---------------------------------------------------------------------
 Center     Atomic      Atomic             Coordinates (Angstroms)
 Number     Number       Type             X           Y           Z
 ---------------------------------------------------------------------
      1          6           0       -1.270511   -0.360184    0.118282
      2          6           0        0.020122    1.547650   -0.031895
      3          1           0       -3.054981   -0.143689   -0.866771
      4          1           0       -2.860519   -1.593494    0.123804
      5          1           0        1.822595    2.020233    0.032307
      6          7           0       -2.469951   -0.773429   -0.311894
      7          7           0       -0.911849    0.901255   -0.482064
      8          7           0        0.893144    2.325721    0.314659
      9          7           0        2.296961   -1.711146   -0.236341
     10          7           0        2.488629   -0.624207   -0.242172
     11          8           0       -0.560412   -1.029401    0.862128
 ---------------------------------------------------------------------

 SCF Done:  E(RHF) =  -425.112309456     A.U. after    2 cycles

 The electronic state is 1-A.
 Alpha  occ. eigenvalues --  -20.52531 -15.62189 -15.61812 -15.54680 -15.54139
 Alpha  occ. eigenvalues --  -15.54045 -11.41622 -11.39565  -1.48619  -1.47753
 Alpha  occ. eigenvalues --   -1.31895  -1.26108  -1.23262  -0.93706  -0.82414
 Alpha  occ. eigenvalues --   -0.81835  -0.79908  -0.74222  -0.68635  -0.67342
 Alpha  occ. eigenvalues --   -0.66974  -0.66443  -0.65970  -0.62541  -0.60092
 Alpha  occ. eigenvalues --   -0.51369  -0.48540  -0.45067  -0.44791
 Alpha virt. eigenvalues --    0.02725   0.04824   0.05473   0.08305   0.09106
 Alpha virt. eigenvalues --    0.09577   0.10040   0.10636   0.10862   0.11325
 Alpha virt. eigenvalues --    0.12110   0.12819   0.13418   0.14030   0.14866

 Mulliken charges:
               1
     1  C    0.284748
     2  C   -1.530794
     3  H    0.086616
     4  H    0.151329
     5  H    0.318836
     6  N    0.613085
     7  N    0.470881
     8  N    0.808737
     9  N   -0.135925
    10  N    0.098607
    11  O   -1.166119
 Sum of Mulliken charges =  -0.00000

 Dipole moment (field-independent basis, Debye):
    X=             -1.5815    Y=             -0.1826    Z=             -1.6081  Tot=              2.2629

 Test job not archived.
 1\1\GINC-SE367\SP\RHF\Aug-CC-pVDZ\C2H3N5O1\OHZDE\08-Apr-2025\0\\#t hf
 aug-cc-pvdz iop(5/13=1,5/36=2,99/5=2) pseudo=read geom=check guess=(re
 ad,tcheck) scf=(maxcycle=1)\\title\\0,1\C,0,-1.27051,-0.360182,0.11828
 2\C,0,0.0201256,1.54765,-0.031895\H,0,-3.05498,-0.143684,-0.866771\H,0
 ,-2.86052,-1.59349,0.123804\H,0,1.8226,2.02023,0.0323066\N,0,-2.46995,
 -0.773425,-0.311894\N,0,-0.911846,0.901256,-0.482064\N,0,0.893149,2.32
 572,0.314659\N,0,2.29696,-1.71115,-0.236341\N,0,2.48863,-0.624211,-0.2
 42172\O,0,-0.560412,-1.0294,0.862128\\Version=ES64L-G16RevC.01\State=1

 Normal termination of Gaussian 16 at Tue Apr  8 21:43:59 2025.
