 Gaussian 16, Revision C.01,

 ----------------------------------------------------------------------
 #t hf aug-cc-pvdz symm=none int=(grid=ultrafine) guess=(read,tcheck) s
 table=(opt,rrhf)
 ----------------------------------------------------------------------
 -----
 title
 -----
 Symbolic Z-matrix:
 Charge =  0 Multiplicity = 1

 SCF Done:  E(RHF) =  -460.274808803     A.U. after   16 cycles
 Normal termination of Gaussian 16 at Tue Apr  8 21:26:40 2025.
 Gaussian 16:  ES64L-G16RevC.01  3-Jul-2019

 ----------------------------------------------------------------------
 #t hf aug-cc-pvdz iop(5/13=1,5/36=2,99/5=2) pseudo=read geom=check gue
 ss=(read,tcheck) scf=(maxcycle=1)
 ----------------------------------------------------------------------
 -----
 title
 -----
 Structure from the checkpoint file:  "ANI1ccx_373_conf1_mol1.chk"
 Charge =  0 Multiplicity = 1

                         Standard orientation:
 ---------------------------------------------------------------------
 Center     Atomic      Atomic             Coordinates (Angstroms)
 Number     Number       Type             X           Y           Z
 ---------------------------------------------------------------------
      1          6           0        0.035452    0.019543   -0.010730
      2          1           0        2.780490   -1.076489   -0.259796
      3          7           0       -1.412250   -0.010241    0.005012
      4          7           0        0.739229    1.147761    0.273884
      5          7           0        1.951420    0.712057    0.208630
      6          7           0        1.955170   -0.559510   -0.142387
      7          7           0        0.748980   -1.035939   -0.323585
      8          8           0       -2.007070    0.971823   -0.380995
      9          8           0       -1.851810   -1.074280    0.402657
 ---------------------------------------------------------------------

 SCF Done:  E(RHF) =  -460.723099952     A.U. after    2 cycles

 The electronic state is 1-A.
 Alpha  occ. eigenvalues --  -20.62182 -20.61679 -15.82327 -15.68898 -15.65146
 Alpha  occ. eigenvalues --  -15.62448 -15.60971 -11.39248  -1.70493  -1.55797
 Alpha  occ. eigenvalues --   -1.54704  -1.34978  -1.27061  -1.11212  -1.02817
 Alpha  occ. eigenvalues --   -0.93816  -0.88804  -0.82832  -0.79955  -0.77079
 Alpha  occ. eigenvalues --   -0.76245  -0.69400  -0.60681  -0.58204  -0.55563
 Alpha  occ. eigenvalues --   -0.53329  -0.52408  -0.48939  -0.47300
 Alpha virt. eigenvalues --    0.01150   0.01928   0.03900   0.07537   0.09873
 Alpha virt. eigenvalues --    0.10426   0.10968   0.11396   0.12692   0.13420
 Alpha virt. eigenvalues --    0.13908   0.14611   0.14805   0.16850   0.18562

 Mulliken charges:
               1
     1  C   -0.579827
     2  H    0.051451
     3  N    2.568782
     4  N    0.476041
     5  N   -0.441420
     6  N    0.243337
     7  N    0.240168
     8  O   -1.288802
     9  O   -1.269731
 Sum of Mulliken charges =  -0.00000

 Dipole moment (field-independent basis, Debye):
    X=              3.9500    Y=             -1.8955    Z=             -0.5084  Tot=              4.4106

 Test job not archived.
 1\1\GINC-SE041\SP\RHF\Aug-CC-pVDZ\C1H1N5O2\OHZDE\08-Apr-2025\0\\#t hf
 aug-cc-pvdz iop(5/13=1,5/36=2,99/5=2) pseudo=read geom=check guess=(re
 ad,tcheck) scf=(maxcycle=1)\\title\\0,1\C,0,0.035452,0.0195427,-0.0107
 295\H,0,2.78049,-1.07649,-0.259796\N,0,-1.41225,-0.0102407,0.00501234\
 N,0,0.739229,1.14776,0.273884\N,0,1.95142,0.712056,0.20863\N,0,1.95517
 ,-0.559511,-0.142387\N,0,0.74898,-1.03594,-0.323585\O,0,-2.00707,0.971
 823,-0.380995\O,0,-1.85181,-1.07428,0.402657\\Version=ES64L-G16RevC.01
 \State=1-A\HF=-460.7231\RMSD=4.368e-02\Dipole=1.5540311,-0.7457605,-0.

 Normal termination of Gaussian 16 at Tue Apr  8 21:26:44 2025.
