 Gaussian 16, Revision C.01,

 ----------------------------------------------------------------------
 #t hf aug-cc-pvdz symm=none int=(grid=ultrafine) guess=(read,tcheck) s
 table=(opt,rrhf)
 ----------------------------------------------------------------------
 -----
 title
 -----
 Symbolic Z-matrix:
 Charge =  0 Multiplicity = 1

 SCF Done:  E(RHF) =  -294.632537614     A.U. after   16 cycles
 Normal termination of Gaussian 16 at Tue Apr  8 21:42:46 2025.
 Gaussian 16:  ES64L-G16RevC.01  3-Jul-2019

 ----------------------------------------------------------------------
 #t hf aug-cc-pvdz iop(5/13=1,5/36=2,99/5=2) pseudo=read geom=check gue
 ss=(read,tcheck) scf=(maxcycle=1)
 ----------------------------------------------------------------------
 -----
 title
 -----
 Structure from the checkpoint file:  "ANI1ccx_486_conf11_mol1.chk"
 Charge =  0 Multiplicity = 1

                         Standard orientation:
 ---------------------------------------------------------------------
 Center     Atomic      Atomic             Coordinates (Angstroms)
 Number     Number       Type             X           Y           Z
 ---------------------------------------------------------------------
      1          6           0        0.291737    1.198819   -0.072170
      2          6           0       -1.200742   -0.323213   -0.042046
      3          1           0        0.723794    2.169066   -0.217984
      4          1           0       -2.189474   -0.651311   -0.035185
      5          7           0       -0.999528    0.962368    0.121129
      6          7           0       -0.328079   -1.306438   -0.072033
      7          7           0        1.000445   -0.929131    0.088975
      8          7           0        1.315692    0.305859   -0.004004
 ---------------------------------------------------------------------

 SCF Done:  E(RHF) =  -294.922457051     A.U. after    2 cycles

 The electronic state is 1-A.
 Alpha  occ. eigenvalues --  -15.64292 -15.58498 -15.57303 -15.56519 -11.37107
 Alpha  occ. eigenvalues --  -11.35234  -1.44691  -1.31174  -1.25139  -1.05325
 Alpha  occ. eigenvalues --   -0.99855  -0.85060  -0.80092  -0.69242  -0.66951
 Alpha  occ. eigenvalues --   -0.66132  -0.61761  -0.53703  -0.52270  -0.49130
 Alpha  occ. eigenvalues --   -0.48922
 Alpha virt. eigenvalues --   -0.00688   0.03161   0.04503   0.04746   0.08267
 Alpha virt. eigenvalues --    0.08336   0.09134   0.09840   0.11202   0.14036
 Alpha virt. eigenvalues --    0.14770   0.15035   0.17567   0.17805   0.19495

 Mulliken charges:
               1
     1  C   -0.401755
     2  C   -0.336307
     3  H    0.023636
     4  H   -0.062562
     5  N    0.520211
     6  N    0.395476
     7  N   -0.404040
     8  N    0.265339
 Sum of Mulliken charges =  -0.00000

 Dipole moment (field-independent basis, Debye):
    X=             -1.7185    Y=              2.4081    Z=             -0.5033  Tot=              3.0009

 Test job not archived.
 1\1\GINC-SE096\SP\RHF\Aug-CC-pVDZ\C2H2N4\OHZDE\08-Apr-2025\0\\#t hf au
 g-cc-pvdz iop(5/13=1,5/36=2,99/5=2) pseudo=read geom=check guess=(read
 ,tcheck) scf=(maxcycle=1)\\title\\0,1\C,0,0.29173,1.19882,-0.0721704\C
 ,0,-1.20074,-0.32322,-0.0420463\H,0,0.723782,2.16907,-0.217984\H,0,-2.
 18947,-0.651324,-0.0351853\N,0,-0.999533,0.962362,0.121129\N,0,-0.3280
 71,-1.30644,-0.0720327\N,0,1.00045,-0.929126,0.0889747\N,0,1.31569,0.3
 05866,-0.00400418\\Version=ES64L-G16RevC.01\State=1-A\HF=-294.9224571\
 RMSD=3.609e-02\Dipole=-0.6761019,0.9474281,-0.1980146\Quadrupole=-0.32

 Normal termination of Gaussian 16 at Tue Apr  8 21:42:49 2025.
