 Gaussian 16, Revision C.01,

 ----------------------------------------------------------------------
 #t hf aug-cc-pvdz symm=none int=(grid=ultrafine) guess=(read,tcheck) s
 table=(opt,rrhf)
 ----------------------------------------------------------------------
 -----
 title
 -----
 Symbolic Z-matrix:
 Charge =  0 Multiplicity = 1

 SCF Done:  E(RHF) =  -626.311211598     A.U. after   16 cycles
 Normal termination of Gaussian 16 at Tue Apr  8 20:31:29 2025.
 Gaussian 16:  ES64L-G16RevC.01  3-Jul-2019

 ----------------------------------------------------------------------
 #t hf aug-cc-pvdz iop(5/13=1,5/36=2,99/5=2) pseudo=read geom=check gue
 ss=(read,tcheck) scf=(maxcycle=1)
 ----------------------------------------------------------------------
 -----
 title
 -----
 Structure from the checkpoint file:  "ANI1ccx_1715_conf1_mol1.chk"
 Charge =  0 Multiplicity = 1

                         Standard orientation:
 ---------------------------------------------------------------------
 Center     Atomic      Atomic             Coordinates (Angstroms)
 Number     Number       Type             X           Y           Z
 ---------------------------------------------------------------------
      1          6           0        1.986269   -1.134760   -0.326954
      2          6           0       -2.389241    0.493281   -0.316454
      3          6           0       -2.128801   -0.853058    0.281050
      4          6           0       -1.105391    0.706792   -1.284540
      5          6           0        0.235517    0.458530   -0.761474
      6          6           0        0.955729    1.454921   -0.183129
      7          6           0        0.797985   -0.862473   -0.919692
      8          6           0        2.232859    1.120410    0.416625
      9          6           0        2.781809   -0.158037    0.273988
     10          1           0       -1.326671   -0.013370   -2.100020
     11          1           0       -1.197821    1.729321   -1.629070
     12          1           0       -3.196771    0.467839   -1.102490
     13          1           0       -2.910531    1.244281    1.478860
     14          1           0       -1.949901   -1.702389    2.001720
     15          1           0        2.813379    1.802020    1.049450
     16          1           0        4.636059    0.456919    0.537364
     17          1           0        0.634950    2.493441   -0.192222
     18          1           0        2.507389   -2.067240   -0.249757
     19          1           0       -1.792100    2.208111    0.773836
     20          1           0        0.111784   -1.596679   -1.341640
     21          7           0       -2.627281    1.639171    0.566354
     22          8           0       -2.101551   -1.813459   -0.442306
     23          8           0       -2.026231   -0.806836    1.638130
     24          8           0        4.110379   -0.360967    0.520799
 ---------------------------------------------------------------------

 SCF Done:  E(RHF) =  -626.942905013     A.U. after    2 cycles

 The electronic state is 1-A.
 Alpha  occ. eigenvalues --  -20.61663 -20.58213 -20.54426 -15.49718 -11.40198
 Alpha  occ. eigenvalues --  -11.30945 -11.28833 -11.25337 -11.24866 -11.24751
 Alpha  occ. eigenvalues --  -11.24708 -11.24146 -11.23925  -1.55161  -1.49164
 Alpha  occ. eigenvalues --   -1.46954  -1.19284  -1.15770  -1.06289  -1.02016
 Alpha  occ. eigenvalues --   -0.98980  -0.91765  -0.86642  -0.83576  -0.79159
 Alpha  occ. eigenvalues --   -0.74573  -0.72141  -0.71979  -0.68465  -0.68338
 Alpha  occ. eigenvalues --   -0.66980  -0.63868  -0.63143  -0.61242  -0.60284
 Alpha  occ. eigenvalues --   -0.59581  -0.59131  -0.56092  -0.54113  -0.53868
 Alpha  occ. eigenvalues --   -0.51762  -0.49789  -0.48582  -0.47714  -0.45008
 Alpha  occ. eigenvalues --   -0.42856  -0.35231  -0.31644
 Alpha virt. eigenvalues --    0.02845   0.03316   0.03682   0.04278   0.04910
 Alpha virt. eigenvalues --    0.05578   0.05861   0.06444   0.06621   0.08193
 Alpha virt. eigenvalues --    0.08843   0.09467   0.10616   0.11124   0.11412

 Mulliken charges:
               1
     1  C    0.886545
     2  C   -1.997926
     3  C    3.047859
     4  C   -0.943213
     5  C    1.754629
     6  C   -0.067712
     7  C    0.053301
     8  C   -0.089246
     9  C    0.938352
    10  H    0.123063
    11  H    0.018356
    12  H    0.288955
    13  H    0.243564
    14  H    0.376285
    15  H   -0.305524
    16  H    0.371221
    17  H   -0.317072
    18  H   -0.331452
    19  H    0.248899
    20  H   -0.246644
    21  N    0.552116
    22  O   -1.428239
    23  O   -1.479495
    24  O   -1.696624
 Sum of Mulliken charges =  -0.00000

 Dipole moment (field-independent basis, Debye):
    X=              1.1834    Y=              1.3433    Z=              1.6511  Tot=              2.4354

 Test job not archived.
 1\1\GINC-SE252\SP\RHF\Aug-CC-pVDZ\C9H11N1O3\OHZDE\08-Apr-2025\0\\#t hf
  aug-cc-pvdz iop(5/13=1,5/36=2,99/5=2) pseudo=read geom=check guess=(r
 ead,tcheck) scf=(maxcycle=1)\\title\\0,1\C,0,1.98627,-1.13476,-0.32695
 4\C,0,-2.38924,0.49328,-0.316454\C,0,-2.1288,-0.853059,0.28105\C,0,-1.
 10539,0.706791,-1.28454\C,0,0.235518,0.458529,-0.761474\C,0,0.95573,1.
 45492,-0.183129\C,0,0.797986,-0.862474,-0.919692\C,0,2.23286,1.12041,0
 .416625\C,0,2.78181,-0.158037,0.273988\H,0,-1.32667,-0.0133708,-2.1000
 2\H,0,-1.19782,1.72932,-1.62907\H,0,-3.19677,0.467838,-1.10249\H,0,-2.

 Normal termination of Gaussian 16 at Tue Apr  8 20:31:49 2025.
