 Gaussian 16, Revision C.01,

 ----------------------------------------------------------------------
 #t hf aug-cc-pvdz symm=none int=(grid=ultrafine) guess=(read,tcheck) s
 table=(opt,rrhf)
 ----------------------------------------------------------------------
 -----
 title
 -----
 Symbolic Z-matrix:
 Charge =  0 Multiplicity = 1

 SCF Done:  E(RHF) =  -353.171654707     A.U. after   13 cycles
 Normal termination of Gaussian 16 at Tue Apr  8 21:48:19 2025.
 Gaussian 16:  ES64L-G16RevC.01  3-Jul-2019

 ----------------------------------------------------------------------
 #t hf aug-cc-pvdz iop(5/13=1,5/36=2,99/5=2) pseudo=read geom=check gue
 ss=(read,tcheck) scf=(maxcycle=1)
 ----------------------------------------------------------------------
 -----
 title
 -----
 Structure from the checkpoint file:  "ANI1ccx_602_conf1_mol2.chk"
 Charge =  0 Multiplicity = 1

                         Standard orientation:
 ---------------------------------------------------------------------
 Center     Atomic      Atomic             Coordinates (Angstroms)
 Number     Number       Type             X           Y           Z
 ---------------------------------------------------------------------
      1          6           0       -2.602181    0.120100    0.153163
      2          6           0       -0.198620   -0.200490   -0.092210
      3          1           0       -3.482341   -0.202402   -0.412301
      4          1           0       -2.428951    1.119140   -0.245228
      5          1           0       -2.802791    0.228807    1.290340
      6          1           0       -1.494991   -1.639459    0.287032
      7          1           0        0.677647   -1.993409   -0.653588
      8          1           0        2.386989   -0.880154    1.141350
      9          1           0        2.498169   -0.142755   -0.352998
     10          1           0        1.352059    2.128381    0.832852
     11          1           0        1.099979    2.455341   -0.727506
     12          7           0       -1.473461   -0.729477   -0.152433
     13          7           0        0.822048   -1.147399   -0.117410
     14          7           0        2.178719   -0.986605    0.142002
     15          7           0       -0.047818    1.094191   -0.031941
     16          7           0        1.234659    1.684841   -0.058170
 ---------------------------------------------------------------------

 SCF Done:  E(RHF) =  -353.542813953     A.U. after    2 cycles

 The electronic state is 1-A.
 Alpha  occ. eigenvalues --  -15.53203 -15.51536 -15.51480 -15.50519 -15.47032
 Alpha  occ. eigenvalues --  -11.34434 -11.26202  -1.31767  -1.24922  -1.22581
 Alpha  occ. eigenvalues --   -1.08658  -1.04050  -0.93537  -0.81614  -0.77784
 Alpha  occ. eigenvalues --   -0.72130  -0.71607  -0.69183  -0.66025  -0.65004
 Alpha  occ. eigenvalues --   -0.61837  -0.57495  -0.53364  -0.53043  -0.48109
 Alpha  occ. eigenvalues --   -0.43119  -0.39773  -0.37491
 Alpha virt. eigenvalues --    0.03246   0.04655   0.04983   0.05093   0.05748
 Alpha virt. eigenvalues --    0.06002   0.06600   0.06917   0.09090   0.10361
 Alpha virt. eigenvalues --    0.13083   0.13845   0.14314   0.14494   0.15259

 Mulliken charges:
               1
     1  C   -0.321400
     2  C   -1.618084
     3  H    0.058283
     4  H    0.151086
     5  H    0.221701
     6  H    0.200340
     7  H    0.105027
     8  H    0.137656
     9  H    0.134009
    10  H    0.211862
    11  H    0.231885
    12  N    0.546884
    13  N   -0.323600
    14  N    0.387959
    15  N    0.230796
    16  N   -0.354403
 Sum of Mulliken charges =   0.00000

 Dipole moment (field-independent basis, Debye):
    X=             -0.6861    Y=             -0.5199    Z=              1.0757  Tot=              1.3778

 Test job not archived.
 1\1\GINC-SE273\SP\RHF\Aug-CC-pVDZ\C2H9N5\OHZDE\08-Apr-2025\0\\#t hf au
 g-cc-pvdz iop(5/13=1,5/36=2,99/5=2) pseudo=read geom=check guess=(read
 ,tcheck) scf=(maxcycle=1)\\title\\0,1\C,0,-2.60218,0.1201,0.153163\C,0
 ,-0.198619,-0.200491,-0.0922103\H,0,-3.48234,-0.202402,-0.412301\H,0,-
 2.42895,1.11914,-0.245228\H,0,-2.80279,0.228807,1.29034\H,0,-1.49499,-
 1.63946,0.287032\H,0,0.677648,-1.99341,-0.653588\H,0,2.38699,-0.880155
 ,1.14135\H,0,2.49817,-0.142756,-0.352998\H,0,1.35206,2.12838,0.832852\
 H,0,1.09998,2.45534,-0.727506\N,0,-1.47346,-0.729478,-0.152433\N,0,0.8

 Normal termination of Gaussian 16 at Tue Apr  8 21:48:25 2025.
