 Gaussian 16, Revision C.01,

 ----------------------------------------------------------------------
 #t hf aug-cc-pvdz symm=none int=(grid=ultrafine) guess=(read,tcheck) s
 table=(opt,rrhf)
 ----------------------------------------------------------------------
 -----
 title
 -----
 Symbolic Z-matrix:
 Charge =  0 Multiplicity = 1

 SCF Done:  E(RHF) =  -447.704743667     A.U. after   14 cycles
 Normal termination of Gaussian 16 at Tue Apr  8 22:08:49 2025.
 Gaussian 16:  ES64L-G16RevC.01  3-Jul-2019

 ----------------------------------------------------------------------
 #t hf aug-cc-pvdz iop(5/13=1,5/36=2,99/5=2) pseudo=read geom=check gue
 ss=(read,tcheck) scf=(maxcycle=1)
 ----------------------------------------------------------------------
 -----
 title
 -----
 Structure from the checkpoint file:  "ANI1ccx_921_conf2_mol1.chk"
 Charge =  0 Multiplicity = 1

                         Standard orientation:
 ---------------------------------------------------------------------
 Center     Atomic      Atomic             Coordinates (Angstroms)
 Number     Number       Type             X           Y           Z
 ---------------------------------------------------------------------
      1          6           0       -1.353529   -0.135053    0.009745
      2          6           0       -0.929944    1.105466    0.070387
      3          6           0        0.523836    1.416711   -0.026175
      4          6           0        0.982601   -0.877277   -0.013290
      5          1           0       -2.853455   -1.335351    0.581934
      6          1           0       -3.351690    0.148745   -0.020370
      7          1           0       -1.606077    1.963634    0.072553
      8          1           0        1.519940   -2.714705    0.587771
      9          1           0        2.754166   -1.693061    0.045641
     10          1           0       -0.693349   -1.995023   -0.502251
     11          7           0       -2.654218   -0.596413   -0.093203
     12          7           0        1.421529    0.338017    0.027774
     13          7           0        1.788047   -1.990674   -0.069789
     14          7           0       -0.409573   -1.168242    0.010132
     15          8           0        0.984022    2.560983   -0.016710
 ---------------------------------------------------------------------

 SCF Done:  E(RHF) =  -448.156947361     A.U. after    2 cycles

 The electronic state is 1-A.
 Alpha  occ. eigenvalues --  -20.49047 -15.56829 -15.55118 -15.54977 -15.48622
 Alpha  occ. eigenvalues --  -11.39152 -11.34904 -11.34496 -11.22993  -1.42402
 Alpha  occ. eigenvalues --   -1.34767  -1.27526  -1.21338  -1.19102  -1.05763
 Alpha  occ. eigenvalues --   -0.91521  -0.89377  -0.80337  -0.79195  -0.76434
 Alpha  occ. eigenvalues --   -0.73871  -0.70692  -0.68520  -0.66543  -0.60869
 Alpha  occ. eigenvalues --   -0.59204  -0.58123  -0.53550  -0.51013  -0.47843
 Alpha  occ. eigenvalues --   -0.41923  -0.40499  -0.35830
 Alpha virt. eigenvalues --    0.01427   0.02928   0.04070   0.05126   0.05512
 Alpha virt. eigenvalues --    0.06548   0.09303   0.09985   0.10575   0.11030
 Alpha virt. eigenvalues --    0.11144   0.11978   0.12841   0.13323   0.14303

 Mulliken charges:
               1
     1  C   -1.714398
     2  C    0.915189
     3  C    0.635355
     4  C   -1.493681
     5  H    0.161579
     6  H    0.200907
     7  H   -0.217969
     8  H    0.191268
     9  H    0.250702
    10  H    0.180607
    11  N    0.697080
    12  N    0.603741
    13  N    0.722469
    14  N    0.313903
    15  O   -1.446752
 Sum of Mulliken charges =  -0.00000

 Dipole moment (field-independent basis, Debye):
    X=             -4.2575    Y=             -7.0311    Z=              1.4150  Tot=              8.3406

 Test job not archived.
 1\1\GINC-SE457\SP\RHF\Aug-CC-pVDZ\C4H6N4O1\OHZDE\08-Apr-2025\0\\#t hf
 aug-cc-pvdz iop(5/13=1,5/36=2,99/5=2) pseudo=read geom=check guess=(re
 ad,tcheck) scf=(maxcycle=1)\\title\\0,1\C,0,-1.35353,-0.135048,0.00974
 496\C,0,-0.92994,1.10547,0.0703872\C,0,0.523841,1.41671,-0.0261748\C,0
 ,0.982598,-0.87728,-0.0132897\H,0,-2.85346,-1.33534,0.581934\H,0,-3.35
 169,0.148758,-0.0203705\H,0,-1.60607,1.96364,0.0725533\H,0,1.51993,-2.
 71471,0.587771\H,0,2.75416,-1.69307,0.0456412\H,0,-0.693356,-1.99502,-
 0.502251\N,0,-2.65422,-0.596403,-0.0932035\N,0,1.42153,0.338013,0.0277

 Normal termination of Gaussian 16 at Tue Apr  8 22:08:55 2025.
