 Gaussian 16, Revision C.01,

 ----------------------------------------------------------------------
 #t hf aug-cc-pvdz symm=none int=(grid=ultrafine) guess=(read,tcheck) s
 table=(opt,rrhf)
 ----------------------------------------------------------------------
 -----
 title
 -----
 Symbolic Z-matrix:
 Charge =  0 Multiplicity = 1

 SCF Done:  E(RHF) =  -752.415658299     A.U. after   16 cycles
 Normal termination of Gaussian 16 at Tue Apr  8 20:06:33 2025.
 Gaussian 16:  ES64L-G16RevC.01  3-Jul-2019

 ----------------------------------------------------------------------
 #t hf aug-cc-pvdz iop(5/13=1,5/36=2,99/5=2) pseudo=read geom=check gue
 ss=(read,tcheck) scf=(maxcycle=1)
 ----------------------------------------------------------------------
 -----
 title
 -----
 Structure from the checkpoint file:  "ANI1ccx_1572_conf2_mol1.chk"
 Charge =  0 Multiplicity = 1

                         Standard orientation:
 ---------------------------------------------------------------------
 Center     Atomic      Atomic             Coordinates (Angstroms)
 Number     Number       Type             X           Y           Z
 ---------------------------------------------------------------------
      1          6           0        2.160460   -1.662980   -1.037700
      2          6           0        2.782360   -0.690196   -0.069933
      3          6           0        0.638741    0.710401    0.061773
      4          6           0        0.488713    2.222540   -0.120476
      5          6           0       -0.298079    0.077237    1.056260
      6          6           0       -1.667230   -0.341092    0.463783
      7          6           0       -2.579100   -1.280049    0.992876
      8          6           0       -3.521490   -0.200642   -0.751339
      9          1           0       -1.187279    1.745871   -0.919220
     10          1           0       -4.674510   -1.557199    0.430212
     11          1           0       -4.291560    0.143450   -1.393040
     12          1           0       -2.553310   -2.049859    1.746950
     13          1           0       -0.451358    0.777635    1.911680
     14          1           0        0.146547   -0.806383    1.481370
     15          1           0        0.455356    0.243370   -0.928964
     16          1           0        2.494540    0.946587    0.991630
     17          1           0        2.980490   -2.267420   -1.422920
     18          1           0        1.743110   -1.313640   -1.994410
     19          1           0        1.472510   -3.013610    0.284429
     20          1           0        0.595414   -2.919380   -1.106270
     21          7           0        1.092510   -2.409230   -0.408636
     22          7           0        2.021650    0.390316    0.300655
     23          7           0       -2.260440    0.270697   -0.623258
     24          7           0       -3.743700   -1.146749    0.233605
     25          8           0        3.860890   -0.949976    0.473066
     26          8           0        1.240951    3.037690    0.344101
     27          8           0       -0.667635    2.577790   -0.713353
 ---------------------------------------------------------------------

 SCF Done:  E(RHF) =  -753.169334392     A.U. after    2 cycles

 The electronic state is 1-A.
 Alpha  occ. eigenvalues --  -20.57559 -20.52661 -20.51076 -15.59629 -15.52766
 Alpha  occ. eigenvalues --  -15.52061 -15.50460 -11.38514 -11.36144 -11.34160
 Alpha  occ. eigenvalues --  -11.30415 -11.29763 -11.29675 -11.27664 -11.26733
 Alpha  occ. eigenvalues --   -1.52393  -1.44775  -1.43939  -1.35061  -1.25175
 Alpha  occ. eigenvalues --   -1.20999  -1.19637  -1.08479  -1.03149  -0.97312
 Alpha  occ. eigenvalues --   -0.93554  -0.88416  -0.83447  -0.82304  -0.80646
 Alpha  occ. eigenvalues --   -0.79032  -0.76098  -0.75298  -0.69379  -0.68101
 Alpha  occ. eigenvalues --   -0.67038  -0.65911  -0.65562  -0.64498  -0.63521
 Alpha  occ. eigenvalues --   -0.63156  -0.60443  -0.60070  -0.58707  -0.57910
 Alpha  occ. eigenvalues --   -0.55361  -0.54382  -0.52506  -0.50777  -0.47008
 Alpha  occ. eigenvalues --   -0.45570  -0.45273  -0.43590  -0.42322  -0.41137
 Alpha  occ. eigenvalues --   -0.34776
 Alpha virt. eigenvalues --    0.01206   0.02804   0.03095   0.03804   0.04283
 Alpha virt. eigenvalues --    0.04998   0.05481   0.06096   0.06846   0.07726
 Alpha virt. eigenvalues --    0.08243   0.09139   0.09357   0.09787   0.10576

 Mulliken charges:
               1
     1  C   -0.389594
     2  C    1.011997
     3  C   -1.835103
     4  C    2.728782
     5  C   -0.497642
     6  C   -0.540802
     7  C   -0.200457
     8  C   -0.460060
     9  H    0.694436
    10  H    0.016425
    11  H   -0.158325
    12  H   -0.315227
    13  H    0.342454
    14  H    0.303353
    15  H    0.297374
    16  H    0.298751
    17  H    0.018923
    18  H    0.061016
    19  H    0.258038
    20  H    0.265453
    21  N   -0.196731
    22  N    0.889474
    23  N    1.132567
    24  N    0.630370
    25  O   -1.435232
    26  O   -1.410250
    27  O   -1.509990
 Sum of Mulliken charges =   0.00000

 Dipole moment (field-independent basis, Debye):
    X=             -8.5046    Y=             -7.0423    Z=             -0.8202  Tot=             11.0722

 Test job not archived.
 1\1\GINC-SE364\SP\RHF\Aug-CC-pVDZ\C8H12N4O3\OHZDE\08-Apr-2025\0\\#t hf
  aug-cc-pvdz iop(5/13=1,5/36=2,99/5=2) pseudo=read geom=check guess=(r
 ead,tcheck) scf=(maxcycle=1)\\title\\0,1\C,0,2.16046,-1.66298,-1.0377\
 C,0,2.78236,-0.690196,-0.0699328\C,0,0.638741,0.710401,0.061773\C,0,0.
 488712,2.22254,-0.120476\C,0,-0.298079,0.0772363,1.05626\C,0,-1.66723,
 -0.341093,0.463783\C,0,-2.5791,-1.28005,0.992876\C,0,-3.52149,-0.20064
 3,-0.751339\H,0,-1.18728,1.74587,-0.91922\H,0,-4.67451,-1.5572,0.43021
 2\H,0,-4.29156,0.143449,-1.39304\H,0,-2.55331,-2.04986,1.74695\H,0,-0.

 Normal termination of Gaussian 16 at Tue Apr  8 20:07:01 2025.
