 Gaussian 16, Revision C.01,

 ----------------------------------------------------------------------
 #t hf aug-cc-pvdz symm=none int=(grid=ultrafine) guess=(read,tcheck) s
 table=(opt,rrhf)
 ----------------------------------------------------------------------
 -----
 title
 -----
 Symbolic Z-matrix:
 Charge =  0 Multiplicity = 1

 SCF Done:  E(RHF) =  -371.289684533     A.U. after   14 cycles
 Normal termination of Gaussian 16 at Tue Apr  8 21:39:42 2025.
 Gaussian 16:  ES64L-G16RevC.01  3-Jul-2019

 ----------------------------------------------------------------------
 #t hf aug-cc-pvdz iop(5/13=1,5/36=2,99/5=2) pseudo=read geom=check gue
 ss=(read,tcheck) scf=(maxcycle=1)
 ----------------------------------------------------------------------
 -----
 title
 -----
 Structure from the checkpoint file:  "ANI1ccx_455_conf10_mol1.chk"
 Charge =  0 Multiplicity = 1

                         Standard orientation:
 ---------------------------------------------------------------------
 Center     Atomic      Atomic             Coordinates (Angstroms)
 Number     Number       Type             X           Y           Z
 ---------------------------------------------------------------------
      1          6           0        0.755111    0.009286   -0.034468
      2          7           0       -1.343470   -0.615619    0.035501
      3          7           0       -1.376331    0.608077    0.013072
      4          8           0        1.962570   -0.008464    0.037130
      5          8           0       -0.084106   -1.071171   -0.032907
      6          8           0       -0.064971    1.079269   -0.020873
 ---------------------------------------------------------------------

 SCF Done:  E(RHF) =  -371.645984068     A.U. after    2 cycles

 The electronic state is 1-A.
 Alpha  occ. eigenvalues --  -20.71396 -20.70808 -20.59341 -15.71024 -15.70550
 Alpha  occ. eigenvalues --  -11.50723  -1.75203  -1.59954  -1.53389  -1.39965
 Alpha  occ. eigenvalues --   -1.02892  -0.99031  -0.83477  -0.82455  -0.71712
 Alpha  occ. eigenvalues --   -0.69113  -0.67252  -0.64562  -0.63381  -0.62324
 Alpha  occ. eigenvalues --   -0.51275  -0.49626
 Alpha virt. eigenvalues --    0.03046   0.06494   0.08757   0.08958   0.09363
 Alpha virt. eigenvalues --    0.11683   0.12964   0.14393   0.14751   0.16604
 Alpha virt. eigenvalues --    0.17526   0.18712   0.19606   0.22456   0.24935

 Mulliken charges:
               1
     1  C    1.944427
     2  N    0.721772
     3  N    0.664730
     4  O   -0.981578
     5  O   -1.196246
     6  O   -1.153104
 Sum of Mulliken charges =   0.00000

 Dipole moment (field-independent basis, Debye):
    X=             -1.2006    Y=             -0.0716    Z=             -0.1691  Tot=              1.2146

 Test job not archived.
 1\1\GINC-SE424\SP\RHF\Aug-CC-pVDZ\C1N2O3\OHZDE\08-Apr-2025\0\\#t hf au
 g-cc-pvdz iop(5/13=1,5/36=2,99/5=2) pseudo=read geom=check guess=(read
 ,tcheck) scf=(maxcycle=1)\\title\\0,1\C,0,0.755111,0.0092866,-0.034467
 9\N,0,-1.34347,-0.615617,0.0355005\N,0,-1.37633,0.608079,0.0130715\O,0
 ,1.96257,-0.00846423,0.0371302\O,0,-0.0841062,-1.07117,-0.0329072\O,0,
 -0.06497,1.07927,-0.0208726\\Version=ES64L-G16RevC.01\State=1-A\HF=-37
 1.6459841\RMSD=3.067e-02\Dipole=-0.4723712,-0.0281856,-0.0665409\Quadr
 upole=-3.6226181,0.6988961,2.923722,0.0622212,-0.1073096,-0.0065615\PG

 Normal termination of Gaussian 16 at Tue Apr  8 21:39:44 2025.
