 Gaussian 16, Revision C.01,

 ----------------------------------------------------------------------
 #t hf aug-cc-pvdz symm=none int=(grid=ultrafine) guess=(read,tcheck) s
 table=(opt,rrhf)
 ----------------------------------------------------------------------
 -----
 title
 -----
 Symbolic Z-matrix:
 Charge =  0 Multiplicity = 1

 SCF Done:  E(RHF) =  -541.431244830     A.U. after   16 cycles
 Normal termination of Gaussian 16 at Tue Apr  8 19:51:33 2025.
 Gaussian 16:  ES64L-G16RevC.01  3-Jul-2019

 ----------------------------------------------------------------------
 #t hf aug-cc-pvdz iop(5/13=1,5/36=2,99/5=2) pseudo=read geom=check gue
 ss=(read,tcheck) scf=(maxcycle=1)
 ----------------------------------------------------------------------
 -----
 title
 -----
 Structure from the checkpoint file:  "ANI1ccx_1513_conf2_mol2.chk"
 Charge =  0 Multiplicity = 1

                         Standard orientation:
 ---------------------------------------------------------------------
 Center     Atomic      Atomic             Coordinates (Angstroms)
 Number     Number       Type             X           Y           Z
 ---------------------------------------------------------------------
      1          6           0        1.404551    0.077854   -0.013396
      2          6           0        3.797121   -0.227673   -0.006372
      3          6           0       -1.054899   -0.263030    0.039909
      4          6           0       -1.453459    1.062770    0.009705
      5          6           0       -2.813649    1.348050    0.004567
      6          6           0       -3.743129    0.252415    0.036923
      7          6           0       -2.028719   -1.284710   -0.043121
      8          1           0       -1.731700   -2.334070    0.017562
      9          1           0       -4.823869    0.461120   -0.002682
     10          1           0       -3.177639    2.377420   -0.023187
     11          1           0        0.347673   -1.699830   -0.035015
     12          1           0        2.507461   -1.745360    0.083773
     13          1           0        2.461861    1.647280   -0.010568
     14          1           0       -0.695177    1.837670   -0.034493
     15          7           0        0.255292   -0.699085    0.009871
     16          7           0        1.481971    1.340570   -0.038642
     17          7           0        2.563901   -0.756918   -0.019537
     18          7           0        4.838461    0.264902    0.035573
     19          7           0       -3.358979   -1.054940   -0.010792
 ---------------------------------------------------------------------

 SCF Done:  E(RHF) =  -541.972017900     A.U. after    2 cycles

 The electronic state is 1-A.
 Alpha  occ. eigenvalues --  -15.60548 -15.57531 -15.53259 -15.52610 -15.49882
 Alpha  occ. eigenvalues --  -11.40816 -11.33651 -11.30964 -11.29402 -11.29040
 Alpha  occ. eigenvalues --  -11.26589 -11.26178  -1.36988  -1.29453  -1.25618
 Alpha  occ. eigenvalues --   -1.23898  -1.21086  -1.09678  -1.04528  -0.95032
 Alpha  occ. eigenvalues --   -0.90274  -0.86395  -0.85919  -0.82672  -0.75990
 Alpha  occ. eigenvalues --   -0.73111  -0.71726  -0.69187  -0.67770  -0.62998
 Alpha  occ. eigenvalues --   -0.62700  -0.62040  -0.60367  -0.56492  -0.55425
 Alpha  occ. eigenvalues --   -0.53141  -0.51606  -0.49947  -0.46422  -0.45498
 Alpha  occ. eigenvalues --   -0.40319  -0.33825
 Alpha virt. eigenvalues --    0.01152   0.03661   0.04066   0.04900   0.05317
 Alpha virt. eigenvalues --    0.06414   0.06914   0.07717   0.08035   0.08584
 Alpha virt. eigenvalues --    0.09072   0.09854   0.10632   0.11317   0.11536

 Mulliken charges:
               1
     1  C   -1.434547
     2  C   -1.806089
     3  C   -0.721787
     4  C    1.367546
     5  C    0.343102
     6  C   -0.780727
     7  C   -1.065346
     8  H   -0.264345
     9  H   -0.127978
    10  H   -0.196771
    11  H    0.169094
    12  H    0.113341
    13  H    0.270047
    14  H   -0.247333
    15  N    0.871710
    16  N    0.777901
    17  N    0.556115
    18  N    1.087108
    19  N    1.088957
 Sum of Mulliken charges =   0.00000

 Dipole moment (field-independent basis, Debye):
    X=             -1.3028    Y=             -2.6005    Z=              0.0705  Tot=              2.9094

 Test job not archived.
 1\1\GINC-SE179\SP\RHF\Aug-CC-pVDZ\C7H7N5\OHZDE\08-Apr-2025\0\\#t hf au
 g-cc-pvdz iop(5/13=1,5/36=2,99/5=2) pseudo=read geom=check guess=(read
 ,tcheck) scf=(maxcycle=1)\\title\\0,1\C,0,1.40455,0.0778544,-0.0133963
 \C,0,3.79712,-0.227673,-0.00637211\C,0,-1.0549,-0.26303,0.0399095\C,0,
 -1.45346,1.06277,0.00970542\C,0,-2.81365,1.34805,0.0045669\C,0,-3.7431
 3,0.252415,0.0369232\C,0,-2.02872,-1.28471,-0.0431206\H,0,-1.7317,-2.3
 3407,0.0175623\H,0,-4.82387,0.46112,-0.00268163\H,0,-3.17764,2.37742,-
 0.0231874\H,0,0.347672,-1.69983,-0.0350151\H,0,2.50746,-1.74536,0.0837

 Normal termination of Gaussian 16 at Tue Apr  8 19:51:45 2025.
