 Gaussian 16, Revision C.01,

 ----------------------------------------------------------------------
 #t hf aug-cc-pvdz symm=none int=(grid=ultrafine) guess=(read,tcheck) s
 table=(opt,rrhf)
 ----------------------------------------------------------------------
 -----
 title
 -----
 Symbolic Z-matrix:
 Charge =  0 Multiplicity = 1

 SCF Done:  E(RHF) =  -464.283181226     A.U. after   17 cycles
 Normal termination of Gaussian 16 at Tue Apr  8 21:42:15 2025.
 Gaussian 16:  ES64L-G16RevC.01  3-Jul-2019

 ----------------------------------------------------------------------
 #t hf aug-cc-pvdz iop(5/13=1,5/36=2,99/5=2) pseudo=read geom=check gue
 ss=(read,tcheck) scf=(maxcycle=1)
 ----------------------------------------------------------------------
 -----
 title
 -----
 Structure from the checkpoint file:  "ANI1ccx_474_conf43_mol1.chk"
 Charge =  0 Multiplicity = 1

                         Standard orientation:
 ---------------------------------------------------------------------
 Center     Atomic      Atomic             Coordinates (Angstroms)
 Number     Number       Type             X           Y           Z
 ---------------------------------------------------------------------
      1          6           0        1.320951   -0.256711    0.137268
      2          6           0       -0.407602    1.222399    0.023035
      3          1           0        2.687850    0.511971   -0.890188
      4          7           0        0.733456    0.993827   -0.278367
      5          7           0       -1.900269   -0.597622   -0.752705
      6          7           0       -2.151929   -1.562511    0.003509
      7          8           0        2.514581   -0.439793   -0.477185
      8          8           0       -1.484600    1.533639    0.368973
      9          8           0        0.852926   -0.861591    0.998375
 ---------------------------------------------------------------------

 SCF Done:  E(RHF) =  -464.707058927     A.U. after    2 cycles

 The electronic state is 1-A.
 Alpha  occ. eigenvalues --  -20.64170 -20.63873 -20.57224 -15.67629 -15.67028
 Alpha  occ. eigenvalues --  -15.56189 -11.46517 -11.45794  -1.59119  -1.58036
 Alpha  occ. eigenvalues --   -1.51110  -1.38216  -1.33016  -0.95727  -0.87751
 Alpha  occ. eigenvalues --   -0.82061  -0.77213  -0.73980  -0.73288  -0.68820
 Alpha  occ. eigenvalues --   -0.68407  -0.65207  -0.62570  -0.61184  -0.60556
 Alpha  occ. eigenvalues --   -0.57128  -0.52874  -0.49722  -0.48784
 Alpha virt. eigenvalues --    0.02558   0.03163   0.03615   0.07043   0.08301
 Alpha virt. eigenvalues --    0.09137   0.09775   0.10312   0.10737   0.11271
 Alpha virt. eigenvalues --    0.11746   0.12564   0.14210   0.15754   0.17643

 Mulliken charges:
               1
     1  C    1.571439
     2  C    0.110508
     3  H    0.493107
     4  N    0.722313
     5  N   -0.065050
     6  N   -0.010427
     7  O   -1.149683
     8  O   -0.762208
     9  O   -0.909999
 Sum of Mulliken charges =  -0.00000

 Dipole moment (field-independent basis, Debye):
    X=              0.7743    Y=              1.7462    Z=             -1.6676  Tot=              2.5357

 Test job not archived.
 1\1\GINC-SE094\SP\RHF\Aug-CC-pVDZ\C2H1N3O3\OHZDE\08-Apr-2025\0\\#t hf
 aug-cc-pvdz iop(5/13=1,5/36=2,99/5=2) pseudo=read geom=check guess=(re
 ad,tcheck) scf=(maxcycle=1)\\title\\0,1\C,0,1.32095,-0.256711,0.137268
 \C,0,-0.407602,1.2224,0.0230347\H,0,2.68785,0.511971,-0.890188\N,0,0.7
 33456,0.993827,-0.278367\N,0,-1.90027,-0.597621,-0.752705\N,0,-2.15193
 ,-1.56251,0.00350939\O,0,2.51458,-0.439793,-0.477185\O,0,-1.4846,1.533
 64,0.368973\O,0,0.852925,-0.861591,0.998375\\Version=ES64L-G16RevC.01\
 State=1-A\HF=-464.7070589\RMSD=2.123e-02\Dipole=0.3046203,0.6870182,-0

 Normal termination of Gaussian 16 at Tue Apr  8 21:42:18 2025.
