 Gaussian 16, Revision C.01,

 ----------------------------------------------------------------------
 #t hf aug-cc-pvdz symm=none int=(grid=ultrafine) guess=(read,tcheck) s
 table=(opt,rrhf)
 ----------------------------------------------------------------------
 -----
 title
 -----
 Symbolic Z-matrix:
 Charge =  0 Multiplicity = 1

 SCF Done:  E(RHF) =  -276.591231016     A.U. after   15 cycles
 Normal termination of Gaussian 16 at Tue Apr  8 21:19:24 2025.
 Gaussian 16:  ES64L-G16RevC.01  3-Jul-2019

 ----------------------------------------------------------------------
 #t hf aug-cc-pvdz iop(5/13=1,5/36=2,99/5=2) pseudo=read geom=check gue
 ss=(read,tcheck) scf=(maxcycle=1)
 ----------------------------------------------------------------------
 -----
 title
 -----
 Structure from the checkpoint file:  "ANI1ccx_370_conf61_mol1.chk"
 Charge =  0 Multiplicity = 1

                         Standard orientation:
 ---------------------------------------------------------------------
 Center     Atomic      Atomic             Coordinates (Angstroms)
 Number     Number       Type             X           Y           Z
 ---------------------------------------------------------------------
      1          6           0       -1.056029   -0.130803    0.000318
      2          1           0       -2.150119   -0.269249    0.085425
      3          7           0       -0.513613    1.035861   -0.028751
      4          7           0        0.798108    0.773003    0.031904
      5          7           0        1.094451   -0.425539   -0.012885
      6          8           0       -0.145791   -1.078650   -0.002400
 ---------------------------------------------------------------------

 SCF Done:  E(RHF) =  -276.864720681     A.U. after    2 cycles

 The electronic state is 1-A.
 Alpha  occ. eigenvalues --  -20.68156 -15.65578 -15.61804 -15.56582 -11.39506
 Alpha  occ. eigenvalues --   -1.66288  -1.41156  -1.27677  -0.98087  -0.95018
 Alpha  occ. eigenvalues --   -0.80919  -0.76134  -0.69024  -0.64076  -0.56512
 Alpha  occ. eigenvalues --   -0.56142  -0.54844  -0.50412
 Alpha virt. eigenvalues --    0.02992   0.05097   0.07574   0.07836   0.09098
 Alpha virt. eigenvalues --    0.12800   0.13842   0.14201   0.15117   0.16063
 Alpha virt. eigenvalues --    0.17742   0.18880   0.19925   0.22381   0.22817

 Mulliken charges:
               1
     1  C    0.450145
     2  H    0.160026
     3  N    0.372369
     4  N   -0.976967
     5  N    1.226935
     6  O   -1.232508
 Sum of Mulliken charges =  -0.00000

 Dipole moment (field-independent basis, Debye):
    X=             -3.3652    Y=             -1.9030    Z=              0.0927  Tot=              3.8671

 Test job not archived.
 1\1\GINC-SE110\SP\RHF\Aug-CC-pVDZ\C1H1N3O1\OHZDE\08-Apr-2025\0\\#t hf
 aug-cc-pvdz iop(5/13=1,5/36=2,99/5=2) pseudo=read geom=check guess=(re
 ad,tcheck) scf=(maxcycle=1)\\title\\0,1\C,0,-1.05603,-0.130804,0.00031
 813\H,0,-2.15012,-0.269251,0.0854251\N,0,-0.513615,1.03586,-0.0287513\
 N,0,0.798107,0.773003,0.0319036\N,0,1.09445,-0.425539,-0.0128854\O,0,-
 0.145791,-1.07865,-0.00240027\\Version=ES64L-G16RevC.01\State=1-A\HF=-
 276.8647207\RMSD=4.505e-02\Dipole=-1.3239578,-0.7487167,0.0364654\Quad
 rupole=2.6847311,-3.1100468,0.4253157,1.3044145,-0.192732,0.0024291\PG

 Normal termination of Gaussian 16 at Tue Apr  8 21:19:26 2025.
