 Gaussian 16, Revision C.01,

 ----------------------------------------------------------------------
 #t hf aug-cc-pvdz symm=none int=(grid=ultrafine) guess=(read,tcheck) s
 table=(opt,rrhf)
 ----------------------------------------------------------------------
 -----
 title
 -----
 Symbolic Z-matrix:
 Charge =  0 Multiplicity = 1

 SCF Done:  E(RHF) =  -414.350788666     A.U. after   15 cycles
 Normal termination of Gaussian 16 at Tue Apr  8 21:36:44 2025.
 Gaussian 16:  ES64L-G16RevC.01  3-Jul-2019

 ----------------------------------------------------------------------
 #t hf aug-cc-pvdz iop(5/13=1,5/36=2,99/5=2) pseudo=read geom=check gue
 ss=(read,tcheck) scf=(maxcycle=1)
 ----------------------------------------------------------------------
 -----
 title
 -----
 Structure from the checkpoint file:  "ANI1ccx_410_conf11_mol1.chk"
 Charge =  0 Multiplicity = 1

                         Standard orientation:
 ---------------------------------------------------------------------
 Center     Atomic      Atomic             Coordinates (Angstroms)
 Number     Number       Type             X           Y           Z
 ---------------------------------------------------------------------
      1          6           0       -1.574729   -0.003840   -0.217948
      2          1           0        2.179160    1.130631    0.584317
      3          1           0        2.110492   -1.214979    0.980900
      4          1           0       -1.206020    1.800939    0.255237
      5          1           0       -0.757609    0.097952   -0.950947
      6          8           0        2.439550    0.670908   -0.236974
      7          8           0        1.359921   -0.153392   -0.542808
      8          8           0        1.249891   -0.911263    0.666900
      9          8           0       -1.916030    1.163699    0.403240
     10          8           0       -2.243039   -0.993889   -0.235585
 ---------------------------------------------------------------------

 SCF Done:  E(RHF) =  -414.752838524     A.U. after    2 cycles

 The electronic state is 1-A.
 Alpha  occ. eigenvalues --  -20.72089 -20.66075 -20.65042 -20.60877 -20.53976
 Alpha  occ. eigenvalues --  -11.39114  -1.71627  -1.53888  -1.47477  -1.45984
 Alpha  occ. eigenvalues --   -1.23807  -0.86101  -0.81137  -0.77926  -0.71392
 Alpha  occ. eigenvalues --   -0.70621  -0.67425  -0.66110  -0.62014  -0.58691
 Alpha  occ. eigenvalues --   -0.55839  -0.53920  -0.48692  -0.47714  -0.43993
 Alpha virt. eigenvalues --    0.02141   0.03694   0.05182   0.06160   0.10475
 Alpha virt. eigenvalues --    0.11730   0.12944   0.13814   0.14773   0.15657
 Alpha virt. eigenvalues --    0.16515   0.18257   0.18616   0.20102   0.21541

 Mulliken charges:
               1
     1  C    1.508782
     2  H    0.407487
     3  H    0.478952
     4  H    0.404128
     5  H    0.110618
     6  O   -0.470241
     7  O    0.213657
     8  O   -0.614811
     9  O   -1.039932
    10  O   -0.998640
 Sum of Mulliken charges =  -0.00000

 Dipole moment (field-independent basis, Debye):
    X=              4.6245    Y=              2.8813    Z=              1.2638  Tot=              5.5933

 Test job not archived.
 1\1\GINC-SE460\SP\RHF\Aug-CC-pVDZ\C1H4O5\OHZDE\08-Apr-2025\0\\#t hf au
 g-cc-pvdz iop(5/13=1,5/36=2,99/5=2) pseudo=read geom=check guess=(read
 ,tcheck) scf=(maxcycle=1)\\title\\0,1\C,0,-1.57473,-0.0038392,-0.21794
 8\H,0,2.17916,1.13063,0.584317\H,0,2.11049,-1.21498,0.9809\H,0,-1.2060
 2,1.80094,0.255237\H,0,-0.75761,0.0979527,-0.950947\O,0,2.43955,0.6709
 07,-0.236974\O,0,1.35992,-0.153393,-0.542808\O,0,1.24989,-0.911264,0.6
 669\O,0,-1.91603,1.1637,0.40324\O,0,-2.24304,-0.993888,-0.235585\\Vers
 ion=ES64L-G16RevC.01\State=1-A\HF=-414.7528385\RMSD=7.816e-03\Dipole=1

 Normal termination of Gaussian 16 at Tue Apr  8 21:36:47 2025.
