 Gaussian 16, Revision C.01,

 ----------------------------------------------------------------------
 #t hf aug-cc-pvdz symm=none int=(grid=ultrafine) guess=(read,tcheck) s
 table=(opt,rrhf)
 ----------------------------------------------------------------------
 -----
 title
 -----
 Symbolic Z-matrix:
 Charge =  0 Multiplicity = 1

 SCF Done:  E(RHF) =  -409.825793417     A.U. after   14 cycles
 Normal termination of Gaussian 16 at Tue Apr  8 21:52:22 2025.
 Gaussian 16:  ES64L-G16RevC.01  3-Jul-2019

 ----------------------------------------------------------------------
 #t hf aug-cc-pvdz iop(5/13=1,5/36=2,99/5=2) pseudo=read geom=check gue
 ss=(read,tcheck) scf=(maxcycle=1)
 ----------------------------------------------------------------------
 -----
 title
 -----
 Structure from the checkpoint file:  "ANI1ccx_727_conf2_mol1.chk"
 Charge =  0 Multiplicity = 1

                         Standard orientation:
 ---------------------------------------------------------------------
 Center     Atomic      Atomic             Coordinates (Angstroms)
 Number     Number       Type             X           Y           Z
 ---------------------------------------------------------------------
      1          6           0       -1.102129   -0.339857    0.041622
      2          6           0        1.203901   -0.521033   -0.029050
      3          6           0        0.194108    1.671172    0.180268
      4          1           0       -2.486655   -1.838736    0.106979
      5          1           0       -3.110899   -0.237297    0.176930
      6          1           0        2.310727    1.217637   -0.084052
      7          1           0        0.189916    1.846752    1.258440
      8          1           0        0.308868    2.664132   -0.255841
      9          1           0       -1.561163    1.256117   -1.015970
     10          7           0       -2.342578   -0.813970   -0.083381
     11          7           0       -0.028535   -1.064719    0.240883
     12          7           0        1.327118    0.870505   -0.102166
     13          7           0       -1.107883    1.010568   -0.128758
     14          8           0        2.204633   -1.223373   -0.103696
 ---------------------------------------------------------------------

 SCF Done:  E(RHF) =  -410.240517386     A.U. after    2 cycles

 The electronic state is 1-A.
 Alpha  occ. eigenvalues --  -20.47906 -15.55229 -15.54956 -15.51765 -15.47763
 Alpha  occ. eigenvalues --  -11.38615 -11.36257 -11.32814  -1.43388  -1.35088
 Alpha  occ. eigenvalues --   -1.25444  -1.20086  -1.18495  -0.97245  -0.91574
 Alpha  occ. eigenvalues --   -0.81818  -0.79981  -0.78034  -0.73433  -0.71098
 Alpha  occ. eigenvalues --   -0.66127  -0.65075  -0.60718  -0.59527  -0.55969
 Alpha  occ. eigenvalues --   -0.50284  -0.47314  -0.42527  -0.41563  -0.39604
 Alpha virt. eigenvalues --    0.01922   0.03333   0.03985   0.04679   0.05590
 Alpha virt. eigenvalues --    0.05842   0.09133   0.10077   0.10893   0.11283
 Alpha virt. eigenvalues --    0.11907   0.12209   0.13239   0.14330   0.14990

 Mulliken charges:
               1
     1  C   -1.944119
     2  C    0.469361
     3  C   -0.473545
     4  H    0.218690
     5  H    0.135918
     6  H    0.151009
     7  H    0.114376
     8  H   -0.021310
     9  H    0.265133
    10  N    0.636053
    11  N    0.783398
    12  N    0.424404
    13  N    0.544353
    14  O   -1.303721
 Sum of Mulliken charges =  -0.00000

 Dipole moment (field-independent basis, Debye):
    X=             -5.6421    Y=              5.0516    Z=             -0.2641  Tot=              7.5777

 Test job not archived.
 1\1\GINC-SE250\SP\RHF\Aug-CC-pVDZ\C3H6N4O1\OHZDE\08-Apr-2025\0\\#t hf
 aug-cc-pvdz iop(5/13=1,5/36=2,99/5=2) pseudo=read geom=check guess=(re
 ad,tcheck) scf=(maxcycle=1)\\title\\0,1\C,0,-1.10213,-0.339855,0.04162
 17\C,0,1.2039,-0.521037,-0.0290502\C,0,0.194113,1.67117,0.180268\H,0,-
 2.48666,-1.83873,0.106979\H,0,-3.1109,-0.23729,0.17693\H,0,2.31073,1.2
 1763,-0.0840522\H,0,0.189921,1.84675,1.25844\H,0,0.308875,2.66413,-0.2
 55841\H,0,-1.56116,1.25612,-1.01597\N,0,-2.34258,-0.813965,-0.0833811\
 N,0,-0.0285375,-1.06472,0.240883\N,0,1.32712,0.8705,-0.102166\N,0,-1.1

 Normal termination of Gaussian 16 at Tue Apr  8 21:52:28 2025.
