 Gaussian 16, Revision C.01,

 ----------------------------------------------------------------------
 #t hf aug-cc-pvdz symm=none int=(grid=ultrafine) guess=(read,tcheck) s
 table=(opt,rrhf)
 ----------------------------------------------------------------------
 -----
 title
 -----
 Symbolic Z-matrix:
 Charge =  0 Multiplicity = 1

 SCF Done:  E(RHF) =  -603.592174686     A.U. after   15 cycles
 Normal termination of Gaussian 16 at Tue Apr  8 22:19:08 2025.
 Gaussian 16:  ES64L-G16RevC.01  3-Jul-2019

 ----------------------------------------------------------------------
 #t hf aug-cc-pvdz iop(5/13=1,5/36=2,99/5=2) pseudo=read geom=check gue
 ss=(read,tcheck) scf=(maxcycle=1)
 ----------------------------------------------------------------------
 -----
 title
 -----
 Structure from the checkpoint file:  "ANI1ccx_999_conf13_mol2.chk"
 Charge =  0 Multiplicity = 1

                         Standard orientation:
 ---------------------------------------------------------------------
 Center     Atomic      Atomic             Coordinates (Angstroms)
 Number     Number       Type             X           Y           Z
 ---------------------------------------------------------------------
      1          6           0       -2.615020   -0.476037   -0.633213
      2          6           0       -1.343880   -0.288583    0.271198
      3          6           0        1.002480   -0.176270    0.471719
      4          6           0        1.409640    1.160839   -0.153329
      5          6           0        2.121159   -1.181711    0.545477
      6          1           0        0.876835    2.539669   -1.156160
      7          1           0        1.809479   -2.660161   -0.631692
      8          1           0        1.870259   -1.932261    1.320240
      9          1           0        3.018830   -0.610363    0.752849
     10          1           0        0.508779    0.038752    1.381780
     11          1           0       -2.843101   -1.550049   -0.790761
     12          1           0       -2.555550   -0.028609   -1.658050
     13          1           0       -4.026920   -0.403901    0.687719
     14          1           0       -3.618930    1.061941    0.330359
     15          1           0       -0.040056   -1.192500   -1.151540
     16          7           0       -3.818250    0.152624   -0.130758
     17          7           0       -0.146809   -0.779765   -0.219584
     18          8           0        2.263359   -1.818151   -0.711325
     19          8           0       -1.445380    0.193877    1.377690
     20          8           0        2.336580    1.808379    0.378685
     21          8           0        0.509130    1.678150   -1.000480
 ---------------------------------------------------------------------

 SCF Done:  E(RHF) =  -604.199864912     A.U. after    2 cycles

 The electronic state is 1-A.
 Alpha  occ. eigenvalues --  -20.62694 -20.57253 -20.55004 -20.53406 -15.53995
 Alpha  occ. eigenvalues --  -15.49395 -11.41318 -11.37603 -11.30640 -11.29359
 Alpha  occ. eigenvalues --  -11.28722  -1.57092  -1.49051  -1.47803  -1.44790
 Alpha  occ. eigenvalues --   -1.25395  -1.19549  -1.06095  -0.95058  -0.92150
 Alpha  occ. eigenvalues --   -0.84277  -0.83578  -0.75546  -0.73501  -0.72844
 Alpha  occ. eigenvalues --   -0.71596  -0.70075  -0.66022  -0.65212  -0.63602
 Alpha  occ. eigenvalues --   -0.62625  -0.60308  -0.59647  -0.58801  -0.58497
 Alpha  occ. eigenvalues --   -0.52621  -0.52361  -0.48377  -0.48146  -0.47675
 Alpha  occ. eigenvalues --   -0.46396  -0.43380  -0.42448
 Alpha virt. eigenvalues --    0.02524   0.03619   0.04240   0.04379   0.05494
 Alpha virt. eigenvalues --    0.05754   0.06077   0.06539   0.07065   0.08860
 Alpha virt. eigenvalues --    0.10186   0.11064   0.11820   0.12012   0.12472

 Mulliken charges:
               1
     1  C   -1.107369
     2  C    0.681741
     3  C   -1.469039
     4  C    2.643473
     5  C    0.892392
     6  H    0.351773
     7  H    0.242176
     8  H    0.205023
     9  H    0.039175
    10  H    0.102062
    11  H    0.205059
    12  H    0.176356
    13  H    0.227171
    14  H    0.183448
    15  H    0.138659
    16  N    0.300961
    17  N    1.222741
    18  O   -1.065384
    19  O   -1.371471
    20  O   -1.293167
    21  O   -1.305782
 Sum of Mulliken charges =  -0.00000

 Dipole moment (field-independent basis, Debye):
    X=             -0.3683    Y=             -2.5275    Z=             -1.4093  Tot=              2.9171

 Test job not archived.
 1\1\GINC-SE367\SP\RHF\Aug-CC-pVDZ\C5H10N2O4\OHZDE\08-Apr-2025\0\\#t hf
  aug-cc-pvdz iop(5/13=1,5/36=2,99/5=2) pseudo=read geom=check guess=(r
 ead,tcheck) scf=(maxcycle=1)\\title\\0,1\C,0,-2.61502,-0.476038,-0.633
 213\C,0,-1.34388,-0.288583,0.271198\C,0,1.00248,-0.176269,0.471719\C,0
 ,1.40964,1.16084,-0.153329\C,0,2.12116,-1.18171,0.545477\H,0,0.876834,
 2.53967,-1.15616\H,0,1.80948,-2.66016,-0.631692\H,0,1.87026,-1.93226,1
 .32024\H,0,3.01883,-0.610362,0.752849\H,0,0.508779,0.0387528,1.38178\H
 ,0,-2.8431,-1.55005,-0.790761\H,0,-2.55555,-0.0286095,-1.65805\H,0,-4.

 Normal termination of Gaussian 16 at Tue Apr  8 22:19:19 2025.
