 Gaussian 16, Revision C.01,

 ----------------------------------------------------------------------
 #t hf aug-cc-pvdz symm=none int=(grid=ultrafine) guess=(read,tcheck) s
 table=(opt,rrhf)
 ----------------------------------------------------------------------
 -----
 title
 -----
 Symbolic Z-matrix:
 Charge =  0 Multiplicity = 1

 SCF Done:  E(RHF) =  -577.538011954     A.U. after   15 cycles
 Normal termination of Gaussian 16 at Tue Apr  8 22:13:37 2025.
 Gaussian 16:  ES64L-G16RevC.01  3-Jul-2019

 ----------------------------------------------------------------------
 #t hf aug-cc-pvdz iop(5/13=1,5/36=2,99/5=2) pseudo=read geom=check gue
 ss=(read,tcheck) scf=(maxcycle=1)
 ----------------------------------------------------------------------
 -----
 title
 -----
 Structure from the checkpoint file:  "ANI1ccx_949_conf1_mol1.chk"
 Charge =  0 Multiplicity = 1

                         Standard orientation:
 ---------------------------------------------------------------------
 Center     Atomic      Atomic             Coordinates (Angstroms)
 Number     Number       Type             X           Y           Z
 ---------------------------------------------------------------------
      1          6           0        1.424159    0.757739    0.038112
      2          6           0        1.581140   -1.390140   -0.177547
      3          6           0       -1.493410   -1.013821    0.695689
      4          6           0       -2.189671   -0.105623   -0.323877
      5          1           0       -2.505921    1.781619   -0.582821
      6          1           0       -1.390180   -2.035761    0.321123
      7          1           0       -0.052988   -1.039580    2.116679
      8          1           0       -2.115600   -1.051961    1.591299
      9          1           0        1.463479    2.744800    0.352131
     10          1           0        0.029486    1.907120    0.863954
     11          1           0        1.410660   -2.454000   -0.069992
     12          7           0        0.818571    1.938370    0.236679
     13          7           0        2.513299    0.498191   -0.598197
     14          7           0        2.650770   -0.851601   -0.735391
     15          7           0        0.806158   -0.414808    0.370563
     16          7           0       -0.249208   -0.467866    1.284059
     17          8           0       -1.953411    1.219119   -0.002370
     18          8           0       -2.865260   -0.501265   -1.233961
 ---------------------------------------------------------------------

 SCF Done:  E(RHF) =  -578.116456009     A.U. after    2 cycles

 The electronic state is 1-A.
 Alpha  occ. eigenvalues --  -20.62421 -20.57286 -15.59306 -15.58778 -15.52248
 Alpha  occ. eigenvalues --  -15.51870 -15.48708 -11.42957 -11.33241 -11.32318
 Alpha  occ. eigenvalues --  -11.30110  -1.56022  -1.48200  -1.41550  -1.31013
 Alpha  occ. eigenvalues --   -1.24054  -1.16348  -1.08469  -1.02037  -0.91032
 Alpha  occ. eigenvalues --   -0.86999  -0.84263  -0.81018  -0.76059  -0.73950
 Alpha  occ. eigenvalues --   -0.73159  -0.71779  -0.69160  -0.67608  -0.65052
 Alpha  occ. eigenvalues --   -0.64676  -0.60788  -0.60289  -0.53894  -0.53349
 Alpha  occ. eigenvalues --   -0.51241  -0.50381  -0.47708  -0.46767  -0.45706
 Alpha  occ. eigenvalues --   -0.35463
 Alpha virt. eigenvalues --    0.01933   0.03169   0.03547   0.04160   0.04673
 Alpha virt. eigenvalues --    0.06288   0.07044   0.07604   0.09814   0.10719
 Alpha virt. eigenvalues --    0.10960   0.11768   0.12136   0.12915   0.13690

 Mulliken charges:
               1
     1  C   -1.570586
     2  C   -0.199353
     3  C   -0.819189
     4  C    2.172073
     5  H    0.447579
     6  H    0.097117
     7  H    0.248741
     8  H    0.173603
     9  H    0.258522
    10  H    0.262132
    11  H   -0.117227
    12  N    0.559369
    13  N    0.294845
    14  N    0.127585
    15  N    1.024486
    16  N   -0.352821
    17  O   -1.383425
    18  O   -1.223452
 Sum of Mulliken charges =   0.00000

 Dipole moment (field-independent basis, Debye):
    X=             -5.2173    Y=              0.0242    Z=              5.5938  Tot=              7.6493

 Test job not archived.
 1\1\GINC-SE367\SP\RHF\Aug-CC-pVDZ\C4H7N5O2\OHZDE\08-Apr-2025\0\\#t hf
 aug-cc-pvdz iop(5/13=1,5/36=2,99/5=2) pseudo=read geom=check guess=(re
 ad,tcheck) scf=(maxcycle=1)\\title\\0,1\C,0,1.42416,0.757739,0.0381123
 \C,0,1.58114,-1.39014,-0.177546\C,0,-1.49341,-1.01382,0.69569\C,0,-2.1
 8967,-0.105622,-0.323876\H,0,-2.50592,1.78162,-0.58282\H,0,-1.39018,-2
 .03576,0.321124\H,0,-0.0529873,-1.03958,2.11668\H,0,-2.1156,-1.05196,1
 .5913\H,0,1.46348,2.7448,0.352132\H,0,0.0294875,1.90712,0.863955\H,0,1
 .41066,-2.454,-0.0699911\N,0,0.818572,1.93837,0.23668\N,0,2.5133,0.498

 Normal termination of Gaussian 16 at Tue Apr  8 22:13:46 2025.
