 Gaussian 16, Revision C.01,

 ----------------------------------------------------------------------
 #t hf aug-cc-pvdz symm=none int=(grid=ultrafine) guess=(read,tcheck) s
 table=(opt,rrhf)
 ----------------------------------------------------------------------
 -----
 title
 -----
 Symbolic Z-matrix:
 Charge =  0 Multiplicity = 1

 SCF Done:  E(RHF) =  -371.956321435     A.U. after   14 cycles
 Normal termination of Gaussian 16 at Tue Apr  8 21:47:10 2025.
 Gaussian 16:  ES64L-G16RevC.01  3-Jul-2019

 ----------------------------------------------------------------------
 #t hf aug-cc-pvdz iop(5/13=1,5/36=2,99/5=2) pseudo=read geom=check gue
 ss=(read,tcheck) scf=(maxcycle=1)
 ----------------------------------------------------------------------
 -----
 title
 -----
 Structure from the checkpoint file:  "ANI1ccx_554_conf2_mol1.chk"
 Charge =  0 Multiplicity = 1

                         Standard orientation:
 ---------------------------------------------------------------------
 Center     Atomic      Atomic             Coordinates (Angstroms)
 Number     Number       Type             X           Y           Z
 ---------------------------------------------------------------------
      1          6           0       -1.252759   -0.160905    0.005559
      2          6           0        1.299331   -0.197122   -0.028157
      3          1           0       -2.269569    1.437530    0.292783
      4          1           0       -0.724667    1.603450    0.958666
      5          1           0       -3.242819   -0.362361    0.031931
      6          1           0       -0.092516   -1.771580    0.210004
      7          1           0        0.541314    1.671219   -0.550892
      8          1           0        2.276001    1.590629   -0.381373
      9          7           0       -1.268749    1.210120    0.245081
     10          7           0       -2.303009   -0.897240   -0.254322
     11          7           0        0.008527   -0.777023    0.004185
     12          7           0        1.376981    1.159279   -0.287222
     13          8           0        2.317071   -0.860835    0.202552
 ---------------------------------------------------------------------

 SCF Done:  E(RHF) =  -372.327983990     A.U. after    2 cycles

 The electronic state is 1-A.
 Alpha  occ. eigenvalues --  -20.51394 -15.55777 -15.55215 -15.53647 -15.49708
 Alpha  occ. eigenvalues --  -11.41322 -11.38822  -1.46027  -1.32446  -1.23702
 Alpha  occ. eigenvalues --   -1.21176  -1.15347  -0.91616  -0.86637  -0.80700
 Alpha  occ. eigenvalues --   -0.79469  -0.73403  -0.69176  -0.68580  -0.64805
 Alpha  occ. eigenvalues --   -0.62027  -0.59538  -0.50401  -0.48879  -0.45013
 Alpha  occ. eigenvalues --   -0.44624  -0.42045
 Alpha virt. eigenvalues --    0.01908   0.03799   0.04666   0.05504   0.06037
 Alpha virt. eigenvalues --    0.07568   0.10455   0.10746   0.11323   0.11942
 Alpha virt. eigenvalues --    0.12702   0.13228   0.14045   0.14233   0.15807

 Mulliken charges:
               1
     1  C   -1.757611
     2  C    0.299766
     3  H    0.270567
     4  H    0.109593
     5  H    0.228901
     6  H    0.312565
     7  H    0.076656
     8  H    0.145072
     9  N    0.137589
    10  N    0.624217
    11  N    0.338859
    12  N    0.456329
    13  O   -1.242503
 Sum of Mulliken charges =  -0.00000

 Dipole moment (field-independent basis, Debye):
    X=             -2.2238    Y=              5.0202    Z=              1.3081  Tot=              5.6444

 Test job not archived.
 1\1\GINC-SE232\SP\RHF\Aug-CC-pVDZ\C2H6N4O1\OHZDE\08-Apr-2025\0\\#t hf
 aug-cc-pvdz iop(5/13=1,5/36=2,99/5=2) pseudo=read geom=check guess=(re
 ad,tcheck) scf=(maxcycle=1)\\title\\0,1\C,0,-1.25276,-0.160905,0.00555
 951\C,0,1.29933,-0.197121,-0.0281574\H,0,-2.26957,1.43753,0.292783\H,0
 ,-0.724668,1.60345,0.958666\H,0,-3.24282,-0.362361,0.0319313\H,0,-0.09
 25166,-1.77158,0.210004\H,0,0.541313,1.67122,-0.550892\H,0,2.276,1.590
 63,-0.381373\N,0,-1.26875,1.21012,0.245081\N,0,-2.30301,-0.89724,-0.25
 4322\N,0,0.00852645,-0.777022,0.00418494\N,0,1.37698,1.15928,-0.287222

 Normal termination of Gaussian 16 at Tue Apr  8 21:47:15 2025.
