 Gaussian 16, Revision C.01,

 ----------------------------------------------------------------------
 #t hf aug-cc-pvdz symm=none int=(grid=ultrafine) guess=(read,tcheck) s
 table=(opt,rrhf)
 ----------------------------------------------------------------------
 -----
 title
 -----
 Symbolic Z-matrix:
 Charge =  0 Multiplicity = 1

 SCF Done:  E(RHF) =  -456.232005343     A.U. after   11 cycles
 Normal termination of Gaussian 16 at Tue Apr  8 21:07:40 2025.
 Gaussian 16:  ES64L-G16RevC.01  3-Jul-2019

 ----------------------------------------------------------------------
 #t hf aug-cc-pvdz iop(5/13=1,5/36=2,99/5=2) pseudo=read geom=check gue
 ss=(read,tcheck) scf=(maxcycle=1)
 ----------------------------------------------------------------------
 -----
 title
 -----
 Structure from the checkpoint file:  "ANI1ccx_1844_conf336_mol1.chk"
 Charge =  0 Multiplicity = 1

                         Standard orientation:
 ---------------------------------------------------------------------
 Center     Atomic      Atomic             Coordinates (Angstroms)
 Number     Number       Type             X           Y           Z
 ---------------------------------------------------------------------
      1          1           0       -2.302019   -0.449503    0.002476
      2          1           0       -0.704454   -1.986346   -0.010797
      3          1           0        0.142241   -3.211754   -0.588155
      4          1           0        2.731319   -1.510037    0.651385
      5          1           0        1.485105   -1.725852   -0.119979
      6          1           0       -0.487962    3.329269    0.543785
      7          1           0       -2.679097   -1.821555    0.792520
      8          1           0        0.893659    2.394921    0.054858
      9          1           0        2.733634    1.653333   -0.592509
     10          1           0        2.263657    0.305352   -0.002748
     11          1           0       -1.405197    1.561528   -0.165649
     12          1           0       -2.983727    1.560451   -0.588954
     13          8           0        2.336165   -1.226759   -0.196150
     14          8           0        2.293358    1.329692    0.221345
     15          8           0        0.152633   -2.448874    0.105737
     16          8           0       -0.135734    2.644352   -0.138855
     17          8           0       -2.285270   -1.454834   -0.055644
     18          8           0       -2.322046    1.143947    0.066537
 ---------------------------------------------------------------------

 SCF Done:  E(RHF) =  -456.702878979     A.U. after    2 cycles

 The electronic state is 1-A.
 Alpha  occ. eigenvalues --  -20.55798 -20.55789 -20.55746 -20.54506 -20.54356
 Alpha  occ. eigenvalues --  -20.53595  -1.45077  -1.43031  -1.42216  -1.40347
 Alpha  occ. eigenvalues --   -1.40020  -1.38726  -0.72628  -0.70450  -0.69862
 Alpha  occ. eigenvalues --   -0.69383  -0.68226  -0.66998  -0.62090  -0.60143
 Alpha  occ. eigenvalues --   -0.58847  -0.55106  -0.54726  -0.52443  -0.49601
 Alpha  occ. eigenvalues --   -0.49427  -0.48221  -0.47996  -0.47452  -0.46984
 Alpha virt. eigenvalues --    0.03648   0.04023   0.04623   0.06067   0.06300
 Alpha virt. eigenvalues --    0.06434   0.09317   0.09394   0.09482   0.09956
 Alpha virt. eigenvalues --    0.12063   0.12176   0.15887   0.18721   0.19934

 Mulliken charges:
               1
     1  H    0.826191
     2  H    0.769602
     3  H    0.354651
     4  H    0.337084
     5  H    0.816724
     6  H    0.411537
     7  H    0.343810
     8  H    0.703845
     9  H    0.340725
    10  H    0.864716
    11  H    0.782211
    12  H    0.368367
    13  O   -1.160552
    14  O   -1.115550
    15  O   -1.147275
    16  O   -1.200489
    17  O   -1.136778
    18  O   -1.158821
 Sum of Mulliken charges =  -0.00000

 Dipole moment (field-independent basis, Debye):
    X=             -0.9650    Y=             -0.0781    Z=             -0.0004  Tot=              0.9681

 Test job not archived.
 1\1\GINC-SE366\SP\RHF\Aug-CC-pVDZ\H12O6\OHZDE\08-Apr-2025\0\\#t hf aug
 -cc-pvdz iop(5/13=1,5/36=2,99/5=2) pseudo=read geom=check guess=(read,
 tcheck) scf=(maxcycle=1)\\title\\0,1\H,0,-2.30201,-0.44955,0.00247547\
 H,0,-0.704413,-1.98636,-0.0107966\H,0,0.142307,-3.21175,-0.588155\H,0,
 2.73135,-1.50998,0.651385\H,0,1.48514,-1.72582,-0.119979\H,0,-0.488031
 ,3.32926,0.543785\H,0,-2.67906,-1.82161,0.79252\H,0,0.893609,2.39494,0
 .0548581\H,0,2.7336,1.65339,-0.592509\H,0,2.26365,0.3054,-0.00274779\H
 ,0,-1.40523,1.5615,-0.165649\H,0,-2.98376,1.56039,-0.588954\O,0,2.3361

 Normal termination of Gaussian 16 at Tue Apr  8 21:07:44 2025.
