 Gaussian 16, Revision C.01,

 ----------------------------------------------------------------------
 #t hf aug-cc-pvdz symm=none int=(grid=ultrafine) guess=(read,tcheck) s
 table=(opt,rrhf)
 ----------------------------------------------------------------------
 -----
 title
 -----
 Symbolic Z-matrix:
 Charge =  0 Multiplicity = 1

 SCF Done:  E(RHF) =  -299.984115654     A.U. after   13 cycles
 Normal termination of Gaussian 16 at Tue Apr  8 21:38:45 2025.
 Gaussian 16:  ES64L-G16RevC.01  3-Jul-2019

 ----------------------------------------------------------------------
 #t hf aug-cc-pvdz iop(5/13=1,5/36=2,99/5=2) pseudo=read geom=check gue
 ss=(read,tcheck) scf=(maxcycle=1)
 ----------------------------------------------------------------------
 -----
 title
 -----
 Structure from the checkpoint file:  "ANI1ccx_426_conf2_mol1.chk"
 Charge =  0 Multiplicity = 1

                         Standard orientation:
 ---------------------------------------------------------------------
 Center     Atomic      Atomic             Coordinates (Angstroms)
 Number     Number       Type             X           Y           Z
 ---------------------------------------------------------------------
      1          6           0        1.594619    0.239189    0.376234
      2          1           0        2.650209   -1.351600   -0.008055
      3          1           0        2.178219    0.300773    1.305440
      4          1           0       -1.704381   -0.650978    1.160930
      5          1           0       -3.202921   -0.248628    0.620377
      6          1           0       -0.954189   -0.109057   -0.969678
      7          1           0       -1.546691    1.143051   -0.080486
      8          7           0       -2.297021   -0.636033    0.344285
      9          7           0       -1.794541    0.301225   -0.587992
     10          8           0        1.926639   -0.814320   -0.364539
     11          8           0        0.779983    1.042441    0.042041
 ---------------------------------------------------------------------

 SCF Done:  E(RHF) =  -300.291893979     A.U. after    2 cycles

 The electronic state is 1-A.
 Alpha  occ. eigenvalues --  -20.62948 -20.56323 -15.49342 -15.47849 -11.41975
 Alpha  occ. eigenvalues --   -1.57604  -1.48719  -1.24202  -0.99922  -0.89886
 Alpha  occ. eigenvalues --   -0.81585  -0.70752  -0.70179  -0.68174  -0.65196
 Alpha  occ. eigenvalues --   -0.62300  -0.60313  -0.50285  -0.47777  -0.45616
 Alpha  occ. eigenvalues --   -0.41521
 Alpha virt. eigenvalues --    0.01785   0.03920   0.04967   0.06610   0.07929
 Alpha virt. eigenvalues --    0.08725   0.09476   0.11619   0.12490   0.13910
 Alpha virt. eigenvalues --    0.16051   0.16273   0.17519   0.18505   0.19171

 Mulliken charges:
               1
     1  C    1.431130
     2  H    0.433820
     3  H    0.109590
     4  H    0.097765
     5  H    0.133426
     6  H    0.051704
     7  H    0.144266
     8  N   -0.277005
     9  N   -0.119134
    10  O   -1.005836
    11  O   -0.999726
 Sum of Mulliken charges =  -0.00000

 Dipole moment (field-independent basis, Debye):
    X=              4.8157    Y=             -0.9153    Z=              3.6588  Tot=              6.1168

 Test job not archived.
 1\1\GINC-SE094\SP\RHF\Aug-CC-pVDZ\C1H6N2O2\OHZDE\08-Apr-2025\0\\#t hf
 aug-cc-pvdz iop(5/13=1,5/36=2,99/5=2) pseudo=read geom=check guess=(re
 ad,tcheck) scf=(maxcycle=1)\\title\\0,1\C,0,1.59462,0.239188,0.376234\
 H,0,2.65021,-1.3516,-0.00805474\H,0,2.17822,0.300772,1.30544\H,0,-1.70
 438,-0.650979,1.16093\H,0,-3.20292,-0.248629,0.620377\H,0,-0.954188,-0
 .109058,-0.969678\H,0,-1.54669,1.14305,-0.0804862\N,0,-2.29702,-0.6360
 34,0.344285\N,0,-1.79454,0.301224,-0.587992\O,0,1.92664,-0.814321,-0.3
 64539\O,0,0.779984,1.04244,0.0420414\\Version=ES64L-G16RevC.01\State=1

 Normal termination of Gaussian 16 at Tue Apr  8 21:38:48 2025.
