 Gaussian 16, Revision C.01,

 ----------------------------------------------------------------------
 #t hf aug-cc-pvdz symm=none int=(grid=ultrafine) guess=(read,tcheck) s
 table=(opt,rrhf)
 ----------------------------------------------------------------------
 -----
 title
 -----
 Symbolic Z-matrix:
 Charge =  0 Multiplicity = 1

 SCF Done:  E(RHF) =  -217.908641371     A.U. after   13 cycles
 Normal termination of Gaussian 16 at Tue Apr  8 21:13:19 2025.
 Gaussian 16:  ES64L-G16RevC.01  3-Jul-2019

 ----------------------------------------------------------------------
 #t hf aug-cc-pvdz iop(5/13=1,5/36=2,99/5=2) pseudo=read geom=check gue
 ss=(read,tcheck) scf=(maxcycle=1)
 ----------------------------------------------------------------------
 -----
 title
 -----
 Structure from the checkpoint file:  "ANI1ccx_1908_conf19_mol1.chk"
 Charge =  0 Multiplicity = 1

                         Standard orientation:
 ---------------------------------------------------------------------
 Center     Atomic      Atomic             Coordinates (Angstroms)
 Number     Number       Type             X           Y           Z
 ---------------------------------------------------------------------
      1          7           0       -2.118327    0.014655   -0.027265
      2          7           0       -1.032068   -0.097518    0.037970
      3          7           0        1.381273    0.557419   -0.000947
      4          7           0        1.769122   -0.474556   -0.009757
 ---------------------------------------------------------------------

 SCF Done:  E(RHF) =  -218.110263566     A.U. after    2 cycles

 The electronic state is 1-A.
 Alpha  occ. eigenvalues --  -15.62288 -15.61834 -15.61785 -15.61568  -1.50169
 Alpha  occ. eigenvalues --   -1.48675  -0.83468  -0.81433  -0.71154  -0.68118
 Alpha  occ. eigenvalues --   -0.67749  -0.67443  -0.66388  -0.64377
 Alpha virt. eigenvalues --    0.07553   0.08853   0.09822   0.10181   0.11232
 Alpha virt. eigenvalues --    0.11321   0.13031   0.15492   0.16006   0.17285
 Alpha virt. eigenvalues --    0.18529   0.20131   0.21835   0.23315   0.24415

 Mulliken charges:
               1
     1  N   -0.284174
     2  N    0.317871
     3  N   -0.084193
     4  N    0.050496
 Sum of Mulliken charges =  -0.00000

 Dipole moment (field-independent basis, Debye):
    X=             -0.0900    Y=              0.0129    Z=              0.0060  Tot=              0.0911

 Test job not archived.
 1\1\GINC-SE457\SP\RHF\Aug-CC-pVDZ\N4\OHZDE\08-Apr-2025\0\\#t hf aug-cc
 -pvdz iop(5/13=1,5/36=2,99/5=2) pseudo=read geom=check guess=(read,tch
 eck) scf=(maxcycle=1)\\title\\0,1\N,0,-2.11833,0.014655,-0.0272655\N,0
 ,-1.03207,-0.0975184,0.0379698\N,0,1.38127,0.557419,-0.00094719\N,0,1.
 76912,-0.474556,-0.00975715\\Version=ES64L-G16RevC.01\State=1-A\HF=-21
 8.1102636\RMSD=8.055e-02\Dipole=-0.0354006,0.005092,0.0023704\Quadrupo
 le=-0.4248252,-0.0590349,0.4838601,0.2627834,-0.0287392,-0.0005197\PG=
 C01 [X(N4)]\\@

 Normal termination of Gaussian 16 at Tue Apr  8 21:13:20 2025.
