 Gaussian 16, Revision C.01,

 ----------------------------------------------------------------------
 #t hf aug-cc-pvdz symm=none int=(grid=ultrafine) guess=(read,tcheck) s
 table=(opt,rrhf)
 ----------------------------------------------------------------------
 -----
 title
 -----
 Symbolic Z-matrix:
 Charge =  0 Multiplicity = 1

 SCF Done:  E(RHF) =  -636.070294585     A.U. after   16 cycles
 Normal termination of Gaussian 16 at Tue Apr  8 19:50:05 2025.
 Gaussian 16:  ES64L-G16RevC.01  3-Jul-2019

 ----------------------------------------------------------------------
 #t hf aug-cc-pvdz iop(5/13=1,5/36=2,99/5=2) pseudo=read geom=check gue
 ss=(read,tcheck) scf=(maxcycle=1)
 ----------------------------------------------------------------------
 -----
 title
 -----
 Structure from the checkpoint file:  "ANI1ccx_1499_conf4_mol1.chk"
 Charge =  0 Multiplicity = 1

                         Standard orientation:
 ---------------------------------------------------------------------
 Center     Atomic      Atomic             Coordinates (Angstroms)
 Number     Number       Type             X           Y           Z
 ---------------------------------------------------------------------
      1          6           0        0.359426    0.468886   -0.009936
      2          6           0       -2.692130   -0.227962   -1.070910
      3          6           0       -2.703470   -0.195034    1.086790
      4          6           0        1.807320    0.091218   -0.008126
      5          6           0        2.438230   -1.204700    0.017410
      6          6           0        3.782560   -0.962801    0.007928
      7          6           0        2.780760    1.014210    0.008362
      8          1           0        2.723600    2.086500   -0.120457
      9          1           0        4.689140   -1.564820    0.002342
     10          1           0        1.970510   -2.152160   -0.212339
     11          1           0       -2.378690   -0.422373    2.103080
     12          1           0       -2.295800   -0.333096   -2.074090
     13          1           0       -0.097472   -1.531980   -0.054717
     14          7           0       -0.492631   -0.584479   -0.022357
     15          7           0       -1.888110   -0.445654    0.010002
     16          7           0       -3.903420    0.059695   -0.692578
     17          7           0       -3.934030    0.063515    0.708242
     18          8           0        0.002598    1.638580   -0.027658
     19          8           0        4.032390    0.406855    0.045645
 ---------------------------------------------------------------------

 SCF Done:  E(RHF) =  -636.697961049     A.U. after    2 cycles

 The electronic state is 1-A.
 Alpha  occ. eigenvalues --  -20.64564 -20.54012 -15.62266 -15.61493 -15.53622
 Alpha  occ. eigenvalues --  -15.52882 -11.40268 -11.34091 -11.34007 -11.32505
 Alpha  occ. eigenvalues --  -11.32102 -11.28372 -11.27816  -1.55822  -1.48925
 Alpha  occ. eigenvalues --   -1.41688  -1.32356  -1.19524  -1.13646  -1.12409
 Alpha  occ. eigenvalues --   -1.04530  -0.96015  -0.90727  -0.86941  -0.85945
 Alpha  occ. eigenvalues --   -0.83770  -0.81129  -0.78730  -0.71077  -0.69665
 Alpha  occ. eigenvalues --   -0.67549  -0.66081  -0.65575  -0.64286  -0.63889
 Alpha  occ. eigenvalues --   -0.62153  -0.60778  -0.58606  -0.54108  -0.50739
 Alpha  occ. eigenvalues --   -0.48993  -0.47157  -0.46128  -0.43992  -0.40675
 Alpha  occ. eigenvalues --   -0.36626
 Alpha virt. eigenvalues --    0.01648   0.02752   0.03741   0.04391   0.04573
 Alpha virt. eigenvalues --    0.06051   0.06452   0.07916   0.08145   0.08944
 Alpha virt. eigenvalues --    0.09321   0.09664   0.10267   0.10782   0.11300

 Mulliken charges:
               1
     1  C   -0.193550
     2  C   -0.343012
     3  C   -0.326882
     4  C    1.523289
     5  C    0.100464
     6  C    0.940691
     7  C    0.464912
     8  H   -0.197684
     9  H   -0.113197
    10  H   -0.314862
    11  H   -0.067720
    12  H   -0.081280
    13  H    0.191453
    14  N    0.035756
    15  N    1.116443
    16  N    0.118827
    17  N    0.089694
    18  O   -1.352263
    19  O   -1.591077
 Sum of Mulliken charges =  -0.00000

 Dipole moment (field-independent basis, Debye):
    X=              7.3781    Y=             -4.6593    Z=             -0.3052  Tot=              8.7315

 Test job not archived.
 1\1\GINC-SE364\SP\RHF\Aug-CC-pVDZ\C7H6N4O2\OHZDE\08-Apr-2025\0\\#t hf
 aug-cc-pvdz iop(5/13=1,5/36=2,99/5=2) pseudo=read geom=check guess=(re
 ad,tcheck) scf=(maxcycle=1)\\title\\0,1\C,0,0.359426,0.468886,-0.00993
 643\C,0,-2.69213,-0.227962,-1.07091\C,0,-2.70347,-0.195034,1.08679\C,0
 ,1.80732,0.0912184,-0.00812599\C,0,2.43823,-1.2047,0.0174098\C,0,3.782
 56,-0.962801,0.00792746\C,0,2.78076,1.01421,0.00836195\H,0,2.7236,2.08
 65,-0.120457\H,0,4.68914,-1.56482,0.00234163\H,0,1.97051,-2.15216,-0.2
 12339\H,0,-2.37869,-0.422373,2.10308\H,0,-2.2958,-0.333096,-2.07409\H,

 Normal termination of Gaussian 16 at Tue Apr  8 19:50:19 2025.
