 Gaussian 16, Revision C.01,

 ----------------------------------------------------------------------
 #t hf aug-cc-pvdz symm=none int=(grid=ultrafine) guess=(read,tcheck) s
 table=(opt,rrhf)
 ----------------------------------------------------------------------
 -----
 title
 -----
 Symbolic Z-matrix:
 Charge =  0 Multiplicity = 1

 SCF Done:  E(RHF) =  -603.563639932     A.U. after   15 cycles
 Normal termination of Gaussian 16 at Tue Apr  8 22:19:27 2025.
 Gaussian 16:  ES64L-G16RevC.01  3-Jul-2019

 ----------------------------------------------------------------------
 #t hf aug-cc-pvdz iop(5/13=1,5/36=2,99/5=2) pseudo=read geom=check gue
 ss=(read,tcheck) scf=(maxcycle=1)
 ----------------------------------------------------------------------
 -----
 title
 -----
 Structure from the checkpoint file:  "ANI1ccx_999_conf12_mol1.chk"
 Charge =  0 Multiplicity = 1

                         Standard orientation:
 ---------------------------------------------------------------------
 Center     Atomic      Atomic             Coordinates (Angstroms)
 Number     Number       Type             X           Y           Z
 ---------------------------------------------------------------------
      1          6           0        1.397920   -0.577398    1.072150
      2          6           0        0.759189   -1.384901   -0.035096
      3          6           0       -1.023569    0.340734   -0.525386
      4          6           0       -0.204705    1.668810   -0.240753
      5          6           0       -1.931229   -0.056441    0.659975
      6          1           0        0.812460    1.003268   -1.640740
      7          1           0       -2.824322   -1.882655    0.694319
      8          1           0       -1.339140   -0.511491    1.419310
      9          1           0       -2.535718    0.806430    0.952930
     10          1           0       -1.549828    0.606748   -1.414540
     11          1           0        0.639926    0.065167    1.598030
     12          1           0        1.838728   -1.374933    1.731630
     13          1           0        2.011813    0.974102    0.013451
     14          1           0        3.036500   -0.287031   -0.111217
     15          1           0       -0.456279   -1.324009   -1.607100
     16          7           0        2.520991    0.286198    0.580290
     17          7           0       -0.140592   -0.723586   -0.831157
     18          8           0       -2.848051   -1.116975    0.123416
     19          8           0        1.173996   -2.494002   -0.433763
     20          8           0       -0.350127    2.439861    0.675751
     21          8           0        0.738860    1.801279   -1.048570
 ---------------------------------------------------------------------

 SCF Done:  E(RHF) =  -604.169589510     A.U. after    2 cycles

 The electronic state is 1-A.
 Alpha  occ. eigenvalues --  -20.63919 -20.57310 -20.55094 -20.53893 -15.56253
 Alpha  occ. eigenvalues --  -15.51501 -11.41446 -11.38635 -11.33182 -11.32762
 Alpha  occ. eigenvalues --  -11.29958  -1.62353  -1.47737  -1.46786  -1.45147
 Alpha  occ. eigenvalues --   -1.29045  -1.20029  -1.07230  -0.98958  -0.93828
 Alpha  occ. eigenvalues --   -0.89210  -0.84474  -0.78745  -0.76371  -0.73425
 Alpha  occ. eigenvalues --   -0.71443  -0.69985  -0.68898  -0.66956  -0.65079
 Alpha  occ. eigenvalues --   -0.63262  -0.62606  -0.60805  -0.58420  -0.57083
 Alpha  occ. eigenvalues --   -0.55513  -0.53214  -0.50113  -0.48799  -0.48038
 Alpha  occ. eigenvalues --   -0.47241  -0.43705  -0.43331
 Alpha virt. eigenvalues --    0.02301   0.03212   0.04040   0.04634   0.05076
 Alpha virt. eigenvalues --    0.05644   0.05863   0.07392   0.07733   0.08954
 Alpha virt. eigenvalues --    0.09841   0.10104   0.10931   0.11712   0.12711

 Mulliken charges:
               1
     1  C   -0.836925
     2  C    0.732947
     3  C   -1.455398
     4  C    2.550427
     5  C    1.174472
     6  H    0.645025
     7  H    0.317157
     8  H    0.043138
     9  H    0.128942
    10  H    0.098324
    11  H    0.267962
    12  H    0.108508
    13  H    0.044325
    14  H    0.248817
    15  H    0.454907
    16  N    0.335917
    17  N    0.637673
    18  O   -1.173501
    19  O   -1.390950
    20  O   -1.383305
    21  O   -1.548462
 Sum of Mulliken charges =  -0.00000

 Dipole moment (field-independent basis, Debye):
    X=             -2.1202    Y=             -1.0618    Z=             -1.8958  Tot=              3.0359

 Test job not archived.
 1\1\GINC-SE221\SP\RHF\Aug-CC-pVDZ\C5H10N2O4\OHZDE\08-Apr-2025\0\\#t hf
  aug-cc-pvdz iop(5/13=1,5/36=2,99/5=2) pseudo=read geom=check guess=(r
 ead,tcheck) scf=(maxcycle=1)\\title\\0,1\C,0,1.39792,-0.577395,1.07215
 \C,0,0.759191,-1.3849,-0.035096\C,0,-1.02357,0.340732,-0.525386\C,0,-0
 .204709,1.66881,-0.240753\C,0,-1.93123,-0.0564446,0.659975\H,0,0.81245
 7,1.00327,-1.64074\H,0,-2.82432,-1.88266,0.694319\H,0,-1.33914,-0.5114
 93,1.41931\H,0,-2.53572,0.806426,0.95293\H,0,-1.54983,0.606745,-1.4145
 4\H,0,0.639925,0.0651678,1.59803\H,0,1.83873,-1.37493,1.73163\H,0,2.01

 Normal termination of Gaussian 16 at Tue Apr  8 22:19:41 2025.
