 Gaussian 16, Revision C.01,

 ----------------------------------------------------------------------
 #t hf aug-cc-pvdz symm=none int=(grid=ultrafine) guess=(read,tcheck) s
 table=(opt,rrhf)
 ----------------------------------------------------------------------
 -----
 title
 -----
 Symbolic Z-matrix:
 Charge =  0 Multiplicity = 1

 SCF Done:  E(RHF) =  -298.814280860     A.U. after   14 cycles
 Normal termination of Gaussian 16 at Tue Apr  8 21:36:32 2025.
 Gaussian 16:  ES64L-G16RevC.01  3-Jul-2019

 ----------------------------------------------------------------------
 #t hf aug-cc-pvdz iop(5/13=1,5/36=2,99/5=2) pseudo=read geom=check gue
 ss=(read,tcheck) scf=(maxcycle=1)
 ----------------------------------------------------------------------
 -----
 title
 -----
 Structure from the checkpoint file:  "ANI1ccx_398_conf31_mol1.chk"
 Charge =  0 Multiplicity = 1

                         Standard orientation:
 ---------------------------------------------------------------------
 Center     Atomic      Atomic             Coordinates (Angstroms)
 Number     Number       Type             X           Y           Z
 ---------------------------------------------------------------------
      1          6           0       -0.468205    0.130533    0.034464
      2          1           0       -1.732581   -1.356961   -0.414908
      3          1           0       -2.564321    0.106410   -0.286092
      4          1           0        0.688045   -1.460890    0.820771
      5          1           0        1.562458    0.805537    0.294873
      6          7           0       -1.758741   -0.428251    0.027725
      7          7           0        0.601745   -0.798064   -0.003703
      8          8           0       -0.227963    1.313520    0.034070
      9          8           0        1.847289   -0.100156   -0.132768
 ---------------------------------------------------------------------

 SCF Done:  E(RHF) =  -299.110328948     A.U. after    2 cycles

 The electronic state is 1-A.
 Alpha  occ. eigenvalues --  -20.59282 -20.54227 -15.58627 -15.55011 -11.41298
 Alpha  occ. eigenvalues --   -1.52070  -1.46069  -1.24227  -1.13566  -0.86040
 Alpha  occ. eigenvalues --   -0.79593  -0.74932  -0.71529  -0.66115  -0.62298
 Alpha  occ. eigenvalues --   -0.58863  -0.53353  -0.48364  -0.47161  -0.44645
 Alpha virt. eigenvalues --    0.02472   0.04710   0.05761   0.06522   0.10331
 Alpha virt. eigenvalues --    0.11510   0.11935   0.13854   0.14807   0.15514
 Alpha virt. eigenvalues --    0.16519   0.17030   0.17445   0.19081   0.20730

 Mulliken charges:
               1
     1  C   -0.027912
     2  H    0.162228
     3  H    0.149797
     4  H    0.228932
     5  H    0.420893
     6  N    0.394536
     7  N    0.877490
     8  O   -1.067936
     9  O   -1.138027
 Sum of Mulliken charges =  -0.00000

 Dipole moment (field-independent basis, Debye):
    X=             -2.4101    Y=             -1.9546    Z=              0.7597  Tot=              3.1947

 Test job not archived.
 1\1\GINC-SE016\SP\RHF\Aug-CC-pVDZ\C1H4N2O2\OHZDE\08-Apr-2025\0\\#t hf
 aug-cc-pvdz iop(5/13=1,5/36=2,99/5=2) pseudo=read geom=check guess=(re
 ad,tcheck) scf=(maxcycle=1)\\title\\0,1\C,0,-0.468204,0.130533,0.03446
 36\H,0,-1.73258,-1.35696,-0.414908\H,0,-2.56432,0.106411,-0.286092\H,0
 ,0.688046,-1.46089,0.820771\H,0,1.56246,0.805537,0.294873\N,0,-1.75874
 ,-0.42825,0.0277251\N,0,0.601746,-0.798064,-0.00370283\O,0,-0.227961,1
 .31352,0.0340698\O,0,1.84729,-0.100156,-0.132768\\Version=ES64L-G16Rev
 C.01\State=1-A\HF=-299.1103289\RMSD=1.493e-02\Dipole=-0.9481966,-0.768

 Normal termination of Gaussian 16 at Tue Apr  8 21:36:35 2025.
