 Gaussian 16, Revision C.01,

 ----------------------------------------------------------------------
 #t hf aug-cc-pvdz symm=none int=(grid=ultrafine) guess=(read,tcheck) s
 table=(opt,rrhf)
 ----------------------------------------------------------------------
 -----
 title
 -----
 Symbolic Z-matrix:
 Charge =  0 Multiplicity = 1

 SCF Done:  E(RHF) =  -872.200442862     A.U. after   16 cycles
 Normal termination of Gaussian 16 at Tue Apr  8 21:29:16 2025.
 Gaussian 16:  ES64L-G16RevC.01  3-Jul-2019

 ----------------------------------------------------------------------
 #t hf aug-cc-pvdz iop(5/13=1,5/36=2,99/5=2) pseudo=read geom=check gue
 ss=(read,tcheck) scf=(maxcycle=1)
 ----------------------------------------------------------------------
 -----
 title
 -----
 Structure from the checkpoint file:  "ANI1ccx_252_conf6_mol2.chk"
 Charge =  0 Multiplicity = 1

                         Standard orientation:
 ---------------------------------------------------------------------
 Center     Atomic      Atomic             Coordinates (Angstroms)
 Number     Number       Type             X           Y           Z
 ---------------------------------------------------------------------
      1          6           0        2.682679   -1.454690   -0.174324
      2          6           0       -3.911011   -1.206490    0.577724
      3          6           0       -2.982361   -0.553837    1.447300
      4          6           0       -2.047621    0.323354    0.960817
      5          6           0       -2.819501   -0.158821   -1.299160
      6          6           0       -1.942201    0.526919   -0.411198
      7          6           0       -3.827801   -1.005070   -0.808775
      8          6           0        0.742902    1.993540    0.555312
      9          6           0        0.380068    1.382440   -0.800240
     10          6           0        1.766300   -2.637970   -0.307736
     11          6           0        2.138669   -0.223456   -0.897104
     12          6           0       -1.130551    1.596660   -0.997036
     13          1           0       -1.230021    1.576400   -2.066430
     14          1           0        0.914166    3.514250    1.488830
     15          1           0       -4.600631   -1.839300    1.057190
     16          1           0       -3.068841   -0.714780    2.522060
     17          1           0       -4.550961   -1.538860   -1.466280
     18          1           0       -1.347091    0.824928    1.622670
     19          1           0       -2.734761   -0.100453   -2.360220
     20          1           0       -1.432661    2.592730   -0.629527
     21          1           0        1.525480   -2.734530   -1.374120
     22          1           0        0.378935   -0.577720   -0.063730
     23          1           0        0.996329   -2.031900    1.246340
     24          1           0        2.368070   -3.545670    0.028641
     25          1           0        3.677249   -1.636940   -0.643335
     26          1           0        3.658929   -1.417520    1.660560
     27          1           0        2.651879   -0.131985    1.536450
     28          1           0        0.967927    1.922420   -1.521940
     29          7           0        2.763489   -1.133890    1.307490
     30          7           0        0.771039   -0.036749   -0.829190
     31          8           0        1.312379    1.453900    1.482130
     32          8           0        2.864309    0.555217   -1.480730
     33          8           0        0.593705   -2.491940    0.464894
     34          8           0        0.577963    3.300060    0.601365
 ---------------------------------------------------------------------

 SCF Done:  E(RHF) =  -873.081450319     A.U. after    2 cycles

 The electronic state is 1-A.
 Alpha  occ. eigenvalues --  -20.61846 -20.55269 -20.54653 -20.52121 -15.52318
 Alpha  occ. eigenvalues --  -15.50549 -11.40633 -11.35795 -11.30270 -11.29056
 Alpha  occ. eigenvalues --  -11.28700 -11.25356 -11.25336 -11.25234 -11.24824
 Alpha  occ. eigenvalues --  -11.24635 -11.24465 -11.24271  -1.58532  -1.47249
 Alpha  occ. eigenvalues --   -1.46499  -1.45227  -1.25212  -1.18782  -1.16185
 Alpha  occ. eigenvalues --   -1.08942  -1.02808  -1.02195  -1.00463  -0.92561
 Alpha  occ. eigenvalues --   -0.88025  -0.84170  -0.83446  -0.81498  -0.80454
 Alpha  occ. eigenvalues --   -0.75803  -0.73254  -0.72616  -0.71355  -0.70658
 Alpha  occ. eigenvalues --   -0.68058  -0.67441  -0.65403  -0.65102  -0.64345
 Alpha  occ. eigenvalues --   -0.63909  -0.62389  -0.61042  -0.60384  -0.59886
 Alpha  occ. eigenvalues --   -0.58484  -0.57775  -0.56607  -0.56025  -0.53661
 Alpha  occ. eigenvalues --   -0.51418  -0.50635  -0.50071  -0.49764  -0.48770
 Alpha  occ. eigenvalues --   -0.46890  -0.46194  -0.45249  -0.43787  -0.40961
 Alpha  occ. eigenvalues --   -0.35345  -0.33363
 Alpha virt. eigenvalues --    0.03021   0.03420   0.03446   0.03686   0.04359
 Alpha virt. eigenvalues --    0.04672   0.04970   0.05170   0.05575   0.06831
 Alpha virt. eigenvalues --    0.07449   0.08042   0.08776   0.08972   0.09275

 Mulliken charges:
               1
     1  C   -1.516890
     2  C    0.284265
     3  C   -0.187845
     4  C    0.678737
     5  C    0.322028
     6  C    1.285476
     7  C   -0.099755
     8  C    3.166237
     9  C   -2.545296
    10  C    0.887653
    11  C    1.155862
    12  C   -0.374501
    13  H    0.085915
    14  H    0.304796
    15  H   -0.312135
    16  H   -0.303641
    17  H   -0.186860
    18  H   -0.389112
    19  H   -0.419241
    20  H    0.154763
    21  H    0.231109
    22  H    0.231412
    23  H    0.509004
    24  H    0.144350
    25  H    0.096167
    26  H    0.277020
    27  H    0.133753
    28  H   -0.009297
    29  N    0.551063
    30  N    1.571100
    31  O   -1.543960
    32  O   -1.501665
    33  O   -1.271837
    34  O   -1.408673
 Sum of Mulliken charges =  -0.00000

 Dipole moment (field-independent basis, Debye):
    X=             -0.5453    Y=              0.7595    Z=              1.1313  Tot=              1.4677

 Test job not archived.
 1\1\GINC-SE250\SP\RHF\Aug-CC-pVDZ\C12H16N2O4\OHZDE\08-Apr-2025\0\\#t h
 f aug-cc-pvdz iop(5/13=1,5/36=2,99/5=2) pseudo=read geom=check guess=(
 read,tcheck) scf=(maxcycle=1)\\title\\0,1\C,0,2.68268,-1.45469,-0.1743
 24\C,0,-3.91101,-1.20649,0.577724\C,0,-2.98236,-0.553837,1.4473\C,0,-2
 .04762,0.323354,0.960817\C,0,-2.8195,-0.158821,-1.29916\C,0,-1.9422,0.
 526919,-0.411198\C,0,-3.8278,-1.00507,-0.808775\C,0,0.742903,1.99354,0
 .555312\C,0,0.380069,1.38244,-0.80024\C,0,1.7663,-2.63797,-0.307736\C,
 0,2.13867,-0.223456,-0.897104\C,0,-1.13055,1.59666,-0.997036\H,0,-1.23

 Normal termination of Gaussian 16 at Tue Apr  8 21:30:12 2025.
