 Gaussian 16, Revision C.01,

 ----------------------------------------------------------------------
 #t hf aug-cc-pvdz symm=none int=(grid=ultrafine) guess=(read,tcheck) s
 table=(opt,rrhf)
 ----------------------------------------------------------------------
 -----
 title
 -----
 Symbolic Z-matrix:
 Charge =  0 Multiplicity = 1

 SCF Done:  E(RHF) =  -396.766117683     A.U. after   14 cycles
 Normal termination of Gaussian 16 at Tue Apr  8 21:52:58 2025.
 Gaussian 16:  ES64L-G16RevC.01  3-Jul-2019

 ----------------------------------------------------------------------
 #t hf aug-cc-pvdz iop(5/13=1,5/36=2,99/5=2) pseudo=read geom=check gue
 ss=(read,tcheck) scf=(maxcycle=1)
 ----------------------------------------------------------------------
 -----
 title
 -----
 Structure from the checkpoint file:  "ANI1ccx_744_conf18_mol1.chk"
 Charge =  0 Multiplicity = 1

                         Standard orientation:
 ---------------------------------------------------------------------
 Center     Atomic      Atomic             Coordinates (Angstroms)
 Number     Number       Type             X           Y           Z
 ---------------------------------------------------------------------
      1          6           0        0.198754    0.750881   -0.393408
      2          6           0       -1.141980   -0.078237   -0.071207
      3          6           0        1.250190   -0.184079   -0.923978
      4          1           0        0.961454    0.830398    1.505300
      5          1           0        0.159707    2.200180    1.137780
      6          1           0       -0.084452    1.508130   -1.197070
      7          1           0        0.862746   -0.796899   -1.732160
      8          1           0        2.220060    0.316388   -1.154390
      9          1           0        2.144220   -1.708119   -0.073768
     10          1           0       -0.100148   -0.938920    1.170040
     11          7           0        0.762901    1.495990    0.737617
     12          8           0       -2.172690    0.078474   -0.680768
     13          8           0        1.561650   -0.977044    0.153388
     14          8           0       -1.057170   -0.953240    0.966443
 ---------------------------------------------------------------------

 SCF Done:  E(RHF) =  -397.166114994     A.U. after    2 cycles

 The electronic state is 1-A.
 Alpha  occ. eigenvalues --  -20.59344 -20.58282 -20.53331 -15.51473 -11.39158
 Alpha  occ. eigenvalues --  -11.31287 -11.30730  -1.53478  -1.50910  -1.44622
 Alpha  occ. eigenvalues --   -1.20720  -1.02882  -0.88723  -0.81152  -0.77559
 Alpha  occ. eigenvalues --   -0.75249  -0.69511  -0.67516  -0.65715  -0.63474
 Alpha  occ. eigenvalues --   -0.61299  -0.59325  -0.54487  -0.53445  -0.49693
 Alpha  occ. eigenvalues --   -0.48079  -0.46117  -0.41236
 Alpha virt. eigenvalues --    0.02476   0.03837   0.04124   0.05002   0.06077
 Alpha virt. eigenvalues --    0.06549   0.07588   0.10020   0.11219   0.12124
 Alpha virt. eigenvalues --    0.13585   0.13839   0.14618   0.15744   0.16118

 Mulliken charges:
               1
     1  C   -1.617959
     2  C    2.264002
     3  C    0.965641
     4  H    0.184317
     5  H    0.153228
     6  H    0.114260
     7  H    0.083575
     8  H    0.129625
     9  H    0.330855
    10  H    0.609383
    11  N    0.598665
    12  O   -1.241298
    13  O   -1.274852
    14  O   -1.299443
 Sum of Mulliken charges =  -0.00000

 Dipole moment (field-independent basis, Debye):
    X=              4.5438    Y=             -0.6032    Z=              0.0628  Tot=              4.5841

 Test job not archived.
 1\1\GINC-SE097\SP\RHF\Aug-CC-pVDZ\C3H7N1O3\OHZDE\08-Apr-2025\0\\#t hf
 aug-cc-pvdz iop(5/13=1,5/36=2,99/5=2) pseudo=read geom=check guess=(re
 ad,tcheck) scf=(maxcycle=1)\\title\\0,1\C,0,0.198754,0.750881,-0.39340
 8\C,0,-1.14198,-0.0782362,-0.0712073\C,0,1.25019,-0.184079,-0.923978\H
 ,0,0.961454,0.830398,1.5053\H,0,0.159708,2.20018,1.13778\H,0,-0.084451
 6,1.50813,-1.19707\H,0,0.862746,-0.796899,-1.73216\H,0,2.22006,0.31638
 7,-1.15439\H,0,2.14422,-1.70812,-0.0737679\H,0,-0.100148,-0.93892,1.17
 004\N,0,0.762902,1.49599,0.737617\O,0,-2.17269,0.0784743,-0.680768\O,0

 Normal termination of Gaussian 16 at Tue Apr  8 21:53:03 2025.
