 Gaussian 16, Revision C.01,

 ----------------------------------------------------------------------
 #t hf aug-cc-pvdz symm=none int=(grid=ultrafine) guess=(read,tcheck) s
 table=(opt,rrhf)
 ----------------------------------------------------------------------
 -----
 title
 -----
 Symbolic Z-matrix:
 Charge =  0 Multiplicity = 1

 SCF Done:  E(RHF) =  -393.474594730     A.U. after   17 cycles
 Normal termination of Gaussian 16 at Tue Apr  8 21:34:40 2025.
 Gaussian 16:  ES64L-G16RevC.01  3-Jul-2019

 ----------------------------------------------------------------------
 #t hf aug-cc-pvdz iop(5/13=1,5/36=2,99/5=2) pseudo=read geom=check gue
 ss=(read,tcheck) scf=(maxcycle=1)
 ----------------------------------------------------------------------
 -----
 title
 -----
 Structure from the checkpoint file:  "ANI1ccx_388_conf2_mol2.chk"
 Charge =  0 Multiplicity = 1

                         Standard orientation:
 ---------------------------------------------------------------------
 Center     Atomic      Atomic             Coordinates (Angstroms)
 Number     Number       Type             X           Y           Z
 ---------------------------------------------------------------------
      1          6           0        2.232920   -0.196644   -0.367047
      2          1           0       -0.460210   -0.250678    0.643341
      3          1           0        2.581889    1.676971   -0.445843
      4          1           0        2.781590   -0.244470   -1.340510
      5          7           0       -1.982430   -0.198949   -0.378629
      6          8           0       -1.359940    0.086540    0.828783
      7          8           0       -3.084550    0.195534   -0.376079
      8          8           0        2.148600    1.042831    0.134924
      9          8           0        1.742920   -1.151069    0.161834
 ---------------------------------------------------------------------

 SCF Done:  E(RHF) =  -393.851775848     A.U. after    2 cycles

 The electronic state is 1-A.
 Alpha  occ. eigenvalues --  -20.63933 -20.62660 -20.61540 -20.57541 -15.71646
 Alpha  occ. eigenvalues --  -11.43214  -1.67305  -1.58277  -1.49525  -1.49347
 Alpha  occ. eigenvalues --   -0.96011  -0.89907  -0.82056  -0.79404  -0.74098
 Alpha  occ. eigenvalues --   -0.69922  -0.69318  -0.65909  -0.61688  -0.60824
 Alpha  occ. eigenvalues --   -0.51061  -0.50491  -0.48305  -0.45300
 Alpha virt. eigenvalues --    0.01680   0.04038   0.06873   0.07214   0.08075
 Alpha virt. eigenvalues --    0.10754   0.11889   0.12994   0.13839   0.15016
 Alpha virt. eigenvalues --    0.15718   0.17642   0.18458   0.19600   0.19911

 Mulliken charges:
               1
     1  C    1.378789
     2  H    0.401556
     3  H    0.422486
     4  H    0.150032
     5  N    1.598704
     6  O   -1.137767
     7  O   -0.888910
     8  O   -0.966272
     9  O   -0.958618
 Sum of Mulliken charges =  -0.00000

 Dipole moment (field-independent basis, Debye):
    X=              4.5600    Y=              2.1666    Z=             -2.5186  Tot=              5.6419

 Test job not archived.
 1\1\GINC-SE250\SP\RHF\Aug-CC-pVDZ\C1H3N1O4\OHZDE\08-Apr-2025\0\\#t hf
 aug-cc-pvdz iop(5/13=1,5/36=2,99/5=2) pseudo=read geom=check guess=(re
 ad,tcheck) scf=(maxcycle=1)\\title\\0,1\C,0,2.23292,-0.196645,-0.36704
 7\H,0,-0.46021,-0.250678,0.643341\H,0,2.58189,1.67697,-0.445843\H,0,2.
 78159,-0.244471,-1.34051\N,0,-1.98243,-0.198949,-0.378629\O,0,-1.35994
 ,0.0865399,0.828783\O,0,-3.08455,0.195534,-0.376079\O,0,2.1486,1.04283
 ,0.134924\O,0,1.74292,-1.15107,0.161834\\Version=ES64L-G16RevC.01\Stat
 e=1-A\HF=-393.8517758\RMSD=9.441e-03\Dipole=1.7940406,0.8524076,-0.990

 Normal termination of Gaussian 16 at Tue Apr  8 21:34:42 2025.
