 Gaussian 16, Revision C.01,

 ----------------------------------------------------------------------
 #t hf aug-cc-pvdz symm=none int=(grid=ultrafine) guess=(read,tcheck) s
 table=(opt,rrhf)
 ----------------------------------------------------------------------
 -----
 title
 -----
 Symbolic Z-matrix:
 Charge =  0 Multiplicity = 1

 SCF Done:  E(RHF) =  -598.849603276     A.U. after   15 cycles

 1\1\GINC-SE058\Stability\RHF\Aug-CC-pVDZ\C7H12N6\OHZDE\08-Apr-2025\0\\
 #t hf aug-cc-pvdz symm=none int=(grid=ultrafine) guess=(read,tcheck) s
 table=(opt,rrhf)\\title\\0,1\C,0,-3.74147,-1.24649,-0.146392\C,0,-1.73
 633,0.101912,0.0967246\C,0,-0.0265956,1.56349,0.0463738\C,0,0.891903,0
 .517411,-0.100195\C,0,3.09258,-0.439287,-0.355029\C,0,2.54227,-1.60683
 ,0.470427\C,0,0.346948,-0.753731,-0.0414907\H,0,0.652826,-2.66694,0.16
 5775\H,0,3.16906,-2.49668,0.258347\H,0,2.53805,-1.31357,1.52134\H,0,3.
 05915,-0.783319,-1.3801\H,0,4.11777,-0.32195,-0.0956948\H,0,2.58726,1.

 Normal termination of Gaussian 16 at Tue Apr  8 19:41:47 2025.
 Gaussian 16:  ES64L-G16RevC.01  3-Jul-2019

 ----------------------------------------------------------------------
 #t hf aug-cc-pvdz iop(5/13=1,5/36=2,99/5=2) pseudo=read geom=check gue
 ss=(read,tcheck) scf=(maxcycle=1)
 ----------------------------------------------------------------------
 -----
 title
 -----
 Structure from the checkpoint file:  "ANI1ccx_1410_conf5_mol2.chk"
 Charge =  0 Multiplicity = 1

                         Standard orientation:
 ---------------------------------------------------------------------
 Center     Atomic      Atomic             Coordinates (Angstroms)
 Number     Number       Type             X           Y           Z
 ---------------------------------------------------------------------
      1          6           0       -3.741470   -1.246491   -0.146392
      2          6           0       -1.736330    0.101912    0.096724
      3          6           0       -0.026596    1.563490    0.046374
      4          6           0        0.891903    0.517411   -0.100195
      5          6           0        3.092580   -0.439286   -0.355029
      6          6           0        2.542270   -1.606829    0.470427
      7          6           0        0.346948   -0.753731   -0.041491
      8          1           0        0.652827   -2.666940    0.165775
      9          1           0        3.169061   -2.496679    0.258347
     10          1           0        2.538050   -1.313569    1.521340
     11          1           0        3.059150   -0.783318   -1.380100
     12          1           0        4.117770   -0.321949   -0.095695
     13          1           0        2.587260    1.472731   -0.737790
     14          1           0        1.258200    2.917950    0.686544
     15          1           0       -0.287067    3.508740    0.267087
     16          1           0       -3.624430    0.844353   -0.142532
     17          1           0       -4.814270   -1.076361    0.054705
     18          1           0       -3.541049   -1.871790   -1.065750
     19          1           0       -3.405909   -1.874530    0.670727
     20          7           0       -3.103240    0.008104   -0.024250
     21          7           0       -1.320440    1.385840    0.091052
     22          7           0        0.491167    2.856800    0.046893
     23          7           0        2.300820    0.727204   -0.113257
     24          7           0        1.195920   -1.856440   -0.070826
     25          7           0       -0.982147   -1.001150    0.066794
 ---------------------------------------------------------------------

 SCF Done:  E(RHF) =  -599.469235545     A.U. after    2 cycles

 The electronic state is 1-A.
 Alpha  occ. eigenvalues --  -15.51197 -15.50614 -15.49983 -15.49919 -15.47631
 Alpha  occ. eigenvalues --  -15.46980 -11.33803 -11.31507 -11.31320 -11.27521
 Alpha  occ. eigenvalues --  -11.25827 -11.25350 -11.23978  -1.32359  -1.26430
 Alpha  occ. eigenvalues --   -1.24698  -1.21045  -1.18081  -1.15193  -1.04625
 Alpha  occ. eigenvalues --   -0.97955  -0.94708  -0.90320  -0.86225  -0.82235
 Alpha  occ. eigenvalues --   -0.80014  -0.74761  -0.71795  -0.71089  -0.70315
 Alpha  occ. eigenvalues --   -0.68623  -0.65562  -0.64102  -0.63743  -0.62158
 Alpha  occ. eigenvalues --   -0.59748  -0.58926  -0.57232  -0.54150  -0.53150
 Alpha  occ. eigenvalues --   -0.52644  -0.51603  -0.49020  -0.45628  -0.44473
 Alpha  occ. eigenvalues --   -0.41150  -0.40320  -0.29906
 Alpha virt. eigenvalues --    0.03291   0.03955   0.04068   0.04573   0.04624
 Alpha virt. eigenvalues --    0.05098   0.05702   0.05808   0.06740   0.07180
 Alpha virt. eigenvalues --    0.07922   0.08961   0.10744   0.11073   0.11467

 Mulliken charges:
               1
     1  C   -0.390905
     2  C   -1.775825
     3  C   -2.715867
     4  C    0.409522
     5  C   -0.074266
     6  C   -0.163664
     7  C   -1.888451
     8  H    0.072195
     9  H    0.113730
    10  H    0.061436
    11  H    0.003078
    12  H   -0.069229
    13  H    0.287547
    14  H    0.235574
    15  H    0.174681
    16  H    0.135652
    17  H    0.025042
    18  H    0.209779
    19  H    0.178999
    20  N    0.711427
    21  N    0.972665
    22  N    0.997686
    23  N    0.817591
    24  N    0.995989
    25  N    0.675613
 Sum of Mulliken charges =  -0.00000

 Dipole moment (field-independent basis, Debye):
    X=              1.8264    Y=             -0.0277    Z=              0.7669  Tot=              1.9811

 Test job not archived.
 1\1\GINC-SE058\SP\RHF\Aug-CC-pVDZ\C7H12N6\OHZDE\08-Apr-2025\0\\#t hf a
 ug-cc-pvdz iop(5/13=1,5/36=2,99/5=2) pseudo=read geom=check guess=(rea
 d,tcheck) scf=(maxcycle=1)\\title\\0,1\C,0,-3.74147,-1.24649,-0.146392
 \C,0,-1.73633,0.101912,0.0967246\C,0,-0.0265956,1.56349,0.0463738\C,0,
 0.891903,0.517411,-0.100195\C,0,3.09258,-0.439287,-0.355029\C,0,2.5422
 7,-1.60683,0.470427\C,0,0.346948,-0.753731,-0.0414907\H,0,0.652826,-2.
 66694,0.165775\H,0,3.16906,-2.49668,0.258347\H,0,2.53805,-1.31357,1.52
 134\H,0,3.05915,-0.783319,-1.3801\H,0,4.11777,-0.32195,-0.0956948\H,0,

 Normal termination of Gaussian 16 at Tue Apr  8 19:42:11 2025.
