 Gaussian 16, Revision C.01,

 ----------------------------------------------------------------------
 #t hf aug-cc-pvdz symm=none int=(grid=ultrafine) guess=(read,tcheck) s
 table=(opt,rrhf)
 ----------------------------------------------------------------------
 -----
 title
 -----
 Symbolic Z-matrix:
 Charge =  0 Multiplicity = 1

 SCF Done:  E(RHF) =  -506.644507681     A.U. after   17 cycles
 Normal termination of Gaussian 16 at Tue Apr  8 21:56:04 2025.
 Gaussian 16:  ES64L-G16RevC.01  3-Jul-2019

 ----------------------------------------------------------------------
 #t hf aug-cc-pvdz iop(5/13=1,5/36=2,99/5=2) pseudo=read geom=check gue
 ss=(read,tcheck) scf=(maxcycle=1)
 ----------------------------------------------------------------------
 -----
 title
 -----
 Structure from the checkpoint file:  "ANI1ccx_787_conf15_mol2.chk"
 Charge =  0 Multiplicity = 1

                         Standard orientation:
 ---------------------------------------------------------------------
 Center     Atomic      Atomic             Coordinates (Angstroms)
 Number     Number       Type             X           Y           Z
 ---------------------------------------------------------------------
      1          6           0        0.410628    1.635450   -0.647593
      2          6           0        1.180380    0.061843    1.161280
      3          6           0        1.993880   -0.909511    0.335659
      4          1           0       -1.820521   -1.146430   -0.991687
      5          1           0        3.150770   -0.776667   -1.244860
      6          1           0        2.676689   -1.433301    1.000210
      7          1           0        0.720190   -0.464160    2.034610
      8          1           0        1.305739   -1.654081   -0.092279
      9          1           0       -0.499587    2.183990   -0.894050
     10          1           0        1.191140    2.302769   -0.266993
     11          1           0        0.812989    1.124270   -1.510400
     12          1           0        1.831510    0.856583    1.518770
     13          7           0        0.086595    0.706180    0.439568
     14          7           0       -0.959691   -0.124413    0.195990
     15          7           0       -2.181270    0.278887    0.519017
     16          8           0       -0.868158   -0.963794   -0.885729
     17          8           0        2.729340   -0.152027   -0.619160
     18          8           0       -3.048390   -0.352209   -0.086540
 ---------------------------------------------------------------------

 SCF Done:  E(RHF) =  -507.154959550     A.U. after    2 cycles

 The electronic state is 1-A.
 Alpha  occ. eigenvalues --  -20.60685 -20.59001 -20.56282 -15.68686 -15.65382
 Alpha  occ. eigenvalues --  -15.54728 -11.29087 -11.27843 -11.26382  -1.62073
 Alpha  occ. eigenvalues --   -1.52903  -1.45768  -1.33580  -1.19849  -1.03476
 Alpha  occ. eigenvalues --   -0.98921  -0.90411  -0.83989  -0.81596  -0.75534
 Alpha  occ. eigenvalues --   -0.74659  -0.71638  -0.67795  -0.67327  -0.62835
 Alpha  occ. eigenvalues --   -0.61307  -0.60613  -0.58261  -0.57213  -0.56014
 Alpha  occ. eigenvalues --   -0.54872  -0.52446  -0.46910  -0.45798  -0.42624
 Alpha  occ. eigenvalues --   -0.42011
 Alpha virt. eigenvalues --    0.03321   0.03921   0.04353   0.04476   0.05568
 Alpha virt. eigenvalues --    0.05753   0.06587   0.07123   0.07860   0.08864
 Alpha virt. eigenvalues --    0.11365   0.11834   0.13189   0.14030   0.14350

 Mulliken charges:
               1
     1  C   -0.283605
     2  C   -0.766783
     3  C    0.905622
     4  H    0.405605
     5  H    0.338382
     6  H    0.067901
     7  H    0.162741
     8  H    0.158386
     9  H    0.114554
    10  H    0.168418
    11  H    0.241279
    12  H    0.037725
    13  N    0.572066
    14  N   -0.110137
    15  N    1.729540
    16  O   -1.366525
    17  O   -1.218230
    18  O   -1.156938
 Sum of Mulliken charges =  -0.00000

 Dipole moment (field-independent basis, Debye):
    X=              2.9120    Y=             -1.2669    Z=             -0.7941  Tot=              3.2734

 Test job not archived.
 1\1\GINC-SE402\SP\RHF\Aug-CC-pVDZ\C3H9N3O3\OHZDE\08-Apr-2025\0\\#t hf
 aug-cc-pvdz iop(5/13=1,5/36=2,99/5=2) pseudo=read geom=check guess=(re
 ad,tcheck) scf=(maxcycle=1)\\title\\0,1\C,0,0.410628,1.63545,-0.647593
 \C,0,1.18038,0.0618436,1.16128\C,0,1.99388,-0.90951,0.335659\H,0,-1.82
 052,-1.14643,-0.991687\H,0,3.15077,-0.776666,-1.24486\H,0,2.67669,-1.4
 333,1.00021\H,0,0.72019,-0.46416,2.03461\H,0,1.30574,-1.65408,-0.09227
 9\H,0,-0.499587,2.18399,-0.89405\H,0,1.19114,2.30277,-0.266993\H,0,0.8
 12989,1.12427,-1.5104\H,0,1.83151,0.856584,1.51877\N,0,0.0865952,0.706

 Normal termination of Gaussian 16 at Tue Apr  8 21:56:13 2025.
