 Gaussian 16, Revision C.01,

 ----------------------------------------------------------------------
 #t hf aug-cc-pvdz symm=none int=(grid=ultrafine) guess=(read,tcheck) s
 table=(opt,rrhf)
 ----------------------------------------------------------------------
 -----
 title
 -----
 Symbolic Z-matrix:
 Charge =  0 Multiplicity = 1

 SCF Done:  E(RHF) =  -435.806206755     A.U. after   14 cycles
 Normal termination of Gaussian 16 at Tue Apr  8 22:14:59 2025.
 Gaussian 16:  ES64L-G16RevC.01  3-Jul-2019

 ----------------------------------------------------------------------
 #t hf aug-cc-pvdz iop(5/13=1,5/36=2,99/5=2) pseudo=read geom=check gue
 ss=(read,tcheck) scf=(maxcycle=1)
 ----------------------------------------------------------------------
 -----
 title
 -----
 Structure from the checkpoint file:  "ANI1ccx_976_conf5_mol1.chk"
 Charge =  0 Multiplicity = 1

                         Standard orientation:
 ---------------------------------------------------------------------
 Center     Atomic      Atomic             Coordinates (Angstroms)
 Number     Number       Type             X           Y           Z
 ---------------------------------------------------------------------
      1          6           0        0.047142   -0.681554   -0.167965
      2          6           0        1.410141    0.054289   -0.245566
      3          6           0       -1.107309    0.291022   -0.471948
      4          6           0       -2.395389   -0.367509   -0.618790
      5          1           0        0.554970    1.585090    0.505985
      6          1           0       -3.122509    0.454755   -0.661625
      7          1           0       -2.526289   -1.049241    0.235424
      8          1           0       -2.366749   -0.919880   -1.537700
      9          1           0       -1.712729    0.839351    1.266510
     10          1           0       -1.005869    0.867060   -1.340210
     11          1           0        0.067054   -1.444120   -1.004870
     12          1           0        0.557018   -2.186920    1.025210
     13          1           0        0.305359   -0.847354    1.829880
     14          7           0       -0.075466   -1.434700    1.068120
     15          8           0        2.434591   -0.453616   -0.636564
     16          8           0       -1.151289    1.251740    0.566217
     17          8           0        1.473011    1.322710    0.224116
 ---------------------------------------------------------------------

 SCF Done:  E(RHF) =  -436.251993554     A.U. after    2 cycles

 The electronic state is 1-A.
 Alpha  occ. eigenvalues --  -20.59028 -20.58152 -20.52458 -15.52310 -11.38349
 Alpha  occ. eigenvalues --  -11.30750 -11.30378 -11.24503  -1.52938  -1.49722
 Alpha  occ. eigenvalues --   -1.43380  -1.22949  -1.08476  -0.97839  -0.85926
 Alpha  occ. eigenvalues --   -0.81531  -0.76793  -0.74690  -0.69016  -0.67820
 Alpha  occ. eigenvalues --   -0.66985  -0.64444  -0.61606  -0.59844  -0.57564
 Alpha  occ. eigenvalues --   -0.56232  -0.54320  -0.52306  -0.50046  -0.48050
 Alpha  occ. eigenvalues --   -0.45534  -0.41595
 Alpha virt. eigenvalues --    0.02839   0.03308   0.03743   0.04477   0.05698
 Alpha virt. eigenvalues --    0.06175   0.06914   0.07305   0.08609   0.10406
 Alpha virt. eigenvalues --    0.12235   0.12790   0.13745   0.13979   0.14374

 Mulliken charges:
               1
     1  C   -1.479803
     2  C    2.484491
     3  C    1.288154
     4  C   -0.494141
     5  H    0.584975
     6  H    0.240018
     7  H    0.257356
     8  H    0.169300
     9  H    0.374238
    10  H   -0.170591
    11  H    0.171317
    12  H    0.249700
    13  H    0.256997
    14  N    0.300971
    15  O   -1.333020
    16  O   -1.514990
    17  O   -1.384973
 Sum of Mulliken charges =  -0.00000

 Dipole moment (field-independent basis, Debye):
    X=             -4.7813    Y=             -0.7197    Z=              0.9513  Tot=              4.9279

 Test job not archived.
 1\1\GINC-SE118\SP\RHF\Aug-CC-pVDZ\C4H9N1O3\OHZDE\08-Apr-2025\0\\#t hf
 aug-cc-pvdz iop(5/13=1,5/36=2,99/5=2) pseudo=read geom=check guess=(re
 ad,tcheck) scf=(maxcycle=1)\\title\\0,1\C,0,0.0471404,-0.681554,-0.167
 965\C,0,1.41014,0.0542885,-0.245566\C,0,-1.10731,0.291022,-0.471948\C,
 0,-2.39539,-0.367508,-0.61879\H,0,0.55497,1.58509,0.505985\H,0,-3.1225
 1,0.454756,-0.661625\H,0,-2.52629,-1.04924,0.235424\H,0,-2.36675,-0.91
 9879,-1.5377\H,0,-1.71273,0.839352,1.26651\H,0,-1.00587,0.86706,-1.340
 21\H,0,0.0670525,-1.44412,-1.00487\H,0,0.557016,-2.18692,1.02521\H,0,0

 Normal termination of Gaussian 16 at Tue Apr  8 22:15:06 2025.
