 Gaussian 16, Revision C.01,

 ----------------------------------------------------------------------
 #t hf aug-cc-pvdz symm=none int=(grid=ultrafine) guess=(read,tcheck) s
 table=(opt,rrhf)
 ----------------------------------------------------------------------
 -----
 title
 -----
 Symbolic Z-matrix:
 Charge =  0 Multiplicity = 1

 SCF Done:  E(RHF) =  -259.748725131     A.U. after   14 cycles
 Normal termination of Gaussian 16 at Tue Apr  8 21:10:16 2025.
 Gaussian 16:  ES64L-G16RevC.01  3-Jul-2019

 ----------------------------------------------------------------------
 #t hf aug-cc-pvdz iop(5/13=1,5/36=2,99/5=2) pseudo=read geom=check gue
 ss=(read,tcheck) scf=(maxcycle=1)
 ----------------------------------------------------------------------
 -----
 title
 -----
 Structure from the checkpoint file:  "ANI1ccx_1858_conf14_mol1.chk"
 Charge =  0 Multiplicity = 1

                         Standard orientation:
 ---------------------------------------------------------------------
 Center     Atomic      Atomic             Coordinates (Angstroms)
 Number     Number       Type             X           Y           Z
 ---------------------------------------------------------------------
      1          1           0       -3.174817   -0.194483    0.465979
      2          1           0       -1.867858    1.190010   -0.274146
      3          7           0        2.111322    0.333969   -0.112135
      4          7           0        2.904083   -0.404852    0.081242
      5          8           0       -2.405587   -0.501430   -0.119429
      6          8           0       -1.352558    0.439012    0.122481
 ---------------------------------------------------------------------

 SCF Done:  E(RHF) =  -259.995476050     A.U. after    2 cycles

 The electronic state is 1-A.
 Alpha  occ. eigenvalues --  -20.62830 -20.62275 -15.61405 -15.61244  -1.59223
 Alpha  occ. eigenvalues --   -1.48359  -1.26458  -0.81196  -0.73520  -0.67757
 Alpha  occ. eigenvalues --   -0.67425  -0.66081  -0.66054  -0.60067  -0.51467
 Alpha  occ. eigenvalues --   -0.46870
 Alpha virt. eigenvalues --    0.03528   0.05093   0.10091   0.10312   0.12335
 Alpha virt. eigenvalues --    0.14581   0.14901   0.16772   0.17591   0.18951
 Alpha virt. eigenvalues --    0.20277   0.21032   0.21467   0.23120   0.24955

 Mulliken charges:
               1
     1  H    0.424047
     2  H    0.487790
     3  N    0.087798
     4  N   -0.101858
     5  O   -0.437251
     6  O   -0.460527
 Sum of Mulliken charges =  -0.00000

 Dipole moment (field-independent basis, Debye):
    X=             -2.1411    Y=              1.8757    Z=              0.3448  Tot=              2.8674

 Test job not archived.
 1\1\GINC-SE143\SP\RHF\Aug-CC-pVDZ\H2N2O2\OHZDE\08-Apr-2025\0\\#t hf au
 g-cc-pvdz iop(5/13=1,5/36=2,99/5=2) pseudo=read geom=check guess=(read
 ,tcheck) scf=(maxcycle=1)\\title\\0,1\H,0,-3.17482,-0.194483,0.465979\
 H,0,-1.86786,1.19001,-0.274146\N,0,2.11132,0.333969,-0.112135\N,0,2.90
 408,-0.404852,0.0812416\O,0,-2.40559,-0.50143,-0.119429\O,0,-1.35256,0
 .439012,0.122481\\Version=ES64L-G16RevC.01\State=1-A\HF=-259.9954761\R
 MSD=4.066e-02\Dipole=-0.8423918,0.7379756,0.1356497\Quadrupole=4.13752
 54,-1.5254204,-2.6121051,-2.8138485,-1.6709442,-0.72271\PG=C01 [X(H2N2

 Normal termination of Gaussian 16 at Tue Apr  8 21:10:18 2025.
