 Gaussian 16, Revision C.01,

 ----------------------------------------------------------------------
 #t hf aug-cc-pvdz symm=none int=(grid=ultrafine) guess=(read,tcheck) s
 table=(opt,rrhf)
 ----------------------------------------------------------------------
 -----
 title
 -----
 Symbolic Z-matrix:
 Charge =  0 Multiplicity = 1

 SCF Done:  E(RHF) =  -1001.30732504     A.U. after   15 cycles
 Normal termination of Gaussian 16 at Tue Apr  8 22:11:16 2025.
 Gaussian 16:  ES64L-G16RevC.01  3-Jul-2019

 ----------------------------------------------------------------------
 #t hf aug-cc-pvdz iop(5/13=1,5/36=2,99/5=2) pseudo=read geom=check gue
 ss=(read,tcheck) scf=(maxcycle=1)
 ----------------------------------------------------------------------
 -----
 title
 -----
 Structure from the checkpoint file:  "ANI1ccx_64_conf4_mol1.chk"
 Charge =  0 Multiplicity = 1

                         Standard orientation:
 ---------------------------------------------------------------------
 Center     Atomic      Atomic             Coordinates (Angstroms)
 Number     Number       Type             X           Y           Z
 ---------------------------------------------------------------------
      1          6           0        1.673779    1.977532   -0.271794
      2          6           0       -3.946150    0.312401   -0.258217
      3          6           0       -2.026149   -1.255951   -0.596770
      4          6           0       -0.195901   -1.696820    1.135689
      5          6           0       -1.065979   -0.621063    0.381382
      6          6           0       -2.950940   -0.236374   -1.238171
      7          6           0        3.266250   -0.061331    0.083404
      8          6           0        3.120139    1.442443   -0.042505
      9          6           0        0.591416    1.240731    0.465820
     10          6           0        2.703211   -0.878178   -1.033221
     11          1           0       -1.619530   -0.066346    1.145549
     12          1           0        0.281737   -0.270149    2.373869
     13          1           0       -4.549291    1.176837   -1.781081
     14          1           0       -3.541709   -0.740472   -2.015811
     15          1           0       -2.344290    0.554505   -1.751201
     16          1           0       -2.626308   -2.030371   -0.100822
     17          1           0       -1.354409   -1.671821   -1.360731
     18          1           0        0.340862   -0.060671   -1.052281
     19          1           0        2.497422   -2.791098   -1.669901
     20          1           0        4.337590   -0.265435    0.169919
     21          1           0        2.796900   -0.443074    1.009149
     22          1           0        3.764149    1.729113   -0.896175
     23          1           0        3.467239    1.978313    0.854185
     24          1           0        1.441019    1.856632   -1.330301
     25          1           0        0.723279    3.799431   -0.095472
     26          1           0        1.821638    3.397892    1.039739
     27          1           0        3.200882   -2.687227   -0.125335
     28          7           0        1.648628    3.402092    0.040816
     29          7           0        3.022192   -2.233817   -1.006411
     30          7           0       -0.115725    0.326803   -0.238678
     31          8           0       -4.044110    0.010607    0.894981
     32          8           0        0.057790   -2.808089    0.672085
     33          8           0       -4.789541    1.253317   -0.844290
     34          8           0        0.472529    1.360011    1.707619
     35          8           0        1.953151   -0.487849   -1.908561
     36          8           0        0.407568   -1.236989    2.261029
 ---------------------------------------------------------------------

 SCF Done:  E(RHF) =  -1002.31005536     A.U. after    2 cycles

 The electronic state is 1-A.
 Alpha  occ. eigenvalues --  -20.61180 -20.58691 -20.55695 -20.54220 -20.54128
 Alpha  occ. eigenvalues --  -20.54033 -15.55300 -15.53397 -15.50398 -11.41131
 Alpha  occ. eigenvalues --  -11.40269 -11.38883 -11.38322 -11.31162 -11.28799
 Alpha  occ. eigenvalues --  -11.28663 -11.27225 -11.26785 -11.26783  -1.54775
 Alpha  occ. eigenvalues --   -1.52836  -1.49885  -1.47579  -1.47243  -1.44064
 Alpha  occ. eigenvalues --   -1.27541  -1.22525  -1.21349  -1.12240  -1.09552
 Alpha  occ. eigenvalues --   -1.03220  -0.98005  -0.91626  -0.89587  -0.84435
 Alpha  occ. eigenvalues --   -0.82993  -0.82046  -0.81158  -0.76439  -0.75726
 Alpha  occ. eigenvalues --   -0.74523  -0.74217  -0.71574  -0.71168  -0.69607
 Alpha  occ. eigenvalues --   -0.68349  -0.67722  -0.67407  -0.65584  -0.64694
 Alpha  occ. eigenvalues --   -0.64477  -0.63571  -0.60636  -0.60208  -0.59772
 Alpha  occ. eigenvalues --   -0.59266  -0.58848  -0.56907  -0.55875  -0.55190
 Alpha  occ. eigenvalues --   -0.53801  -0.52926  -0.52481  -0.51442  -0.49189
 Alpha  occ. eigenvalues --   -0.49043  -0.47280  -0.46913  -0.45814  -0.45710
 Alpha  occ. eigenvalues --   -0.45125  -0.43642  -0.42152
 Alpha virt. eigenvalues --    0.02078   0.02950   0.03215   0.03973   0.04247
 Alpha virt. eigenvalues --    0.04609   0.05013   0.05875   0.06348   0.06896
 Alpha virt. eigenvalues --    0.07022   0.08125   0.08278   0.08686   0.09200

 Mulliken charges:
               1
     1  C   -2.204315
     2  C    2.155053
     3  C   -0.254107
     4  C    2.412551
     5  C   -0.554417
     6  C   -0.228493
     7  C   -0.204520
     8  C    0.122659
     9  C    0.550991
    10  C   -0.006507
    11  H   -0.115427
    12  H    0.607449
    13  H    0.411482
    14  H    0.215087
    15  H    0.281421
    16  H    0.086985
    17  H    0.253241
    18  H    0.195118
    19  H    0.125921
    20  H    0.162217
    21  H    0.312845
    22  H    0.235453
    23  H    0.202649
    24  H    0.082982
    25  H    0.153707
    26  H    0.320944
    27  H    0.114400
    28  N    0.748698
    29  N    0.936693
    30  N    1.563731
    31  O   -1.205696
    32  O   -1.430490
    33  O   -1.321751
    34  O   -1.632082
    35  O   -1.607543
    36  O   -1.486929
 Sum of Mulliken charges =  -0.00000

 Dipole moment (field-independent basis, Debye):
    X=              1.7888    Y=              0.3162    Z=             -3.9808  Tot=              4.3757

 Test job not archived.
 1\1\GINC-SE343\SP\RHF\Aug-CC-pVDZ\C10H17N3O6\OHZDE\08-Apr-2025\0\\#t h
 f aug-cc-pvdz iop(5/13=1,5/36=2,99/5=2) pseudo=read geom=check guess=(
 read,tcheck) scf=(maxcycle=1)\\title\\0,1\C,0,1.67378,1.97753,-0.27179
 3\C,0,-3.94615,0.312403,-0.258216\C,0,-2.02615,-1.25595,-0.596769\C,0,
 -0.195902,-1.69682,1.13569\C,0,-1.06598,-0.621063,0.381383\C,0,-2.9509
 4,-0.236372,-1.23817\C,0,3.26625,-0.0613336,0.0834044\C,0,3.12014,1.44
 244,-0.0425045\C,0,0.591417,1.24073,0.465821\C,0,2.70321,-0.87818,-1.0
 3322\H,0,-1.61953,-0.0663448,1.14555\H,0,0.281737,-0.27015,2.37387\H,0

 Normal termination of Gaussian 16 at Tue Apr  8 22:12:24 2025.
