 Gaussian 16, Revision C.01,

 ----------------------------------------------------------------------
 #t hf aug-cc-pvdz symm=none int=(grid=ultrafine) guess=(read,tcheck) s
 table=(opt,rrhf)
 ----------------------------------------------------------------------
 -----
 title
 -----
 Symbolic Z-matrix:
 Charge =  0 Multiplicity = 1

 SCF Done:  E(RHF) =  -256.788963846     A.U. after   15 cycles
 Normal termination of Gaussian 16 at Tue Apr  8 21:31:31 2025.
 Gaussian 16:  ES64L-G16RevC.01  3-Jul-2019

 ----------------------------------------------------------------------
 #t hf aug-cc-pvdz iop(5/13=1,5/36=2,99/5=2) pseudo=read geom=check gue
 ss=(read,tcheck) scf=(maxcycle=1)
 ----------------------------------------------------------------------
 -----
 title
 -----
 Structure from the checkpoint file:  "ANI1ccx_377_conf58_mol1.chk"
 Charge =  0 Multiplicity = 1

                         Standard orientation:
 ---------------------------------------------------------------------
 Center     Atomic      Atomic             Coordinates (Angstroms)
 Number     Number       Type             X           Y           Z
 ---------------------------------------------------------------------
      1          6           0        1.075710   -0.306590    0.003554
      2          1           0        2.028392   -0.702349    0.085866
      3          1           0       -1.949558   -0.579636    0.065062
      4          7           0        0.646945    0.985560    0.002797
      5          7           0       -0.638126    0.948714   -0.016706
      6          7           0       -1.000599   -0.358432    0.020661
      7          7           0        0.058480   -1.129910   -0.031360
 ---------------------------------------------------------------------

 SCF Done:  E(RHF) =  -257.046568300     A.U. after    2 cycles

 The electronic state is 1-A.
 Alpha  occ. eigenvalues --  -15.64104 -15.61332 -15.57358 -15.56126 -11.30851
 Alpha  occ. eigenvalues --   -1.49828  -1.29519  -1.20810  -0.97261  -0.94468
 Alpha  occ. eigenvalues --   -0.85117  -0.73213  -0.71026  -0.63517  -0.55307
 Alpha  occ. eigenvalues --   -0.52978  -0.51356  -0.45341
 Alpha virt. eigenvalues --    0.02820   0.05248   0.06198   0.08409   0.09265
 Alpha virt. eigenvalues --    0.09937   0.11773   0.14587   0.15594   0.16036
 Alpha virt. eigenvalues --    0.16215   0.17043   0.17974   0.19868   0.21345

 Mulliken charges:
               1
     1  C   -0.012961
     2  H   -0.101625
     3  H    0.063928
     4  N    0.240797
     5  N   -0.319181
     6  N    0.160437
     7  N   -0.031395
 Sum of Mulliken charges =  -0.00000

 Dipole moment (field-independent basis, Debye):
    X=             -0.6760    Y=             -1.9031    Z=              0.2106  Tot=              2.0305

 Test job not archived.
 1\1\GINC-SE250\SP\RHF\Aug-CC-pVDZ\C1H2N4\OHZDE\08-Apr-2025\0\\#t hf au
 g-cc-pvdz iop(5/13=1,5/36=2,99/5=2) pseudo=read geom=check guess=(read
 ,tcheck) scf=(maxcycle=1)\\title\\0,1\C,0,1.07571,-0.306595,0.00355382
 \H,0,2.02839,-0.702359,0.0858662\H,0,-1.94956,-0.579626,0.0650624\N,0,
 0.646951,0.985557,0.00279731\N,0,-0.63812,0.948717,-0.0167056\N,0,-1.0
 006,-0.358427,0.0206613\N,0,0.0584759,-1.12991,-0.0313604\\Version=ES6
 4L-G16RevC.01\State=1-A\HF=-257.0465683\RMSD=5.163e-02\Dipole=-0.26594
 53,-0.7487352,0.082869\Quadrupole=6.0968815,-4.9949116,-1.1019699,0.20

 Normal termination of Gaussian 16 at Tue Apr  8 21:31:33 2025.
