 Gaussian 16, Revision C.01,

 ----------------------------------------------------------------------
 #t hf aug-cc-pvdz symm=none int=(grid=ultrafine) guess=(read,tcheck) s
 table=(opt,rrhf)
 ----------------------------------------------------------------------
 -----
 title
 -----
 Symbolic Z-matrix:
 Charge =  0 Multiplicity = 1

 SCF Done:  E(RHF) =  -810.434390242     A.U. after   14 cycles
 Normal termination of Gaussian 16 at Tue Apr  8 19:50:31 2025.
 Gaussian 16:  ES64L-G16RevC.01  3-Jul-2019

 ----------------------------------------------------------------------
 #t hf aug-cc-pvdz iop(5/13=1,5/36=2,99/5=2) pseudo=read geom=check gue
 ss=(read,tcheck) scf=(maxcycle=1)
 ----------------------------------------------------------------------
 -----
 title
 -----
 Structure from the checkpoint file:  "ANI1ccx_1427_conf4_mol1.chk"
 Charge =  0 Multiplicity = 1

                         Standard orientation:
 ---------------------------------------------------------------------
 Center     Atomic      Atomic             Coordinates (Angstroms)
 Number     Number       Type             X           Y           Z
 ---------------------------------------------------------------------
      1          6           0       -2.083109   -0.850881   -0.570988
      2          6           0       -1.207310    0.274409    0.000513
      3          6           0       -3.472720   -0.729624    0.153668
      4          6           0        1.214610    0.790152    0.396178
      5          6           0        1.420469    2.199960   -0.081733
      6          6           0        2.453580   -0.047853    0.014302
      7          6           0        2.294781   -1.601979    0.094041
      8          1           0       -0.374387    2.369180    0.444827
      9          1           0        4.373341   -1.972118    0.357037
     10          1           0        3.293452   -3.301459    0.314788
     11          1           0        2.853940    0.268807   -1.012200
     12          1           0        3.298310    0.143076    0.692714
     13          1           0        0.967899    0.759790    1.464170
     14          1           0        0.244954   -0.627090   -0.866664
     15          1           0       -3.909640    1.163178   -0.102961
     16          1           0       -3.349629   -0.855228    1.320030
     17          1           0       -4.031069   -1.674512   -0.052268
     18          1           0       -2.269520   -0.622540   -1.628350
     19          1           0       -1.918029   -2.602601    0.495988
     20          1           0       -0.483684   -2.245200   -0.158850
     21          7           0       -1.535639   -2.173931   -0.326412
     22          7           0        0.065750    0.201162   -0.342945
     23          7           0        3.444661   -2.331789    0.106591
     24          8           0       -1.623010    1.181279    0.722679
     25          8           0       -4.381760    0.301918   -0.076401
     26          8           0        2.454259    2.606801   -0.525178
     27          8           0        1.177801   -2.137160    0.127561
     28          8           0        0.342566    2.937600    0.080741
 ---------------------------------------------------------------------

 SCF Done:  E(RHF) =  -811.247254578     A.U. after    2 cycles

 The electronic state is 1-A.
 Alpha  occ. eigenvalues --  -20.58685 -20.56025 -20.54789 -20.54064 -20.54044
 Alpha  occ. eigenvalues --  -15.57557 -15.54883 -15.48806 -11.41988 -11.39631
 Alpha  occ. eigenvalues --  -11.37493 -11.33497 -11.30367 -11.29600 -11.29458
 Alpha  occ. eigenvalues --   -1.55341  -1.50680  -1.49206  -1.46434  -1.44607
 Alpha  occ. eigenvalues --   -1.28914  -1.26787  -1.19095  -1.10473  -1.00603
 Alpha  occ. eigenvalues --   -0.97712  -0.89222  -0.87821  -0.84394  -0.83279
 Alpha  occ. eigenvalues --   -0.79036  -0.77986  -0.75515  -0.73012  -0.72553
 Alpha  occ. eigenvalues --   -0.69594  -0.68030  -0.67045  -0.66192  -0.65129
 Alpha  occ. eigenvalues --   -0.64077  -0.61751  -0.61365  -0.59793  -0.59551
 Alpha  occ. eigenvalues --   -0.57633  -0.56907  -0.56405  -0.55313  -0.50407
 Alpha  occ. eigenvalues --   -0.49264  -0.48545  -0.47291  -0.46729  -0.46271
 Alpha  occ. eigenvalues --   -0.43548  -0.42607  -0.41526
 Alpha virt. eigenvalues --    0.01013   0.03353   0.03782   0.04183   0.04916
 Alpha virt. eigenvalues --    0.05176   0.05591   0.06199   0.06932   0.07524
 Alpha virt. eigenvalues --    0.07791   0.08416   0.08978   0.10365   0.11121

 Mulliken charges:
               1
     1  C   -1.558194
     2  C    0.366163
     3  C    0.962275
     4  C   -0.648975
     5  C    2.373441
     6  C   -0.609556
     7  C    0.677218
     8  H    0.621616
     9  H    0.086686
    10  H    0.151214
    11  H    0.380953
    12  H    0.151106
    13  H    0.047391
    14  H    0.456171
    15  H    0.358121
    16  H    0.242955
    17  H    0.091164
    18  H    0.109259
    19  H    0.366255
    20  H    0.098247
    21  N    0.738848
    22  N    1.038172
    23  N    0.745136
    24  O   -1.490267
    25  O   -1.287495
    26  O   -1.276031
    27  O   -1.751568
    28  O   -1.440304
 Sum of Mulliken charges =  -0.00000

 Dipole moment (field-independent basis, Debye):
    X=              5.7873    Y=             -4.7201    Z=              1.9694  Tot=              7.7234

 Test job not archived.
 1\1\GINC-SE159\SP\RHF\Aug-CC-pVDZ\C7H13N3O5\OHZDE\08-Apr-2025\0\\#t hf
  aug-cc-pvdz iop(5/13=1,5/36=2,99/5=2) pseudo=read geom=check guess=(r
 ead,tcheck) scf=(maxcycle=1)\\title\\0,1\C,0,-2.08311,-0.85088,-0.5709
 88\C,0,-1.20731,0.27441,0.0005133\C,0,-3.47272,-0.729622,0.153668\C,0,
 1.21461,0.790152,0.396178\C,0,1.42047,2.19996,-0.0817331\C,0,2.45358,-
 0.0478543,0.0143021\C,0,2.29478,-1.60198,0.0940415\H,0,-0.374386,2.369
 18,0.444827\H,0,4.37334,-1.97212,0.357037\H,0,3.29345,-3.30146,0.31478
 8\H,0,2.85394,0.268806,-1.0122\H,0,3.29831,0.143075,0.692714\H,0,0.967

 Normal termination of Gaussian 16 at Tue Apr  8 19:51:03 2025.
