 Gaussian 16, Revision C.01,

 ----------------------------------------------------------------------
 #t hf aug-cc-pvdz symm=none int=(grid=ultrafine) guess=(read,tcheck) s
 table=(opt,rrhf)
 ----------------------------------------------------------------------
 -----
 title
 -----
 Symbolic Z-matrix:
 Charge =  0 Multiplicity = 1

 SCF Done:  E(RHF) =  -506.570114236     A.U. after   15 cycles
 Normal termination of Gaussian 16 at Tue Apr  8 19:18:11 2025.
 Gaussian 16:  ES64L-G16RevC.01  3-Jul-2019

 ----------------------------------------------------------------------
 #t hf aug-cc-pvdz iop(5/13=1,5/36=2,99/5=2) pseudo=read geom=check gue
 ss=(read,tcheck) scf=(maxcycle=1)
 ----------------------------------------------------------------------
 -----
 title
 -----
 Structure from the checkpoint file:  "ANI1ccx_1139_conf2_mol1.chk"
 Charge =  0 Multiplicity = 1

                         Standard orientation:
 ---------------------------------------------------------------------
 Center     Atomic      Atomic             Coordinates (Angstroms)
 Number     Number       Type             X           Y           Z
 ---------------------------------------------------------------------
      1          6           0        2.411611    0.413295    0.153263
      2          6           0        1.016991    0.168892    0.114111
      3          6           0        0.064677    1.216660    0.012649
      4          6           0       -1.727990   -0.366572    0.017132
      5          6           0        0.497542   -1.136891    0.005632
      6          1           0        2.375897   -1.966784    0.179747
      7          1           0        1.022165   -3.089212    0.052236
      8          1           0       -1.960297    1.649904   -0.036759
      9          1           0        1.235935    2.717148   -0.320266
     10          1           0        2.892861    0.170681    1.105440
     11          1           0        2.892080   -0.117544   -0.701736
     12          1           0        2.674313    1.442426    0.104083
     13          7           0       -1.222228    0.930784   -0.036005
     14          7           0       -0.794481   -1.410458   -0.101041
     15          7           0        1.440776   -2.209862   -0.181740
     16          8           0        0.338190    2.518440   -0.126676
     17          8           0       -2.922991   -0.487462    0.130680
 ---------------------------------------------------------------------

 SCF Done:  E(RHF) =  -507.077836035     A.U. after    2 cycles

 The electronic state is 1-A.
 Alpha  occ. eigenvalues --  -20.63658 -20.49624 -15.56922 -15.53364 -15.48002
 Alpha  occ. eigenvalues --  -11.40713 -11.37871 -11.35035 -11.26020 -11.24443
 Alpha  occ. eigenvalues --   -1.57112  -1.46296  -1.31625  -1.25363  -1.16896
 Alpha  occ. eigenvalues --   -1.11101  -0.99382  -0.92457  -0.90313  -0.81307
 Alpha  occ. eigenvalues --   -0.80999  -0.76093  -0.71349  -0.70644  -0.69081
 Alpha  occ. eigenvalues --   -0.63907  -0.62194  -0.61822  -0.61467  -0.59318
 Alpha  occ. eigenvalues --   -0.56711  -0.54952  -0.48838  -0.46900  -0.43489
 Alpha  occ. eigenvalues --   -0.43179  -0.33553
 Alpha virt. eigenvalues --    0.01879   0.02922   0.03697   0.04213   0.05806
 Alpha virt. eigenvalues --    0.06946   0.07230   0.09090   0.09287   0.09888
 Alpha virt. eigenvalues --    0.10834   0.11216   0.12131   0.12442   0.12600

 Mulliken charges:
               1
     1  C   -0.425820
     2  C    1.620867
     3  C    0.329849
     4  C    0.491009
     5  C   -2.966297
     6  H    0.180061
     7  H    0.061100
     8  H    0.188535
     9  H    0.322492
    10  H    0.309080
    11  H    0.409530
    12  H   -0.226380
    13  N    0.794952
    14  N    1.072934
    15  N    0.737365
    16  O   -1.582002
    17  O   -1.317275
 Sum of Mulliken charges =  -0.00000

 Dipole moment (field-independent basis, Debye):
    X=              7.0243    Y=              4.0718    Z=              0.6334  Tot=              8.1438

 Test job not archived.
 1\1\GINC-SE047\SP\RHF\Aug-CC-pVDZ\C5H7N3O2\OHZDE\08-Apr-2025\0\\#t hf
 aug-cc-pvdz iop(5/13=1,5/36=2,99/5=2) pseudo=read geom=check guess=(re
 ad,tcheck) scf=(maxcycle=1)\\title\\0,1\C,0,2.41161,0.413299,0.153263\
 C,0,1.01699,0.168894,0.114111\C,0,0.064675,1.21666,0.0126492\C,0,-1.72
 799,-0.366575,0.0171319\C,0,0.497544,-1.13689,0.00563189\H,0,2.3759,-1
 .96678,0.179747\H,0,1.02217,-3.08921,0.0522355\H,0,-1.9603,1.6499,-0.0
 367595\H,0,1.23593,2.71715,-0.320266\H,0,2.89286,0.170686,1.10544\H,0,
 2.89208,-0.117539,-0.701736\H,0,2.67431,1.44243,0.104083\N,0,-1.22223,

 Normal termination of Gaussian 16 at Tue Apr  8 19:18:20 2025.
