 Gaussian 16, Revision C.01,

 ----------------------------------------------------------------------
 #t hf aug-cc-pvdz symm=none int=(grid=ultrafine) guess=(read,tcheck) s
 table=(opt,rrhf)
 ----------------------------------------------------------------------
 -----
 title
 -----
 Symbolic Z-matrix:
 Charge =  0 Multiplicity = 1

 SCF Done:  E(RHF) =  -280.722187077     A.U. after   16 cycles
 Normal termination of Gaussian 16 at Tue Apr  8 21:10:19 2025.
 Gaussian 16:  ES64L-G16RevC.01  3-Jul-2019

 ----------------------------------------------------------------------
 #t hf aug-cc-pvdz iop(5/13=1,5/36=2,99/5=2) pseudo=read geom=check gue
 ss=(read,tcheck) scf=(maxcycle=1)
 ----------------------------------------------------------------------
 -----
 title
 -----
 Structure from the checkpoint file:  "ANI1ccx_1870_conf3_mol1.chk"
 Charge =  0 Multiplicity = 1

                         Standard orientation:
 ---------------------------------------------------------------------
 Center     Atomic      Atomic             Coordinates (Angstroms)
 Number     Number       Type             X           Y           Z
 ---------------------------------------------------------------------
      1          1           0       -1.327210   -1.639421   -0.362935
      2          1           0        2.452379    0.187559    0.835397
      3          1           0        2.017519   -0.167138   -0.553063
      4          7           0       -0.815725    0.123974   -0.406543
      5          8           0       -1.496680   -0.894996    0.233861
      6          8           0       -0.959996    1.146489    0.129349
      7          8           0        2.777599   -0.157595    0.002590
 ---------------------------------------------------------------------

 SCF Done:  E(RHF) =  -280.994222465     A.U. after    2 cycles

 The electronic state is 1-A.
 Alpha  occ. eigenvalues --  -20.65471 -20.64529 -20.55772 -15.74232  -1.70623
 Alpha  occ. eigenvalues --   -1.52915  -1.44568  -0.98877  -0.82687  -0.77113
 Alpha  occ. eigenvalues --   -0.72538  -0.71533  -0.63975  -0.58234  -0.53612
 Alpha  occ. eigenvalues --   -0.50059  -0.47842
 Alpha virt. eigenvalues --    0.03029   0.05208   0.05672   0.06656   0.11865
 Alpha virt. eigenvalues --    0.14048   0.16075   0.17014   0.17944   0.18514
 Alpha virt. eigenvalues --    0.19637   0.20135   0.23145   0.23876   0.25035

 Mulliken charges:
               1
     1  H    0.337596
     2  H    0.378825
     3  H    0.389926
     4  N    1.558918
     5  O   -1.012889
     6  O   -0.884371
     7  O   -0.768005
 Sum of Mulliken charges =   0.00000

 Dipole moment (field-independent basis, Debye):
    X=             -1.8934    Y=             -1.2732    Z=             -0.3988  Tot=              2.3163

 Test job not archived.
 1\1\GINC-SE163\SP\RHF\Aug-CC-pVDZ\H3N1O3\OHZDE\08-Apr-2025\0\\#t hf au
 g-cc-pvdz iop(5/13=1,5/36=2,99/5=2) pseudo=read geom=check guess=(read
 ,tcheck) scf=(maxcycle=1)\\title\\0,1\H,0,-1.32721,-1.63942,-0.362935\
 H,0,2.45238,0.187558,0.835397\H,0,2.01752,-0.167139,-0.553063\N,0,-0.8
 15724,0.123974,-0.406543\O,0,-1.49668,-0.894995,0.233861\O,0,-0.959995
 ,1.14649,0.129349\O,0,2.7776,-0.157597,0.00258983\\Version=ES64L-G16Re
 vC.01\State=1-A\HF=-280.9942225\RMSD=1.123e-02\Dipole=-0.7449225,-0.50
 0921,-0.1568907\Quadrupole=-5.7139999,3.1751191,2.5388808,2.6701447,2.

 Normal termination of Gaussian 16 at Tue Apr  8 21:10:21 2025.
