 Gaussian 16, Revision C.01,

 ----------------------------------------------------------------------
 #t hf aug-cc-pvdz symm=none int=(grid=ultrafine) guess=(read,tcheck) s
 table=(opt,rrhf)
 ----------------------------------------------------------------------
 -----
 title
 -----
 Symbolic Z-matrix:
 Charge =  0 Multiplicity = 1

 SCF Done:  E(RHF) =  -356.582236422     A.U. after   15 cycles
 Normal termination of Gaussian 16 at Tue Apr  8 21:43:36 2025.
 Gaussian 16:  ES64L-G16RevC.01  3-Jul-2019

 ----------------------------------------------------------------------
 #t hf aug-cc-pvdz iop(5/13=1,5/36=2,99/5=2) pseudo=read geom=check gue
 ss=(read,tcheck) scf=(maxcycle=1)
 ----------------------------------------------------------------------
 -----
 title
 -----
 Structure from the checkpoint file:  "ANI1ccx_498_conf2_mol1.chk"
 Charge =  0 Multiplicity = 1

                         Standard orientation:
 ---------------------------------------------------------------------
 Center     Atomic      Atomic             Coordinates (Angstroms)
 Number     Number       Type             X           Y           Z
 ---------------------------------------------------------------------
      1          6           0        0.734059   -0.124138   -0.106389
      2          6           0       -0.716507    0.058061   -0.053722
      3          1           0        2.344378    0.781212    0.769426
      4          1           0        0.816208    1.796211    0.572755
      5          1           0       -2.232881   -0.392747    0.944683
      6          7           0        1.407528    0.913818    0.491189
      7          8           0        1.217059   -1.153059   -0.532850
      8          8           0       -1.305471   -0.631626    0.807007
      9          8           0       -1.272302    0.761567   -0.869722
 ---------------------------------------------------------------------

 SCF Done:  E(RHF) =  -356.928170629     A.U. after    2 cycles

 The electronic state is 1-A.
 Alpha  occ. eigenvalues --  -20.63653 -20.55226 -20.54232 -15.55712 -11.41211
 Alpha  occ. eigenvalues --  -11.38822  -1.61947  -1.48816  -1.47565  -1.24604
 Alpha  occ. eigenvalues --   -1.00357  -0.86696  -0.78992  -0.76372  -0.73523
 Alpha  occ. eigenvalues --   -0.68401  -0.65635  -0.61531  -0.59516  -0.50057
 Alpha  occ. eigenvalues --   -0.49262  -0.46208  -0.43594
 Alpha virt. eigenvalues --    0.02471   0.03480   0.05558   0.09385   0.10191
 Alpha virt. eigenvalues --    0.10471   0.11507   0.12103   0.12645   0.14053
 Alpha virt. eigenvalues --    0.15072   0.15446   0.16913   0.17961   0.19158

 Mulliken charges:
               1
     1  C    0.448616
     2  C    1.913687
     3  H    0.051853
     4  H    0.169086
     5  H    0.312753
     6  N    0.431827
     7  O   -1.130838
     8  O   -1.045622
     9  O   -1.151362
 Sum of Mulliken charges =  -0.00000

 Dipole moment (field-independent basis, Debye):
    X=             -0.7015    Y=              2.2114    Z=              3.5317  Tot=              4.2255

 Test job not archived.
 1\1\GINC-SE099\SP\RHF\Aug-CC-pVDZ\C2H3N1O3\OHZDE\08-Apr-2025\0\\#t hf
 aug-cc-pvdz iop(5/13=1,5/36=2,99/5=2) pseudo=read geom=check guess=(re
 ad,tcheck) scf=(maxcycle=1)\\title\\0,1\C,0,0.73406,-0.124139,-0.10638
 9\C,0,-0.716506,0.0580612,-0.053722\H,0,2.34438,0.78121,0.769426\H,0,0
 .81621,1.79621,0.572755\H,0,-2.23288,-0.392746,0.944683\N,0,1.40753,0.
 913817,0.491189\O,0,1.21706,-1.15306,-0.53285\O,0,-1.30547,-0.631626,0
 .807007\O,0,-1.2723,0.761567,-0.869722\\Version=ES64L-G16RevC.01\State
 =1-A\HF=-356.9281706\RMSD=1.637e-02\Dipole=-0.2759899,0.8700176,1.3894

 Normal termination of Gaussian 16 at Tue Apr  8 21:43:40 2025.
