 Gaussian 16, Revision C.01,

 ----------------------------------------------------------------------
 #t hf aug-cc-pvdz symm=none int=(grid=ultrafine) guess=(read,tcheck) s
 table=(opt,rrhf)
 ----------------------------------------------------------------------
 -----
 title
 -----
 Symbolic Z-matrix:
 Charge =  0 Multiplicity = 1

 SCF Done:  E(RHF) =  -889.019061152     A.U. after   16 cycles
 Normal termination of Gaussian 16 at Tue Apr  8 21:32:36 2025.
 Gaussian 16:  ES64L-G16RevC.01  3-Jul-2019

 ----------------------------------------------------------------------
 #t hf aug-cc-pvdz iop(5/13=1,5/36=2,99/5=2) pseudo=read geom=check gue
 ss=(read,tcheck) scf=(maxcycle=1)
 ----------------------------------------------------------------------
 -----
 title
 -----
 Structure from the checkpoint file:  "ANI1ccx_317_conf7_mol1.chk"
 Charge =  0 Multiplicity = 1

                         Standard orientation:
 ---------------------------------------------------------------------
 Center     Atomic      Atomic             Coordinates (Angstroms)
 Number     Number       Type             X           Y           Z
 ---------------------------------------------------------------------
      1          6           0        1.029312    2.793769   -0.708574
      2          6           0       -4.017250    0.820625   -0.195322
      3          6           0       -3.146069    1.590553    0.475830
      4          6           0       -3.733741   -0.436757   -0.631174
      5          6           0       -2.514031   -1.002258   -0.125972
      6          6           0       -1.571311   -0.237300    0.626147
      7          6           0       -1.897900    1.146591    0.905460
      8          6           0       -0.398037   -1.010600    0.685489
      9          6           0        0.830600   -0.772389    1.505079
     10          6           0        2.641868   -1.406552   -0.144927
     11          6           0        2.191589   -0.373708    0.845856
     12          6           0        1.218231    1.276949   -0.639275
     13          6           0       -0.706949   -2.254140    0.203058
     14          1           0       -2.259483   -2.849198   -1.128591
     15          1           0        1.176309   -0.863797   -1.318621
     16          1           0       -4.936880    1.215824   -0.589108
     17          1           0       -3.452098    2.611113    0.587775
     18          1           0       -4.523082   -1.064146   -1.109861
     19          1           0       -1.276879    1.862891    1.438559
     20          1           0        0.038404   -3.009520    0.210076
     21          1           0        0.044044    3.034190   -0.214974
     22          1           0        0.993489   -1.616651    2.115169
     23          1           0        2.890279   -0.349040    1.663779
     24          1           0        2.573391    1.721498    0.688407
     25          1           0        0.907817    3.004009   -1.840481
     26          1           0        1.646063    4.275478    0.527350
     27          1           0        2.803153    3.865817   -0.433775
     28          1           0        0.563337    0.004399    2.153599
     29          7           0        2.063012    3.459368    0.087226
     30          7           0        2.117150    0.932726    0.258791
     31          7           0       -1.978653   -2.251048   -0.315195
     32          8           0        3.529828   -2.147263    0.054069
     33          8           0        0.716167    0.397554   -1.325161
     34          8           0        1.734468   -1.705152   -1.200801
 ---------------------------------------------------------------------

 SCF Done:  E(RHF) =  -889.919332667     A.U. after    2 cycles

 The electronic state is 1-A.
 Alpha  occ. eigenvalues --  -20.53058 -20.51614 -20.51486 -15.54251 -15.54075
 Alpha  occ. eigenvalues --  -15.53692 -11.37918 -11.36077 -11.32065 -11.29787
 Alpha  occ. eigenvalues --  -11.27062 -11.25715 -11.24914 -11.24273 -11.24208
 Alpha  occ. eigenvalues --  -11.23474 -11.22447 -11.22177 -11.21475  -1.51411
 Alpha  occ. eigenvalues --   -1.49417  -1.39340  -1.29300  -1.29166  -1.23006
 Alpha  occ. eigenvalues --   -1.13770  -1.10276  -1.05333  -1.00016  -0.99902
 Alpha  occ. eigenvalues --   -0.98059  -0.92643  -0.86051  -0.85950  -0.81704
 Alpha  occ. eigenvalues --   -0.79362  -0.78351  -0.77387  -0.74946  -0.74742
 Alpha  occ. eigenvalues --   -0.71976  -0.69249  -0.68487  -0.67353  -0.66349
 Alpha  occ. eigenvalues --   -0.64957  -0.64165  -0.61901  -0.61634  -0.61143
 Alpha  occ. eigenvalues --   -0.60127  -0.59270  -0.58264  -0.56829  -0.55236
 Alpha  occ. eigenvalues --   -0.54991  -0.53656  -0.52624  -0.51018  -0.50349
 Alpha  occ. eigenvalues --   -0.49738  -0.48039  -0.46852  -0.43342  -0.42522
 Alpha  occ. eigenvalues --   -0.40960  -0.37971  -0.31602  -0.28539
 Alpha virt. eigenvalues --    0.01238   0.02961   0.03355   0.03600   0.04027
 Alpha virt. eigenvalues --    0.04501   0.05108   0.05273   0.05590   0.06656
 Alpha virt. eigenvalues --    0.07299   0.07979   0.08351   0.08503   0.09161

 Mulliken charges:
               1
     1  C   -1.520825
     2  C    0.349927
     3  C   -0.027430
     4  C    0.302121
     5  C   -1.826524
     6  C    0.159457
     7  C    1.122427
     8  C    1.130093
     9  C    0.369820
    10  C    2.183213
    11  C   -1.570658
    12  C    1.098374
    13  C   -1.528679
    14  H    0.078941
    15  H    1.214619
    16  H   -0.271611
    17  H   -0.337071
    18  H   -0.188021
    19  H   -0.343510
    20  H   -0.299179
    21  H    0.312771
    22  H    0.046494
    23  H   -0.132250
    24  H    0.342442
    25  H    0.368168
    26  H    0.239888
    27  H    0.179644
    28  H   -0.009474
    29  N    0.277307
    30  N    1.558033
    31  N    1.423597
    32  O   -1.354167
    33  O   -1.827320
    34  O   -1.520615
 Sum of Mulliken charges =  -0.00000

 Dipole moment (field-independent basis, Debye):
    X=             -1.5558    Y=              7.2075    Z=              1.0941  Tot=              7.4543

 Test job not archived.
 1\1\GINC-SE460\SP\RHF\Aug-CC-pVDZ\C13H15N3O3\OHZDE\08-Apr-2025\0\\#t h
 f aug-cc-pvdz iop(5/13=1,5/36=2,99/5=2) pseudo=read geom=check guess=(
 read,tcheck) scf=(maxcycle=1)\\title\\0,1\C,0,1.02931,2.79377,-0.70857
 3\C,0,-4.01725,0.820622,-0.195321\C,0,-3.14607,1.59055,0.475831\C,0,-3
 .73374,-0.43676,-0.631173\C,0,-2.51403,-1.00226,-0.125971\C,0,-1.57131
 ,-0.237301,0.626148\C,0,-1.8979,1.14659,0.905461\C,0,-0.398036,-1.0106
 ,0.68549\C,0,0.830601,-0.772388,1.50508\C,0,2.64187,-1.40655,-0.144926
 \C,0,2.19159,-0.373706,0.845857\C,0,1.21823,1.27695,-0.639274\C,0,-0.7

 Normal termination of Gaussian 16 at Tue Apr  8 21:33:37 2025.
