 Gaussian 16, Revision C.01,

 ----------------------------------------------------------------------
 #t hf aug-cc-pvdz symm=none int=(grid=ultrafine) guess=(read,tcheck) s
 table=(opt,rrhf)
 ----------------------------------------------------------------------
 -----
 title
 -----
 Symbolic Z-matrix:
 Charge =  0 Multiplicity = 1

 SCF Done:  E(RHF) =  -380.223191149     A.U. after   11 cycles
 Normal termination of Gaussian 16 at Tue Apr  8 21:05:24 2025.
 Gaussian 16:  ES64L-G16RevC.01  3-Jul-2019

 ----------------------------------------------------------------------
 #t hf aug-cc-pvdz iop(5/13=1,5/36=2,99/5=2) pseudo=read geom=check gue
 ss=(read,tcheck) scf=(maxcycle=1)
 ----------------------------------------------------------------------
 -----
 title
 -----
 Structure from the checkpoint file:  "ANI1ccx_1843_conf66_mol1.chk"
 Charge =  0 Multiplicity = 1

                         Standard orientation:
 ---------------------------------------------------------------------
 Center     Atomic      Atomic             Coordinates (Angstroms)
 Number     Number       Type             X           Y           Z
 ---------------------------------------------------------------------
      1          1           0        1.829569    0.494970   -0.453892
      2          1           0        2.417269    1.856928    0.120885
      3          1           0        1.114417   -1.535881   -0.058765
      4          1           0        2.594777   -1.608962    0.277792
      5          1           0       -1.143153   -1.790399    1.364500
      6          1           0       -0.576276   -0.359353    0.879683
      7          1           0       -1.269301    1.186441    0.087046
      8          1           0        0.135057    1.562790    0.521236
      9          1           0       -3.205052   -0.157000   -0.538949
     10          1           0       -1.771132   -0.710348   -0.666876
     11          8           0        1.668389    1.479629   -0.349663
     12          8           0        1.989757   -1.298102   -0.409413
     13          8           0       -0.604164   -1.330960    0.653383
     14          8           0       -0.702663    1.241500    0.885951
     15          8           0       -2.367092    0.040534   -0.971841
 ---------------------------------------------------------------------

 SCF Done:  E(RHF) =  -380.618180424     A.U. after    2 cycles

 The electronic state is 1-A.
 Alpha  occ. eigenvalues --  -20.56661 -20.56501 -20.55468 -20.55086 -20.53527
 Alpha  occ. eigenvalues --   -1.45855  -1.44673  -1.43187  -1.42501  -1.41381
 Alpha  occ. eigenvalues --   -0.73477  -0.72221  -0.70986  -0.69913  -0.69258
 Alpha  occ. eigenvalues --   -0.61793  -0.59471  -0.58650  -0.58297  -0.55132
 Alpha  occ. eigenvalues --   -0.50754  -0.50126  -0.49127  -0.48710  -0.47555
 Alpha virt. eigenvalues --    0.02870   0.03543   0.05181   0.06071   0.06985
 Alpha virt. eigenvalues --    0.08136   0.08958   0.09459   0.10591   0.12220
 Alpha virt. eigenvalues --    0.16936   0.17476   0.19068   0.20505   0.21406

 Mulliken charges:
               1
     1  H    0.682671
     2  H    0.373497
     3  H    0.607252
     4  H    0.387043
     5  H    0.403858
     6  H    0.904026
     7  H    0.554869
     8  H    0.605376
     9  H    0.369048
    10  H    0.613666
    11  O   -1.047334
    12  O   -0.972982
    13  O   -1.319404
    14  O   -1.204346
    15  O   -0.957240
 Sum of Mulliken charges =  -0.00000

 Dipole moment (field-independent basis, Debye):
    X=              0.5075    Y=             -2.2312    Z=              3.0802  Tot=              3.8371

 Test job not archived.
 1\1\GINC-SE362\SP\RHF\Aug-CC-pVDZ\H10O5\OHZDE\08-Apr-2025\0\\#t hf aug
 -cc-pvdz iop(5/13=1,5/36=2,99/5=2) pseudo=read geom=check guess=(read,
 tcheck) scf=(maxcycle=1)\\title\\0,1\H,0,1.82957,0.494971,-0.453892\H,
 0,2.41727,1.85693,0.120885\H,0,1.11442,-1.53588,-0.0587655\H,0,2.59478
 ,-1.60896,0.277792\H,0,-1.14315,-1.7904,1.3645\H,0,-0.576274,-0.359353
 ,0.879683\H,0,-1.2693,1.18644,0.0870458\H,0,0.135058,1.56279,0.521236\
 H,0,-3.20505,-0.157002,-0.538949\H,0,-1.77113,-0.710349,-0.666876\O,0,
 1.66839,1.47963,-0.349663\O,0,1.98976,-1.2981,-0.409413\O,0,-0.604161,

 Normal termination of Gaussian 16 at Tue Apr  8 21:05:27 2025.
