 Gaussian 16, Revision C.01,

 ----------------------------------------------------------------------
 #t hf aug-cc-pvdz symm=none int=(grid=ultrafine) guess=(read,tcheck) s
 table=(opt,rrhf)
 ----------------------------------------------------------------------
 -----
 title
 -----
 Symbolic Z-matrix:
 Charge =  0 Multiplicity = 1

 SCF Done:  E(RHF) =  -336.784399547     A.U. after   13 cycles
 Normal termination of Gaussian 16 at Tue Apr  8 21:44:50 2025.
 Gaussian 16:  ES64L-G16RevC.01  3-Jul-2019

 ----------------------------------------------------------------------
 #t hf aug-cc-pvdz iop(5/13=1,5/36=2,99/5=2) pseudo=read geom=check gue
 ss=(read,tcheck) scf=(maxcycle=1)
 ----------------------------------------------------------------------
 -----
 title
 -----
 Structure from the checkpoint file:  "ANI1ccx_515_conf3_mol2.chk"
 Charge =  0 Multiplicity = 1

                         Standard orientation:
 ---------------------------------------------------------------------
 Center     Atomic      Atomic             Coordinates (Angstroms)
 Number     Number       Type             X           Y           Z
 ---------------------------------------------------------------------
      1          6           0        0.745397    0.238240   -0.006994
      2          6           0       -0.730321   -0.233117   -0.012930
      3          1           0        2.578740   -0.647875    0.092018
      4          1           0        1.181704   -1.747435    0.008894
      5          1           0       -2.585714    0.658231    0.035039
      6          1           0       -1.210907    1.739807    0.001714
      7          7           0        1.587251   -0.821534    0.019169
      8          7           0       -1.598144    0.809505    0.032890
      9          8           0        1.045524    1.418264   -0.025406
     10          8           0       -1.042777   -1.411923   -0.022411
 ---------------------------------------------------------------------

 SCF Done:  E(RHF) =  -337.117262232     A.U. after    2 cycles

 The electronic state is 1-A.
 Alpha  occ. eigenvalues --  -20.54111 -20.53945 -15.54573 -15.54264 -11.38699
 Alpha  occ. eigenvalues --  -11.38572  -1.49305  -1.47775  -1.24377  -1.23925
 Alpha  occ. eigenvalues --   -0.94699  -0.84020  -0.80844  -0.76855  -0.69999
 Alpha  occ. eigenvalues --   -0.67661  -0.64108  -0.62207  -0.57530  -0.51286
 Alpha  occ. eigenvalues --   -0.46430  -0.44770  -0.42479
 Alpha virt. eigenvalues --    0.03135   0.03843   0.06422   0.06492   0.08478
 Alpha virt. eigenvalues --    0.10968   0.11073   0.11302   0.11692   0.11949
 Alpha virt. eigenvalues --    0.13525   0.15952   0.16512   0.17023   0.19291

 Mulliken charges:
               1
     1  C    0.413327
     2  C    0.425291
     3  H    0.101863
     4  H    0.083156
     5  H    0.071964
     6  H    0.082697
     7  N    0.707135
     8  N    0.714105
     9  O   -1.294260
    10  O   -1.305278
 Sum of Mulliken charges =  -0.00000

 Dipole moment (field-independent basis, Debye):
    X=              0.0453    Y=              0.0024    Z=              0.1229  Tot=              0.1310

 Test job not archived.
 1\1\GINC-SE109\SP\RHF\Aug-CC-pVDZ\C2H4N2O2\OHZDE\08-Apr-2025\0\\#t hf
 aug-cc-pvdz iop(5/13=1,5/36=2,99/5=2) pseudo=read geom=check guess=(re
 ad,tcheck) scf=(maxcycle=1)\\title\\0,1\C,0,0.7454,0.238237,-0.0069937
 7\C,0,-0.73032,-0.233115,-0.0129298\H,0,2.57874,-0.647884,0.0920177\H,
 0,1.1817,-1.74744,0.00889421\H,0,-2.58571,0.658239,0.0350395\H,0,-1.21
 09,1.73981,0.00171369\N,0,1.58725,-0.82154,0.0191687\N,0,-1.59814,0.80
 9509,0.0328902\O,0,1.04553,1.41826,-0.0254057\O,0,-1.04278,-1.41192,-0
 .0224112\\Version=ES64L-G16RevC.01\State=1-A\HF=-337.1172622\RMSD=3.03

 Normal termination of Gaussian 16 at Tue Apr  8 21:44:53 2025.
