 Gaussian 16, Revision C.01,

 ----------------------------------------------------------------------
 #t hf aug-cc-pvdz symm=none int=(grid=ultrafine) guess=(read,tcheck) s
 table=(opt,rrhf)
 ----------------------------------------------------------------------
 -----
 title
 -----
 Symbolic Z-matrix:
 Charge =  0 Multiplicity = 1

 SCF Done:  E(RHF) =  -432.535976218     A.U. after   15 cycles
 Normal termination of Gaussian 16 at Tue Apr  8 21:45:58 2025.
 Gaussian 16:  ES64L-G16RevC.01  3-Jul-2019

 ----------------------------------------------------------------------
 #t hf aug-cc-pvdz iop(5/13=1,5/36=2,99/5=2) pseudo=read geom=check gue
 ss=(read,tcheck) scf=(maxcycle=1)
 ----------------------------------------------------------------------
 -----
 title
 -----
 Structure from the checkpoint file:  "ANI1ccx_535_conf2_mol1.chk"
 Charge =  0 Multiplicity = 1

                         Standard orientation:
 ---------------------------------------------------------------------
 Center     Atomic      Atomic             Coordinates (Angstroms)
 Number     Number       Type             X           Y           Z
 ---------------------------------------------------------------------
      1          6           0       -1.550550   -0.300520    0.043116
      2          6           0        0.080292    1.238670    0.173360
      3          1           0        4.142780    0.383514   -0.187505
      4          1           0        2.718180   -0.330508    0.000741
      5          1           0        0.052690   -1.751930    0.424819
      6          1           0        0.114180    1.328570    1.241110
      7          1           0        0.350276    2.089740   -0.373075
      8          7           0       -0.350609   -0.922057    0.011615
      9          8           0        3.662940   -0.443146    0.018234
     10          8           0       -2.642650   -0.762566   -0.012331
     11          8           0        0.742443    0.055128   -0.182055
     12          8           0       -1.275520    1.038849   -0.134629
 ---------------------------------------------------------------------

 SCF Done:  E(RHF) =  -432.962594134     A.U. after    2 cycles

 The electronic state is 1-A.
 Alpha  occ. eigenvalues --  -20.65097 -20.61749 -20.55018 -20.54888 -15.62287
 Alpha  occ. eigenvalues --  -11.44768 -11.38638  -1.61992  -1.52429  -1.48178
 Alpha  occ. eigenvalues --   -1.42768  -1.23268  -0.98293  -0.93492  -0.79982
 Alpha  occ. eigenvalues --   -0.77369  -0.72788  -0.69902  -0.69549  -0.65966
 Alpha  occ. eigenvalues --   -0.64371  -0.61392  -0.57835  -0.55302  -0.49157
 Alpha  occ. eigenvalues --   -0.48884  -0.47734  -0.45968
 Alpha virt. eigenvalues --    0.02620   0.03548   0.04574   0.04869   0.08295
 Alpha virt. eigenvalues --    0.09100   0.09530   0.10910   0.11524   0.12677
 Alpha virt. eigenvalues --    0.13608   0.14671   0.15388   0.15998   0.16225

 Mulliken charges:
               1
     1  C    1.159764
     2  C    1.192977
     3  H    0.341906
     4  H    0.590441
     5  H    0.128030
     6  H    0.128231
     7  H   -0.008331
     8  N    0.910391
     9  O   -0.889976
    10  O   -1.091299
    11  O   -1.275859
    12  O   -1.186275
 Sum of Mulliken charges =   0.00000

 Dipole moment (field-independent basis, Debye):
    X=              2.2483    Y=              2.4101    Z=              1.1710  Tot=              3.4979

 Test job not archived.
 1\1\GINC-SE043\SP\RHF\Aug-CC-pVDZ\C2H5N1O4\OHZDE\08-Apr-2025\0\\#t hf
 aug-cc-pvdz iop(5/13=1,5/36=2,99/5=2) pseudo=read geom=check guess=(re
 ad,tcheck) scf=(maxcycle=1)\\title\\0,1\C,0,-1.55055,-0.300519,0.04311
 56\C,0,0.0802924,1.23867,0.17336\H,0,4.14278,0.383513,-0.187505\H,0,2.
 71818,-0.330509,0.00074112\H,0,0.0526898,-1.75193,0.424819\H,0,0.11418
 ,1.32857,1.24111\H,0,0.350277,2.08974,-0.373075\N,0,-0.350609,-0.92205
 7,0.0116152\O,0,3.66294,-0.443147,0.0182342\O,0,-2.64265,-0.762565,-0.
 0123315\O,0,0.742443,0.0551278,-0.182055\O,0,-1.27552,1.03885,-0.13462

 Normal termination of Gaussian 16 at Tue Apr  8 21:46:03 2025.
