 Gaussian 16, Revision C.01,

 ----------------------------------------------------------------------
 #t hf aug-cc-pvdz symm=none int=(grid=ultrafine) guess=(read,tcheck) s
 table=(opt,rrhf)
 ----------------------------------------------------------------------
 -----
 title
 -----
 Symbolic Z-matrix:
 Charge =  0 Multiplicity = 1

 SCF Done:  E(RHF) =  -355.347507965     A.U. after   14 cycles
 Normal termination of Gaussian 16 at Tue Apr  8 21:40:33 2025.
 Gaussian 16:  ES64L-G16RevC.01  3-Jul-2019

 ----------------------------------------------------------------------
 #t hf aug-cc-pvdz iop(5/13=1,5/36=2,99/5=2) pseudo=read geom=check gue
 ss=(read,tcheck) scf=(maxcycle=1)
 ----------------------------------------------------------------------
 -----
 title
 -----
 Structure from the checkpoint file:  "ANI1ccx_469_conf10_mol1.chk"
 Charge =  0 Multiplicity = 1

                         Standard orientation:
 ---------------------------------------------------------------------
 Center     Atomic      Atomic             Coordinates (Angstroms)
 Number     Number       Type             X           Y           Z
 ---------------------------------------------------------------------
      1          6           0       -0.773819   -0.012456   -0.019291
      2          6           0        1.280290    0.557787   -0.068272
      3          1           0        2.045869    1.271192   -0.030961
      4          7           0        1.412541   -0.684858   -0.000507
      5          8           0       -1.965810    0.021964   -0.029460
      6          8           0        0.057023    1.080100    0.065149
      7          8           0        0.037228   -1.070710    0.034298
 ---------------------------------------------------------------------

 SCF Done:  E(RHF) =  -355.690006920     A.U. after    2 cycles

 The electronic state is 1-A.
 Alpha  occ. eigenvalues --  -20.67599 -20.66600 -20.57160 -15.62345 -11.48173
 Alpha  occ. eigenvalues --  -11.40074  -1.69255  -1.55348  -1.51715  -1.26072
 Alpha  occ. eigenvalues --   -0.96267  -0.92583  -0.80526  -0.77231  -0.70426
 Alpha  occ. eigenvalues --   -0.69031  -0.63056  -0.61038  -0.60152  -0.58520
 Alpha  occ. eigenvalues --   -0.49924  -0.45846
 Alpha virt. eigenvalues --    0.02540   0.06506   0.07436   0.07826   0.09723
 Alpha virt. eigenvalues --    0.10460   0.10982   0.12733   0.13720   0.15635
 Alpha virt. eigenvalues --    0.17052   0.17761   0.18879   0.19151   0.22447

 Mulliken charges:
               1
     1  C    2.124532
     2  C    0.279686
     3  H   -0.064404
     4  N    0.981328
     5  O   -1.069319
     6  O   -1.046164
     7  O   -1.205660
 Sum of Mulliken charges =  -0.00000

 Dipole moment (field-independent basis, Debye):
    X=              3.0772    Y=              2.4673    Z=             -0.1794  Tot=              3.9482

 Test job not archived.
 1\1\GINC-SE090\SP\RHF\Aug-CC-pVDZ\C2H1N1O3\OHZDE\08-Apr-2025\0\\#t hf
 aug-cc-pvdz iop(5/13=1,5/36=2,99/5=2) pseudo=read geom=check guess=(re
 ad,tcheck) scf=(maxcycle=1)\\title\\0,1\C,0,-0.773819,-0.012455,-0.019
 291\C,0,1.28029,0.557786,-0.0682725\H,0,2.04587,1.27119,-0.0309609\N,0
 ,1.41254,-0.684859,-0.00050691\O,0,-1.96581,0.0219656,-0.0294603\O,0,0
 .0570236,1.0801,0.0651486\O,0,0.0372266,-1.07071,0.0342979\\Version=ES
 64L-G16RevC.01\State=1-A\HF=-355.6900069\RMSD=1.368e-02\Dipole=1.21064
 97,0.970709,-0.0705766\Quadrupole=-1.933134,0.1449326,1.7882014,3.8647

 Normal termination of Gaussian 16 at Tue Apr  8 21:40:35 2025.
