 Gaussian 16, Revision C.01,

 ----------------------------------------------------------------------
 #t hf aug-cc-pvdz symm=none int=(grid=ultrafine) guess=(read,tcheck) s
 table=(opt,rrhf)
 ----------------------------------------------------------------------
 -----
 title
 -----
 Symbolic Z-matrix:
 Charge =  0 Multiplicity = 1

 SCF Done:  E(RHF) =  -487.878363963     A.U. after   14 cycles
 Normal termination of Gaussian 16 at Tue Apr  8 19:16:35 2025.
 Gaussian 16:  ES64L-G16RevC.01  3-Jul-2019

 ----------------------------------------------------------------------
 #t hf aug-cc-pvdz iop(5/13=1,5/36=2,99/5=2) pseudo=read geom=check gue
 ss=(read,tcheck) scf=(maxcycle=1)
 ----------------------------------------------------------------------
 -----
 title
 -----
 Structure from the checkpoint file:  "ANI1ccx_1001_conf3_mol2.chk"
 Charge =  0 Multiplicity = 1

                         Standard orientation:
 ---------------------------------------------------------------------
 Center     Atomic      Atomic             Coordinates (Angstroms)
 Number     Number       Type             X           Y           Z
 ---------------------------------------------------------------------
      1          6           0        2.197621   -0.050247    0.088506
      2          6           0        0.225558    0.451401   -0.380700
      3          6           0       -1.064640    1.194849   -0.684046
      4          6           0       -2.119140    1.079959    0.390288
      5          6           0       -2.479249   -0.298696    0.843791
      6          1           0       -3.188478   -1.856382   -0.080677
      7          1           0       -3.415539   -0.248499    1.381940
      8          1           0       -1.701899   -0.707796    1.535410
      9          1           0       -1.950560    1.673159    1.302440
     10          1           0       -3.046330    1.531218    0.053417
     11          1           0       -0.814740    2.250639   -0.888778
     12          1           0       -1.481930    0.762896   -1.585820
     13          1           0       -0.360786   -1.608040   -0.559399
     14          1           0        4.019941   -0.800094    0.625894
     15          1           0        3.778350    0.865372    0.979778
     16          7           0        3.543861    0.072998    0.405425
     17          7           0        1.623011   -1.193399   -0.123288
     18          7           0        0.337395   -0.874347   -0.440923
     19          7           0        1.378170    0.994843   -0.110919
     20          8           0       -2.571999   -1.140841   -0.302913
 ---------------------------------------------------------------------

 SCF Done:  E(RHF) =  -488.384071422     A.U. after    2 cycles

 The electronic state is 1-A.
 Alpha  occ. eigenvalues --  -20.57214 -15.55919 -15.50006 -15.48891 -15.46771
 Alpha  occ. eigenvalues --  -11.30641 -11.30455 -11.29925 -11.25088 -11.24264
 Alpha  occ. eigenvalues --   -1.47099  -1.39489  -1.21618  -1.18008  -1.11502
 Alpha  occ. eigenvalues --   -1.07049  -0.96679  -0.87453  -0.84521  -0.82552
 Alpha  occ. eigenvalues --   -0.76613  -0.73086  -0.69788  -0.68970  -0.66925
 Alpha  occ. eigenvalues --   -0.65618  -0.62538  -0.59596  -0.58235  -0.55908
 Alpha  occ. eigenvalues --   -0.52354  -0.51850  -0.50729  -0.49959  -0.46745
 Alpha  occ. eigenvalues --   -0.45617  -0.43284  -0.36283
 Alpha virt. eigenvalues --    0.02536   0.03426   0.03729   0.04210   0.05349
 Alpha virt. eigenvalues --    0.05776   0.06268   0.06973   0.07796   0.08051
 Alpha virt. eigenvalues --    0.10550   0.12083   0.12898   0.13468   0.13973

 Mulliken charges:
               1
     1  C   -2.622394
     2  C   -1.508396
     3  C    0.461776
     4  C   -0.255566
     5  C    0.683907
     6  H    0.320245
     7  H    0.018406
     8  H    0.270193
     9  H    0.138071
    10  H    0.119135
    11  H    0.169974
    12  H    0.274743
    13  H    0.110068
    14  H    0.150691
    15  H    0.103896
    16  N    0.739867
    17  N    0.579163
    18  N    0.262696
    19  N    1.189552
    20  O   -1.206029
 Sum of Mulliken charges =   0.00000

 Dipole moment (field-independent basis, Debye):
    X=             -4.1285    Y=             -0.3696    Z=              2.0914  Tot=              4.6428

 Test job not archived.
 1\1\GINC-SE089\SP\RHF\Aug-CC-pVDZ\C5H10N4O1\OHZDE\08-Apr-2025\0\\#t hf
  aug-cc-pvdz iop(5/13=1,5/36=2,99/5=2) pseudo=read geom=check guess=(r
 ead,tcheck) scf=(maxcycle=1)\\title\\0,1\C,0,2.19762,-0.0502478,0.0885
 063\C,0,0.225558,0.451401,-0.3807\C,0,-1.06464,1.19485,-0.684046\C,0,-
 2.11914,1.07996,0.390288\C,0,-2.47925,-0.298695,0.843791\H,0,-3.18848,
 -1.85638,-0.0806772\H,0,-3.41554,-0.248497,1.38194\H,0,-1.7019,-0.7077
 95,1.53541\H,0,-1.95056,1.67316,1.30244\H,0,-3.04633,1.53122,0.0534167
 \H,0,-0.81474,2.25064,-0.888778\H,0,-1.48193,0.762897,-1.58582\H,0,-0.

 Normal termination of Gaussian 16 at Tue Apr  8 19:16:46 2025.
