 Gaussian 16, Revision C.01,

 ----------------------------------------------------------------------
 #t hf aug-cc-pvdz symm=none int=(grid=ultrafine) guess=(read,tcheck) s
 table=(opt,rrhf)
 ----------------------------------------------------------------------
 -----
 title
 -----
 Symbolic Z-matrix:
 Charge =  0 Multiplicity = 1

 SCF Done:  E(RHF) =  -563.366386800     A.U. after   15 cycles
 Normal termination of Gaussian 16 at Tue Apr  8 22:09:12 2025.
 Gaussian 16:  ES64L-G16RevC.01  3-Jul-2019

 ----------------------------------------------------------------------
 #t hf aug-cc-pvdz iop(5/13=1,5/36=2,99/5=2) pseudo=read geom=check gue
 ss=(read,tcheck) scf=(maxcycle=1)
 ----------------------------------------------------------------------
 -----
 title
 -----
 Structure from the checkpoint file:  "ANI1ccx_918_conf14_mol1.chk"
 Charge =  0 Multiplicity = 1

                         Standard orientation:
 ---------------------------------------------------------------------
 Center     Atomic      Atomic             Coordinates (Angstroms)
 Number     Number       Type             X           Y           Z
 ---------------------------------------------------------------------
      1          6           0        1.160641   -0.038959    0.010232
      2          6           0       -0.815591    1.321739    0.067474
      3          6           0       -1.485479   -0.029948    0.528170
      4          6           0       -0.892027   -1.223791   -0.219457
      5          1           0        1.383031   -1.391021    1.563630
      6          1           0        1.751931    0.114685    1.997310
      7          1           0        2.817531   -0.827351   -0.787619
      8          1           0        2.493561    0.789810   -1.359230
      9          1           0       -1.487499   -0.107307    1.603000
     10          1           0       -2.521709   -0.025454    0.234336
     11          7           0        1.035941   -0.425749    1.430670
     12          7           0        2.431991    0.187698   -0.493666
     13          8           0        0.588479    1.285599   -0.095662
     14          8           0       -1.543459    2.307549   -0.306703
     15          8           0       -1.521799   -2.246131   -0.328255
     16          8           0        0.412077   -0.979675   -0.785502
 ---------------------------------------------------------------------

 SCF Done:  E(RHF) =  -563.916244648     A.U. after    2 cycles

 The electronic state is 1-A.
 Alpha  occ. eigenvalues --  -20.62805 -20.62379 -20.57793 -20.56270 -15.54948
 Alpha  occ. eigenvalues --  -15.54723 -11.46237 -11.43692 -11.43585 -11.29601
 Alpha  occ. eigenvalues --   -1.57854  -1.52986  -1.48633  -1.43694  -1.25461
 Alpha  occ. eigenvalues --   -1.19374  -1.07340  -0.92602  -0.87557  -0.80316
 Alpha  occ. eigenvalues --   -0.77751  -0.76762  -0.73751  -0.70647  -0.68547
 Alpha  occ. eigenvalues --   -0.66676  -0.66150  -0.63007  -0.61131  -0.59966
 Alpha  occ. eigenvalues --   -0.57220  -0.55596  -0.54100  -0.50560  -0.49922
 Alpha  occ. eigenvalues --   -0.48201  -0.46684  -0.44406
 Alpha virt. eigenvalues --    0.02078   0.03863   0.04759   0.05092   0.05865
 Alpha virt. eigenvalues --    0.05985   0.08616   0.08961   0.09948   0.10877
 Alpha virt. eigenvalues --    0.11607   0.12329   0.12665   0.13189   0.13793

 Mulliken charges:
               1
     1  C   -0.099183
     2  C    1.927172
     3  C   -0.436740
     4  C    1.796924
     5  H    0.391469
     6  H    0.384582
     7  H    0.335093
     8  H    0.271393
     9  H    0.369643
    10  H    0.111738
    11  N    0.064387
    12  N    0.644941
    13  O   -1.525572
    14  O   -1.338307
    15  O   -1.313827
    16  O   -1.583712
 Sum of Mulliken charges =  -0.00000

 Dipole moment (field-independent basis, Debye):
    X=              3.8363    Y=             -1.8869    Z=              1.7726  Tot=              4.6282

 Test job not archived.
 1\1\GINC-SE036\SP\RHF\Aug-CC-pVDZ\C4H6N2O4\OHZDE\08-Apr-2025\0\\#t hf
 aug-cc-pvdz iop(5/13=1,5/36=2,99/5=2) pseudo=read geom=check guess=(re
 ad,tcheck) scf=(maxcycle=1)\\title\\0,1\C,0,1.16064,-0.0389586,0.01023
 21\C,0,-0.815592,1.32174,0.067474\C,0,-1.48548,-0.0299467,0.52817\C,0,
 -0.892028,-1.22379,-0.219457\H,0,1.38303,-1.39102,1.56363\H,0,1.75193,
 0.114686,1.99731\H,0,2.81753,-0.82735,-0.787619\H,0,2.49356,0.789811,-
 1.35923\H,0,-1.4875,-0.107306,1.603\H,0,-2.52171,-0.0254528,0.234336\N
 ,0,1.03594,-0.425748,1.43067\N,0,2.43199,0.187699,-0.493666\O,0,0.5884

 Normal termination of Gaussian 16 at Tue Apr  8 22:09:21 2025.
