 Gaussian 16, Revision C.01,

 ----------------------------------------------------------------------
 #t hf aug-cc-pvdz symm=none int=(grid=ultrafine) guess=(read,tcheck) s
 table=(opt,rrhf)
 ----------------------------------------------------------------------
 -----
 title
 -----
 Symbolic Z-matrix:
 Charge =  0 Multiplicity = 1

 SCF Done:  E(RHF) =  -603.573693907     A.U. after   14 cycles
 Normal termination of Gaussian 16 at Tue Apr  8 22:19:11 2025.
 Gaussian 16:  ES64L-G16RevC.01  3-Jul-2019

 ----------------------------------------------------------------------
 #t hf aug-cc-pvdz iop(5/13=1,5/36=2,99/5=2) pseudo=read geom=check gue
 ss=(read,tcheck) scf=(maxcycle=1)
 ----------------------------------------------------------------------
 -----
 title
 -----
 Structure from the checkpoint file:  "ANI1ccx_999_conf4_mol1.chk"
 Charge =  0 Multiplicity = 1

                         Standard orientation:
 ---------------------------------------------------------------------
 Center     Atomic      Atomic             Coordinates (Angstroms)
 Number     Number       Type             X           Y           Z
 ---------------------------------------------------------------------
      1          6           0       -2.021579    0.085970    0.673154
      2          6           0       -1.297213   -1.141996    0.169895
      3          6           0        1.030211   -0.016769    0.347426
      4          6           0        0.568397    1.377189   -0.082075
      5          6           0        2.339500   -0.349105   -0.390427
      6          1           0        1.655927    2.215666    1.318040
      7          1           0        2.903736   -1.688227    0.869681
      8          1           0        3.080922    0.419818   -0.114520
      9          1           0        2.071320   -0.315574   -1.448070
     10          1           0        1.263330   -0.033196    1.449060
     11          1           0       -1.351087    0.831413    1.124790
     12          1           0       -2.708470   -0.292352    1.378790
     13          1           0       -3.517106    1.344250   -0.065709
     14          1           0       -2.206856    1.202487   -0.995834
     15          1           0        0.477228   -1.953150   -0.145210
     16          7           0       -2.863728    0.629455   -0.416687
     17          7           0        0.062838   -1.048149   -0.065846
     18          8           0        2.849476   -1.634557   -0.121508
     19          8           0       -1.898255   -2.242544   -0.024257
     20          8           0       -0.268604    1.608332   -0.945892
     21          8           0        1.095057    2.452268    0.554017
 ---------------------------------------------------------------------

 SCF Done:  E(RHF) =  -604.178318555     A.U. after    2 cycles

 The electronic state is 1-A.
 Alpha  occ. eigenvalues --  -20.64196 -20.60238 -20.56766 -20.50958 -15.54474
 Alpha  occ. eigenvalues --  -15.48633 -11.43838 -11.36825 -11.35048 -11.33921
 Alpha  occ. eigenvalues --  -11.27296  -1.57648  -1.49719  -1.47627  -1.42371
 Alpha  occ. eigenvalues --   -1.25927  -1.17360  -1.08598  -0.97169  -0.93238
 Alpha  occ. eigenvalues --   -0.87431  -0.83755  -0.77416  -0.75366  -0.72319
 Alpha  occ. eigenvalues --   -0.70427  -0.69355  -0.67413  -0.66170  -0.64292
 Alpha  occ. eigenvalues --   -0.63157  -0.62872  -0.61000  -0.57827  -0.56422
 Alpha  occ. eigenvalues --   -0.54516  -0.53021  -0.50816  -0.48937  -0.47650
 Alpha  occ. eigenvalues --   -0.45140  -0.42083  -0.41440
 Alpha virt. eigenvalues --    0.00604   0.02798   0.03051   0.04313   0.05275
 Alpha virt. eigenvalues --    0.05772   0.06524   0.07049   0.08088   0.08470
 Alpha virt. eigenvalues --    0.09754   0.10220   0.11230   0.11680   0.12019

 Mulliken charges:
               1
     1  C   -0.391204
     2  C    0.603060
     3  C   -1.498797
     4  C    2.816402
     5  C    1.133714
     6  H    0.374065
     7  H    0.343537
     8  H    0.137050
     9  H    0.204756
    10  H    0.006371
    11  H    0.165980
    12  H   -0.087135
    13  H    0.206923
    14  H    0.145442
    15  H    0.190261
    16  N    0.205743
    17  N    0.978010
    18  O   -1.210875
    19  O   -1.374271
    20  O   -1.516519
    21  O   -1.432514
 Sum of Mulliken charges =   0.00000

 Dipole moment (field-independent basis, Debye):
    X=              5.8578    Y=              3.3639    Z=              5.4445  Tot=              8.6759

 Test job not archived.
 1\1\GINC-SE457\SP\RHF\Aug-CC-pVDZ\C5H10N2O4\OHZDE\08-Apr-2025\0\\#t hf
  aug-cc-pvdz iop(5/13=1,5/36=2,99/5=2) pseudo=read geom=check guess=(r
 ead,tcheck) scf=(maxcycle=1)\\title\\0,1\C,0,-2.02158,0.0859639,0.6731
 54\C,0,-1.29721,-1.142,0.169895\C,0,1.03021,-0.0167667,0.347426\C,0,0.
 568393,1.37719,-0.0820755\C,0,2.3395,-0.3491,-0.390427\H,0,1.65592,2.2
 1567,1.31804\H,0,2.90374,-1.68822,0.869681\H,0,3.08092,0.419825,-0.114
 52\H,0,2.07132,-0.315569,-1.44807\H,0,1.26333,-0.0331935,1.44906\H,0,-
 1.35109,0.831408,1.12479\H,0,-2.70847,-0.29236,1.37879\H,0,-3.51711,1.

 Normal termination of Gaussian 16 at Tue Apr  8 22:19:25 2025.
