 Gaussian 16, Revision C.01,

 ----------------------------------------------------------------------
 #t hf aug-cc-pvdz symm=none int=(grid=ultrafine) guess=(read,tcheck) s
 table=(opt,rrhf)
 ----------------------------------------------------------------------
 -----
 title
 -----
 Symbolic Z-matrix:
 Charge =  0 Multiplicity = 1

 SCF Done:  E(RHF) =  -583.230275134     A.U. after   16 cycles
 Normal termination of Gaussian 16 at Tue Apr  8 22:06:59 2025.
 Gaussian 16:  ES64L-G16RevC.01  3-Jul-2019

 ----------------------------------------------------------------------
 #t hf aug-cc-pvdz iop(5/13=1,5/36=2,99/5=2) pseudo=read geom=check gue
 ss=(read,tcheck) scf=(maxcycle=1)
 ----------------------------------------------------------------------
 -----
 title
 -----
 Structure from the checkpoint file:  "ANI1ccx_900_conf8_mol1.chk"
 Charge =  0 Multiplicity = 1

                         Standard orientation:
 ---------------------------------------------------------------------
 Center     Atomic      Atomic             Coordinates (Angstroms)
 Number     Number       Type             X           Y           Z
 ---------------------------------------------------------------------
      1          6           0       -2.045351   -0.081627   -0.011101
      2          6           0       -1.077211    0.642779   -0.921994
      3          6           0        1.318049    0.711618    0.060910
      4          6           0        1.343039   -0.788994    0.089446
      5          1           0       -1.458941    1.145091    1.180040
      6          1           0       -0.707898   -0.184962   -1.608210
      7          1           0       -1.594381    1.165530   -1.672290
      8          1           0        0.143939    2.312131   -0.460603
      9          1           0        3.011039   -0.610054   -0.151275
     10          7           0        0.072209    1.299321   -0.200563
     11          8           0       -2.033371    0.374352    1.249280
     12          8           0       -2.805731   -0.876662   -0.384046
     13          8           0        2.405509    1.311202    0.140078
     14          8           0        2.462589   -1.367928   -0.000327
     15          8           0        0.329706   -1.419169    0.096603
 ---------------------------------------------------------------------

 SCF Done:  E(RHF) =  -583.796729848     A.U. after    2 cycles

 The electronic state is 1-A.
 Alpha  occ. eigenvalues --  -20.63984 -20.59963 -20.59849 -20.56664 -20.53471
 Alpha  occ. eigenvalues --  -15.60153 -11.44091 -11.42715 -11.39393 -11.32842
 Alpha  occ. eigenvalues --   -1.63277  -1.56190  -1.52027  -1.50508  -1.47770
 Alpha  occ. eigenvalues --   -1.28248  -1.05311  -0.98748  -0.87683  -0.83983
 Alpha  occ. eigenvalues --   -0.81456  -0.76883  -0.76387  -0.71843  -0.70883
 Alpha  occ. eigenvalues --   -0.69396  -0.67063  -0.65003  -0.62713  -0.62465
 Alpha  occ. eigenvalues --   -0.58719  -0.57207  -0.54937  -0.50660  -0.49779
 Alpha  occ. eigenvalues --   -0.48072  -0.46434  -0.44442
 Alpha virt. eigenvalues --    0.01750   0.03603   0.03964   0.04118   0.05419
 Alpha virt. eigenvalues --    0.05834   0.07926   0.08833   0.09110   0.09892
 Alpha virt. eigenvalues --    0.11781   0.12237   0.13069   0.13759   0.13951

 Mulliken charges:
               1
     1  C    2.294718
     2  C   -0.724017
     3  C    0.442440
     4  C    2.222607
     5  H    0.488313
     6  H    0.393802
     7  H    0.034826
     8  H    0.267256
     9  H    0.346140
    10  N    0.405061
    11  O   -1.286424
    12  O   -1.291641
    13  O   -1.260140
    14  O   -1.192000
    15  O   -1.140941
 Sum of Mulliken charges =  -0.00000

 Dipole moment (field-independent basis, Debye):
    X=              2.6953    Y=              4.7708    Z=             -2.1926  Tot=              5.9019

 Test job not archived.
 1\1\GINC-SE252\SP\RHF\Aug-CC-pVDZ\C4H5N1O5\OHZDE\08-Apr-2025\0\\#t hf
 aug-cc-pvdz iop(5/13=1,5/36=2,99/5=2) pseudo=read geom=check guess=(re
 ad,tcheck) scf=(maxcycle=1)\\title\\0,1\C,0,-2.04535,-0.0816269,-0.011
 1016\C,0,-1.07721,0.642778,-0.921994\C,0,1.31805,0.711617,0.06091\C,0,
 1.34304,-0.788995,0.0894459\H,0,-1.45894,1.14509,1.18004\H,0,-0.707897
 ,-0.184963,-1.60821\H,0,-1.59438,1.16553,-1.67229\H,0,0.143941,2.31213
 ,-0.460603\H,0,3.01104,-0.610056,-0.151275\N,0,0.0722099,1.29932,-0.20
 0563\O,0,-2.03337,0.374352,1.24928\O,0,-2.80573,-0.876662,-0.384046\O,

 Normal termination of Gaussian 16 at Tue Apr  8 22:07:06 2025.
