 Gaussian 16, Revision C.01,

 ----------------------------------------------------------------------
 #t hf aug-cc-pvdz symm=none int=(grid=ultrafine) guess=(read,tcheck) s
 table=(opt,rrhf)
 ----------------------------------------------------------------------
 -----
 title
 -----
 Symbolic Z-matrix:
 Charge =  0 Multiplicity = 1

 SCF Done:  E(RHF) =  -471.567728262     A.U. after   13 cycles
 Normal termination of Gaussian 16 at Tue Apr  8 21:53:21 2025.
 Gaussian 16:  ES64L-G16RevC.01  3-Jul-2019

 ----------------------------------------------------------------------
 #t hf aug-cc-pvdz iop(5/13=1,5/36=2,99/5=2) pseudo=read geom=check gue
 ss=(read,tcheck) scf=(maxcycle=1)
 ----------------------------------------------------------------------
 -----
 title
 -----
 Structure from the checkpoint file:  "ANI1ccx_745_conf2_mol1.chk"
 Charge =  0 Multiplicity = 1

                         Standard orientation:
 ---------------------------------------------------------------------
 Center     Atomic      Atomic             Coordinates (Angstroms)
 Number     Number       Type             X           Y           Z
 ---------------------------------------------------------------------
      1          6           0        2.284649   -0.098559   -0.460544
      2          6           0        1.422549   -0.917852    0.459896
      3          6           0       -0.806544   -0.203484    0.135195
      4          1           0        1.411750    1.640590   -0.171981
      5          1           0        1.816129   -0.349514   -1.468470
      6          1           0        3.389379   -0.443565   -0.518583
      7          1           0        1.737699   -1.904410    0.367807
      8          1           0        1.396559   -0.466762    1.467550
      9          1           0       -2.427021   -1.381809   -0.100049
     10          1           0       -2.209940    1.258760    0.029402
     11          7           0       -2.006381   -0.516300   -0.404827
     12          8           0        2.371520    1.215840   -0.116591
     13          8           0        0.078312   -1.155500    0.043510
     14          8           0       -0.618779    0.923531    0.551869
     15          8           0       -2.890281    0.588652   -0.176185
 ---------------------------------------------------------------------

 SCF Done:  E(RHF) =  -472.039635005     A.U. after    2 cycles

 The electronic state is 1-A.
 Alpha  occ. eigenvalues --  -20.61977 -20.59098 -20.55919 -20.55587 -15.59286
 Alpha  occ. eigenvalues --  -11.43747 -11.31095 -11.30756  -1.60019  -1.52335
 Alpha  occ. eigenvalues --   -1.46898  -1.46019  -1.20149  -1.04800  -0.91055
 Alpha  occ. eigenvalues --   -0.86021  -0.79766  -0.74931  -0.73665  -0.69745
 Alpha  occ. eigenvalues --   -0.67990  -0.66097  -0.62895  -0.60767  -0.59204
 Alpha  occ. eigenvalues --   -0.56631  -0.55364  -0.52188  -0.49340  -0.47783
 Alpha  occ. eigenvalues --   -0.44425  -0.43316
 Alpha virt. eigenvalues --    0.03180   0.03933   0.04499   0.04953   0.06040
 Alpha virt. eigenvalues --    0.06767   0.07817   0.10507   0.10982   0.12287
 Alpha virt. eigenvalues --    0.12766   0.14265   0.14865   0.15298   0.15876

 Mulliken charges:
               1
     1  C    0.430967
     2  C    0.475006
     3  C    0.942942
     4  H    0.458260
     5  H    0.257159
     6  H    0.146122
     7  H   -0.117089
     8  H    0.222131
     9  H    0.210196
    10  H    0.433993
    11  N    1.234927
    12  O   -1.239508
    13  O   -1.291138
    14  O   -1.086720
    15  O   -1.077246
 Sum of Mulliken charges =  -0.00000

 Dipole moment (field-independent basis, Debye):
    X=              0.6298    Y=             -2.7194    Z=              0.3775  Tot=              2.8168

 Test job not archived.
 1\1\GINC-SE368\SP\RHF\Aug-CC-pVDZ\C3H7N1O4\OHZDE\08-Apr-2025\0\\#t hf
 aug-cc-pvdz iop(5/13=1,5/36=2,99/5=2) pseudo=read geom=check guess=(re
 ad,tcheck) scf=(maxcycle=1)\\title\\0,1\C,0,2.28465,-0.0985592,-0.4605
 44\C,0,1.42255,-0.917852,0.459896\C,0,-0.806543,-0.203484,0.135195\H,0
 ,1.41175,1.64059,-0.171981\H,0,1.81613,-0.349514,-1.46847\H,0,3.38938,
 -0.443565,-0.518583\H,0,1.7377,-1.90441,0.367807\H,0,1.39656,-0.466762
 ,1.46755\H,0,-2.42702,-1.38181,-0.100049\H,0,-2.20994,1.25876,0.029402
 2\N,0,-2.00638,-0.5163,-0.404827\O,0,2.37152,1.21584,-0.116591\O,0,0.0

 Normal termination of Gaussian 16 at Tue Apr  8 21:53:25 2025.
