 Gaussian 16, Revision C.01,

 ----------------------------------------------------------------------
 #t hf aug-cc-pvdz symm=none int=(grid=ultrafine) guess=(read,tcheck) s
 table=(opt,rrhf)
 ----------------------------------------------------------------------
 -----
 title
 -----
 Symbolic Z-matrix:
 Charge =  0 Multiplicity = 1

 SCF Done:  E(RHF) =  -555.307793647     A.U. after   17 cycles
 Normal termination of Gaussian 16 at Tue Apr  8 22:03:13 2025.
 Gaussian 16:  ES64L-G16RevC.01  3-Jul-2019

 ----------------------------------------------------------------------
 #t hf aug-cc-pvdz iop(5/13=1,5/36=2,99/5=2) pseudo=read geom=check gue
 ss=(read,tcheck) scf=(maxcycle=1)
 ----------------------------------------------------------------------
 -----
 title
 -----
 Structure from the checkpoint file:  "ANI1ccx_886_conf17_mol1.chk"
 Charge =  0 Multiplicity = 1

                         Standard orientation:
 ---------------------------------------------------------------------
 Center     Atomic      Atomic             Coordinates (Angstroms)
 Number     Number       Type             X           Y           Z
 ---------------------------------------------------------------------
      1          6           0        1.277650    0.701422    0.003275
      2          6           0       -0.942863    0.704430    0.022209
      3          6           0       -0.930836   -0.737360   -0.019528
      4          6           0        1.340821   -0.733242   -0.075830
      5          1           0        3.207980    1.069651   -0.705854
      6          1           0        2.430420    2.279771    0.032498
      7          1           0        3.141691   -0.740525    0.709864
      8          1           0        2.609971   -2.212329    0.208140
      9          7           0        2.513390    1.288151    0.034880
     10          7           0        0.185296    1.421550    0.023352
     11          7           0       -2.204660    1.097900    0.006473
     12          7           0       -2.187939   -1.095660    0.029461
     13          7           0        0.246867   -1.485230   -0.079922
     14          7           0        2.588831   -1.228109    0.007234
     15          8           0       -2.981399    0.000215    0.003033
 ---------------------------------------------------------------------

 SCF Done:  E(RHF) =  -555.857322294     A.U. after    2 cycles

 The electronic state is 1-A.
 Alpha  occ. eigenvalues --  -20.67258 -15.57939 -15.57718 -15.56321 -15.56129
 Alpha  occ. eigenvalues --  -15.54962 -15.54599 -11.37946 -11.37880 -11.32407
 Alpha  occ. eigenvalues --  -11.32036  -1.62517  -1.36928  -1.30146  -1.27657
 Alpha  occ. eigenvalues --   -1.23253  -1.18527  -1.16992  -0.99532  -0.92885
 Alpha  occ. eigenvalues --   -0.89818  -0.83151  -0.82868  -0.78089  -0.74685
 Alpha  occ. eigenvalues --   -0.73191  -0.72332  -0.71155  -0.64791  -0.64278
 Alpha  occ. eigenvalues --   -0.59754  -0.58811  -0.57451  -0.53865  -0.51729
 Alpha  occ. eigenvalues --   -0.51527  -0.46954  -0.41431  -0.39217
 Alpha virt. eigenvalues --   -0.01001   0.01480   0.03219   0.04856   0.05286
 Alpha virt. eigenvalues --    0.07702   0.08442   0.09171   0.09576   0.10357
 Alpha virt. eigenvalues --    0.11703   0.12076   0.12240   0.12479   0.12894

 Mulliken charges:
               1
     1  C   -1.786480
     2  C   -1.160239
     3  C   -1.284685
     4  C   -1.801495
     5  H    0.290072
     6  H    0.019574
     7  H    0.319598
     8  H    0.059012
     9  N    0.865051
    10  N    1.110974
    11  N    1.438020
    12  N    1.469992
    13  N    1.077583
    14  N    0.898428
    15  O   -1.515407
 Sum of Mulliken charges =  -0.00000

 Dipole moment (field-independent basis, Debye):
    X=              8.7531    Y=              0.3839    Z=              0.1256  Tot=              8.7624

 Test job not archived.
 1\1\GINC-SE334\SP\RHF\Aug-CC-pVDZ\C4H4N6O1\OHZDE\08-Apr-2025\0\\#t hf
 aug-cc-pvdz iop(5/13=1,5/36=2,99/5=2) pseudo=read geom=check guess=(re
 ad,tcheck) scf=(maxcycle=1)\\title\\0,1\C,0,1.27765,0.701421,0.0032748
 \C,0,-0.942863,0.70443,0.0222091\C,0,-0.930837,-0.73736,-0.0195279\C,0
 ,1.34082,-0.733243,-0.0758304\H,0,3.20798,1.06965,-0.705854\H,0,2.4304
 2,2.27977,0.0324978\H,0,3.14169,-0.740526,0.709864\H,0,2.60997,-2.2123
 3,0.20814\N,0,2.51339,1.28815,0.0348799\N,0,0.185296,1.42155,0.0233517
 \N,0,-2.20466,1.0979,0.00647288\N,0,-2.18794,-1.09566,0.0294611\N,0,0.

 Normal termination of Gaussian 16 at Tue Apr  8 22:03:21 2025.
