 Gaussian 16, Revision C.01,

 ----------------------------------------------------------------------
 #t hf aug-cc-pvdz symm=none int=(grid=ultrafine) guess=(read,tcheck) s
 table=(opt,rrhf)
 ----------------------------------------------------------------------
 -----
 title
 -----
 Symbolic Z-matrix:
 Charge =  0 Multiplicity = 1

 SCF Done:  E(RHF) =  -371.278671053     A.U. after   15 cycles
 Normal termination of Gaussian 16 at Tue Apr  8 21:39:42 2025.
 Gaussian 16:  ES64L-G16RevC.01  3-Jul-2019

 ----------------------------------------------------------------------
 #t hf aug-cc-pvdz iop(5/13=1,5/36=2,99/5=2) pseudo=read geom=check gue
 ss=(read,tcheck) scf=(maxcycle=1)
 ----------------------------------------------------------------------
 -----
 title
 -----
 Structure from the checkpoint file:  "ANI1ccx_455_conf27_mol1.chk"
 Charge =  0 Multiplicity = 1

                         Standard orientation:
 ---------------------------------------------------------------------
 Center     Atomic      Atomic             Coordinates (Angstroms)
 Number     Number       Type             X           Y           Z
 ---------------------------------------------------------------------
      1          6           0       -0.748608    0.022440   -0.065383
      2          7           0        1.371481   -0.640570    0.064088
      3          7           0        1.362170    0.569171   -0.005072
      4          8           0       -1.953650   -0.062145    0.053046
      5          8           0        0.073434   -1.006090   -0.049449
      6          8           0        0.049727    1.113880   -0.006200
 ---------------------------------------------------------------------

 SCF Done:  E(RHF) =  -371.635732480     A.U. after    2 cycles

 The electronic state is 1-A.
 Alpha  occ. eigenvalues --  -20.71429 -20.70329 -20.58491 -15.71911 -15.70655
 Alpha  occ. eigenvalues --  -11.50175  -1.75899  -1.59259  -1.52831  -1.41454
 Alpha  occ. eigenvalues --   -1.03853  -0.98090  -0.83822  -0.82917  -0.71312
 Alpha  occ. eigenvalues --   -0.68903  -0.68558  -0.64442  -0.63721  -0.61292
 Alpha  occ. eigenvalues --   -0.50793  -0.49475
 Alpha virt. eigenvalues --    0.02485   0.06442   0.08712   0.08973   0.09391
 Alpha virt. eigenvalues --    0.11571   0.12546   0.14225   0.15118   0.16335
 Alpha virt. eigenvalues --    0.17439   0.18253   0.18916   0.22522   0.24947

 Mulliken charges:
               1
     1  C    1.927638
     2  N    0.780210
     3  N    0.575761
     4  O   -0.989348
     5  O   -1.154664
     6  O   -1.139598
 Sum of Mulliken charges =  -0.00000

 Dipole moment (field-independent basis, Debye):
    X=              1.4939    Y=              0.0287    Z=             -0.2744  Tot=              1.5191

 Test job not archived.
 1\1\GINC-SE334\SP\RHF\Aug-CC-pVDZ\C1N2O3\OHZDE\08-Apr-2025\0\\#t hf au
 g-cc-pvdz iop(5/13=1,5/36=2,99/5=2) pseudo=read geom=check guess=(read
 ,tcheck) scf=(maxcycle=1)\\title\\0,1\C,0,-0.748608,0.02244,-0.0653825
 \N,0,1.37148,-0.640571,0.0640881\N,0,1.36217,0.56917,-0.00507174\O,0,-
 1.95365,-0.0621444,0.053046\O,0,0.0734337,-1.00609,-0.0494488\O,0,0.04
 97273,1.11388,-0.00619963\\Version=ES64L-G16RevC.01\State=1-A\HF=-371.
 6357325\RMSD=3.062e-02\Dipole=0.5877382,0.0112764,-0.1079589\Quadrupol
 e=-3.6380616,0.6848072,2.9532544,-0.5118291,0.2041907,-0.0432891\PG=C0

 Normal termination of Gaussian 16 at Tue Apr  8 21:39:44 2025.
