 Gaussian 16, Revision C.01,

 ----------------------------------------------------------------------
 #t hf aug-cc-pvdz symm=none int=(grid=ultrafine) guess=(read,tcheck) s
 table=(opt,rrhf)
 ----------------------------------------------------------------------
 -----
 title
 -----
 Symbolic Z-matrix:
 Charge =  0 Multiplicity = 1

 SCF Done:  E(RHF) =  -456.272402977     A.U. after   11 cycles
 Normal termination of Gaussian 16 at Tue Apr  8 21:09:46 2025.
 Gaussian 16:  ES64L-G16RevC.01  3-Jul-2019

 ----------------------------------------------------------------------
 #t hf aug-cc-pvdz iop(5/13=1,5/36=2,99/5=2) pseudo=read geom=check gue
 ss=(read,tcheck) scf=(maxcycle=1)
 ----------------------------------------------------------------------
 -----
 title
 -----
 Structure from the checkpoint file:  "ANI1ccx_1844_conf92_mol1.chk"
 Charge =  0 Multiplicity = 1

                         Standard orientation:
 ---------------------------------------------------------------------
 Center     Atomic      Atomic             Coordinates (Angstroms)
 Number     Number       Type             X           Y           Z
 ---------------------------------------------------------------------
      1          1           0       -0.731438   -1.927471    1.586140
      2          1           0       -2.257050    0.356439   -0.124842
      3          1           0       -3.309770   -0.700729   -0.793651
      4          1           0        1.414280    1.628179    0.140023
      5          1           0        0.885295    2.119879    1.521410
      6          1           0       -0.618222    2.000859   -0.191847
      7          1           0       -1.532080   -1.636031    0.281150
      8          1           0       -1.927730    2.709749   -0.624530
      9          1           0        2.081910   -2.615081   -0.417746
     10          1           0        0.710932   -1.955341   -0.207032
     11          1           0        2.254030   -0.409836   -0.250869
     12          1           0        3.301550    0.671306   -0.641742
     13          8           0        0.775224    2.255699    0.557845
     14          8           0        1.546610   -1.869601   -0.724355
     15          8           0       -2.765610   -0.506864    0.020058
     16          8           0       -1.516970    1.825689   -0.630125
     17          8           0       -0.753626   -2.172531    0.658697
     18          8           0        2.680410    0.437368    0.083322
 ---------------------------------------------------------------------

 SCF Done:  E(RHF) =  -456.745236180     A.U. after    2 cycles

 The electronic state is 1-A.
 Alpha  occ. eigenvalues --  -20.55608 -20.55273 -20.55104 -20.55054 -20.54561
 Alpha  occ. eigenvalues --  -20.54312  -1.44866  -1.44094  -1.43109  -1.41743
 Alpha  occ. eigenvalues --   -1.41575  -1.40408  -0.71437  -0.70989  -0.70520
 Alpha  occ. eigenvalues --   -0.70195  -0.69918  -0.69758  -0.62576  -0.60461
 Alpha  occ. eigenvalues --   -0.60012  -0.55649  -0.55553  -0.53147  -0.49564
 Alpha  occ. eigenvalues --   -0.49439  -0.48960  -0.48607  -0.48309  -0.47960
 Alpha virt. eigenvalues --    0.03518   0.04177   0.04723   0.04894   0.06247
 Alpha virt. eigenvalues --    0.07279   0.08215   0.09679   0.09874   0.10348
 Alpha virt. eigenvalues --    0.10998   0.11621   0.17594   0.18529   0.19221

 Mulliken charges:
               1
     1  H    0.405002
     2  H    0.799877
     3  H    0.362968
     4  H    0.701344
     5  H    0.427198
     6  H    0.834853
     7  H    0.761835
     8  H    0.337479
     9  H    0.326786
    10  H    0.771515
    11  H    0.781724
    12  H    0.314454
    13  O   -1.233482
    14  O   -1.072253
    15  O   -1.104217
    16  O   -1.128101
    17  O   -1.245755
    18  O   -1.041226
 Sum of Mulliken charges =  -0.00000

 Dipole moment (field-independent basis, Debye):
    X=              0.6123    Y=              0.5478    Z=              0.6093  Tot=              1.0228

 Test job not archived.
 1\1\GINC-SE116\SP\RHF\Aug-CC-pVDZ\H12O6\OHZDE\08-Apr-2025\0\\#t hf aug
 -cc-pvdz iop(5/13=1,5/36=2,99/5=2) pseudo=read geom=check guess=(read,
 tcheck) scf=(maxcycle=1)\\title\\0,1\H,0,-0.731438,-1.92747,1.58614\H,
 0,-2.25705,0.35644,-0.124842\H,0,-3.30977,-0.700728,-0.793651\H,0,1.41
 428,1.62818,0.140023\H,0,0.885295,2.11988,1.52141\H,0,-0.618222,2.0008
 6,-0.191847\H,0,-1.53208,-1.63603,0.28115\H,0,-1.92773,2.70975,-0.6245
 3\H,0,2.08191,-2.61508,-0.417746\H,0,0.710932,-1.95534,-0.207032\H,0,2
 .25403,-0.409835,-0.250869\H,0,3.30155,0.671307,-0.641742\O,0,0.775224

 Normal termination of Gaussian 16 at Tue Apr  8 21:09:51 2025.
