 Gaussian 16, Revision C.01,

 ----------------------------------------------------------------------
 #t hf aug-cc-pvdz symm=none int=(grid=ultrafine) guess=(read,tcheck) s
 table=(opt,rrhf)
 ----------------------------------------------------------------------
 -----
 title
 -----
 Symbolic Z-matrix:
 Charge =  0 Multiplicity = 1

 SCF Done:  E(RHF) =  -603.087412184     A.U. after   14 cycles
 Normal termination of Gaussian 16 at Tue Apr  8 22:05:17 2025.
 Gaussian 16:  ES64L-G16RevC.01  3-Jul-2019

 ----------------------------------------------------------------------
 #t hf aug-cc-pvdz iop(5/13=1,5/36=2,99/5=2) pseudo=read geom=check gue
 ss=(read,tcheck) scf=(maxcycle=1)
 ----------------------------------------------------------------------
 -----
 title
 -----
 Structure from the checkpoint file:  "ANI1ccx_894_conf1_mol1.chk"
 Charge =  0 Multiplicity = 1

                         Standard orientation:
 ---------------------------------------------------------------------
 Center     Atomic      Atomic             Coordinates (Angstroms)
 Number     Number       Type             X           Y           Z
 ---------------------------------------------------------------------
      1          6           0       -1.924482    0.232518   -0.013358
      2          6           0       -0.570129   -0.365658    0.035352
      3          6           0        0.585636    0.338237    0.041616
      4          6           0        1.957768   -0.246766    0.057720
      5          1           0       -2.589152   -1.473879    0.001756
      6          1           0        0.282863   -2.029010    0.039385
      7          1           0       -0.365683    1.992880    0.097980
      8          1           0        2.533059    1.490388   -0.010553
      9          8           0       -2.950392   -0.575535   -0.014027
     10          8           0       -2.042681    1.436401   -0.011530
     11          8           0       -0.623090   -1.723790   -0.015658
     12          8           0        0.573935    1.726539   -0.003341
     13          8           0        2.933619    0.606460   -0.050178
     14          8           0        2.089378   -1.436371   -0.012335
 ---------------------------------------------------------------------

 SCF Done:  E(RHF) =  -603.674607935     A.U. after    2 cycles

 The electronic state is 1-A.
 Alpha  occ. eigenvalues --  -20.63806 -20.63525 -20.61684 -20.60875 -20.56996
 Alpha  occ. eigenvalues --  -20.56975 -11.43593 -11.43515 -11.36125 -11.35995
 Alpha  occ. eigenvalues --   -1.60311  -1.59996  -1.54081  -1.52153  -1.50203
 Alpha  occ. eigenvalues --   -1.49060  -1.09895  -0.99055  -0.89267  -0.87475
 Alpha  occ. eigenvalues --   -0.83676  -0.78126  -0.75270  -0.70420  -0.70150
 Alpha  occ. eigenvalues --   -0.69961  -0.67454  -0.65595  -0.63581  -0.61870
 Alpha  occ. eigenvalues --   -0.61438  -0.59156  -0.58504  -0.51126  -0.51017
 Alpha  occ. eigenvalues --   -0.50441  -0.47235  -0.37701
 Alpha virt. eigenvalues --    0.03382   0.03540   0.03995   0.05708   0.06507
 Alpha virt. eigenvalues --    0.08186   0.09207   0.10380   0.10525   0.10669
 Alpha virt. eigenvalues --    0.12017   0.13067   0.14123   0.14951   0.15399

 Mulliken charges:
               1
     1  C    1.716401
     2  C    1.712137
     3  C    1.571120
     4  C    1.762245
     5  H    0.405327
     6  H    0.392730
     7  H    0.444831
     8  H    0.419555
     9  O   -1.279718
    10  O   -1.249077
    11  O   -1.697987
    12  O   -1.716914
    13  O   -1.267551
    14  O   -1.213098
 Sum of Mulliken charges =   0.00000

 Dipole moment (field-independent basis, Debye):
    X=             -0.1478    Y=             -0.2991    Z=              0.4669  Tot=              0.5738

 Test job not archived.
 1\1\GINC-SE334\SP\RHF\Aug-CC-pVDZ\C4H4O6\OHZDE\08-Apr-2025\0\\#t hf au
 g-cc-pvdz iop(5/13=1,5/36=2,99/5=2) pseudo=read geom=check guess=(read
 ,tcheck) scf=(maxcycle=1)\\title\\0,1\C,0,-1.92448,0.232517,-0.0133579
 \C,0,-0.570127,-0.365658,0.0353524\C,0,0.585637,0.338238,0.0416159\C,0
 ,1.95777,-0.246765,0.0577203\H,0,-2.58915,-1.47388,0.00175565\H,0,0.28
 2866,-2.02901,0.039385\H,0,-0.365682,1.99288,0.0979799\H,0,2.53306,1.4
 9039,-0.0105533\O,0,-2.95039,-0.575536,-0.0140266\O,0,-2.04268,1.4364,
 -0.0115304\O,0,-0.623087,-1.72379,-0.0156584\O,0,0.573936,1.72654,-0.0

 Normal termination of Gaussian 16 at Tue Apr  8 22:05:24 2025.
