 Gaussian 16, Revision C.01,

 ----------------------------------------------------------------------
 #t hf aug-cc-pvdz symm=none int=(grid=ultrafine) guess=(read,tcheck) s
 table=(opt,rrhf)
 ----------------------------------------------------------------------
 -----
 title
 -----
 Symbolic Z-matrix:
 Charge =  0 Multiplicity = 1

 SCF Done:  E(RHF) =  -537.876301471     A.U. after   15 cycles
 Normal termination of Gaussian 16 at Tue Apr  8 22:17:31 2025.
 Gaussian 16:  ES64L-G16RevC.01  3-Jul-2019

 ----------------------------------------------------------------------
 #t hf aug-cc-pvdz iop(5/13=1,5/36=2,99/5=2) pseudo=read geom=check gue
 ss=(read,tcheck) scf=(maxcycle=1)
 ----------------------------------------------------------------------
 -----
 title
 -----
 Structure from the checkpoint file:  "ANI1ccx_988_conf10_mol2.chk"
 Charge =  0 Multiplicity = 1

                         Standard orientation:
 ---------------------------------------------------------------------
 Center     Atomic      Atomic             Coordinates (Angstroms)
 Number     Number       Type             X           Y           Z
 ---------------------------------------------------------------------
      1          6           0        2.169880   -0.427684   -0.001672
      2          6           0        0.794506    1.607960    0.594356
      3          6           0       -0.636832    1.793070    0.063107
      4          6           0       -1.449590    0.530737   -0.072497
      5          1           0       -0.175966   -1.088320    0.745861
      6          1           0       -0.602008    2.190510   -0.954116
      7          1           0       -1.207610    2.506690    0.636017
      8          1           0        1.178530    2.616980    0.733133
      9          1           0        0.765303    1.098610    1.560320
     10          1           0        2.118960   -2.042320    0.945294
     11          1           0        3.621530   -1.719410   -0.754132
     12          1           0        3.861850   -0.059319   -1.088910
     13          1           0        1.982340    1.330270   -1.083530
     14          7           0       -2.113340   -1.539740    0.135050
     15          7           0        3.197580   -0.785426   -0.868884
     16          7           0        1.610650   -1.145880    0.922818
     17          7           0        1.720000    0.870241   -0.225465
     18          7           0       -2.667020    0.444832   -0.533916
     19          7           0       -3.008460   -0.842285   -0.432502
     20          7           0       -1.140940   -0.695772    0.397227
 ---------------------------------------------------------------------

 SCF Done:  E(RHF) =  -538.427541316     A.U. after    2 cycles

 The electronic state is 1-A.
 Alpha  occ. eigenvalues --  -15.56770 -15.55929 -15.55600 -15.54744 -15.53856
 Alpha  occ. eigenvalues --  -15.50132 -15.49331 -11.39539 -11.30364 -11.29886
 Alpha  occ. eigenvalues --  -11.26845  -1.46443  -1.32815  -1.23078  -1.22374
 Alpha  occ. eigenvalues --   -1.19114  -1.18173  -1.06138  -0.94882  -0.90742
 Alpha  occ. eigenvalues --   -0.87852  -0.85465  -0.80990  -0.77210  -0.76527
 Alpha  occ. eigenvalues --   -0.70268  -0.69327  -0.68464  -0.66031  -0.64656
 Alpha  occ. eigenvalues --   -0.60589  -0.58677  -0.57649  -0.53966  -0.52090
 Alpha  occ. eigenvalues --   -0.50096  -0.48626  -0.48057  -0.46474  -0.43176
 Alpha  occ. eigenvalues --   -0.41615
 Alpha virt. eigenvalues --    0.01207   0.02775   0.03408   0.03995   0.04772
 Alpha virt. eigenvalues --    0.05283   0.06374   0.07295   0.08204   0.08997
 Alpha virt. eigenvalues --    0.11088   0.11444   0.12481   0.13362   0.13512

 Mulliken charges:
               1
     1  C   -2.110922
     2  C   -0.581724
     3  C    0.232756
     4  C   -1.433227
     5  H    0.217751
     6  H    0.259489
     7  H    0.176791
     8  H    0.072507
     9  H    0.186098
    10  H    0.171369
    11  H    0.185808
    12  H    0.094657
    13  H    0.180033
    14  N   -0.016727
    15  N    0.541654
    16  N    0.643091
    17  N    0.564158
    18  N    0.570255
    19  N   -0.493105
    20  N    0.539288
 Sum of Mulliken charges =  -0.00000

 Dipole moment (field-independent basis, Debye):
    X=             10.4096    Y=              3.2481    Z=             -0.2716  Tot=             10.9079

 Test job not archived.
 1\1\GINC-SE342\SP\RHF\Aug-CC-pVDZ\C4H9N7\OHZDE\08-Apr-2025\0\\#t hf au
 g-cc-pvdz iop(5/13=1,5/36=2,99/5=2) pseudo=read geom=check guess=(read
 ,tcheck) scf=(maxcycle=1)\\title\\0,1\C,0,2.16988,-0.427684,-0.0016717
 5\C,0,0.794506,1.60796,0.594356\C,0,-0.636832,1.79307,0.0631068\C,0,-1
 .44959,0.530737,-0.0724965\H,0,-0.175966,-1.08832,0.745861\H,0,-0.6020
 08,2.19051,-0.954116\H,0,-1.20761,2.50669,0.636017\H,0,1.17853,2.61698
 ,0.733133\H,0,0.765303,1.09861,1.56032\H,0,2.11896,-2.04232,0.945294\H
 ,0,3.62153,-1.71941,-0.754132\H,0,3.86185,-0.0593193,-1.08891\H,0,1.98

 Normal termination of Gaussian 16 at Tue Apr  8 22:17:43 2025.
