 Gaussian 16, Revision C.01,

 ----------------------------------------------------------------------
 #t hf aug-cc-pvdz symm=none int=(grid=ultrafine) guess=(read,tcheck) s
 table=(opt,rrhf)
 ----------------------------------------------------------------------
 -----
 title
 -----
 Symbolic Z-matrix:
 Charge =  0 Multiplicity = 1

 SCF Done:  E(RHF) =  -813.591886667     A.U. after   15 cycles
 Normal termination of Gaussian 16 at Tue Apr  8 21:12:27 2025.
 Gaussian 16:  ES64L-G16RevC.01  3-Jul-2019

 ----------------------------------------------------------------------
 #t hf aug-cc-pvdz iop(5/13=1,5/36=2,99/5=2) pseudo=read geom=check gue
 ss=(read,tcheck) scf=(maxcycle=1)
 ----------------------------------------------------------------------
 -----
 title
 -----
 Structure from the checkpoint file:  "ANI1ccx_1770_conf9_mol1.chk"
 Charge =  0 Multiplicity = 1

                         Standard orientation:
 ---------------------------------------------------------------------
 Center     Atomic      Atomic             Coordinates (Angstroms)
 Number     Number       Type             X           Y           Z
 ---------------------------------------------------------------------
      1          6           0       -1.120810   -0.903272   -0.345280
      2          6           0        1.899719    0.596872   -0.910893
      3          6           0        0.171196    2.256590   -0.032328
      4          6           0        1.161109    1.066521    0.341047
      5          6           0        2.867280   -0.588949   -0.415368
      6          6           0       -3.085070   -0.221248    1.133720
      7          6           0       -2.349201    0.010870   -0.192427
      8          6           0       -0.188934   -1.028800    0.750616
      9          6           0       -3.069730   -0.100165   -1.546260
     10          1           0        1.137380   -0.229046    1.895180
     11          1           0       -0.634505    3.980649    0.600718
     12          1           0        1.828911   -2.171149   -1.351210
     13          1           0        3.034451   -2.695898   -0.336167
     14          1           0        1.263519    0.220300   -1.629560
     15          1           0        2.541569    1.391001   -1.298910
     16          1           0        1.905408    1.593791    0.985685
     17          1           0       -2.216151    0.121543   -2.236330
     18          1           0       -3.818631    0.613417   -1.713950
     19          1           0       -4.065401    0.239374    1.232780
     20          1           0       -3.013320   -1.311002    1.365000
     21          1           0       -2.572041    0.207701    1.957510
     22          1           0       -2.028491    1.074038   -0.103664
     23          1           0       -0.538615   -0.482011   -1.171140
     24          1           0       -0.917398   -2.838751   -0.307399
     25          1           0       -2.456709   -2.495022   -0.153823
     26          1           0       -3.365230   -1.097913   -1.789230
     27          7           0       -1.649949   -2.307211   -0.687816
     28          7           0        0.550865    0.061907    1.102260
     29          7           0        2.500761   -1.916499   -0.635306
     30          8           0        3.834850   -0.291642    0.186922
     31          8           0       -0.162297   -1.994610    1.562760
     32          8           0       -0.121801    2.497620   -1.161950
     33          8           0       -0.251982    3.098770    1.025210
 ---------------------------------------------------------------------

 SCF Done:  E(RHF) =  -814.417945705     A.U. after    2 cycles

 The electronic state is 1-A.
 Alpha  occ. eigenvalues --  -20.61847 -20.56908 -20.53145 -20.52344 -15.54650
 Alpha  occ. eigenvalues --  -15.53900 -15.48553 -11.42114 -11.38173 -11.37113
 Alpha  occ. eigenvalues --  -11.33552 -11.28488 -11.27552 -11.25751 -11.22752
 Alpha  occ. eigenvalues --  -11.22209  -1.54872  -1.50495  -1.45826  -1.45262
 Alpha  occ. eigenvalues --   -1.28217  -1.22350  -1.20152  -1.09036  -1.07648
 Alpha  occ. eigenvalues --   -0.99781  -0.95726  -0.95502  -0.85675  -0.84748
 Alpha  occ. eigenvalues --   -0.81571  -0.77691  -0.76261  -0.74486  -0.73415
 Alpha  occ. eigenvalues --   -0.72144  -0.71750  -0.70046  -0.69067  -0.65794
 Alpha  occ. eigenvalues --   -0.64273  -0.62874  -0.62815  -0.61142  -0.60799
 Alpha  occ. eigenvalues --   -0.59291  -0.58289  -0.57926  -0.56945  -0.56354
 Alpha  occ. eigenvalues --   -0.56201  -0.54013  -0.50435  -0.50182  -0.49181
 Alpha  occ. eigenvalues --   -0.47550  -0.46246  -0.45776  -0.44730  -0.44163
 Alpha  occ. eigenvalues --   -0.43698  -0.42398
 Alpha virt. eigenvalues --    0.02684   0.03156   0.03597   0.03945   0.04589
 Alpha virt. eigenvalues --    0.04777   0.05171   0.05382   0.06483   0.07507
 Alpha virt. eigenvalues --    0.08058   0.08142   0.08481   0.09035   0.09998

 Mulliken charges:
               1
     1  C   -1.385566
     2  C    0.329517
     3  C    2.915887
     4  C   -1.137131
     5  C    0.388578
     6  C   -0.215894
     7  C   -0.895669
     8  C    0.354807
     9  C   -0.014703
    10  H    0.352328
    11  H    0.381372
    12  H    0.101385
    13  H    0.060142
    14  H   -0.005643
    15  H    0.141278
    16  H    0.234808
    17  H    0.302663
    18  H   -0.027629
    19  H    0.061461
    20  H    0.266044
    21  H    0.046977
    22  H    0.197858
    23  H    0.187633
    24  H    0.083258
    25  H    0.287588
    26  H    0.231542
    27  N    0.775455
    28  N    1.053181
    29  N    0.753508
    30  O   -1.363671
    31  O   -1.539937
    32  O   -1.348036
    33  O   -1.573390
 Sum of Mulliken charges =  -0.00000

 Dipole moment (field-independent basis, Debye):
    X=             -0.7346    Y=              1.9481    Z=             -1.3334  Tot=              2.4724

 Test job not archived.
 1\1\GINC-SE363\SP\RHF\Aug-CC-pVDZ\C9H17N3O4\OHZDE\08-Apr-2025\0\\#t hf
  aug-cc-pvdz iop(5/13=1,5/36=2,99/5=2) pseudo=read geom=check guess=(r
 ead,tcheck) scf=(maxcycle=1)\\title\\0,1\C,0,-1.12081,-0.903271,-0.345
 28\C,0,1.89972,0.596871,-0.910893\C,0,0.171198,2.25659,-0.0323286\C,0,
 1.16111,1.06652,0.341047\C,0,2.86728,-0.588951,-0.415368\C,0,-3.08507,
 -0.221246,1.13372\C,0,-2.3492,0.0108718,-0.192427\C,0,-0.188934,-1.028
 8,0.750616\C,0,-3.06973,-0.100163,-1.54626\H,0,1.13738,-0.229047,1.895
 18\H,0,-0.634502,3.98065,0.600718\H,0,1.82891,-2.17115,-1.35121\H,0,3.

 Normal termination of Gaussian 16 at Tue Apr  8 21:13:17 2025.
