 Gaussian 16, Revision C.01,

 ----------------------------------------------------------------------
 #t hf aug-cc-pvdz symm=none int=(grid=ultrafine) guess=(read,tcheck) s
 table=(opt,rrhf)
 ----------------------------------------------------------------------
 -----
 title
 -----
 Symbolic Z-matrix:
 Charge =  0 Multiplicity = 1

 SCF Done:  E(RHF) =  -465.395662638     A.U. after   14 cycles
 Normal termination of Gaussian 16 at Tue Apr  8 21:43:59 2025.
 Gaussian 16:  ES64L-G16RevC.01  3-Jul-2019

 ----------------------------------------------------------------------
 #t hf aug-cc-pvdz iop(5/13=1,5/36=2,99/5=2) pseudo=read geom=check gue
 ss=(read,tcheck) scf=(maxcycle=1)
 ----------------------------------------------------------------------
 -----
 title
 -----
 Structure from the checkpoint file:  "ANI1ccx_503_conf11_mol1.chk"
 Charge =  0 Multiplicity = 1

                         Standard orientation:
 ---------------------------------------------------------------------
 Center     Atomic      Atomic             Coordinates (Angstroms)
 Number     Number       Type             X           Y           Z
 ---------------------------------------------------------------------
      1          6           0       -1.392031   -0.123623    0.070855
      2          6           0        0.662094    0.743713   -0.226258
      3          1           0        1.557829   -0.738461    1.153050
      4          1           0       -0.862351   -1.977391   -0.411040
      5          1           0       -1.072140    2.000449    0.407411
      6          7           0        0.784928   -0.609591   -0.502924
      7          7           0       -0.485835   -1.137881   -0.025107
      8          7           0       -0.699714    1.043179   -0.017544
      9          8           0        1.871229   -1.101672    0.278530
     10          8           0       -2.539861   -0.040792    0.120912
     11          8           0        1.613710    1.383078    0.050811
 ---------------------------------------------------------------------

 SCF Done:  E(RHF) =  -465.849855956     A.U. after    2 cycles

 The electronic state is 1-A.
 Alpha  occ. eigenvalues --  -20.63548 -20.55925 -20.54454 -15.65450 -15.59994
 Alpha  occ. eigenvalues --  -15.58004 -11.42476 -11.41616  -1.57333  -1.54675
 Alpha  occ. eigenvalues --   -1.51138  -1.38351  -1.25054  -1.15195  -0.93286
 Alpha  occ. eigenvalues --   -0.90654  -0.82817  -0.77798  -0.77292  -0.72523
 Alpha  occ. eigenvalues --   -0.69885  -0.68079  -0.65264  -0.61398  -0.58246
 Alpha  occ. eigenvalues --   -0.54046  -0.51562  -0.47745  -0.47464  -0.46457
 Alpha virt. eigenvalues --    0.02624   0.04452   0.05191   0.08304   0.09008
 Alpha virt. eigenvalues --    0.09156   0.09547   0.10135   0.11059   0.11687
 Alpha virt. eigenvalues --    0.13654   0.14509   0.15019   0.16065   0.17180

 Mulliken charges:
               1
     1  C    0.367944
     2  C    0.465333
     3  H    0.393276
     4  H    0.195705
     5  H    0.264234
     6  N    0.829714
     7  N    0.325650
     8  N    0.475735
     9  O   -1.151135
    10  O   -1.076462
    11  O   -1.089994
 Sum of Mulliken charges =  -0.00000

 Dipole moment (field-independent basis, Debye):
    X=             -0.9103    Y=             -0.3441    Z=              1.0862  Tot=              1.4584

 Test job not archived.
 1\1\GINC-SE273\SP\RHF\Aug-CC-pVDZ\C2H3N3O3\OHZDE\08-Apr-2025\0\\#t hf
 aug-cc-pvdz iop(5/13=1,5/36=2,99/5=2) pseudo=read geom=check guess=(re
 ad,tcheck) scf=(maxcycle=1)\\title\\0,1\C,0,-1.39203,-0.123622,0.07085
 52\C,0,0.662094,0.743715,-0.226258\H,0,1.55783,-0.738459,1.15305\H,0,-
 0.86235,-1.97739,-0.41104\H,0,-1.07214,2.00045,0.407411\N,0,0.784929,-
 0.609589,-0.502924\N,0,-0.485834,-1.13788,-0.0251074\N,0,-0.699714,1.0
 4318,-0.0175439\O,0,1.87123,-1.10167,0.27853\O,0,-2.53986,-0.0407915,0
 .120912\O,0,1.61371,1.38308,0.0508112\\Version=ES64L-G16RevC.01\State=

 Normal termination of Gaussian 16 at Tue Apr  8 21:44:04 2025.
