 Gaussian 16, Revision C.01,

 ----------------------------------------------------------------------
 #t hf aug-cc-pvdz symm=none int=(grid=ultrafine) guess=(read,tcheck) s
 table=(opt,rrhf)
 ----------------------------------------------------------------------
 -----
 title
 -----
 Symbolic Z-matrix:
 Charge =  0 Multiplicity = 1

 SCF Done:  E(RHF) =  -532.268721000     A.U. after   11 cycles
 Normal termination of Gaussian 16 at Tue Apr  8 21:10:11 2025.
 Gaussian 16:  ES64L-G16RevC.01  3-Jul-2019

 ----------------------------------------------------------------------
 #t hf aug-cc-pvdz iop(5/13=1,5/36=2,99/5=2) pseudo=read geom=check gue
 ss=(read,tcheck) scf=(maxcycle=1)
 ----------------------------------------------------------------------
 -----
 title
 -----
 Structure from the checkpoint file:  "ANI1ccx_1845_conf465_mol1.chk"
 Charge =  0 Multiplicity = 1

                         Standard orientation:
 ---------------------------------------------------------------------
 Center     Atomic      Atomic             Coordinates (Angstroms)
 Number     Number       Type             X           Y           Z
 ---------------------------------------------------------------------
      1          1           0        0.933604   -1.204969    0.501689
      2          1           0       -2.013759   -0.439684   -1.219770
      3          1           0       -2.735769   -1.194528   -0.117733
      4          1           0       -2.452429    0.679161    0.677198
      5          1           0        1.948451   -0.002946    2.232190
      6          1           0        2.548071   -1.319499    1.856700
      7          1           0       -0.617942    1.802661    0.345934
      8          1           0       -3.844909    1.335492    0.462859
      9          1           0        3.219261   -0.079823   -1.992560
     10          1           0        1.979191   -0.875089   -1.007180
     11          1           0        2.111861    1.275671   -0.408331
     12          1           0        1.136331    2.288431   -0.832932
     13          1           0       -0.564376   -1.494099   -0.436029
     14          1           0       -0.180174    0.384725   -0.041549
     15          8           0       -3.409179    0.514261    0.655657
     16          8           0        0.393919   -1.264179   -0.311348
     17          8           0        1.531411    2.008061   -0.022579
     18          8           0        2.712111   -0.228106   -1.119160
     19          8           0       -0.948959    1.037651   -0.217734
     20          8           0        1.716271   -0.903417    1.948230
     21          8           0       -2.178999   -1.308709   -0.935628
 ---------------------------------------------------------------------

 SCF Done:  E(RHF) =  -532.823722412     A.U. after    2 cycles

 The electronic state is 1-A.
 Alpha  occ. eigenvalues --  -20.59462 -20.56146 -20.55107 -20.54123 -20.53784
 Alpha  occ. eigenvalues --  -20.53384 -20.52661  -1.48952  -1.44990  -1.43535
 Alpha  occ. eigenvalues --   -1.42556  -1.41938  -1.41473  -1.39977  -0.77179
 Alpha  occ. eigenvalues --   -0.74965  -0.72772  -0.71812  -0.70449  -0.68881
 Alpha  occ. eigenvalues --   -0.67263  -0.62908  -0.60453  -0.59411  -0.58510
 Alpha  occ. eigenvalues --   -0.56209  -0.55044  -0.53481  -0.51675  -0.50053
 Alpha  occ. eigenvalues --   -0.49566  -0.48422  -0.47775  -0.47270  -0.46251
 Alpha virt. eigenvalues --    0.02919   0.03810   0.04049   0.05582   0.06682
 Alpha virt. eigenvalues --    0.07041   0.07717   0.07849   0.09351   0.10043
 Alpha virt. eigenvalues --    0.10278   0.10930   0.11550   0.13059   0.17974

 Mulliken charges:
               1
     1  H    0.823591
     2  H    0.590114
     3  H    0.498637
     4  H    0.658642
     5  H    0.442425
     6  H    0.375477
     7  H    0.407368
     8  H    0.341824
     9  H    0.491501
    10  H    0.662249
    11  H    0.648153
    12  H    0.368501
    13  H    0.721094
    14  H    0.984646
    15  O   -0.936237
    16  O   -1.548625
    17  O   -0.939037
    18  O   -1.172085
    19  O   -1.314433
    20  O   -0.932463
    21  O   -1.171342
 Sum of Mulliken charges =  -0.00000

 Dipole moment (field-independent basis, Debye):
    X=              3.3618    Y=              1.6212    Z=              0.3600  Tot=              3.7496

 Test job not archived.
 1\1\GINC-SE072\SP\RHF\Aug-CC-pVDZ\H14O7\OHZDE\08-Apr-2025\0\\#t hf aug
 -cc-pvdz iop(5/13=1,5/36=2,99/5=2) pseudo=read geom=check guess=(read,
 tcheck) scf=(maxcycle=1)\\title\\0,1\H,0,0.933603,-1.20497,0.501689\H,
 0,-2.01376,-0.439685,-1.21977\H,0,-2.73577,-1.19453,-0.117733\H,0,-2.4
 5243,0.679159,0.677198\H,0,1.94845,-0.00294667,2.23219\H,0,2.54807,-1.
 3195,1.8567\H,0,-0.617943,1.80266,0.345934\H,0,-3.84491,1.33549,0.4628
 59\H,0,3.21926,-0.0798234,-1.99256\H,0,1.97919,-0.87509,-1.00718\H,0,2
 .11186,1.27567,-0.408331\H,0,1.13633,2.28843,-0.832932\H,0,-0.564377,-

 Normal termination of Gaussian 16 at Tue Apr  8 21:10:18 2025.
