 Gaussian 16, Revision C.01,

 ----------------------------------------------------------------------
 #t hf aug-cc-pvdz symm=none int=(grid=ultrafine) guess=(read,tcheck) s
 table=(opt,rrhf)
 ----------------------------------------------------------------------
 -----
 title
 -----
 Symbolic Z-matrix:
 Charge =  0 Multiplicity = 1

 SCF Done:  E(RHF) =  -480.029515801     A.U. after   18 cycles
 Normal termination of Gaussian 16 at Tue Apr  8 21:39:49 2025.
 Gaussian 16:  ES64L-G16RevC.01  3-Jul-2019

 ----------------------------------------------------------------------
 #t hf aug-cc-pvdz iop(5/13=1,5/36=2,99/5=2) pseudo=read geom=check gue
 ss=(read,tcheck) scf=(maxcycle=1)
 ----------------------------------------------------------------------
 -----
 title
 -----
 Structure from the checkpoint file:  "ANI1ccx_456_conf18_mol1.chk"
 Charge =  0 Multiplicity = 1

                         Standard orientation:
 ---------------------------------------------------------------------
 Center     Atomic      Atomic             Coordinates (Angstroms)
 Number     Number       Type             X           Y           Z
 ---------------------------------------------------------------------
      1          6           0       -0.053317   -0.156629   -0.069692
      2          7           0        1.412491   -0.037998   -0.084758
      3          7           0       -0.732245   -1.175670   -0.087445
      4          7           0       -2.020529   -0.626988    0.020789
      5          7           0       -2.093838    0.547494    0.009744
      6          8           0        1.648503    1.208028   -0.061319
      7          8           0        2.122910   -0.975500    0.131332
      8          8           0       -0.726570    1.016460    0.106217
 ---------------------------------------------------------------------

 SCF Done:  E(RHF) =  -480.493908008     A.U. after    2 cycles

 The electronic state is 1-A.
 Alpha  occ. eigenvalues --  -20.70232 -20.67207 -20.64012 -15.85848 -15.69873
 Alpha  occ. eigenvalues --  -15.65583 -15.61990 -11.46503  -1.73030  -1.67343
 Alpha  occ. eigenvalues --   -1.56309  -1.46106  -1.35902  -1.14143  -1.00206
 Alpha  occ. eigenvalues --   -0.93110  -0.87167  -0.82524  -0.80399  -0.78753
 Alpha  occ. eigenvalues --   -0.77680  -0.68626  -0.62378  -0.59768  -0.58357
 Alpha  occ. eigenvalues --   -0.56811  -0.55677  -0.52745  -0.49657
 Alpha virt. eigenvalues --   -0.03276   0.04588   0.05772   0.09070   0.09378
 Alpha virt. eigenvalues --    0.10285   0.11294   0.11806   0.13150   0.13566
 Alpha virt. eigenvalues --    0.14480   0.15196   0.16257   0.17059   0.17824

 Mulliken charges:
               1
     1  C    0.302063
     2  N    2.380540
     3  N    0.645146
     4  N   -0.842305
     5  N    1.169880
     6  O   -1.206004
     7  O   -1.251150
     8  O   -1.198170
 Sum of Mulliken charges =  -0.00000

 Dipole moment (field-independent basis, Debye):
    X=              0.1350    Y=              0.4018    Z=             -0.1507  Tot=              0.4499

 Test job not archived.
 1\1\GINC-SE364\SP\RHF\Aug-CC-pVDZ\C1N4O3\OHZDE\08-Apr-2025\0\\#t hf au
 g-cc-pvdz iop(5/13=1,5/36=2,99/5=2) pseudo=read geom=check guess=(read
 ,tcheck) scf=(maxcycle=1)\\title\\0,1\C,0,-0.0533184,-0.156628,-0.0696
 918\N,0,1.41249,-0.0379964,-0.0847579\N,0,-0.732245,-1.17567,-0.087444
 9\N,0,-2.02053,-0.626989,0.0207892\N,0,-2.09384,0.547493,0.00974381\O,
 0,1.6485,1.20803,-0.0613189\O,0,2.12291,-0.975497,0.131332\O,0,-0.7265
 72,1.01646,0.106217\\Version=ES64L-G16RevC.01\State=1-A\HF=-480.493908
 \RMSD=3.506e-02\Dipole=0.0531053,0.1580934,-0.059287\Quadrupole=-2.447

 Normal termination of Gaussian 16 at Tue Apr  8 21:39:52 2025.
