 Gaussian 16, Revision C.01,

 ----------------------------------------------------------------------
 #t hf aug-cc-pvdz symm=none int=(grid=ultrafine) guess=(read,tcheck) s
 table=(opt,rrhf)
 ----------------------------------------------------------------------
 -----
 title
 -----
 Symbolic Z-matrix:
 Charge =  0 Multiplicity = 1

 SCF Done:  E(RHF) =  -532.259726347     A.U. after   12 cycles
 Normal termination of Gaussian 16 at Tue Apr  8 21:10:03 2025.
 Gaussian 16:  ES64L-G16RevC.01  3-Jul-2019

 ----------------------------------------------------------------------
 #t hf aug-cc-pvdz iop(5/13=1,5/36=2,99/5=2) pseudo=read geom=check gue
 ss=(read,tcheck) scf=(maxcycle=1)
 ----------------------------------------------------------------------
 -----
 title
 -----
 Structure from the checkpoint file:  "ANI1ccx_1845_conf442_mol1.chk"
 Charge =  0 Multiplicity = 1

                         Standard orientation:
 ---------------------------------------------------------------------
 Center     Atomic      Atomic             Coordinates (Angstroms)
 Number     Number       Type             X           Y           Z
 ---------------------------------------------------------------------
      1          1           0       -0.768206   -0.019596   -0.564635
      2          1           0        2.449882   -2.782510   -0.045401
      3          1           0        1.397992   -1.525360   -0.455531
      4          1           0        3.439442   -0.570606   -0.184548
      5          1           0        4.539782    0.466499   -0.650470
      6          1           0        0.548747    0.511528    0.234953
      7          1           0        2.445332    1.545940    0.600235
      8          1           0       -3.368288    0.084073    0.808363
      9          1           0        1.473402    2.621840   -0.029240
     10          1           0       -2.869158    0.489431   -1.336030
     11          1           0       -1.962518   -0.153893   -2.412910
     12          1           0       -1.657458   -0.243767    2.730990
     13          1           0       -1.111448   -0.528785    1.080910
     14          1           0       -4.203328   -0.965533   -0.260391
     15          8           0        0.040259   -0.317496    0.049466
     16          8           0       -3.928988    0.043289   -0.047785
     17          8           0        3.865962    0.328427    0.034060
     18          8           0       -1.947648    0.625089   -1.775970
     19          8           0        2.324392   -1.865390   -0.523551
     20          8           0        1.523762    1.930540    0.593702
     21          8           0       -1.922008   -0.610617    1.730540
 ---------------------------------------------------------------------

 SCF Done:  E(RHF) =  -532.808650993     A.U. after    2 cycles

 The electronic state is 1-A.
 Alpha  occ. eigenvalues --  -20.56485 -20.56106 -20.56082 -20.55466 -20.55366
 Alpha  occ. eigenvalues --  -20.54482 -20.54178  -1.44624  -1.43088  -1.42490
 Alpha  occ. eigenvalues --   -1.41732  -1.40700  -1.39943  -1.36858  -0.72965
 Alpha  occ. eigenvalues --   -0.71512  -0.70462  -0.69490  -0.68431  -0.68220
 Alpha  occ. eigenvalues --   -0.65950  -0.61414  -0.59376  -0.57706  -0.57215
 Alpha  occ. eigenvalues --   -0.56903  -0.53894  -0.52825  -0.50073  -0.49854
 Alpha  occ. eigenvalues --   -0.49415  -0.48168  -0.47845  -0.47181  -0.46681
 Alpha virt. eigenvalues --    0.03179   0.03840   0.04282   0.04675   0.05840
 Alpha virt. eigenvalues --    0.06667   0.07537   0.08093   0.09309   0.09603
 Alpha virt. eigenvalues --    0.10369   0.11314   0.12629   0.12824   0.17239

 Mulliken charges:
               1
     1  H    0.903328
     2  H    0.437206
     3  H    0.683363
     4  H    0.712748
     5  H    0.367481
     6  H    0.705238
     7  H    0.576555
     8  H    0.671853
     9  H    0.360107
    10  H    0.673340
    11  H    0.397855
    12  H    0.442995
    13  H    0.930392
    14  H    0.503385
    15  O   -1.744890
    16  O   -1.250700
    17  O   -1.028356
    18  O   -1.042829
    19  O   -1.138278
    20  O   -0.992913
    21  O   -1.167879
 Sum of Mulliken charges =  -0.00000

 Dipole moment (field-independent basis, Debye):
    X=              0.9179    Y=             -1.9237    Z=             -1.2351  Tot=              2.4635

 Test job not archived.
 1\1\GINC-SE454\SP\RHF\Aug-CC-pVDZ\H14O7\OHZDE\08-Apr-2025\0\\#t hf aug
 -cc-pvdz iop(5/13=1,5/36=2,99/5=2) pseudo=read geom=check guess=(read,
 tcheck) scf=(maxcycle=1)\\title\\0,1\H,0,-0.768208,-0.0195961,-0.56463
 5\H,0,2.44988,-2.78251,-0.0454011\H,0,1.39799,-1.52536,-0.455531\H,0,3
 .43944,-0.570606,-0.184548\H,0,4.53978,0.466499,-0.65047\H,0,0.548745,
 0.511528,0.234953\H,0,2.44533,1.54594,0.600235\H,0,-3.36829,0.0840733,
 0.808363\H,0,1.4734,2.62184,-0.0292398\H,0,-2.86916,0.489431,-1.33603\
 H,0,-1.96252,-0.153893,-2.41291\H,0,-1.65746,-0.243767,2.73099\H,0,-1.

 Normal termination of Gaussian 16 at Tue Apr  8 21:10:09 2025.
