 Gaussian 16, Revision C.01,

 ----------------------------------------------------------------------
 #t hf aug-cc-pvdz symm=none int=(grid=ultrafine) guess=(read,tcheck) s
 table=(opt,rrhf)
 ----------------------------------------------------------------------
 -----
 title
 -----
 Symbolic Z-matrix:
 Charge =  0 Multiplicity = 1

 SCF Done:  E(RHF) =  -336.778083637     A.U. after   15 cycles
 Normal termination of Gaussian 16 at Tue Apr  8 21:44:51 2025.
 Gaussian 16:  ES64L-G16RevC.01  3-Jul-2019

 ----------------------------------------------------------------------
 #t hf aug-cc-pvdz iop(5/13=1,5/36=2,99/5=2) pseudo=read geom=check gue
 ss=(read,tcheck) scf=(maxcycle=1)
 ----------------------------------------------------------------------
 -----
 title
 -----
 Structure from the checkpoint file:  "ANI1ccx_515_conf3_mol1.chk"
 Charge =  0 Multiplicity = 1

                         Standard orientation:
 ---------------------------------------------------------------------
 Center     Atomic      Atomic             Coordinates (Angstroms)
 Number     Number       Type             X           Y           Z
 ---------------------------------------------------------------------
      1          6           0        0.738275   -0.221844   -0.035169
      2          6           0       -0.736688    0.244056    0.001671
      3          1           0        2.541993    0.694423    0.297228
      4          1           0        1.157155    1.697666    0.229300
      5          1           0       -2.600841   -0.745018   -0.016998
      6          1           0       -1.171614   -1.711748    0.136420
      7          7           0        1.561793    0.797698    0.065137
      8          7           0       -1.590351   -0.824993    0.129612
      9          8           0        1.049867   -1.414763   -0.111894
     10          8           0       -1.016905    1.430072   -0.114132
 ---------------------------------------------------------------------

 SCF Done:  E(RHF) =  -337.112514678     A.U. after    2 cycles

 The electronic state is 1-A.
 Alpha  occ. eigenvalues --  -20.54525 -20.53399 -15.54760 -15.54466 -11.39159
 Alpha  occ. eigenvalues --  -11.38362  -1.48888  -1.46738  -1.26119  -1.23830
 Alpha  occ. eigenvalues --   -0.94965  -0.85049  -0.81178  -0.76669  -0.70199
 Alpha  occ. eigenvalues --   -0.67344  -0.64209  -0.61620  -0.57611  -0.51001
 Alpha  occ. eigenvalues --   -0.46411  -0.44896  -0.42370
 Alpha virt. eigenvalues --    0.03020   0.03773   0.06403   0.06559   0.08258
 Alpha virt. eigenvalues --    0.10590   0.10983   0.11462   0.11852   0.11947
 Alpha virt. eigenvalues --    0.13513   0.15866   0.16251   0.16769   0.19345

 Mulliken charges:
               1
     1  C    0.371585
     2  C    0.450613
     3  H    0.107382
     4  H    0.096459
     5  H    0.104134
     6  H    0.045579
     7  N    0.729341
     8  N    0.652556
     9  O   -1.299575
    10  O   -1.258074
 Sum of Mulliken charges =  -0.00000

 Dipole moment (field-independent basis, Debye):
    X=             -0.0243    Y=              0.2810    Z=              0.8178  Tot=              0.8650

 Test job not archived.
 1\1\GINC-SE226\SP\RHF\Aug-CC-pVDZ\C2H4N2O2\OHZDE\08-Apr-2025\0\\#t hf
 aug-cc-pvdz iop(5/13=1,5/36=2,99/5=2) pseudo=read geom=check guess=(re
 ad,tcheck) scf=(maxcycle=1)\\title\\0,1\C,0,0.738275,-0.221841,-0.0351
 687\C,0,-0.73669,0.244055,0.00167048\H,0,2.54199,0.69443,0.297228\H,0,
 1.15715,1.69767,0.2293\H,0,-2.60084,-0.745024,-0.0169976\H,0,-1.17161,
 -1.71175,0.13642\N,0,1.56179,0.797703,0.0651373\N,0,-1.59035,-0.824997
 ,0.129612\O,0,1.04987,-1.41476,-0.111894\O,0,-1.01691,1.43007,-0.11413
 2\\Version=ES64L-G16RevC.01\State=1-A\HF=-337.1125147\RMSD=2.707e-02\D

 Normal termination of Gaussian 16 at Tue Apr  8 21:44:54 2025.
