 Gaussian 16, Revision C.01,

 ----------------------------------------------------------------------
 #t hf aug-cc-pvdz symm=none int=(grid=ultrafine) guess=(read,tcheck) s
 table=(opt,rrhf)
 ----------------------------------------------------------------------
 -----
 title
 -----
 Symbolic Z-matrix:
 Charge =  0 Multiplicity = 1

 SCF Done:  E(RHF) =  -645.341911164     A.U. after   17 cycles
 Normal termination of Gaussian 16 at Tue Apr  8 21:22:26 2025.
 Gaussian 16:  ES64L-G16RevC.01  3-Jul-2019

 ----------------------------------------------------------------------
 #t hf aug-cc-pvdz iop(5/13=1,5/36=2,99/5=2) pseudo=read geom=check gue
 ss=(read,tcheck) scf=(maxcycle=1)
 ----------------------------------------------------------------------
 -----
 title
 -----
 Structure from the checkpoint file:  "ANI1ccx_33_conf1_mol2.chk"
 Charge =  0 Multiplicity = 1

                         Standard orientation:
 ---------------------------------------------------------------------
 Center     Atomic      Atomic             Coordinates (Angstroms)
 Number     Number       Type             X           Y           Z
 ---------------------------------------------------------------------
      1          6           0        3.894119    1.163369    1.334210
      2          6           0       -3.746911   -0.230489   -0.125858
      3          6           0       -0.617251   -1.703371    0.824748
      4          6           0       -1.488051   -0.824813    0.117516
      5          6           0       -1.008131   -0.104742   -0.966287
      6          6           0        0.747511   -1.778311    0.601256
      7          6           0        1.334409   -0.898774   -0.335044
      8          6           0        3.297719    0.221547   -0.909402
      9          6           0        3.143479    1.418279    0.032474
     10          6           0        0.413086   -0.000319   -1.042950
     11          1           0       -1.659661    0.690508   -1.544810
     12          1           0       -3.087451    2.200329    1.326000
     13          1           0       -4.268391    1.545859   -0.924857
     14          1           0       -4.623771   -0.756425   -0.481882
     15          1           0        1.466639   -2.436291    1.155970
     16          1           0       -0.970724   -2.323161    1.676570
     17          1           0        0.634168    0.814277   -1.801460
     18          1           0        1.974089    1.435409    0.260535
     19          1           0        4.325879   -0.104781   -0.934251
     20          1           0        3.439459    2.422869   -0.450242
     21          1           0        3.376129    0.303485    1.971040
     22          1           0        3.971099    1.970329    2.036700
     23          1           0        4.870659    0.797584    0.964207
     24          1           0        3.036729    0.572489   -1.913400
     25          7           0       -2.834831   -0.893665    0.420170
     26          7           0       -3.869531    1.129639   -0.105085
     27          8           0        2.619799   -0.965065   -0.565041
     28          8           0       -2.791571    1.920249    0.473833
 ---------------------------------------------------------------------

 SCF Done:  E(RHF) =  -646.001034645     A.U. after    2 cycles

 The electronic state is 1-A.
 Alpha  occ. eigenvalues --  -20.61713 -20.55964 -15.59754 -15.46291 -11.34313
 Alpha  occ. eigenvalues --  -11.29202 -11.28332 -11.26740 -11.24357 -11.24175
 Alpha  occ. eigenvalues --  -11.23828 -11.22975 -11.22973 -11.22536  -1.51126
 Alpha  occ. eigenvalues --   -1.50624  -1.26993  -1.17855  -1.11387  -1.05836
 Alpha  occ. eigenvalues --   -1.00366  -0.98810  -0.93071  -0.87597  -0.82501
 Alpha  occ. eigenvalues --   -0.82164  -0.78978  -0.77800  -0.73745  -0.70496
 Alpha  occ. eigenvalues --   -0.69154  -0.68603  -0.65475  -0.65023  -0.62052
 Alpha  occ. eigenvalues --   -0.59386  -0.57190  -0.57077  -0.56127  -0.55063
 Alpha  occ. eigenvalues --   -0.54157  -0.53093  -0.52438  -0.50591  -0.48855
 Alpha  occ. eigenvalues --   -0.47748  -0.46332  -0.45352  -0.43531  -0.40748
 Alpha  occ. eigenvalues --   -0.33326  -0.26550
 Alpha virt. eigenvalues --    0.02493   0.03568   0.03669   0.04213   0.04813
 Alpha virt. eigenvalues --    0.04967   0.05111   0.06087   0.06712   0.07158
 Alpha virt. eigenvalues --    0.07432   0.08049   0.08113   0.09464   0.10121

 Mulliken charges:
               1
     1  C   -0.436544
     2  C   -1.043480
     3  C    1.242949
     4  C   -1.710396
     5  C    0.384864
     6  C   -0.002359
     7  C    1.662463
     8  C    0.496987
     9  C   -0.873093
    10  C   -0.067136
    11  H   -0.024817
    12  H    0.329273
    13  H    0.130434
    14  H   -0.183827
    15  H   -0.256316
    16  H   -0.223044
    17  H   -0.357571
    18  H    0.452668
    19  H   -0.142671
    20  H    0.147912
    21  H    0.297635
    22  H    0.027264
    23  H    0.252451
    24  H    0.242096
    25  N    1.375659
    26  N    1.227897
    27  O   -1.894155
    28  O   -1.055142
 Sum of Mulliken charges =  -0.00000

 Dipole moment (field-independent basis, Debye):
    X=             -2.2164    Y=              3.9173    Z=             -0.8427  Tot=              4.5790

 Test job not archived.
 1\1\GINC-SE368\SP\RHF\Aug-CC-pVDZ\C10H14N2O2\OHZDE\08-Apr-2025\0\\#t h
 f aug-cc-pvdz iop(5/13=1,5/36=2,99/5=2) pseudo=read geom=check guess=(
 read,tcheck) scf=(maxcycle=1)\\title\\0,1\C,0,3.89412,1.16337,1.33421\
 C,0,-3.74691,-0.230488,-0.125858\C,0,-0.61725,-1.70337,0.824748\C,0,-1
 .48805,-0.824812,0.117516\C,0,-1.00813,-0.104741,-0.966287\C,0,0.74751
 2,-1.77831,0.601256\C,0,1.33441,-0.898773,-0.335044\C,0,3.29772,0.2215
 48,-0.909402\C,0,3.14348,1.41828,0.0324744\C,0,0.413087,-0.00031816,-1
 .04295\H,0,-1.65966,0.690509,-1.54481\H,0,-3.08745,2.20033,1.326\H,0,-

 Normal termination of Gaussian 16 at Tue Apr  8 21:22:49 2025.
