 Gaussian 16, Revision C.01,

 ----------------------------------------------------------------------
 #t hf aug-cc-pvdz symm=none int=(grid=ultrafine) guess=(read,tcheck) s
 table=(opt,rrhf)
 ----------------------------------------------------------------------
 -----
 title
 -----
 Symbolic Z-matrix:
 Charge =  0 Multiplicity = 1

 SCF Done:  E(RHF) =  -557.476627496     A.U. after   16 cycles
 Normal termination of Gaussian 16 at Tue Apr  8 19:29:04 2025.
 Gaussian 16:  ES64L-G16RevC.01  3-Jul-2019

 ----------------------------------------------------------------------
 #t hf aug-cc-pvdz iop(5/13=1,5/36=2,99/5=2) pseudo=read geom=check gue
 ss=(read,tcheck) scf=(maxcycle=1)
 ----------------------------------------------------------------------
 -----
 title
 -----
 Structure from the checkpoint file:  "ANI1ccx_1322_conf6_mol1.chk"
 Charge =  0 Multiplicity = 1

                         Standard orientation:
 ---------------------------------------------------------------------
 Center     Atomic      Atomic             Coordinates (Angstroms)
 Number     Number       Type             X           Y           Z
 ---------------------------------------------------------------------
      1          6           0        1.905341   -0.591048    0.014531
      2          6           0        0.657773    1.314730   -0.028077
      3          6           0       -0.493496    0.399721    0.061008
      4          6           0       -2.782159    0.318049    0.107563
      5          6           0       -2.678149   -1.144109   -0.043575
      6          6           0       -0.349148   -0.984098   -0.012905
      7          1           0       -3.657940   -1.644479   -0.120399
      8          1           0       -3.777619    0.777304    0.167057
      9          1           0       -0.515336    2.977110   -0.025161
     10          1           0        1.273752    3.156249   -0.244232
     11          1           0        3.363830   -2.034652    0.239537
     12          1           0        3.837661   -0.491603    0.531298
     13          7           0        3.196011   -1.078902   -0.052846
     14          7           0        1.866081    0.794820    0.031153
     15          7           0        0.424098    2.612340   -0.153264
     16          7           0       -1.700638    1.074251    0.160087
     17          7           0       -1.528750   -1.734739   -0.171154
     18          7           0        0.873867   -1.470541    0.023256
 ---------------------------------------------------------------------

 SCF Done:  E(RHF) =  -558.028726332     A.U. after    2 cycles

 The electronic state is 1-A.
 Alpha  occ. eigenvalues --  -15.54598 -15.54119 -15.52900 -15.52461 -15.49974
 Alpha  occ. eigenvalues --  -15.48443 -11.37207 -11.35225 -11.33033 -11.31425
 Alpha  occ. eigenvalues --  -11.29583 -11.27474  -1.33758  -1.28838  -1.27380
 Alpha  occ. eigenvalues --   -1.21999  -1.19671  -1.17720  -1.04526  -0.94226
 Alpha  occ. eigenvalues --   -0.93159  -0.88997  -0.81870  -0.81559  -0.77980
 Alpha  occ. eigenvalues --   -0.74817  -0.71387  -0.69228  -0.66787  -0.65569
 Alpha  occ. eigenvalues --   -0.64454  -0.62540  -0.58224  -0.57133  -0.55085
 Alpha  occ. eigenvalues --   -0.52635  -0.49349  -0.48112  -0.46486  -0.43185
 Alpha  occ. eigenvalues --   -0.41886  -0.33060
 Alpha virt. eigenvalues --    0.02668   0.02812   0.03766   0.04243   0.04340
 Alpha virt. eigenvalues --    0.06235   0.07053   0.08212   0.08857   0.10119
 Alpha virt. eigenvalues --    0.10274   0.10579   0.11341   0.11566   0.11997

 Mulliken charges:
               1
     1  C   -0.991684
     2  C   -2.179665
     3  C   -0.292484
     4  C   -0.255212
     5  C   -0.582780
     6  C   -1.914530
     7  H   -0.057895
     8  H   -0.142752
     9  H    0.225749
    10  H    0.100328
    11  H    0.113181
    12  H    0.237991
    13  N    0.672255
    14  N    0.731844
    15  N    1.023543
    16  N    1.141434
    17  N    1.246333
    18  N    0.924345
 Sum of Mulliken charges =  -0.00000

 Dipole moment (field-independent basis, Debye):
    X=             -1.4115    Y=              3.1216    Z=              1.2716  Tot=              3.6542

 Test job not archived.
 1\1\GINC-SE103\SP\RHF\Aug-CC-pVDZ\C6H6N6\OHZDE\08-Apr-2025\0\\#t hf au
 g-cc-pvdz iop(5/13=1,5/36=2,99/5=2) pseudo=read geom=check guess=(read
 ,tcheck) scf=(maxcycle=1)\\title\\0,1\C,0,1.90534,-0.591047,0.0145311\
 C,0,0.657771,1.31473,-0.0280771\C,0,-0.493497,0.399721,0.0610083\C,0,-
 2.78216,0.318048,0.107563\C,0,-2.67815,-1.14411,-0.0435753\C,0,-0.3491
 49,-0.984098,-0.0129048\H,0,-3.65794,-1.64448,-0.120399\H,0,-3.77762,0
 .777303,0.167057\H,0,-0.515338,2.97711,-0.0251614\H,0,1.27375,3.15625,
 -0.244232\H,0,3.36383,-2.03465,0.239537\H,0,3.83766,-0.491601,0.531298

 Normal termination of Gaussian 16 at Tue Apr  8 19:29:16 2025.
