 Gaussian 16, Revision C.01,

 ----------------------------------------------------------------------
 #t hf aug-cc-pvdz symm=none int=(grid=ultrafine) guess=(read,tcheck) s
 table=(opt,rrhf)
 ----------------------------------------------------------------------
 -----
 title
 -----
 Symbolic Z-matrix:
 Charge =  0 Multiplicity = 1

 SCF Done:  E(RHF) =  -578.785253268     A.U. after   14 cycles
 Normal termination of Gaussian 16 at Tue Apr  8 22:17:32 2025.
 Gaussian 16:  ES64L-G16RevC.01  3-Jul-2019

 ----------------------------------------------------------------------
 #t hf aug-cc-pvdz iop(5/13=1,5/36=2,99/5=2) pseudo=read geom=check gue
 ss=(read,tcheck) scf=(maxcycle=1)
 ----------------------------------------------------------------------
 -----
 title
 -----
 Structure from the checkpoint file:  "ANI1ccx_987_conf3_mol1.chk"
 Charge =  0 Multiplicity = 1

                         Standard orientation:
 ---------------------------------------------------------------------
 Center     Atomic      Atomic             Coordinates (Angstroms)
 Number     Number       Type             X           Y           Z
 ---------------------------------------------------------------------
      1          6           0        2.053090   -0.459495   -0.048600
      2          6           0        0.439126    1.149860    0.058760
      3          6           0       -1.816011    0.543051    0.824525
      4          6           0       -2.133740   -0.592485   -0.170915
      5          1           0       -0.399563   -1.350370   -0.060286
      6          1           0       -2.288360    0.295569    1.781220
      7          1           0       -2.306491    1.412610    0.479284
      8          1           0        0.605393    2.680740   -1.183610
      9          1           0        0.045406   -0.106732    1.537300
     10          1           0        1.770510   -2.308769    0.315098
     11          1           0        3.940180    0.237506   -0.446127
     12          1           0        3.767380   -1.487229   -0.230709
     13          1           0       -0.943030    2.672170   -0.288354
     14          7           0        3.423290   -0.563343   -0.026975
     15          7           0        1.239300   -1.432019    0.239446
     16          7           0        1.631339    0.836518   -0.286743
     17          7           0       -0.078613    2.221850   -0.640271
     18          7           0       -0.347450    0.639783    1.027680
     19          8           0       -1.284940   -1.582480   -0.480320
     20          8           0       -3.280220   -0.643846   -0.529480
 ---------------------------------------------------------------------

 SCF Done:  E(RHF) =  -579.371269594     A.U. after    2 cycles

 The electronic state is 1-A.
 Alpha  occ. eigenvalues --  -20.56471 -20.50945 -15.54743 -15.54073 -15.53357
 Alpha  occ. eigenvalues --  -15.47941 -15.47391 -11.38805 -11.37478 -11.36472
 Alpha  occ. eigenvalues --  -11.31481  -1.51653  -1.42840  -1.35213  -1.28407
 Alpha  occ. eigenvalues --   -1.22581  -1.18553  -1.15348  -1.02278  -0.91725
 Alpha  occ. eigenvalues --   -0.87128  -0.81098  -0.78963  -0.75653  -0.75543
 Alpha  occ. eigenvalues --   -0.73838  -0.72160  -0.71083  -0.66875  -0.64621
 Alpha  occ. eigenvalues --   -0.62793  -0.62071  -0.59578  -0.57459  -0.56578
 Alpha  occ. eigenvalues --   -0.51303  -0.49422  -0.47233  -0.46009  -0.44125
 Alpha  occ. eigenvalues --   -0.42651  -0.40261
 Alpha virt. eigenvalues --    0.02312   0.03616   0.04104   0.04580   0.04713
 Alpha virt. eigenvalues --    0.06551   0.07053   0.07854   0.08337   0.09055
 Alpha virt. eigenvalues --    0.10395   0.10776   0.11613   0.12123   0.12926

 Mulliken charges:
               1
     1  C   -1.647625
     2  C   -2.163784
     3  C   -0.874493
     4  C    2.235545
     5  H    0.789805
     6  H    0.189105
     7  H    0.039967
     8  H    0.165433
     9  H    0.551004
    10  H    0.070791
    11  H    0.180145
    12  H    0.168048
    13  H    0.190153
    14  N    0.502325
    15  N    0.503485
    16  N    0.671265
    17  N    0.718585
    18  N    0.569563
    19  O   -1.545448
    20  O   -1.313867
 Sum of Mulliken charges =   0.00000

 Dipole moment (field-independent basis, Debye):
    X=              4.4728    Y=              3.0702    Z=              1.9635  Tot=              5.7695

 Test job not archived.
 1\1\GINC-SE109\SP\RHF\Aug-CC-pVDZ\C4H9N5O2\OHZDE\08-Apr-2025\0\\#t hf
 aug-cc-pvdz iop(5/13=1,5/36=2,99/5=2) pseudo=read geom=check guess=(re
 ad,tcheck) scf=(maxcycle=1)\\title\\0,1\C,0,2.05309,-0.459496,-0.04860
 06\C,0,0.439127,1.14986,0.0587599\C,0,-1.81601,0.543051,0.824525\C,0,-
 2.13374,-0.592485,-0.170915\H,0,-0.399563,-1.35037,-0.0602866\H,0,-2.2
 8836,0.295569,1.78122\H,0,-2.30649,1.41261,0.479284\H,0,0.605394,2.680
 74,-1.18361\H,0,0.0454059,-0.106732,1.5373\H,0,1.77051,-2.30877,0.3150
 98\H,0,3.94018,0.237505,-0.446127\H,0,3.76738,-1.48723,-0.230709\H,0,-

 Normal termination of Gaussian 16 at Tue Apr  8 22:17:46 2025.
