 Gaussian 16, Revision C.01,

 ----------------------------------------------------------------------
 #t hf aug-cc-pvdz symm=none int=(grid=ultrafine) guess=(read,tcheck) s
 table=(opt,rrhf)
 ----------------------------------------------------------------------
 -----
 title
 -----
 Symbolic Z-matrix:
 Charge =  0 Multiplicity = 1

 SCF Done:  E(RHF) =  -720.698202453     A.U. after   14 cycles
 Normal termination of Gaussian 16 at Tue Apr  8 20:26:15 2025.
 Gaussian 16:  ES64L-G16RevC.01  3-Jul-2019

 ----------------------------------------------------------------------
 #t hf aug-cc-pvdz iop(5/13=1,5/36=2,99/5=2) pseudo=read geom=check gue
 ss=(read,tcheck) scf=(maxcycle=1)
 ----------------------------------------------------------------------
 -----
 title
 -----
 Structure from the checkpoint file:  "ANI1ccx_1618_conf11_mol1.chk"
 Charge =  0 Multiplicity = 1

                         Standard orientation:
 ---------------------------------------------------------------------
 Center     Atomic      Atomic             Coordinates (Angstroms)
 Number     Number       Type             X           Y           Z
 ---------------------------------------------------------------------
      1          6           0       -2.329750   -0.676468   -0.172696
      2          6           0       -0.833575   -0.709842    0.164761
      3          6           0       -2.727940    0.812692   -0.006647
      4          6           0        1.284880    0.310486   -0.673504
      5          6           0        2.322400   -0.844055   -0.647862
      6          6           0        1.623180    1.343900    0.497531
      7          6           0        0.740598    2.568110    0.389827
      8          6           0        1.546170    0.702552    1.886981
      9          1           0        1.169180   -2.018820    0.209163
     10          1           0        1.965370   -0.339908    1.922031
     11          1           0        0.512914    0.615170    2.303931
     12          1           0        2.095810    1.355460    2.582961
     13          1           0        1.030330    3.349820    1.066191
     14          1           0       -0.349311    2.427850    0.564810
     15          1           0        0.793486    3.042700   -0.650256
     16          1           0        2.709830    1.635310    0.259392
     17          1           0       -0.668527    0.529957   -1.414939
     18          1           0       -2.963210    2.386840   -1.129329
     19          1           0       -2.176070    1.358250    0.760333
     20          1           0       -3.741550    0.684673    0.422232
     21          1           0       -2.416570   -0.836030   -1.249249
     22          1           0       -3.090050   -2.562990   -0.026353
     23          1           0       -2.831290   -1.723730    1.407331
     24          1           0        1.488700    0.861448   -1.613029
     25          7           0       -3.200690   -1.657280    0.459932
     26          7           0       -0.130226   -0.056761   -0.784515
     27          8           0        3.458480   -0.491218   -0.970265
     28          8           0       -0.405188   -1.490900    0.993702
     29          8           0       -2.503820    1.536020   -1.177389
     30          8           0        1.954480   -2.030400   -0.317728
 ---------------------------------------------------------------------

 SCF Done:  E(RHF) =  -721.431755728     A.U. after    2 cycles

 The electronic state is 1-A.
 Alpha  occ. eigenvalues --  -20.59196 -20.59049 -20.54381 -20.51711 -15.54824
 Alpha  occ. eigenvalues --  -15.51378 -11.38942 -11.37878 -11.31323 -11.30260
 Alpha  occ. eigenvalues --  -11.29376 -11.26398 -11.24430 -11.23674  -1.56040
 Alpha  occ. eigenvalues --   -1.49974  -1.49592  -1.43442  -1.27385  -1.20960
 Alpha  occ. eigenvalues --   -1.09772  -1.03612  -0.98353  -0.94268  -0.89655
 Alpha  occ. eigenvalues --   -0.85743  -0.84303  -0.80038  -0.76834  -0.76491
 Alpha  occ. eigenvalues --   -0.73367  -0.71188  -0.68475  -0.67283  -0.65594
 Alpha  occ. eigenvalues --   -0.64352  -0.63652  -0.63043  -0.61853  -0.59810
 Alpha  occ. eigenvalues --   -0.59437  -0.57595  -0.57410  -0.55245  -0.53858
 Alpha  occ. eigenvalues --   -0.52240  -0.50894  -0.49580  -0.49175  -0.48584
 Alpha  occ. eigenvalues --   -0.46987  -0.45555  -0.44605  -0.43174  -0.40936
 Alpha virt. eigenvalues --    0.02078   0.03064   0.03211   0.03639   0.04836
 Alpha virt. eigenvalues --    0.04986   0.05350   0.05502   0.06617   0.07680
 Alpha virt. eigenvalues --    0.07987   0.08173   0.08965   0.09161   0.10428

 Mulliken charges:
               1
     1  C   -2.240232
     2  C    0.542963
     3  C    1.169749
     4  C   -1.497471
     5  C    2.523159
     6  C   -0.615256
     7  C   -0.060502
     8  C   -0.236878
     9  H    0.443077
    10  H    0.220381
    11  H    0.230095
    12  H    0.081106
    13  H    0.060545
    14  H   -0.021276
    15  H    0.293720
    16  H    0.294898
    17  H    0.257709
    18  H    0.351490
    19  H    0.039861
    20  H    0.198750
    21  H    0.182163
    22  H    0.275190
    23  H    0.299428
    24  H    0.193970
    25  N    0.701828
    26  N    1.939332
    27  O   -1.396957
    28  O   -1.424761
    29  O   -1.361397
    30  O   -1.444685
 Sum of Mulliken charges =  -0.00000

 Dipole moment (field-independent basis, Debye):
    X=             -5.4464    Y=              3.6647    Z=              0.3860  Tot=              6.5758

 Test job not archived.
 1\1\GINC-SE252\SP\RHF\Aug-CC-pVDZ\C8H16N2O4\OHZDE\08-Apr-2025\0\\#t hf
  aug-cc-pvdz iop(5/13=1,5/36=2,99/5=2) pseudo=read geom=check guess=(r
 ead,tcheck) scf=(maxcycle=1)\\title\\0,1\C,0,-2.32975,-0.676468,-0.172
 697\C,0,-0.833575,-0.709842,0.16476\C,0,-2.72794,0.812692,-0.00664771\
 C,0,1.28488,0.310486,-0.673505\C,0,2.3224,-0.844055,-0.647863\C,0,1.62
 318,1.3439,0.49753\C,0,0.740598,2.56811,0.389826\C,0,1.54617,0.702552,
 1.88698\H,0,1.16918,-2.01882,0.209162\H,0,1.96537,-0.339908,1.92203\H,
 0,0.512914,0.61517,2.30393\H,0,2.09581,1.35546,2.58296\H,0,1.03033,3.3

 Normal termination of Gaussian 16 at Tue Apr  8 20:26:48 2025.
