 Gaussian 16, Revision C.01,

 ----------------------------------------------------------------------
 #t hf aug-cc-pvdz symm=none int=(grid=ultrafine) guess=(read,tcheck) s
 table=(opt,rrhf)
 ----------------------------------------------------------------------
 -----
 title
 -----
 Symbolic Z-matrix:
 Charge =  0 Multiplicity = 1

 SCF Done:  E(RHF) =  -429.701576298     A.U. after   13 cycles
 Normal termination of Gaussian 16 at Tue Apr  8 21:52:04 2025.
 Gaussian 16:  ES64L-G16RevC.01  3-Jul-2019

 ----------------------------------------------------------------------
 #t hf aug-cc-pvdz iop(5/13=1,5/36=2,99/5=2) pseudo=read geom=check gue
 ss=(read,tcheck) scf=(maxcycle=1)
 ----------------------------------------------------------------------
 -----
 title
 -----
 Structure from the checkpoint file:  "ANI1ccx_712_conf5_mol1.chk"
 Charge =  0 Multiplicity = 1

                         Standard orientation:
 ---------------------------------------------------------------------
 Center     Atomic      Atomic             Coordinates (Angstroms)
 Number     Number       Type             X           Y           Z
 ---------------------------------------------------------------------
      1          6           0       -1.252100   -0.392749   -0.023075
      2          6           0        0.011359    1.705889    0.202770
      3          6           0        1.230480   -0.436570   -0.011957
      4          1           0       -2.048706    1.441602   -0.110194
      5          1           0        0.033134    2.035419    1.237960
      6          1           0        0.043138    2.697249   -0.324224
      7          1           0        2.049333    1.399286   -0.526832
      8          1           0       -0.126543   -2.009951    0.303246
      9          7           0       -1.147817    0.964273   -0.155567
     10          7           0        1.202373    0.927436   -0.130234
     11          7           0       -0.031147   -1.022631    0.153454
     12          8           0       -2.286671   -1.042077   -0.058870
     13          8           0        2.280089   -1.071245   -0.023624
 ---------------------------------------------------------------------

 SCF Done:  E(RHF) =  -430.127555420     A.U. after    2 cycles

 The electronic state is 1-A.
 Alpha  occ. eigenvalues --  -20.52704 -20.52318 -15.56082 -15.55579 -15.55434
 Alpha  occ. eigenvalues --  -11.41613 -11.41425 -11.35374  -1.48810  -1.47144
 Alpha  occ. eigenvalues --   -1.33228  -1.24787  -1.23044  -1.00640  -0.93777
 Alpha  occ. eigenvalues --   -0.87048  -0.81342  -0.75190  -0.73304  -0.70384
 Alpha  occ. eigenvalues --   -0.69211  -0.64898  -0.63040  -0.62184  -0.59729
 Alpha  occ. eigenvalues --   -0.48003  -0.46857  -0.46121  -0.44755  -0.43308
 Alpha virt. eigenvalues --    0.02083   0.03702   0.04094   0.05267   0.05648
 Alpha virt. eigenvalues --    0.08792   0.09167   0.09672   0.09929   0.12549
 Alpha virt. eigenvalues --    0.13280   0.13565   0.13805   0.14067   0.14605

 Mulliken charges:
               1
     1  C    0.194539
     2  C   -0.362260
     3  C    0.250225
     4  H    0.251542
     5  H    0.022282
     6  H    0.071471
     7  H    0.215254
     8  H    0.249097
     9  N    0.436481
    10  N    0.497846
    11  N    0.526258
    12  O   -1.183565
    13  O   -1.169170
 Sum of Mulliken charges =  -0.00000

 Dipole moment (field-independent basis, Debye):
    X=             -0.2117    Y=              5.1196    Z=              0.4295  Tot=              5.1420

 Test job not archived.
 1\1\GINC-SE109\SP\RHF\Aug-CC-pVDZ\C3H5N3O2\OHZDE\08-Apr-2025\0\\#t hf
 aug-cc-pvdz iop(5/13=1,5/36=2,99/5=2) pseudo=read geom=check guess=(re
 ad,tcheck) scf=(maxcycle=1)\\title\\0,1\C,0,-1.2521,-0.39275,-0.023075
 4\C,0,0.0113548,1.70589,0.20277\C,0,1.23048,-0.436567,-0.0119571\H,0,-
 2.04871,1.4416,-0.110194\H,0,0.033129,2.03542,1.23796\H,0,0.0431326,2.
 69725,-0.324224\H,0,2.04933,1.39929,-0.526832\H,0,-0.126541,-2.00995,0
 .303246\N,0,-1.14782,0.964272,-0.155567\N,0,1.20237,0.927439,-0.130234
 \N,0,-0.0311469,-1.02263,0.153454\O,0,-2.28667,-1.04208,-0.0588696\O,0

 Normal termination of Gaussian 16 at Tue Apr  8 21:52:09 2025.
