 Gaussian 16, Revision C.01,

 ----------------------------------------------------------------------
 #t hf aug-cc-pvdz symm=none int=(grid=ultrafine) guess=(read,tcheck) s
 table=(opt,rrhf)
 ----------------------------------------------------------------------
 -----
 title
 -----
 Symbolic Z-matrix:
 Charge =  0 Multiplicity = 1

 SCF Done:  E(RHF) =  -868.296923346     A.U. after   16 cycles
 Normal termination of Gaussian 16 at Tue Apr  8 20:42:44 2025.
 Gaussian 16:  ES64L-G16RevC.01  3-Jul-2019

 ----------------------------------------------------------------------
 #t hf aug-cc-pvdz iop(5/13=1,5/36=2,99/5=2) pseudo=read geom=check gue
 ss=(read,tcheck) scf=(maxcycle=1)
 ----------------------------------------------------------------------
 -----
 title
 -----
 Structure from the checkpoint file:  "ANI1ccx_170_conf20_mol1.chk"
 Charge =  0 Multiplicity = 1

                         Standard orientation:
 ---------------------------------------------------------------------
 Center     Atomic      Atomic             Coordinates (Angstroms)
 Number     Number       Type             X           Y           Z
 ---------------------------------------------------------------------
      1          6           0        0.684949   -0.120302    0.919425
      2          6           0       -2.319910    2.012499   -0.342374
      3          6           0       -3.902430    0.509971    0.253382
      4          6           0       -2.498580   -1.499421   -0.366434
      5          6           0       -2.603800   -0.247296    0.482221
      6          6           0       -3.723080    1.617189   -0.791846
      7          6           0        3.868360   -0.620882   -1.205360
      8          6           0        2.970410   -0.390767   -0.158140
      9          6           0        1.569460   -0.951846    0.024181
     10          6           0       -0.247869    0.875991    0.271271
     11          6           0        4.714040    0.757522    0.180512
     12          1           0       -4.229640    0.967254    1.189630
     13          1           0       -0.862387   -1.773691    0.755696
     14          1           0       -1.801720    2.540509   -1.189160
     15          1           0       -2.260780    2.804609    0.476407
     16          1           0       -4.471650    2.426769   -0.726674
     17          1           0       -3.662200    1.473369   -1.928310
     18          1           0       -4.719930   -0.190095   -0.135532
     19          1           0       -2.366130   -0.535438    1.503600
     20          1           0        3.855540   -1.266380   -2.075800
     21          1           0        5.523370    1.324450    0.621266
     22          1           0        1.216650   -1.087490   -1.014310
     23          1           0        1.688130   -1.969110    0.379736
     24          1           0        1.502660    0.500122    1.458810
     25          1           0        0.621749   -1.661560    2.219070
     26          1           0       -0.664094   -0.625279    2.402970
     27          1           0        5.813810    0.275735   -1.494560
     28          7           0       -0.025396   -1.031840    1.755220
     29          7           0        3.589990    0.433934    0.788220
     30          7           0        4.949150    0.218720   -0.987689
     31          7           0       -1.591980    0.773788    0.103924
     32          8           0       -3.144900   -1.908431   -1.265190
     33          8           0        0.274683    1.934910    0.102701
     34          8           0       -1.467910   -2.229221   -0.045205
 ---------------------------------------------------------------------

 SCF Done:  E(RHF) =  -869.178570075     A.U. after    2 cycles

 The electronic state is 1-A.
 Alpha  occ. eigenvalues --  -20.53324 -20.50086 -20.49915 -15.56886 -15.54334
 Alpha  occ. eigenvalues --  -15.53606 -15.49371 -11.35323 -11.35308 -11.30488
 Alpha  occ. eigenvalues --  -11.30284 -11.29316 -11.27553 -11.27259 -11.26983
 Alpha  occ. eigenvalues --  -11.25555 -11.25255 -11.24878  -1.51874  -1.47944
 Alpha  occ. eigenvalues --   -1.41089  -1.35661  -1.27226  -1.25241  -1.18976
 Alpha  occ. eigenvalues --   -1.08830  -1.06855  -1.02812  -1.00825  -0.93472
 Alpha  occ. eigenvalues --   -0.88646  -0.87419  -0.84455  -0.81774  -0.80455
 Alpha  occ. eigenvalues --   -0.79529  -0.78250  -0.75415  -0.72779  -0.72235
 Alpha  occ. eigenvalues --   -0.69418  -0.65884  -0.65036  -0.64449  -0.63933
 Alpha  occ. eigenvalues --   -0.63611  -0.62454  -0.61208  -0.60369  -0.59361
 Alpha  occ. eigenvalues --   -0.58345  -0.57573  -0.56922  -0.55777  -0.54046
 Alpha  occ. eigenvalues --   -0.53081  -0.50822  -0.48811  -0.48627  -0.47163
 Alpha  occ. eigenvalues --   -0.45265  -0.44275  -0.42692  -0.42046  -0.41557
 Alpha  occ. eigenvalues --   -0.39008  -0.33114
 Alpha virt. eigenvalues --    0.02190   0.02506   0.03525   0.04080   0.04110
 Alpha virt. eigenvalues --    0.04715   0.04722   0.05039   0.05695   0.06846
 Alpha virt. eigenvalues --    0.07143   0.07242   0.07932   0.09107   0.09463

 Mulliken charges:
               1
     1  C   -1.373249
     2  C   -0.373937
     3  C   -0.337546
     4  C    2.418040
     5  C   -0.593771
     6  C   -0.250700
     7  C   -0.241623
     8  C   -0.594731
     9  C    0.380839
    10  C    0.241210
    11  C   -1.102256
    12  H    0.148456
    13  H    1.221660
    14  H    0.145555
    15  H    0.123313
    16  H    0.125077
    17  H    0.130341
    18  H    0.219689
    19  H   -0.144062
    20  H   -0.301889
    21  H   -0.172533
    22  H    0.292270
    23  H    0.181709
    24  H    0.291789
    25  H    0.426412
    26  H    0.309653
    27  H    0.014045
    28  N    0.102297
    29  N    1.135495
    30  N    0.804757
    31  N    1.243795
    32  O   -1.430877
    33  O   -1.369881
    34  O   -1.669348
 Sum of Mulliken charges =   0.00000

 Dipole moment (field-independent basis, Debye):
    X=              4.2537    Y=              1.0785    Z=              2.3862  Tot=              4.9951

 Test job not archived.
 1\1\GINC-SE460\SP\RHF\Aug-CC-pVDZ\C11H16N4O3\OHZDE\08-Apr-2025\0\\#t h
 f aug-cc-pvdz iop(5/13=1,5/36=2,99/5=2) pseudo=read geom=check guess=(
 read,tcheck) scf=(maxcycle=1)\\title\\0,1\C,0,0.684949,-0.120302,0.919
 425\C,0,-2.31991,2.0125,-0.342374\C,0,-3.90243,0.509972,0.253382\C,0,-
 2.49858,-1.49942,-0.366434\C,0,-2.6038,-0.247295,0.482221\C,0,-3.72308
 ,1.61719,-0.791846\C,0,3.86836,-0.620882,-1.20536\C,0,2.97041,-0.39076
 7,-0.15814\C,0,1.56946,-0.951846,0.0241818\C,0,-0.247869,0.875991,0.27
 1271\C,0,4.71404,0.757522,0.180512\H,0,-4.22964,0.967255,1.18963\H,0,-

 Normal termination of Gaussian 16 at Tue Apr  8 20:43:37 2025.
