 Gaussian 16, Revision C.01,

 ----------------------------------------------------------------------
 #t hf aug-cc-pvdz symm=none int=(grid=ultrafine) guess=(read,tcheck) s
 table=(opt,rrhf)
 ----------------------------------------------------------------------
 -----
 title
 -----
 Symbolic Z-matrix:
 Charge =  0 Multiplicity = 1

 SCF Done:  E(RHF) =  -489.157625869     A.U. after   13 cycles
 Normal termination of Gaussian 16 at Tue Apr  8 21:49:58 2025.
 Gaussian 16:  ES64L-G16RevC.01  3-Jul-2019

 ----------------------------------------------------------------------
 #t hf aug-cc-pvdz iop(5/13=1,5/36=2,99/5=2) pseudo=read geom=check gue
 ss=(read,tcheck) scf=(maxcycle=1)
 ----------------------------------------------------------------------
 -----
 title
 -----
 Structure from the checkpoint file:  "ANI1ccx_667_conf2_mol1.chk"
 Charge =  0 Multiplicity = 1

                         Standard orientation:
 ---------------------------------------------------------------------
 Center     Atomic      Atomic             Coordinates (Angstroms)
 Number     Number       Type             X           Y           Z
 ---------------------------------------------------------------------
      1          6           0        1.194830   -0.371600   -0.031662
      2          6           0        0.006664    1.517231    0.308863
      3          6           0       -1.215070   -0.374187   -0.043262
      4          1           0       -0.073115    1.312601    1.361980
      5          1           0       -0.053070    2.573311   -0.061159
      6          8           0        2.185250   -1.065679   -0.116874
      7          8           0        1.184260    0.966403   -0.225171
      8          8           0       -1.166470    0.962382   -0.273702
      9          8           0       -2.171050   -1.066389   -0.094187
     10          8           0       -0.006035   -0.861039    0.371878
 ---------------------------------------------------------------------

 SCF Done:  E(RHF) =  -489.626089068     A.U. after    2 cycles

 The electronic state is 1-A.
 Alpha  occ. eigenvalues --  -20.67108 -20.66378 -20.65754 -20.58823 -20.58276
 Alpha  occ. eigenvalues --  -11.50159 -11.49883 -11.42463  -1.69136  -1.59434
 Alpha  occ. eigenvalues --   -1.57116  -1.51860  -1.49775  -1.03974  -0.99090
 Alpha  occ. eigenvalues --   -0.86192  -0.85794  -0.79808  -0.75234  -0.70821
 Alpha  occ. eigenvalues --   -0.68891  -0.68562  -0.66661  -0.61496  -0.60937
 Alpha  occ. eigenvalues --   -0.56251  -0.53183  -0.52353  -0.50155  -0.49498
 Alpha virt. eigenvalues --    0.02502   0.03803   0.06510   0.06780   0.09646
 Alpha virt. eigenvalues --    0.10429   0.10630   0.11056   0.11271   0.12667
 Alpha virt. eigenvalues --    0.13435   0.14272   0.14475   0.14834   0.16967

 Mulliken charges:
               1
     1  C    2.244393
     2  C    0.982436
     3  C    2.218899
     4  H    0.163266
     5  H    0.115091
     6  O   -1.151609
     7  O   -1.135653
     8  O   -1.176446
     9  O   -1.102407
    10  O   -1.157970
 Sum of Mulliken charges =  -0.00000

 Dipole moment (field-independent basis, Debye):
    X=             -0.2934    Y=              4.1134    Z=              1.1898  Tot=              4.2920

 Test job not archived.
 1\1\GINC-SE095\SP\RHF\Aug-CC-pVDZ\C3H2O5\OHZDE\08-Apr-2025\0\\#t hf au
 g-cc-pvdz iop(5/13=1,5/36=2,99/5=2) pseudo=read geom=check guess=(read
 ,tcheck) scf=(maxcycle=1)\\title\\0,1\C,0,1.19483,-0.371601,-0.0316625
 \C,0,0.00666333,1.51723,0.308863\C,0,-1.21507,-0.374188,-0.0432622\H,0
 ,-0.0731158,1.3126,1.36198\H,0,-0.0530708,2.57331,-0.0611593\O,0,2.185
 25,-1.06568,-0.116874\O,0,1.18426,0.966402,-0.225171\O,0,-1.16647,0.96
 2381,-0.273702\O,0,-2.17105,-1.06639,-0.0941875\O,0,-0.00603515,-0.861
 04,0.371878\\Version=ES64L-G16RevC.01\State=1-A\HF=-489.6260891\RMSD=8

 Normal termination of Gaussian 16 at Tue Apr  8 21:50:02 2025.
