 Gaussian 16, Revision C.01,

 ----------------------------------------------------------------------
 #t hf aug-cc-pvdz symm=none int=(grid=ultrafine) guess=(read,tcheck) s
 table=(opt,rrhf)
 ----------------------------------------------------------------------
 -----
 title
 -----
 Symbolic Z-matrix:
 Charge =  0 Multiplicity = 1

 SCF Done:  E(RHF) =  -456.239806591     A.U. after   11 cycles
 Normal termination of Gaussian 16 at Tue Apr  8 21:07:38 2025.
 Gaussian 16:  ES64L-G16RevC.01  3-Jul-2019

 ----------------------------------------------------------------------
 #t hf aug-cc-pvdz iop(5/13=1,5/36=2,99/5=2) pseudo=read geom=check gue
 ss=(read,tcheck) scf=(maxcycle=1)
 ----------------------------------------------------------------------
 -----
 title
 -----
 Structure from the checkpoint file:  "ANI1ccx_1844_conf316_mol1.chk"
 Charge =  0 Multiplicity = 1

                         Standard orientation:
 ---------------------------------------------------------------------
 Center     Atomic      Atomic             Coordinates (Angstroms)
 Number     Number       Type             X           Y           Z
 ---------------------------------------------------------------------
      1          1           0       -1.040743    1.763437    1.566390
      2          1           0        1.483337    1.506272   -0.503249
      3          1           0        1.157205    3.091661   -0.439357
      4          1           0        0.696275   -2.114230    0.057140
      5          1           0        1.187073   -1.839139    1.534030
      6          1           0        2.336031   -0.577833    0.290450
      7          1           0       -0.748601    1.922948    0.081413
      8          1           0        3.079969    0.209300   -0.953907
      9          1           0       -2.990610    0.054995   -0.927171
     10          1           0       -2.283491    0.400437    0.479247
     11          1           0       -1.506848   -1.321383   -0.366498
     12          1           0       -1.431865   -2.873973   -0.856888
     13          8           0        1.507393   -2.011268    0.618746
     14          8           0       -2.728460   -0.373698    0.012070
     15          8           0        0.817409    2.206071   -0.676994
     16          8           0        2.752159    0.315020    0.036602
     17          8           0       -1.493583    1.852407    0.694626
     18          8           0       -0.847135   -2.016342   -0.680250
 ---------------------------------------------------------------------

 SCF Done:  E(RHF) =  -456.710728010     A.U. after    2 cycles

 The electronic state is 1-A.
 Alpha  occ. eigenvalues --  -20.56375 -20.56262 -20.55676 -20.55146 -20.55070
 Alpha  occ. eigenvalues --  -20.54728  -1.45539  -1.43408  -1.43268  -1.41924
 Alpha  occ. eigenvalues --   -1.39704  -1.39103  -0.72568  -0.71731  -0.71107
 Alpha  occ. eigenvalues --   -0.69205  -0.68267  -0.68090  -0.61781  -0.60206
 Alpha  occ. eigenvalues --   -0.58744  -0.56417  -0.55910  -0.53938  -0.50123
 Alpha  occ. eigenvalues --   -0.49291  -0.48939  -0.48535  -0.47850  -0.47670
 Alpha virt. eigenvalues --    0.03213   0.04068   0.04411   0.05104   0.06349
 Alpha virt. eigenvalues --    0.07151   0.08285   0.08398   0.09277   0.10356
 Alpha virt. eigenvalues --    0.10764   0.11400   0.17488   0.18557   0.19068

 Mulliken charges:
               1
     1  H    0.456150
     2  H    0.703923
     3  H    0.368992
     4  H    0.731647
     5  H    0.421460
     6  H    0.750650
     7  H    0.674288
     8  H    0.433912
     9  H    0.419278
    10  H    0.780513
    11  H    0.869016
    12  H    0.384881
    13  O   -1.193630
    14  O   -1.278315
    15  O   -1.087119
    16  O   -1.122301
    17  O   -1.138695
    18  O   -1.174649
 Sum of Mulliken charges =  -0.00000

 Dipole moment (field-independent basis, Debye):
    X=             -0.4780    Y=              0.7728    Z=              0.1258  Tot=              0.9173

 Test job not archived.
 1\1\GINC-SE338\SP\RHF\Aug-CC-pVDZ\H12O6\OHZDE\08-Apr-2025\0\\#t hf aug
 -cc-pvdz iop(5/13=1,5/36=2,99/5=2) pseudo=read geom=check guess=(read,
 tcheck) scf=(maxcycle=1)\\title\\0,1\H,0,-1.04074,1.76344,1.56639\H,0,
 1.48334,1.50627,-0.503249\H,0,1.15721,3.09166,-0.439357\H,0,0.696272,-
 2.11423,0.0571396\H,0,1.18707,-1.83914,1.53403\H,0,2.33603,-0.577836,0
 .29045\H,0,-0.748598,1.92295,0.081413\H,0,3.07997,0.209296,-0.953907\H
 ,0,-2.99061,0.0550007,-0.927171\H,0,-2.28349,0.400442,0.479247\H,0,-1.
 50685,-1.32138,-0.366498\H,0,-1.43187,-2.87397,-0.856888\O,0,1.50739,-

 Normal termination of Gaussian 16 at Tue Apr  8 21:07:43 2025.
