 Gaussian 16, Revision C.01,

 ----------------------------------------------------------------------
 #t hf aug-cc-pvdz symm=none int=(grid=ultrafine) guess=(read,tcheck) s
 table=(opt,rrhf)
 ----------------------------------------------------------------------
 -----
 title
 -----
 Symbolic Z-matrix:
 Charge =  0 Multiplicity = 1

 SCF Done:  E(RHF) =  -642.649705247     A.U. after   14 cycles
 Normal termination of Gaussian 16 at Tue Apr  8 19:22:23 2025.
 Gaussian 16:  ES64L-G16RevC.01  3-Jul-2019

 ----------------------------------------------------------------------
 #t hf aug-cc-pvdz iop(5/13=1,5/36=2,99/5=2) pseudo=read geom=check gue
 ss=(read,tcheck) scf=(maxcycle=1)
 ----------------------------------------------------------------------
 -----
 title
 -----
 Structure from the checkpoint file:  "ANI1ccx_1214_conf1_mol2.chk"
 Charge =  0 Multiplicity = 1

                         Standard orientation:
 ---------------------------------------------------------------------
 Center     Atomic      Atomic             Coordinates (Angstroms)
 Number     Number       Type             X           Y           Z
 ---------------------------------------------------------------------
      1          6           0       -1.477140   -0.414963   -0.521099
      2          6           0       -0.101112   -0.014516   -0.137478
      3          6           0       -2.502120    0.317938    0.412276
      4          6           0       -2.803139    1.731410   -0.031668
      5          6           0        2.170700   -0.852498    0.621525
      6          6           0        3.225790    0.131631    0.031633
      7          1           0        1.866791    1.538770   -0.146650
      8          1           0        2.618800   -1.831311    0.497465
      9          1           0        2.093340   -0.626076    1.729660
     10          1           0        0.483076   -1.885090    0.053807
     11          1           0       -3.566679    2.131540    0.668748
     12          1           0       -1.904169    2.353630   -0.052287
     13          1           0       -3.144289    1.654360   -1.038130
     14          1           0       -4.336840   -0.059189    0.911120
     15          1           0       -2.151260    0.233573    1.463050
     16          1           0       -1.628650   -0.074491   -1.538240
     17          1           0       -1.602160   -2.255740   -1.351270
     18          1           0       -2.590420   -1.964130   -0.075024
     19          7           0       -1.614330   -1.876760   -0.379032
     20          7           0        0.869943   -0.955513   -0.037750
     21          8           0        0.069138    1.176330    0.112469
     22          8           0       -3.734040   -0.416955    0.236653
     23          8           0        4.394220   -0.169447    0.060139
     24          8           0        2.770091    1.312079   -0.466250
 ---------------------------------------------------------------------

 SCF Done:  E(RHF) =  -643.300411256     A.U. after    2 cycles

 The electronic state is 1-A.
 Alpha  occ. eigenvalues --  -20.57809 -20.57592 -20.53555 -20.53182 -15.55155
 Alpha  occ. eigenvalues --  -15.51534 -11.39631 -11.37854 -11.32041 -11.31398
 Alpha  occ. eigenvalues --  -11.29610 -11.23543  -1.52091  -1.48917  -1.47481
 Alpha  occ. eigenvalues --   -1.44205  -1.27279  -1.21039  -1.06105  -1.02887
 Alpha  occ. eigenvalues --   -0.96084  -0.86889  -0.83985  -0.81026  -0.76761
 Alpha  occ. eigenvalues --   -0.74064  -0.72386  -0.70176  -0.69306  -0.66007
 Alpha  occ. eigenvalues --   -0.65404  -0.63880  -0.62658  -0.61856  -0.60731
 Alpha  occ. eigenvalues --   -0.58546  -0.57189  -0.55920  -0.55341  -0.53403
 Alpha  occ. eigenvalues --   -0.50357  -0.49511  -0.46830  -0.46291  -0.46065
 Alpha  occ. eigenvalues --   -0.43956  -0.42518
 Alpha virt. eigenvalues --    0.02495   0.02817   0.03537   0.04151   0.04746
 Alpha virt. eigenvalues --    0.05299   0.05866   0.06395   0.06767   0.08298
 Alpha virt. eigenvalues --    0.08547   0.09373   0.10363   0.11393   0.11985

 Mulliken charges:
               1
     1  C   -1.525976
     2  C    0.146027
     3  C    0.991612
     4  C   -0.233605
     5  C   -0.638649
     6  C    1.976536
     7  H    0.563618
     8  H    0.095728
     9  H    0.313953
    10  H    0.305584
    11  H    0.165868
    12  H    0.249004
    13  H    0.205662
    14  H    0.317978
    15  H    0.163781
    16  H    0.222318
    17  H    0.276108
    18  H    0.239545
    19  N    0.651000
    20  N    1.043256
    21  O   -1.535574
    22  O   -1.457629
    23  O   -1.198662
    24  O   -1.337481
 Sum of Mulliken charges =   0.00000

 Dipole moment (field-independent basis, Debye):
    X=             -6.6944    Y=             -1.8857    Z=              1.2022  Tot=              7.0580

 Test job not archived.
 1\1\GINC-SE332\SP\RHF\Aug-CC-pVDZ\C6H12N2O4\OHZDE\08-Apr-2025\0\\#t hf
  aug-cc-pvdz iop(5/13=1,5/36=2,99/5=2) pseudo=read geom=check guess=(r
 ead,tcheck) scf=(maxcycle=1)\\title\\0,1\C,0,-1.47714,-0.414963,-0.521
 099\C,0,-0.101112,-0.0145155,-0.137478\C,0,-2.50212,0.317938,0.412276\
 C,0,-2.80314,1.73141,-0.0316684\C,0,2.1707,-0.852497,0.621525\C,0,3.22
 579,0.131632,0.0316331\H,0,1.86679,1.53877,-0.14665\H,0,2.6188,-1.8313
 1,0.497465\H,0,2.09334,-0.626075,1.72966\H,0,0.483076,-1.88509,0.05380
 67\H,0,-3.56668,2.13154,0.668748\H,0,-1.90417,2.35363,-0.0522869\H,0,-

 Normal termination of Gaussian 16 at Tue Apr  8 19:22:38 2025.
