 Gaussian 16, Revision C.01,

 ----------------------------------------------------------------------
 #t hf aug-cc-pvdz symm=none int=(grid=ultrafine) guess=(read,tcheck) s
 table=(opt,rrhf)
 ----------------------------------------------------------------------
 -----
 title
 -----
 Symbolic Z-matrix:
 Charge =  0 Multiplicity = 1

 SCF Done:  E(RHF) =  -221.195014759     A.U. after   15 cycles
 Normal termination of Gaussian 16 at Tue Apr  8 21:12:20 2025.
 Gaussian 16:  ES64L-G16RevC.01  3-Jul-2019

 ----------------------------------------------------------------------
 #t hf aug-cc-pvdz iop(5/13=1,5/36=2,99/5=2) pseudo=read geom=check gue
 ss=(read,tcheck) scf=(maxcycle=1)
 ----------------------------------------------------------------------
 -----
 title
 -----
 Structure from the checkpoint file:  "ANI1ccx_1899_conf11_mol1.chk"
 Charge =  0 Multiplicity = 1

                         Standard orientation:
 ---------------------------------------------------------------------
 Center     Atomic      Atomic             Coordinates (Angstroms)
 Number     Number       Type             X           Y           Z
 ---------------------------------------------------------------------
      1          1           0       -1.419871   -0.914941    1.201380
      2          1           0       -1.816031   -1.390380   -0.381727
      3          1           0       -1.214321    1.174640   -0.806299
      4          1           0       -2.000471    1.226050    0.630892
      5          1           0        1.842739    0.826499    1.015950
      6          1           0        0.654242   -0.438086   -0.059941
      7          7           0       -1.418961   -0.665265    0.192179
      8          7           0       -1.934921    0.658792   -0.200540
      9          7           0        2.339879    0.342743    0.204489
     10          7           0        1.578819   -0.405381   -0.424736
 ---------------------------------------------------------------------

 SCF Done:  E(RHF) =  -221.421731851     A.U. after    2 cycles

 The electronic state is 1-A.
 Alpha  occ. eigenvalues --  -15.56631 -15.54884 -15.54512 -15.53455  -1.34842
 Alpha  occ. eigenvalues --   -1.25043  -1.05068  -0.94269  -0.79347  -0.74857
 Alpha  occ. eigenvalues --   -0.68361  -0.66907  -0.61405  -0.55339  -0.54967
 Alpha  occ. eigenvalues --   -0.44899  -0.41895
 Alpha virt. eigenvalues --    0.02297   0.04593   0.05452   0.05716   0.06290
 Alpha virt. eigenvalues --    0.07440   0.08565   0.13806   0.14164   0.15540
 Alpha virt. eigenvalues --    0.15963   0.16372   0.18407   0.18945   0.19519

 Mulliken charges:
               1
     1  H    0.097971
     2  H    0.078380
     3  H    0.133255
     4  H    0.111136
     5  H    0.142290
     6  H   -0.019566
     7  N   -0.256205
     8  N   -0.233818
     9  N   -0.123394
    10  N    0.069949
 Sum of Mulliken charges =  -0.00000

 Dipole moment (field-independent basis, Debye):
    X=             -2.8533    Y=              0.7124    Z=              2.8803  Tot=              4.1164

 Test job not archived.
 1\1\GINC-SE367\SP\RHF\Aug-CC-pVDZ\H6N4\OHZDE\08-Apr-2025\0\\#t hf aug-
 cc-pvdz iop(5/13=1,5/36=2,99/5=2) pseudo=read geom=check guess=(read,t
 check) scf=(maxcycle=1)\\title\\0,1\H,0,-1.41987,-0.914941,1.20138\H,0
 ,-1.81603,-1.39038,-0.381727\H,0,-1.21432,1.17464,-0.806299\H,0,-2.000
 47,1.22605,0.630892\H,0,1.84274,0.826498,1.01595\H,0,0.654243,-0.43808
 6,-0.0599406\N,0,-1.41896,-0.665265,0.192179\N,0,-1.93492,0.658792,-0.
 20054\N,0,2.33988,0.342742,0.204489\N,0,1.57882,-0.405382,-0.424736\\V
 ersion=ES64L-G16RevC.01\State=1-A\HF=-221.4217319\RMSD=2.682e-02\Dipol

 Normal termination of Gaussian 16 at Tue Apr  8 21:12:23 2025.
