 Gaussian 16, Revision C.01,

 ----------------------------------------------------------------------
 #t hf aug-cc-pvdz symm=none int=(grid=ultrafine) guess=(read,tcheck) s
 table=(opt,rrhf)
 ----------------------------------------------------------------------
 -----
 title
 -----
 Symbolic Z-matrix:
 Charge =  0 Multiplicity = 1

 SCF Done:  E(RHF) =  -599.865499471     A.U. after   16 cycles
 Normal termination of Gaussian 16 at Tue Apr  8 19:17:05 2025.
 Gaussian 16:  ES64L-G16RevC.01  3-Jul-2019

 ----------------------------------------------------------------------
 #t hf aug-cc-pvdz iop(5/13=1,5/36=2,99/5=2) pseudo=read geom=check gue
 ss=(read,tcheck) scf=(maxcycle=1)
 ----------------------------------------------------------------------
 -----
 title
 -----
 Structure from the checkpoint file:  "ANI1ccx_1089_conf1_mol2.chk"
 Charge =  0 Multiplicity = 1

                         Standard orientation:
 ---------------------------------------------------------------------
 Center     Atomic      Atomic             Coordinates (Angstroms)
 Number     Number       Type             X           Y           Z
 ---------------------------------------------------------------------
      1          6           0        2.266580    0.484394    0.006481
      2          6           0        0.860795    0.780697   -0.008566
      3          6           0        0.113057    1.949910   -0.039812
      4          6           0       -1.227980    1.536740    0.030689
      5          6           0       -1.233820    0.187916    0.039819
      6          1           0        4.278940   -1.708100   -0.011312
      7          1           0        3.045830    1.249590   -0.024345
      8          1           0        0.504511    2.976320   -0.026944
      9          1           0       -2.098490    2.216750    0.023968
     10          7           0        2.672070   -0.753548    0.030501
     11          7           0       -2.373870   -0.680216    0.051511
     12          8           0        4.039010   -0.778376   -0.026481
     13          8           0        0.012425   -0.284505    0.015239
     14          8           0       -3.441060   -0.099611   -0.048225
     15          8           0       -2.171620   -1.879530   -0.028922
 ---------------------------------------------------------------------

 SCF Done:  E(RHF) =  -600.447450999     A.U. after    2 cycles

 The electronic state is 1-A.
 Alpha  occ. eigenvalues --  -20.65586 -20.61395 -20.60090 -20.59504 -15.80855
 Alpha  occ. eigenvalues --  -15.60367 -11.36879 -11.35824 -11.31773 -11.29266
 Alpha  occ. eigenvalues --  -11.28722  -1.68534  -1.60480  -1.54518  -1.52270
 Alpha  occ. eigenvalues --   -1.21007  -1.15991  -1.12939  -1.01025  -0.89208
 Alpha  occ. eigenvalues --   -0.86060  -0.82386  -0.81455  -0.77018  -0.76467
 Alpha  occ. eigenvalues --   -0.75107  -0.72904  -0.68416  -0.65569  -0.63394
 Alpha  occ. eigenvalues --   -0.63230  -0.61602  -0.60049  -0.51222  -0.50768
 Alpha  occ. eigenvalues --   -0.49930  -0.46652  -0.46045  -0.44279  -0.35388
 Alpha virt. eigenvalues --    0.00232   0.02577   0.03571   0.04022   0.05751
 Alpha virt. eigenvalues --    0.06603   0.08240   0.08459   0.10175   0.11053
 Alpha virt. eigenvalues --    0.11076   0.12004   0.12172   0.12980   0.14223

 Mulliken charges:
               1
     1  C   -1.111925
     2  C    1.932208
     3  C   -0.170486
     4  C    0.436063
     5  C    0.257478
     6  H    0.307971
     7  H   -0.085526
     8  H   -0.135183
     9  H   -0.040418
    10  N    1.440012
    11  N    2.875849
    12  O   -1.166903
    13  O   -1.710959
    14  O   -1.439840
    15  O   -1.388341
 Sum of Mulliken charges =  -0.00000

 Dipole moment (field-independent basis, Debye):
    X=              3.4966    Y=              4.0227    Z=              0.0997  Tot=              5.3309

 Test job not archived.
 1\1\GINC-SE247\SP\RHF\Aug-CC-pVDZ\C5H4N2O4\OHZDE\08-Apr-2025\0\\#t hf
 aug-cc-pvdz iop(5/13=1,5/36=2,99/5=2) pseudo=read geom=check guess=(re
 ad,tcheck) scf=(maxcycle=1)\\title\\0,1\C,0,2.26658,0.484394,0.0064812
 9\C,0,0.860795,0.780697,-0.00856553\C,0,0.113057,1.94991,-0.0398123\C,
 0,-1.22798,1.53674,0.0306888\C,0,-1.23382,0.187916,0.0398185\H,0,4.278
 94,-1.7081,-0.0113123\H,0,3.04583,1.24959,-0.0243455\H,0,0.504511,2.97
 632,-0.0269444\H,0,-2.09849,2.21675,0.0239677\N,0,2.67207,-0.753548,0.
 0305011\N,0,-2.37387,-0.680216,0.0515107\O,0,4.03901,-0.778376,-0.0264

 Normal termination of Gaussian 16 at Tue Apr  8 19:17:12 2025.
