 Gaussian 16, Revision C.01,

 ----------------------------------------------------------------------
 #t hf aug-cc-pvdz symm=none int=(grid=ultrafine) guess=(read,tcheck) s
 table=(opt,rrhf)
 ----------------------------------------------------------------------
 -----
 title
 -----
 Symbolic Z-matrix:
 Charge =  0 Multiplicity = 1

 SCF Done:  E(RHF) =  -256.788654100     A.U. after   15 cycles
 Normal termination of Gaussian 16 at Tue Apr  8 21:32:30 2025.
 Gaussian 16:  ES64L-G16RevC.01  3-Jul-2019

 ----------------------------------------------------------------------
 #t hf aug-cc-pvdz iop(5/13=1,5/36=2,99/5=2) pseudo=read geom=check gue
 ss=(read,tcheck) scf=(maxcycle=1)
 ----------------------------------------------------------------------
 -----
 title
 -----
 Structure from the checkpoint file:  "ANI1ccx_377_conf66_mol1.chk"
 Charge =  0 Multiplicity = 1

                         Standard orientation:
 ---------------------------------------------------------------------
 Center     Atomic      Atomic             Coordinates (Angstroms)
 Number     Number       Type             X           Y           Z
 ---------------------------------------------------------------------
      1          6           0       -1.052640   -0.338763   -0.007743
      2          1           0       -2.043251   -0.681798    0.145872
      3          1           0        1.970869   -0.680752    0.074443
      4          7           0       -0.667979    0.980655    0.011296
      5          7           0        0.628090    0.949560   -0.030635
      6          7           0        1.012400   -0.317937    0.038320
      7          7           0       -0.059906   -1.127259   -0.043819
 ---------------------------------------------------------------------

 SCF Done:  E(RHF) =  -257.045434818     A.U. after    2 cycles

 The electronic state is 1-A.
 Alpha  occ. eigenvalues --  -15.64308 -15.61832 -15.56483 -15.55811 -11.30695
 Alpha  occ. eigenvalues --   -1.49816  -1.28213  -1.21630  -0.97104  -0.93193
 Alpha  occ. eigenvalues --   -0.84438  -0.73267  -0.69988  -0.62792  -0.55428
 Alpha  occ. eigenvalues --   -0.52979  -0.50183  -0.46747
 Alpha virt. eigenvalues --    0.02706   0.05174   0.06278   0.08469   0.09329
 Alpha virt. eigenvalues --    0.09967   0.11702   0.14430   0.15332   0.15959
 Alpha virt. eigenvalues --    0.16537   0.17014   0.18050   0.19814   0.21440

 Mulliken charges:
               1
     1  C   -0.114913
     2  H   -0.047504
     3  H    0.110575
     4  N    0.249510
     5  N   -0.431306
     6  N    0.140616
     7  N    0.093022
 Sum of Mulliken charges =   0.00000

 Dipole moment (field-independent basis, Debye):
    X=              0.8679    Y=             -2.0213    Z=              0.2586  Tot=              2.2149

 Test job not archived.
 1\1\GINC-SE094\SP\RHF\Aug-CC-pVDZ\C1H2N4\OHZDE\08-Apr-2025\0\\#t hf au
 g-cc-pvdz iop(5/13=1,5/36=2,99/5=2) pseudo=read geom=check guess=(read
 ,tcheck) scf=(maxcycle=1)\\title\\0,1\C,0,-1.05264,-0.338765,-0.007742
 86\H,0,-2.04325,-0.681802,0.145872\H,0,1.97087,-0.68075,0.0744435\N,0,
 -0.667981,0.980653,0.0112965\N,0,0.628088,0.94956,-0.0306353\N,0,1.012
 4,-0.317936,0.0383204\N,0,-0.0599049,-1.12726,-0.0438185\\Version=ES64
 L-G16RevC.01\State=1-A\HF=-257.0454348\RMSD=4.902e-02\Dipole=0.3414519
 ,-0.795246,0.1017575\Quadrupole=6.1563908,-5.0043644,-1.1520264,-0.410

 Normal termination of Gaussian 16 at Tue Apr  8 21:32:32 2025.
