 Gaussian 16, Revision C.01,

 ----------------------------------------------------------------------
 #t hf aug-cc-pvdz symm=none int=(grid=ultrafine) guess=(read,tcheck) s
 table=(opt,rrhf)
 ----------------------------------------------------------------------
 -----
 title
 -----
 Symbolic Z-matrix:
 Charge =  0 Multiplicity = 1

 SCF Done:  E(RHF) =  -531.409523586     A.U. after   14 cycles
 Normal termination of Gaussian 16 at Tue Apr  8 19:30:06 2025.
 Gaussian 16:  ES64L-G16RevC.01  3-Jul-2019

 ----------------------------------------------------------------------
 #t hf aug-cc-pvdz iop(5/13=1,5/36=2,99/5=2) pseudo=read geom=check gue
 ss=(read,tcheck) scf=(maxcycle=1)
 ----------------------------------------------------------------------
 -----
 title
 -----
 Structure from the checkpoint file:  "ANI1ccx_1356_conf2_mol2.chk"
 Charge =  0 Multiplicity = 1

                         Standard orientation:
 ---------------------------------------------------------------------
 Center     Atomic      Atomic             Coordinates (Angstroms)
 Number     Number       Type             X           Y           Z
 ---------------------------------------------------------------------
      1          6           0       -2.680781   -0.125838   -0.382044
      2          6           0       -1.204531   -0.041196    0.036901
      3          6           0       -0.505200    1.131519   -0.605306
      4          6           0        0.917768    1.233409   -0.135355
      5          6           0        1.044119   -1.171701   -0.124731
      6          6           0       -0.438410   -1.299041   -0.446274
      7          1           0       -0.567196   -1.437461   -1.528909
      8          1           0       -0.796500   -2.157881    0.134981
      9          1           0       -0.487544    0.955236   -1.671729
     10          1           0       -0.992183    2.092289   -0.372914
     11          1           0       -3.116121   -1.038621   -0.037474
     12          1           0       -3.336121    0.651611    0.052085
     13          1           0       -2.759061   -0.092227   -1.454759
     14          1           0       -1.149181    0.934477    1.788531
     15          8           0        1.631859    0.070716    0.020857
     16          8           0       -1.074991   -0.018389    1.501591
     17          8           0        1.473279    2.269629    0.030597
     18          8           0        1.770619   -2.105751    0.075838
 ---------------------------------------------------------------------

 SCF Done:  E(RHF) =  -531.938959095     A.U. after    2 cycles

 The electronic state is 1-A.
 Alpha  occ. eigenvalues --  -20.62646 -20.58868 -20.55889 -20.55280 -11.41633
 Alpha  occ. eigenvalues --  -11.41582 -11.34613 -11.29079 -11.28809 -11.26035
 Alpha  occ. eigenvalues --   -1.59125  -1.51366  -1.46804  -1.46190  -1.14768
 Alpha  occ. eigenvalues --   -1.04441  -1.01091  -0.91148  -0.85182  -0.77432
 Alpha  occ. eigenvalues --   -0.74187  -0.71977  -0.69930  -0.69309  -0.66996
 Alpha  occ. eigenvalues --   -0.64851  -0.62612  -0.61178  -0.60265  -0.58741
 Alpha  occ. eigenvalues --   -0.56849  -0.55337  -0.54075  -0.51505  -0.49708
 Alpha  occ. eigenvalues --   -0.47233  -0.46157  -0.44690
 Alpha virt. eigenvalues --    0.02097   0.02867   0.03341   0.04191   0.05753
 Alpha virt. eigenvalues --    0.06033   0.06475   0.07435   0.08746   0.10900
 Alpha virt. eigenvalues --    0.11515   0.12123   0.12283   0.12660   0.13226

 Mulliken charges:
               1
     1  C    0.146185
     2  C   -0.262725
     3  C   -0.267419
     4  C    2.246661
     5  C    2.098177
     6  C   -0.205927
     7  H    0.316972
     8  H    0.188008
     9  H    0.316332
    10  H    0.099781
    11  H    0.154270
    12  H    0.189363
    13  H    0.214976
    14  H    0.299109
    15  O   -1.464568
    16  O   -1.432482
    17  O   -1.302922
    18  O   -1.333793
 Sum of Mulliken charges =  -0.00000

 Dipole moment (field-independent basis, Debye):
    X=             -6.0228    Y=              0.8208    Z=             -2.3845  Tot=              6.5294

 Test job not archived.
 1\1\GINC-SE365\SP\RHF\Aug-CC-pVDZ\C6H8O4\OHZDE\08-Apr-2025\0\\#t hf au
 g-cc-pvdz iop(5/13=1,5/36=2,99/5=2) pseudo=read geom=check guess=(read
 ,tcheck) scf=(maxcycle=1)\\title\\0,1\C,0,-2.68078,-0.125837,-0.382045
 \C,0,-1.20453,-0.0411951,0.0369\C,0,-0.505199,1.13152,-0.605307\C,0,0.
 917769,1.23341,-0.135356\C,0,1.04412,-1.1717,-0.124732\C,0,-0.438409,-
 1.29904,-0.446275\H,0,-0.567195,-1.43746,-1.52891\H,0,-0.796499,-2.157
 88,0.13498\H,0,-0.487543,0.955237,-1.67173\H,0,-0.992182,2.09229,-0.37
 2915\H,0,-3.11612,-1.03862,-0.0374748\H,0,-3.33612,0.651612,0.0520844\

 Normal termination of Gaussian 16 at Tue Apr  8 19:30:14 2025.
