 Gaussian 16, Revision C.01,

 ----------------------------------------------------------------------
 #t hf aug-cc-pvdz symm=none int=(grid=ultrafine) guess=(read,tcheck) s
 table=(opt,rrhf)
 ----------------------------------------------------------------------
 -----
 title
 -----
 Symbolic Z-matrix:
 Charge =  0 Multiplicity = 1

 SCF Done:  E(RHF) =  -479.983997274     A.U. after   19 cycles
 Normal termination of Gaussian 16 at Tue Apr  8 21:39:49 2025.
 Gaussian 16:  ES64L-G16RevC.01  3-Jul-2019

 ----------------------------------------------------------------------
 #t hf aug-cc-pvdz iop(5/13=1,5/36=2,99/5=2) pseudo=read geom=check gue
 ss=(read,tcheck) scf=(maxcycle=1)
 ----------------------------------------------------------------------
 -----
 title
 -----
 Structure from the checkpoint file:  "ANI1ccx_456_conf27_mol1.chk"
 Charge =  0 Multiplicity = 1

                         Standard orientation:
 ---------------------------------------------------------------------
 Center     Atomic      Atomic             Coordinates (Angstroms)
 Number     Number       Type             X           Y           Z
 ---------------------------------------------------------------------
      1          6           0        0.003524   -0.006012   -0.227593
      2          7           0        1.371730   -0.066544   -0.142533
      3          7           0       -0.563386    1.130770    0.240628
      4          7           0       -1.993121    0.682027    0.265924
      5          7           0       -2.098110   -0.496474   -0.000177
      6          8           0        1.753770   -1.152699    0.495835
      7          8           0        1.936089    1.084541   -0.233482
      8          8           0       -0.819976   -1.020890   -0.410020
 ---------------------------------------------------------------------

 SCF Done:  E(RHF) =  -480.432149587     A.U. after    2 cycles

 The electronic state is 1-A.
 Alpha  occ. eigenvalues --  -20.72305 -20.67689 -20.66549 -15.85606 -15.70519
 Alpha  occ. eigenvalues --  -15.67057 -15.63754 -11.48092  -1.68972  -1.66135
 Alpha  occ. eigenvalues --   -1.52612  -1.44818  -1.30593  -1.17309  -0.99294
 Alpha  occ. eigenvalues --   -0.92573  -0.86336  -0.81041  -0.78914  -0.77139
 Alpha  occ. eigenvalues --   -0.74874  -0.68599  -0.63277  -0.60440  -0.58052
 Alpha  occ. eigenvalues --   -0.55834  -0.54797  -0.52424  -0.49184
 Alpha virt. eigenvalues --   -0.06945   0.03573   0.05304   0.07413   0.08626
 Alpha virt. eigenvalues --    0.09717   0.10177   0.11374   0.12077   0.13795
 Alpha virt. eigenvalues --    0.14574   0.14935   0.16062   0.16499   0.19468

 Mulliken charges:
               1
     1  C    0.383307
     2  N    2.386897
     3  N    0.413661
     4  N   -0.603298
     5  N    0.970181
     6  O   -1.147705
     7  O   -1.138930
     8  O   -1.264113
 Sum of Mulliken charges =  -0.00000

 Dipole moment (field-independent basis, Debye):
    X=              0.1168    Y=             -1.1510    Z=             -1.2326  Tot=              1.6905

 Test job not archived.
 1\1\GINC-SE367\SP\RHF\Aug-CC-pVDZ\C1N4O3\OHZDE\08-Apr-2025\0\\#t hf au
 g-cc-pvdz iop(5/13=1,5/36=2,99/5=2) pseudo=read geom=check guess=(read
 ,tcheck) scf=(maxcycle=1)\\title\\0,1\C,0,0.00352402,-0.0060117,-0.227
 593\N,0,1.37173,-0.0665447,-0.142533\N,0,-0.563385,1.13077,0.240628\N,
 0,-1.99312,0.682028,0.265924\N,0,-2.09811,-0.496473,-0.00017688\O,0,1.
 75377,-1.1527,0.495835\O,0,1.93609,1.08454,-0.233482\O,0,-0.819976,-1.
 02089,-0.41002\\Version=ES64L-G16RevC.01\State=1-A\HF=-480.4321496\RMS
 D=3.092e-02\Dipole=0.0459669,-0.4528555,-0.4849262\Quadrupole=-2.15491

 Normal termination of Gaussian 16 at Tue Apr  8 21:39:52 2025.
