 Gaussian 16, Revision C.01,

 ----------------------------------------------------------------------
 #t hf aug-cc-pvdz symm=none int=(grid=ultrafine) guess=(read,tcheck) s
 table=(opt,rrhf)
 ----------------------------------------------------------------------
 -----
 title
 -----
 Symbolic Z-matrix:
 Charge =  0 Multiplicity = 1

 SCF Done:  E(RHF) =  -482.913641388     A.U. after   14 cycles
 Normal termination of Gaussian 16 at Tue Apr  8 22:14:54 2025.
 Gaussian 16:  ES64L-G16RevC.01  3-Jul-2019

 ----------------------------------------------------------------------
 #t hf aug-cc-pvdz iop(5/13=1,5/36=2,99/5=2) pseudo=read geom=check gue
 ss=(read,tcheck) scf=(maxcycle=1)
 ----------------------------------------------------------------------
 -----
 title
 -----
 Structure from the checkpoint file:  "ANI1ccx_965_conf1_mol1.chk"
 Charge =  0 Multiplicity = 1

                         Standard orientation:
 ---------------------------------------------------------------------
 Center     Atomic      Atomic             Coordinates (Angstroms)
 Number     Number       Type             X           Y           Z
 ---------------------------------------------------------------------
      1          6           0       -1.598890   -0.049412   -0.032924
      2          6           0        0.354471   -1.149290    0.058253
      3          6           0        1.040320    0.073754   -0.171558
      4          6           0        0.274714    1.206560    0.009602
      5          1           0        0.281448    3.194480    0.652168
      6          1           0        1.857336    2.487522    0.439198
      7          1           0        2.813609    0.809258   -0.866288
      8          1           0        2.743601   -0.842537   -0.654175
      9          1           0        0.590609   -3.137040    0.403576
     10          1           0       -3.395918   -0.968153   -0.399149
     11          1           0       -3.489431    0.741514   -0.168038
     12          1           0        1.882624   -2.315698    0.909244
     13          7           0        0.869988    2.438661    0.214197
     14          7           0       -2.930540   -0.137259   -0.087851
     15          7           0       -0.967952   -1.250582   -0.027053
     16          7           0        1.112504   -2.359009    0.222715
     17          7           0        2.450880    0.042207   -0.281693
     18          7           0       -1.064532    1.200408    0.031576
 ---------------------------------------------------------------------

 SCF Done:  E(RHF) =  -483.404850923     A.U. after    2 cycles

 The electronic state is 1-A.
 Alpha  occ. eigenvalues --  -15.51729 -15.51283 -15.50747 -15.50204 -15.47475
 Alpha  occ. eigenvalues --  -15.47345 -11.34199 -11.32743 -11.32062 -11.24428
 Alpha  occ. eigenvalues --   -1.31654  -1.24057  -1.23629  -1.18633  -1.16582
 Alpha  occ. eigenvalues --   -1.14319  -0.99693  -0.88851  -0.88321  -0.80280
 Alpha  occ. eigenvalues --   -0.77885  -0.71771  -0.71471  -0.69823  -0.68334
 Alpha  occ. eigenvalues --   -0.65420  -0.64728  -0.63298  -0.61893  -0.55634
 Alpha  occ. eigenvalues --   -0.54378  -0.52378  -0.49987  -0.45179  -0.44015
 Alpha  occ. eigenvalues --   -0.40629  -0.29710
 Alpha virt. eigenvalues --    0.03012   0.04157   0.04513   0.04829   0.05964
 Alpha virt. eigenvalues --    0.06382   0.07260   0.08132   0.10219   0.10937
 Alpha virt. eigenvalues --    0.11868   0.11938   0.12457   0.12515   0.13618

 Mulliken charges:
               1
     1  C   -0.968097
     2  C   -1.792425
     3  C   -0.295980
     4  C   -1.877360
     5  H    0.082371
     6  H    0.133434
     7  H    0.116803
     8  H    0.070060
     9  H   -0.067465
    10  H    0.080474
    11  H    0.166679
    12  H    0.232705
    13  N    0.742213
    14  N    0.575553
    15  N    0.659739
    16  N    0.734521
    17  N    0.771384
    18  N    0.635390
 Sum of Mulliken charges =  -0.00000

 Dipole moment (field-independent basis, Debye):
    X=              1.2764    Y=              0.2410    Z=              0.3513  Tot=              1.3456

 Test job not archived.
 1\1\GINC-SE342\SP\RHF\Aug-CC-pVDZ\C4H8N6\OHZDE\08-Apr-2025\0\\#t hf au
 g-cc-pvdz iop(5/13=1,5/36=2,99/5=2) pseudo=read geom=check guess=(read
 ,tcheck) scf=(maxcycle=1)\\title\\0,1\C,0,-1.59889,-0.0494092,-0.03292
 43\C,0,0.354469,-1.14929,0.0582532\C,0,1.04032,0.0737532,-0.171558\C,0
 ,0.274716,1.20656,0.0096021\H,0,0.281453,3.19448,0.652168\H,0,1.85734,
 2.48752,0.439198\H,0,2.81361,0.809254,-0.866288\H,0,2.7436,-0.842541,-
 0.654175\H,0,0.590604,-3.13704,0.403576\H,0,-3.39592,-0.968147,-0.3991
 49\H,0,-3.48943,0.74152,-0.168038\H,0,1.88262,-2.3157,0.909244\N,0,0.8

 Normal termination of Gaussian 16 at Tue Apr  8 22:15:03 2025.
