 Gaussian 16, Revision C.01,

 ----------------------------------------------------------------------
 #t hf aug-cc-pvdz symm=none int=(grid=ultrafine) guess=(read,tcheck) s
 table=(opt,rrhf)
 ----------------------------------------------------------------------
 -----
 title
 -----
 Symbolic Z-matrix:
 Charge =  0 Multiplicity = 1

 SCF Done:  E(RHF) =  -380.189403973     A.U. after   11 cycles
 Normal termination of Gaussian 16 at Tue Apr  8 21:04:25 2025.
 Gaussian 16:  ES64L-G16RevC.01  3-Jul-2019

 ----------------------------------------------------------------------
 #t hf aug-cc-pvdz iop(5/13=1,5/36=2,99/5=2) pseudo=read geom=check gue
 ss=(read,tcheck) scf=(maxcycle=1)
 ----------------------------------------------------------------------
 -----
 title
 -----
 Structure from the checkpoint file:  "ANI1ccx_1843_conf481_mol1.chk"
 Charge =  0 Multiplicity = 1

                         Standard orientation:
 ---------------------------------------------------------------------
 Center     Atomic      Atomic             Coordinates (Angstroms)
 Number     Number       Type             X           Y           Z
 ---------------------------------------------------------------------
      1          1           0       -1.518449   -1.876509    0.092490
      2          1           0       -0.861643   -0.511340   -0.216069
      3          1           0       -2.621288    0.266382    0.482718
      4          1           0       -3.008048    0.770176   -0.832562
      5          1           0        0.411221    1.490550    0.722668
      6          1           0       -0.975505    1.936110    1.281770
      7          1           0        1.981823    2.451829   -0.086411
      8          1           0        2.045932    0.923497   -0.055678
      9          1           0        1.374481   -1.790491    0.309064
     10          1           0        2.450261   -1.801071   -0.614346
     11          8           0       -0.628932   -1.455810   -0.068069
     12          8           0       -2.924269   -0.111531   -0.411853
     13          8           0       -0.591560    1.231460    0.741797
     14          8           0        1.935352    1.676109   -0.644096
     15          8           0        2.299561   -1.572621    0.246765
 ---------------------------------------------------------------------

 SCF Done:  E(RHF) =  -380.582964378     A.U. after    2 cycles

 The electronic state is 1-A.
 Alpha  occ. eigenvalues --  -20.58737 -20.57273 -20.57200 -20.53165 -20.52984
 Alpha  occ. eigenvalues --   -1.46088  -1.44954  -1.43882  -1.43672  -1.39909
 Alpha  occ. eigenvalues --   -0.73056  -0.71867  -0.69809  -0.68745  -0.67283
 Alpha  occ. eigenvalues --   -0.61414  -0.60272  -0.59127  -0.57824  -0.55006
 Alpha  occ. eigenvalues --   -0.52847  -0.50697  -0.49560  -0.48248  -0.46891
 Alpha virt. eigenvalues --    0.01858   0.04159   0.05145   0.05582   0.06810
 Alpha virt. eigenvalues --    0.07718   0.08283   0.09716   0.10376   0.11076
 Alpha virt. eigenvalues --    0.16055   0.18688   0.19099   0.19818   0.21054

 Mulliken charges:
               1
     1  H    0.469527
     2  H    0.668264
     3  H    0.511562
     4  H    0.335539
     5  H    0.560562
     6  H    0.395557
     7  H    0.373415
     8  H    0.463760
     9  H    0.509870
    10  H    0.354366
    11  O   -1.108297
    12  O   -0.861005
    13  O   -1.012095
    14  O   -0.818861
    15  O   -0.842165
 Sum of Mulliken charges =   0.00000

 Dipole moment (field-independent basis, Debye):
    X=             -1.7240    Y=              4.0596    Z=              1.8781  Tot=              4.7937

 Test job not archived.
 1\1\GINC-SE364\SP\RHF\Aug-CC-pVDZ\H10O5\OHZDE\08-Apr-2025\0\\#t hf aug
 -cc-pvdz iop(5/13=1,5/36=2,99/5=2) pseudo=read geom=check guess=(read,
 tcheck) scf=(maxcycle=1)\\title\\0,1\H,0,-1.51845,-1.87651,0.0924905\H
 ,0,-0.861644,-0.51134,-0.216069\H,0,-2.62129,0.266381,0.482718\H,0,-3.
 00805,0.770175,-0.832562\H,0,0.411219,1.49055,0.722668\H,0,-0.975507,1
 .93611,1.28177\H,0,1.98182,2.45183,-0.0864112\H,0,2.04593,0.923498,-0.
 0556779\H,0,1.37448,-1.79049,0.309064\H,0,2.45026,-1.80107,-0.614346\O
 ,0,-0.628933,-1.45581,-0.0680685\O,0,-2.92427,-0.111532,-0.411853\O,0,

 Normal termination of Gaussian 16 at Tue Apr  8 21:04:28 2025.
