 Gaussian 16, Revision C.01,

 ----------------------------------------------------------------------
 #t hf aug-cc-pvdz symm=none int=(grid=ultrafine) guess=(read,tcheck) s
 table=(opt,rrhf)
 ----------------------------------------------------------------------
 -----
 title
 -----
 Symbolic Z-matrix:
 Charge =  0 Multiplicity = 1

 SCF Done:  E(RHF) =  -444.958494174     A.U. after   15 cycles
 Normal termination of Gaussian 16 at Tue Apr  8 19:30:27 2025.
 Gaussian 16:  ES64L-G16RevC.01  3-Jul-2019

 ----------------------------------------------------------------------
 #t hf aug-cc-pvdz iop(5/13=1,5/36=2,99/5=2) pseudo=read geom=check gue
 ss=(read,tcheck) scf=(maxcycle=1)
 ----------------------------------------------------------------------
 -----
 title
 -----
 Structure from the checkpoint file:  "ANI1ccx_1374_conf16_mol2.chk"
 Charge =  0 Multiplicity = 1

                         Standard orientation:
 ---------------------------------------------------------------------
 Center     Atomic      Atomic             Coordinates (Angstroms)
 Number     Number       Type             X           Y           Z
 ---------------------------------------------------------------------
      1          6           0       -0.347940   -1.840254    0.002887
      2          6           0       -0.537629   -0.424694   -0.006413
      3          6           0       -1.902510    0.037410   -0.014191
      4          6           0        0.526166    0.437048   -0.036198
      5          6           0        0.347194    1.840430   -0.034354
      6          6           0        1.866630   -0.042930   -0.016018
      7          7           0       -0.145988   -2.974922    0.028424
      8          7           0       -3.000982    0.399978    0.000275
      9          7           0        0.227447    2.999890    0.052836
     10          7           0        2.960742   -0.430955    0.007853
 ---------------------------------------------------------------------

 SCF Done:  E(RHF) =  -445.373238552     A.U. after    2 cycles

 The electronic state is 1-A.
 Alpha  occ. eigenvalues --  -15.60200 -15.59850 -15.59737 -15.59592 -11.43700
 Alpha  occ. eigenvalues --  -11.43384 -11.35898 -11.35691 -11.35656 -11.35427
 Alpha  occ. eigenvalues --   -1.32315  -1.30601  -1.30176  -1.29425  -1.23227
 Alpha  occ. eigenvalues --   -1.08161  -0.93607  -0.85854  -0.82777  -0.68181
 Alpha  occ. eigenvalues --   -0.67996  -0.67855  -0.67570  -0.66899  -0.60324
 Alpha  occ. eigenvalues --   -0.58556  -0.58214  -0.57818  -0.57567  -0.56964
 Alpha  occ. eigenvalues --   -0.55836  -0.46948
 Alpha virt. eigenvalues --   -0.08981   0.03357   0.05034   0.05967   0.06151
 Alpha virt. eigenvalues --    0.07211   0.07297   0.08426   0.08615   0.09105
 Alpha virt. eigenvalues --    0.09142   0.10523   0.11051   0.11842   0.12084

 Mulliken charges:
               1
     1  C   -2.382401
     2  C    2.759215
     3  C   -2.406559
     4  C    2.989047
     5  C   -2.475428
     6  C   -2.460652
     7  N    0.993237
     8  N    1.004606
     9  N    0.988283
    10  N    0.990652
 Sum of Mulliken charges =   0.00000

 Dipole moment (field-independent basis, Debye):
    X=             -0.1355    Y=              0.0119    Z=             -0.2830  Tot=              0.3140

 Test job not archived.
 1\1\GINC-SE120\SP\RHF\Aug-CC-pVDZ\C6N4\OHZDE\08-Apr-2025\0\\#t hf aug-
 cc-pvdz iop(5/13=1,5/36=2,99/5=2) pseudo=read geom=check guess=(read,t
 check) scf=(maxcycle=1)\\title\\0,1\C,0,-0.34795,-1.84025,0.00288715\C
 ,0,-0.537631,-0.424689,-0.00641283\C,0,-1.90251,0.037422,-0.0141909\C,
 0,0.526168,0.437047,-0.0361978\C,0,0.347204,1.84043,-0.0343545\C,0,1.8
 6663,-0.0429385,-0.0160176\N,0,-0.146004,-2.97492,0.0284243\N,0,-3.000
 98,0.399996,0.00027516\N,0,0.227463,2.99989,0.0528359\N,0,2.96074,-0.4
 30969,0.00785305\\Version=ES64L-G16RevC.01\State=1-A\HF=-445.3732386\R

 Normal termination of Gaussian 16 at Tue Apr  8 19:30:32 2025.
