 Gaussian 16, Revision C.01,

 ----------------------------------------------------------------------
 #t hf aug-cc-pvdz symm=none int=(grid=ultrafine) guess=(read,tcheck) s
 table=(opt,rrhf)
 ----------------------------------------------------------------------
 -----
 title
 -----
 Symbolic Z-matrix:
 Charge =  0 Multiplicity = 1

 SCF Done:  E(RHF) =  -509.520888041     A.U. after   14 cycles
 Normal termination of Gaussian 16 at Tue Apr  8 22:12:30 2025.
 Gaussian 16:  ES64L-G16RevC.01  3-Jul-2019

 ----------------------------------------------------------------------
 #t hf aug-cc-pvdz iop(5/13=1,5/36=2,99/5=2) pseudo=read geom=check gue
 ss=(read,tcheck) scf=(maxcycle=1)
 ----------------------------------------------------------------------
 -----
 title
 -----
 Structure from the checkpoint file:  "ANI1ccx_939_conf85_mol1.chk"
 Charge =  0 Multiplicity = 1

                         Standard orientation:
 ---------------------------------------------------------------------
 Center     Atomic      Atomic             Coordinates (Angstroms)
 Number     Number       Type             X           Y           Z
 ---------------------------------------------------------------------
      1          6           0        0.469613    0.324448    0.445662
      2          6           0        1.840009   -0.154592    0.130801
      3          6           0       -0.625392   -0.786176    0.120226
      4          6           0       -2.022101   -0.209294    0.020769
      5          1           0        0.872795    1.335009   -1.239170
      6          1           0        0.722975    2.376669    0.004767
      7          1           0        0.379192    0.640131    1.530190
      8          1           0       -0.703927   -1.510919    0.881389
      9          1           0       -0.356313   -1.353480   -0.718701
     10          1           0       -1.256279    1.520731   -0.307949
     11          1           0        2.594788   -1.776182   -0.518712
     12          7           0        0.414150    1.540470   -0.348439
     13          8           0        2.895290    0.397902    0.071323
     14          8           0       -2.955061   -0.991897   -0.132929
     15          8           0       -2.112039    1.151582    0.069682
     16          8           0        1.781178   -1.440281   -0.195262
 ---------------------------------------------------------------------

 SCF Done:  E(RHF) =  -510.030203333     A.U. after    2 cycles

 The electronic state is 1-A.
 Alpha  occ. eigenvalues --  -20.61633 -20.57369 -20.56141 -20.52685 -15.54165
 Alpha  occ. eigenvalues --  -11.41618 -11.39281 -11.33325 -11.26868  -1.59398
 Alpha  occ. eigenvalues --   -1.51046  -1.48320  -1.43262  -1.26333  -1.08102
 Alpha  occ. eigenvalues --   -0.98426  -0.86736  -0.81656  -0.79201  -0.76658
 Alpha  occ. eigenvalues --   -0.73552  -0.70092  -0.68389  -0.65590  -0.65076
 Alpha  occ. eigenvalues --   -0.63293  -0.61535  -0.57868  -0.56978  -0.53598
 Alpha  occ. eigenvalues --   -0.50681  -0.48590  -0.46892  -0.45370  -0.42554
 Alpha virt. eigenvalues --    0.02390   0.03210   0.03718   0.05263   0.05850
 Alpha virt. eigenvalues --    0.06158   0.06986   0.08933   0.09922   0.10796
 Alpha virt. eigenvalues --    0.11843   0.12711   0.13375   0.13928   0.14148

 Mulliken charges:
               1
     1  C   -1.282553
     2  C    2.609223
     3  C   -0.044259
     4  C    2.002803
     5  H    0.367210
     6  H    0.246826
     7  H    0.191980
     8  H    0.161764
     9  H    0.124526
    10  H    0.747441
    11  H    0.353324
    12  N   -0.210430
    13  O   -1.343195
    14  O   -1.267076
    15  O   -1.439510
    16  O   -1.218074
 Sum of Mulliken charges =  -0.00000

 Dipole moment (field-independent basis, Debye):
    X=              4.8157    Y=              0.3653    Z=             -0.2712  Tot=              4.8372

 Test job not archived.
 1\1\GINC-SE195\SP\RHF\Aug-CC-pVDZ\C4H7N1O4\OHZDE\08-Apr-2025\0\\#t hf
 aug-cc-pvdz iop(5/13=1,5/36=2,99/5=2) pseudo=read geom=check guess=(re
 ad,tcheck) scf=(maxcycle=1)\\title\\0,1\C,0,0.469613,0.324448,0.445662
 \C,0,1.84001,-0.154591,0.130801\C,0,-0.625391,-0.786176,0.120226\C,0,-
 2.0221,-0.209296,0.0207695\H,0,0.872794,1.33501,-1.23917\H,0,0.722974,
 2.37667,0.00476727\H,0,0.379192,0.640131,1.53019\H,0,-0.703925,-1.5109
 2,0.881389\H,0,-0.356312,-1.35348,-0.718701\H,0,-1.25628,1.52073,-0.30
 7949\H,0,2.59479,-1.77618,-0.518712\N,0,0.414149,1.54047,-0.348439\O,0

 Normal termination of Gaussian 16 at Tue Apr  8 22:12:38 2025.
