 Gaussian 16, Revision C.01,

 ----------------------------------------------------------------------
 #t hf aug-cc-pvdz symm=none int=(grid=ultrafine) guess=(read,tcheck) s
 table=(opt,rrhf)
 ----------------------------------------------------------------------
 -----
 title
 -----
 Symbolic Z-matrix:
 Charge =  0 Multiplicity = 1

 SCF Done:  E(RHF) =  -353.615669122     A.U. after   14 cycles
 Normal termination of Gaussian 16 at Tue Apr  8 21:49:54 2025.
 Gaussian 16:  ES64L-G16RevC.01  3-Jul-2019

 ----------------------------------------------------------------------
 #t hf aug-cc-pvdz iop(5/13=1,5/36=2,99/5=2) pseudo=read geom=check gue
 ss=(read,tcheck) scf=(maxcycle=1)
 ----------------------------------------------------------------------
 -----
 title
 -----
 Structure from the checkpoint file:  "ANI1ccx_675_conf4_mol1.chk"
 Charge =  0 Multiplicity = 1

                         Standard orientation:
 ---------------------------------------------------------------------
 Center     Atomic      Atomic             Coordinates (Angstroms)
 Number     Number       Type             X           Y           Z
 ---------------------------------------------------------------------
      1          6           0        0.821730   -0.071573   -0.020767
      2          6           0       -1.058549    1.139443   -0.032580
      3          6           0       -1.104373   -1.060937    0.022868
      4          1           0        2.495171    0.789534    0.328704
      5          1           0       -1.507947    2.100004    0.050757
      6          1           0       -1.682904   -1.979716    0.111646
      7          7           0        0.298399    1.116731   -0.035453
      8          7           0       -1.755111    0.060245    0.039992
      9          7           0        0.179563   -1.206149   -0.056850
     10          8           0        2.210359   -0.093401    0.007244
 ---------------------------------------------------------------------

 SCF Done:  E(RHF) =  -353.973014319     A.U. after    2 cycles

 The electronic state is 1-A.
 Alpha  occ. eigenvalues --  -20.59833 -15.52300 -15.52186 -15.51615 -11.40021
 Alpha  occ. eigenvalues --  -11.35355 -11.34670  -1.51091  -1.38454  -1.24987
 Alpha  occ. eigenvalues --   -1.23410  -0.99389  -0.95713  -0.83830  -0.79435
 Alpha  occ. eigenvalues --   -0.71001  -0.68385  -0.66015  -0.62778  -0.59642
 Alpha  occ. eigenvalues --   -0.56823  -0.50034  -0.49067  -0.48828  -0.45921
 Alpha virt. eigenvalues --    0.03141   0.04653   0.04837   0.05069   0.08255
 Alpha virt. eigenvalues --    0.08621   0.08819   0.09684   0.10273   0.11374
 Alpha virt. eigenvalues --    0.11893   0.12929   0.14489   0.15057   0.16152

 Mulliken charges:
               1
     1  C   -0.313587
     2  C   -0.614070
     3  C   -0.634148
     4  H    0.328501
     5  H   -0.064012
     6  H   -0.012706
     7  N    0.799278
     8  N    0.814321
     9  N    1.007829
    10  O   -1.311405
 Sum of Mulliken charges =  -0.00000

 Dipole moment (field-independent basis, Debye):
    X=             -0.7790    Y=              1.5426    Z=              0.5946  Tot=              1.8276

 Test job not archived.
 1\1\GINC-SE368\SP\RHF\Aug-CC-pVDZ\C3H3N3O1\OHZDE\08-Apr-2025\0\\#t hf
 aug-cc-pvdz iop(5/13=1,5/36=2,99/5=2) pseudo=read geom=check guess=(re
 ad,tcheck) scf=(maxcycle=1)\\title\\0,1\C,0,0.821731,-0.0715727,-0.020
 7667\C,0,-1.05855,1.13944,-0.0325797\C,0,-1.10437,-1.06094,0.0228677\H
 ,0,2.49517,0.789537,0.328704\H,0,-1.50795,2.1,0.0507566\H,0,-1.6829,-1
 .97972,0.111646\N,0,0.298398,1.11673,-0.0354531\N,0,-1.75511,0.0602405
 ,0.0399917\N,0,0.179566,-1.20615,-0.0568503\O,0,2.21036,-0.0933986,0.0
 0724356\\Version=ES64L-G16RevC.01\State=1-A\HF=-353.9730143\RMSD=3.087

 Normal termination of Gaussian 16 at Tue Apr  8 21:49:57 2025.
