 Gaussian 16, Revision C.01,

 ----------------------------------------------------------------------
 #t hf aug-cc-pvdz symm=none int=(grid=ultrafine) guess=(read,tcheck) s
 table=(opt,rrhf)
 ----------------------------------------------------------------------
 -----
 title
 -----
 Symbolic Z-matrix:
 Charge =  0 Multiplicity = 1

 SCF Done:  E(RHF) =  -528.723327612     A.U. after   14 cycles
 Normal termination of Gaussian 16 at Tue Apr  8 22:18:16 2025.
 Gaussian 16:  ES64L-G16RevC.01  3-Jul-2019

 ----------------------------------------------------------------------
 #t hf aug-cc-pvdz iop(5/13=1,5/36=2,99/5=2) pseudo=read geom=check gue
 ss=(read,tcheck) scf=(maxcycle=1)
 ----------------------------------------------------------------------
 -----
 title
 -----
 Structure from the checkpoint file:  "ANI1ccx_998_conf23_mol1.chk"
 Charge =  0 Multiplicity = 1

                         Standard orientation:
 ---------------------------------------------------------------------
 Center     Atomic      Atomic             Coordinates (Angstroms)
 Number     Number       Type             X           Y           Z
 ---------------------------------------------------------------------
      1          6           0        0.964456    0.120238    0.472075
      2          6           0        2.345940   -0.319562   -0.129415
      3          6           0       -0.030414   -0.873382    0.022486
      4          6           0       -1.409320   -0.859640    0.710863
      5          6           0       -2.558410   -0.046120    0.015278
      6          1           0        2.864900    1.505050    0.299710
      7          1           0       -2.767250    1.593821   -1.211810
      8          1           0       -1.688200   -1.872159    0.810917
      9          1           0       -1.287780   -0.428619    1.761040
     10          1           0       -1.315950    1.486141   -0.283015
     11          1           0        1.029850    2.188891    0.629787
     12          1           0        0.796054    1.673601   -0.854823
     13          1           0        1.142820    0.085988    1.567870
     14          1           0       -0.039931   -0.718471   -1.055550
     15          1           0        0.395286   -1.897539   -0.047962
     16          7           0        0.506344    1.482171    0.081101
     17          7           0       -2.313570    1.262231   -0.381161
     18          8           0       -3.601260   -0.616908   -0.218719
     19          8           0        2.528550   -1.366800   -0.664953
     20          8           0        3.278620    0.614118    0.125739
 ---------------------------------------------------------------------

 SCF Done:  E(RHF) =  -529.259608557     A.U. after    2 cycles

 The electronic state is 1-A.
 Alpha  occ. eigenvalues --  -20.62706 -20.56338 -20.50372 -15.55730 -15.50497
 Alpha  occ. eigenvalues --  -11.41441 -11.35415 -11.31773 -11.25773 -11.25076
 Alpha  occ. eigenvalues --   -1.56646  -1.48820  -1.45308  -1.25300  -1.19922
 Alpha  occ. eigenvalues --   -1.08922  -0.99191  -0.89089  -0.84257  -0.80170
 Alpha  occ. eigenvalues --   -0.78126  -0.75831  -0.73082  -0.69593  -0.69083
 Alpha  occ. eigenvalues --   -0.67011  -0.63357  -0.61627  -0.61319  -0.60058
 Alpha  occ. eigenvalues --   -0.57179  -0.54197  -0.53079  -0.51994  -0.51471
 Alpha  occ. eigenvalues --   -0.49967  -0.44602  -0.43091  -0.40455
 Alpha virt. eigenvalues --    0.01047   0.03143   0.03743   0.04570   0.05169
 Alpha virt. eigenvalues --    0.05522   0.05992   0.06572   0.07992   0.09342
 Alpha virt. eigenvalues --    0.09986   0.10725   0.11622   0.12442   0.12641

 Mulliken charges:
               1
     1  C   -1.208328
     2  C    2.282291
     3  C    0.318636
     4  C   -0.498690
     5  C    0.605085
     6  H    0.490054
     7  H    0.174157
     8  H    0.028723
     9  H    0.357273
    10  H   -0.023136
    11  H    0.251380
    12  H    0.271776
    13  H    0.145463
    14  H    0.151372
    15  H    0.038148
    16  N   -0.172639
    17  N    0.623338
    18  O   -1.304091
    19  O   -1.174727
    20  O   -1.356085
 Sum of Mulliken charges =  -0.00000

 Dipole moment (field-independent basis, Debye):
    X=              3.7418    Y=              4.3671    Z=              1.0551  Tot=              5.8469

 Test job not archived.
 1\1\GINC-SE090\SP\RHF\Aug-CC-pVDZ\C5H10N2O3\OHZDE\08-Apr-2025\0\\#t hf
  aug-cc-pvdz iop(5/13=1,5/36=2,99/5=2) pseudo=read geom=check guess=(r
 ead,tcheck) scf=(maxcycle=1)\\title\\0,1\C,0,0.964456,0.120237,0.47207
 5\C,0,2.34594,-0.319562,-0.129415\C,0,-0.0304143,-0.873383,0.0224858\C
 ,0,-1.40932,-0.859641,0.710863\C,0,-2.55841,-0.0461209,0.0152783\H,0,2
 .8649,1.50505,0.29971\H,0,-2.76725,1.59382,-1.21181\H,0,-1.6882,-1.872
 16,0.810917\H,0,-1.28778,-0.42862,1.76104\H,0,-1.31595,1.48614,-0.2830
 15\H,0,1.02985,2.18889,0.629787\H,0,0.796054,1.6736,-0.854823\H,0,1.14

 Normal termination of Gaussian 16 at Tue Apr  8 22:18:27 2025.
