 Gaussian 16, Revision C.01,

 ----------------------------------------------------------------------
 #t hf aug-cc-pvdz symm=none int=(grid=ultrafine) guess=(read,tcheck) s
 table=(opt,rrhf)
 ----------------------------------------------------------------------
 -----
 title
 -----
 Symbolic Z-matrix:
 Charge =  0 Multiplicity = 1

 SCF Done:  E(RHF) =  -830.283765999     A.U. after   14 cycles
 Normal termination of Gaussian 16 at Tue Apr  8 19:44:04 2025.
 Gaussian 16:  ES64L-G16RevC.01  3-Jul-2019

 ----------------------------------------------------------------------
 #t hf aug-cc-pvdz iop(5/13=1,5/36=2,99/5=2) pseudo=read geom=check gue
 ss=(read,tcheck) scf=(maxcycle=1)
 ----------------------------------------------------------------------
 -----
 title
 -----
 Structure from the checkpoint file:  "ANI1ccx_1406_conf6_mol1.chk"
 Charge =  0 Multiplicity = 1

                         Standard orientation:
 ---------------------------------------------------------------------
 Center     Atomic      Atomic             Coordinates (Angstroms)
 Number     Number       Type             X           Y           Z
 ---------------------------------------------------------------------
      1          6           0        2.732460   -0.347383    0.214140
      2          6           0        1.426840   -0.713317   -0.454196
      3          6           0        2.813770    1.129268    0.531082
      4          6           0       -0.773515    0.169543   -1.063381
      5          6           0       -1.642460    1.353388   -0.738197
      6          6           0       -1.591150   -1.121002   -0.662714
      7          6           0       -2.080200   -1.000002    0.800199
      8          1           0       -3.243890    2.152948   -1.181841
      9          1           0       -3.195600   -1.904432    2.062579
     10          1           0       -0.967066   -2.018412   -0.703886
     11          1           0       -2.498440   -1.219862   -1.264491
     12          1           0       -0.607717    0.097297   -2.134951
     13          1           0        0.524455    0.827168    0.516258
     14          1           0        3.852580    1.386878    0.765662
     15          1           0        2.674720    1.698578   -0.479021
     16          1           0        2.735140   -0.849524    1.178479
     17          1           0        3.964150   -0.339180   -1.392051
     18          1           0        3.625690   -1.876462   -0.856812
     19          1           0        2.232150    1.993008    2.230809
     20          7           0        3.888950   -0.899366   -0.558667
     21          7           0        0.450525    0.259969   -0.356729
     22          8           0       -2.910310   -2.017672    1.154199
     23          8           0        1.278650   -1.781922   -1.025501
     24          8           0        1.920270    1.390588    1.572289
     25          8           0       -1.339790    2.329508   -0.073780
     26          8           0       -1.653030   -0.201614    1.618889
     27          8           0       -2.894160    1.244208   -1.257921
 ---------------------------------------------------------------------

 SCF Done:  E(RHF) =  -831.108932150     A.U. after    2 cycles

 The electronic state is 1-A.
 Alpha  occ. eigenvalues --  -20.61230 -20.60375 -20.57542 -20.54667 -20.54351
 Alpha  occ. eigenvalues --  -20.51951 -15.51899 -15.49838 -11.40755 -11.40464
 Alpha  occ. eigenvalues --  -11.35803 -11.31183 -11.30952 -11.27575 -11.26865
 Alpha  occ. eigenvalues --   -1.55681  -1.54605  -1.49072  -1.46797  -1.45273
 Alpha  occ. eigenvalues --   -1.44995  -1.25232  -1.18612  -1.08549  -1.01849
 Alpha  occ. eigenvalues --   -0.97185  -0.89459  -0.84606  -0.82614  -0.80613
 Alpha  occ. eigenvalues --   -0.75511  -0.73572  -0.72081  -0.71438  -0.70344
 Alpha  occ. eigenvalues --   -0.68977  -0.67935  -0.66057  -0.65680  -0.64436
 Alpha  occ. eigenvalues --   -0.63814  -0.63000  -0.60369  -0.59581  -0.59165
 Alpha  occ. eigenvalues --   -0.56669  -0.56370  -0.56255  -0.52388  -0.51113
 Alpha  occ. eigenvalues --   -0.48636  -0.47547  -0.47080  -0.45871  -0.45513
 Alpha  occ. eigenvalues --   -0.44386  -0.42039  -0.41514
 Alpha virt. eigenvalues --    0.03282   0.03476   0.03720   0.04151   0.04797
 Alpha virt. eigenvalues --    0.05171   0.05307   0.06345   0.06584   0.07639
 Alpha virt. eigenvalues --    0.08508   0.10584   0.10783   0.11479   0.12252

 Mulliken charges:
               1
     1  C   -1.890266
     2  C    0.593928
     3  C    1.222918
     4  C   -2.070879
     5  C    3.286203
     6  C   -0.416140
     7  C    2.295400
     8  H    0.386472
     9  H    0.360019
    10  H    0.244677
    11  H    0.191628
    12  H    0.066277
    13  H    0.451290
    14  H    0.074587
    15  H    0.434107
    16  H    0.176624
    17  H    0.188598
    18  H    0.219512
    19  H    0.289847
    20  N    0.557851
    21  N    1.509466
    22  O   -1.354582
    23  O   -1.432478
    24  O   -1.229270
    25  O   -1.415406
    26  O   -1.265806
    27  O   -1.474579
 Sum of Mulliken charges =  -0.00000

 Dipole moment (field-independent basis, Debye):
    X=             -0.7228    Y=              1.5552    Z=             -0.3439  Tot=              1.7491

 Test job not archived.
 1\1\GINC-SE362\SP\RHF\Aug-CC-pVDZ\C7H12N2O6\OHZDE\08-Apr-2025\0\\#t hf
  aug-cc-pvdz iop(5/13=1,5/36=2,99/5=2) pseudo=read geom=check guess=(r
 ead,tcheck) scf=(maxcycle=1)\\title\\0,1\C,0,2.73246,-0.347381,0.21414
 1\C,0,1.42684,-0.713315,-0.454195\C,0,2.81377,1.12927,0.531083\C,0,-0.
 773515,0.169545,-1.06338\C,0,-1.64246,1.35339,-0.738196\C,0,-1.59115,-
 1.121,-0.662713\C,0,-2.0802,-1.,0.8002\H,0,-3.24389,2.15295,-1.18184\H
 ,0,-3.1956,-1.90443,2.06258\H,0,-0.967066,-2.01841,-0.703885\H,0,-2.49
 844,-1.21986,-1.26449\H,0,-0.607717,0.0972986,-2.13495\H,0,0.524455,0.

 Normal termination of Gaussian 16 at Tue Apr  8 19:44:29 2025.
