 Gaussian 16, Revision C.01,

 ----------------------------------------------------------------------
 #t hf aug-cc-pvdz symm=none int=(grid=ultrafine) guess=(read,tcheck) s
 table=(opt,rrhf)
 ----------------------------------------------------------------------
 -----
 title
 -----
 Symbolic Z-matrix:
 Charge =  0 Multiplicity = 1

 SCF Done:  E(RHF) =  -503.615650708     A.U. after   15 cycles
 Normal termination of Gaussian 16 at Tue Apr  8 19:28:40 2025.
 Gaussian 16:  ES64L-G16RevC.01  3-Jul-2019

 ----------------------------------------------------------------------
 #t hf aug-cc-pvdz iop(5/13=1,5/36=2,99/5=2) pseudo=read geom=check gue
 ss=(read,tcheck) scf=(maxcycle=1)
 ----------------------------------------------------------------------
 -----
 title
 -----
 Structure from the checkpoint file:  "ANI1ccx_1339_conf1_mol2.chk"
 Charge =  0 Multiplicity = 1

                         Standard orientation:
 ---------------------------------------------------------------------
 Center     Atomic      Atomic             Coordinates (Angstroms)
 Number     Number       Type             X           Y           Z
 ---------------------------------------------------------------------
      1          6           0        3.334450   -0.635084    0.022487
      2          6           0        0.958590   -0.094389   -0.006652
      3          6           0        0.242869    2.100660    0.017678
      4          6           0       -1.322031    0.552583   -0.019168
      5          6           0       -2.282370   -1.426212    0.010682
      6          6           0       -0.400207   -0.471095    0.001493
      7          1           0       -3.078820   -2.154882   -0.001358
      8          1           0       -3.430561    0.391870   -0.012948
      9          1           0        0.555943    3.148250    0.044746
     10          1           0        3.534649    0.132470   -0.752093
     11          1           0        3.949110   -1.511229   -0.199366
     12          1           0        3.598779   -0.228977    1.013850
     13          1           0        1.693960   -1.985390   -0.042352
     14          7           0       -2.547621   -0.080419    0.002798
     15          7           0        1.949430   -1.006240   -0.036396
     16          7           0        1.252559    1.217740   -0.004325
     17          7           0       -1.068002    1.870389   -0.010947
     18          7           0       -1.016490   -1.708741    0.018926
 ---------------------------------------------------------------------

 SCF Done:  E(RHF) =  -504.124985558     A.U. after    2 cycles

 The electronic state is 1-A.
 Alpha  occ. eigenvalues --  -15.56704 -15.52586 -15.50526 -15.49404 -15.48607
 Alpha  occ. eigenvalues --  -11.33591 -11.32459 -11.31356 -11.31311 -11.26977
 Alpha  occ. eigenvalues --  -11.25008  -1.36542  -1.30044  -1.25545  -1.19853
 Alpha  occ. eigenvalues --   -1.16387  -1.05464  -0.97277  -0.91479  -0.88718
 Alpha  occ. eigenvalues --   -0.87551  -0.82330  -0.75201  -0.73051  -0.70747
 Alpha  occ. eigenvalues --   -0.66928  -0.66267  -0.63654  -0.62962  -0.62171
 Alpha  occ. eigenvalues --   -0.56695  -0.55879  -0.53532  -0.50937  -0.48916
 Alpha  occ. eigenvalues --   -0.45345  -0.45018  -0.40932  -0.32966
 Alpha virt. eigenvalues --    0.02852   0.03913   0.04657   0.04932   0.05411
 Alpha virt. eigenvalues --    0.05884   0.07157   0.08053   0.09232   0.09490
 Alpha virt. eigenvalues --    0.09941   0.11155   0.11380   0.12604   0.12787

 Mulliken charges:
               1
     1  C   -0.416635
     2  C   -2.227269
     3  C   -0.049860
     4  C   -1.440787
     5  C   -1.026053
     6  C   -0.623275
     7  H   -0.125947
     8  H   -0.031195
     9  H   -0.057182
    10  H    0.219020
    11  H   -0.007204
    12  H    0.197252
    13  H    0.230901
    14  N    0.942413
    15  N    0.939068
    16  N    1.032901
    17  N    1.127809
    18  N    1.316044
 Sum of Mulliken charges =   0.00000

 Dipole moment (field-independent basis, Debye):
    X=             -1.4043    Y=             -1.8593    Z=             -0.0041  Tot=              2.3300

 Test job not archived.
 1\1\GINC-SE456\SP\RHF\Aug-CC-pVDZ\C6H7N5\OHZDE\08-Apr-2025\0\\#t hf au
 g-cc-pvdz iop(5/13=1,5/36=2,99/5=2) pseudo=read geom=check guess=(read
 ,tcheck) scf=(maxcycle=1)\\title\\0,1\C,0,3.33445,-0.635085,0.0224867\
 C,0,0.958591,-0.0943894,-0.00665216\C,0,0.242871,2.10066,0.0176783\C,0
 ,-1.32203,0.552584,-0.0191677\C,0,-2.28237,-1.42621,0.0106824\C,0,-0.4
 00206,-0.471094,0.00149264\H,0,-3.07882,-2.15488,-0.00135766\H,0,-3.43
 056,0.391872,-0.0129485\H,0,0.555945,3.14825,0.0447459\H,0,3.53465,0.1
 32469,-0.752093\H,0,3.94911,-1.51123,-0.199366\H,0,3.59878,-0.228978,1

 Normal termination of Gaussian 16 at Tue Apr  8 19:28:50 2025.
