 Gaussian 16, Revision C.01,

 ----------------------------------------------------------------------
 #t hf aug-cc-pvdz symm=none int=(grid=ultrafine) guess=(read,tcheck) s
 table=(opt,rrhf)
 ----------------------------------------------------------------------
 -----
 title
 -----
 Symbolic Z-matrix:
 Charge =  0 Multiplicity = 1

 SCF Done:  E(RHF) =  -564.587316308     A.U. after   14 cycles
 Normal termination of Gaussian 16 at Tue Apr  8 22:15:03 2025.
 Gaussian 16:  ES64L-G16RevC.01  3-Jul-2019

 ----------------------------------------------------------------------
 #t hf aug-cc-pvdz iop(5/13=1,5/36=2,99/5=2) pseudo=read geom=check gue
 ss=(read,tcheck) scf=(maxcycle=1)
 ----------------------------------------------------------------------
 -----
 title
 -----
 Structure from the checkpoint file:  "ANI1ccx_958_conf3_mol1.chk"
 Charge =  0 Multiplicity = 1

                         Standard orientation:
 ---------------------------------------------------------------------
 Center     Atomic      Atomic             Coordinates (Angstroms)
 Number     Number       Type             X           Y           Z
 ---------------------------------------------------------------------
      1          6           0       -2.324941   -1.573871    0.775231
      2          6           0       -0.409865   -0.294203    0.162429
      3          6           0        2.059949   -0.310916   -0.120464
      4          6           0       -0.950535    1.143840   -0.108130
      5          1           0       -2.159601    0.274006   -1.076840
      6          1           0        1.380098    1.345421    0.780715
      7          1           0        3.038658    0.941430    1.212640
      8          1           0        0.735943   -1.246179   -1.320540
      9          1           0       -3.010690   -2.327351    0.354879
     10          1           0       -2.844551   -0.650173    1.087000
     11          1           0       -1.747050   -1.951070    1.620330
     12          1           0       -0.250730   -0.375368    1.241990
     13          7           0        0.784617   -0.538627   -0.582045
     14          7           0        2.128909    0.663653    0.858710
     15          8           0       -1.978622    1.213050   -0.898844
     16          8           0       -1.360051   -1.248360   -0.239203
     17          8           0        3.026499   -0.918045   -0.493231
     18          8           0       -0.410878    2.118980    0.369876
 ---------------------------------------------------------------------

 SCF Done:  E(RHF) =  -565.149194780     A.U. after    2 cycles

 The electronic state is 1-A.
 Alpha  occ. eigenvalues --  -20.62908 -20.61025 -20.55420 -20.50211 -15.54258
 Alpha  occ. eigenvalues --  -15.51245 -11.41341 -11.38517 -11.38178 -11.33662
 Alpha  occ. eigenvalues --   -1.59362  -1.53025  -1.47962  -1.47229  -1.27620
 Alpha  occ. eigenvalues --   -1.19244  -1.03568  -0.96213  -0.87357  -0.85533
 Alpha  occ. eigenvalues --   -0.81450  -0.77554  -0.76287  -0.72431  -0.69026
 Alpha  occ. eigenvalues --   -0.67300  -0.67010  -0.65714  -0.64087  -0.63378
 Alpha  occ. eigenvalues --   -0.61255  -0.58831  -0.55121  -0.51899  -0.49171
 Alpha  occ. eigenvalues --   -0.48177  -0.45251  -0.44452  -0.41993
 Alpha virt. eigenvalues --    0.02374   0.03318   0.04126   0.04428   0.05596
 Alpha virt. eigenvalues --    0.06742   0.07747   0.08151   0.09507   0.10732
 Alpha virt. eigenvalues --    0.11058   0.11608   0.11910   0.13079   0.13567

 Mulliken charges:
               1
     1  C   -0.003735
     2  C   -0.093512
     3  C    0.171192
     4  C    2.418283
     5  H    0.470676
     6  H    0.045436
     7  H    0.157655
     8  H    0.333300
     9  H    0.061200
    10  H    0.218149
    11  H    0.158580
    12  H    0.175416
    13  N    0.699882
    14  N    0.546029
    15  O   -1.280106
    16  O   -1.533520
    17  O   -1.210610
    18  O   -1.334312
 Sum of Mulliken charges =  -0.00000

 Dipole moment (field-independent basis, Debye):
    X=             -4.7186    Y=             -2.3562    Z=              1.5356  Tot=              5.4932

 Test job not archived.
 1\1\GINC-SE179\SP\RHF\Aug-CC-pVDZ\C4H8N2O4\OHZDE\08-Apr-2025\0\\#t hf
 aug-cc-pvdz iop(5/13=1,5/36=2,99/5=2) pseudo=read geom=check guess=(re
 ad,tcheck) scf=(maxcycle=1)\\title\\0,1\C,0,-2.32494,-1.57387,0.775231
 \C,0,-0.409864,-0.294203,0.162429\C,0,2.05995,-0.310917,-0.120464\C,0,
 -0.950533,1.14384,-0.10813\H,0,-2.1596,0.274007,-1.07684\H,0,1.3801,1.
 34542,0.780715\H,0,3.03866,0.941429,1.21264\H,0,0.735944,-1.24618,-1.3
 2054\H,0,-3.01069,-2.32735,0.354879\H,0,-2.84455,-0.650172,1.087\H,0,-
 1.74705,-1.95107,1.62033\H,0,-0.250729,-0.375368,1.24199\N,0,0.784618,

 Normal termination of Gaussian 16 at Tue Apr  8 22:15:12 2025.
