 Gaussian 16, Revision C.01,

 ----------------------------------------------------------------------
 #t hf aug-cc-pvdz symm=none int=(grid=ultrafine) guess=(read,tcheck) s
 table=(opt,rrhf)
 ----------------------------------------------------------------------
 -----
 title
 -----
 Symbolic Z-matrix:
 Charge =  0 Multiplicity = 1

 SCF Done:  E(RHF) =  -356.587636144     A.U. after   14 cycles
 Normal termination of Gaussian 16 at Tue Apr  8 21:12:23 2025.
 Gaussian 16:  ES64L-G16RevC.01  3-Jul-2019

 ----------------------------------------------------------------------
 #t hf aug-cc-pvdz iop(5/13=1,5/36=2,99/5=2) pseudo=read geom=check gue
 ss=(read,tcheck) scf=(maxcycle=1)
 ----------------------------------------------------------------------
 -----
 title
 -----
 Structure from the checkpoint file:  "ANI1ccx_1890_conf2_mol1.chk"
 Charge =  0 Multiplicity = 1

                         Standard orientation:
 ---------------------------------------------------------------------
 Center     Atomic      Atomic             Coordinates (Angstroms)
 Number     Number       Type             X           Y           Z
 ---------------------------------------------------------------------
      1          1           0       -2.422429    1.249220    0.449939
      2          1           0       -0.682550   -0.388057   -0.976035
      3          1           0        3.526411   -0.866803   -0.124373
      4          1           0        1.391911   -0.283349   -0.204652
      5          1           0        2.069391    0.174133    1.252700
      6          7           0        2.047411    0.351130    0.252370
      7          8           0       -2.754979    0.617439   -0.200856
      8          8           0       -2.123809   -0.572051    0.184064
      9          8           0       -0.752351   -0.419617   -0.013609
     10          8           0        3.354311    0.081347   -0.240120
 ---------------------------------------------------------------------

 SCF Done:  E(RHF) =  -356.942802773     A.U. after    2 cycles

 The electronic state is 1-A.
 Alpha  occ. eigenvalues --  -20.69637 -20.64788 -20.64380 -20.57875 -15.54748
 Alpha  occ. eigenvalues --   -1.70726  -1.48075  -1.47627  -1.20902  -1.09369
 Alpha  occ. eigenvalues --   -0.80149  -0.73585  -0.72312  -0.69808  -0.69261
 Alpha  occ. eigenvalues --   -0.67593  -0.58998  -0.53328  -0.52213  -0.48451
 Alpha  occ. eigenvalues --   -0.48349  -0.46189
 Alpha virt. eigenvalues --    0.03251   0.04528   0.05452   0.06244   0.08712
 Alpha virt. eigenvalues --    0.12411   0.14677   0.15374   0.17173   0.19056
 Alpha virt. eigenvalues --    0.19240   0.20154   0.20550   0.20969   0.21733

 Mulliken charges:
               1
     1  H    0.465718
     2  H    0.486748
     3  H    0.279357
     4  H    0.011560
     5  H    0.097526
     6  N    0.605566
     7  O   -0.493394
     8  O    0.230923
     9  O   -0.705918
    10  O   -0.978086
 Sum of Mulliken charges =  -0.00000

 Dipole moment (field-independent basis, Debye):
    X=             -0.2646    Y=             -1.4476    Z=              0.5271  Tot=              1.5631

 Test job not archived.
 1\1\GINC-SE030\SP\RHF\Aug-CC-pVDZ\H5N1O4\OHZDE\08-Apr-2025\0\\#t hf au
 g-cc-pvdz iop(5/13=1,5/36=2,99/5=2) pseudo=read geom=check guess=(read
 ,tcheck) scf=(maxcycle=1)\\title\\0,1\H,0,-2.42243,1.24922,0.449939\H,
 0,-0.682551,-0.388057,-0.976035\H,0,3.52641,-0.866803,-0.124373\H,0,1.
 39191,-0.283349,-0.204652\H,0,2.06939,0.174133,1.2527\N,0,2.04741,0.35
 113,0.25237\O,0,-2.75498,0.617439,-0.200856\O,0,-2.12381,-0.572051,0.1
 84064\O,0,-0.752352,-0.419617,-0.0136091\O,0,3.35431,0.0813473,-0.2401
 2\\Version=ES64L-G16RevC.01\State=1-A\HF=-356.9428028\RMSD=8.725e-03\D

 Normal termination of Gaussian 16 at Tue Apr  8 21:12:25 2025.
