 Gaussian 16, Revision C.01,

 ----------------------------------------------------------------------
 #t hf aug-cc-pvdz symm=none int=(grid=ultrafine) guess=(read,tcheck) s
 table=(opt,rrhf)
 ----------------------------------------------------------------------
 -----
 title
 -----
 Symbolic Z-matrix:
 Charge =  0 Multiplicity = 1

 SCF Done:  E(RHF) =  -456.252470983     A.U. after   11 cycles
 Normal termination of Gaussian 16 at Tue Apr  8 21:07:40 2025.
 Gaussian 16:  ES64L-G16RevC.01  3-Jul-2019

 ----------------------------------------------------------------------
 #t hf aug-cc-pvdz iop(5/13=1,5/36=2,99/5=2) pseudo=read geom=check gue
 ss=(read,tcheck) scf=(maxcycle=1)
 ----------------------------------------------------------------------
 -----
 title
 -----
 Structure from the checkpoint file:  "ANI1ccx_1844_conf225_mol1.chk"
 Charge =  0 Multiplicity = 1

                         Standard orientation:
 ---------------------------------------------------------------------
 Center     Atomic      Atomic             Coordinates (Angstroms)
 Number     Number       Type             X           Y           Z
 ---------------------------------------------------------------------
      1          1           0        1.268552    2.401139    1.524560
      2          1           0        2.166605   -0.748117   -0.273785
      3          1           0        3.291218    0.255500   -0.738330
      4          1           0       -1.779450   -1.393564    0.464532
      5          1           0       -0.700710   -1.633106    1.578160
      6          1           0        0.228439   -1.961479   -0.265366
      7          1           0        1.632450    1.331932    0.333704
      8          1           0        1.333273   -3.068580   -0.441490
      9          1           0       -1.426432    2.900759   -0.631374
     10          1           0       -0.300744    2.015517   -0.167931
     11          1           0       -2.175506    0.723534   -0.182849
     12          1           0       -3.001367   -0.402247   -0.946865
     13          8           0       -1.104315   -2.072109    0.704466
     14          8           0       -1.171425    2.001201   -0.622438
     15          8           0        2.726029    0.044713    0.025434
     16          8           0        1.148216   -2.121912   -0.673092
     17          8           0        1.106574    2.159888    0.541315
     18          8           0       -2.772120   -0.064442   -0.007305
 ---------------------------------------------------------------------

 SCF Done:  E(RHF) =  -456.723862989     A.U. after    2 cycles

 The electronic state is 1-A.
 Alpha  occ. eigenvalues --  -20.56295 -20.56187 -20.55771 -20.55048 -20.54749
 Alpha  occ. eigenvalues --  -20.53880  -1.44952  -1.43568  -1.43227  -1.41534
 Alpha  occ. eigenvalues --   -1.41071  -1.40008  -0.72292  -0.70824  -0.70647
 Alpha  occ. eigenvalues --   -0.70346  -0.69152  -0.67659  -0.62216  -0.60641
 Alpha  occ. eigenvalues --   -0.59447  -0.56081  -0.55428  -0.53452  -0.50097
 Alpha  occ. eigenvalues --   -0.49481  -0.48821  -0.48615  -0.48350  -0.48015
 Alpha virt. eigenvalues --    0.03251   0.04270   0.04696   0.04882   0.06365
 Alpha virt. eigenvalues --    0.06938   0.08457   0.09072   0.09555   0.10221
 Alpha virt. eigenvalues --    0.11124   0.11501   0.17532   0.18824   0.19275

 Mulliken charges:
               1
     1  H    0.396036
     2  H    0.733673
     3  H    0.339440
     4  H    0.743748
     5  H    0.442665
     6  H    0.792279
     7  H    0.787107
     8  H    0.373087
     9  H    0.289495
    10  H    0.810768
    11  H    0.806063
    12  H    0.413023
    13  O   -1.267642
    14  O   -1.063273
    15  O   -1.068635
    16  O   -1.153046
    17  O   -1.238132
    18  O   -1.136655
 Sum of Mulliken charges =  -0.00000

 Dipole moment (field-independent basis, Debye):
    X=              1.2334    Y=              0.9650    Z=              0.6126  Tot=              1.6816

 Test job not archived.
 1\1\GINC-SE095\SP\RHF\Aug-CC-pVDZ\H12O6\OHZDE\08-Apr-2025\0\\#t hf aug
 -cc-pvdz iop(5/13=1,5/36=2,99/5=2) pseudo=read geom=check guess=(read,
 tcheck) scf=(maxcycle=1)\\title\\0,1\H,0,1.26857,2.40113,1.52456\H,0,2
 .1666,-0.748133,-0.273785\H,0,3.29122,0.255476,-0.73833\H,0,-1.77946,-
 1.39355,0.464532\H,0,-0.700722,-1.6331,1.57816\H,0,0.228424,-1.96148,-
 0.265366\H,0,1.63246,1.33192,0.333704\H,0,1.33325,-3.06859,-0.44149\H,
 0,-1.42641,2.90077,-0.631374\H,0,-0.300729,2.01552,-0.167931\H,0,-2.17
 55,0.723551,-0.182849\H,0,-3.00137,-0.402224,-0.946865\O,0,-1.10433,-2

 Normal termination of Gaussian 16 at Tue Apr  8 21:07:45 2025.
