 Gaussian 16, Revision C.01,

 ----------------------------------------------------------------------
 #t hf aug-cc-pvdz symm=none int=(grid=ultrafine) guess=(read,tcheck) s
 table=(opt,rrhf)
 ----------------------------------------------------------------------
 -----
 title
 -----
 Symbolic Z-matrix:
 Charge =  0 Multiplicity = 1

 SCF Done:  E(RHF) =  -499.469338823     A.U. after   15 cycles
 Normal termination of Gaussian 16 at Tue Apr  8 21:44:56 2025.
 Gaussian 16:  ES64L-G16RevC.01  3-Jul-2019

 ----------------------------------------------------------------------
 #t hf aug-cc-pvdz iop(5/13=1,5/36=2,99/5=2) pseudo=read geom=check gue
 ss=(read,tcheck) scf=(maxcycle=1)
 ----------------------------------------------------------------------
 -----
 title
 -----
 Structure from the checkpoint file:  "ANI1ccx_508_conf1_mol2.chk"
 Charge =  0 Multiplicity = 1

                         Standard orientation:
 ---------------------------------------------------------------------
 Center     Atomic      Atomic             Coordinates (Angstroms)
 Number     Number       Type             X           Y           Z
 ---------------------------------------------------------------------
      1          6           0        0.926882    0.632629   -0.024403
      2          6           0       -1.499789   -0.244966    0.011473
      3          1           0        0.999429    2.414381    0.866876
      4          1           0        1.023621    2.455321   -0.818523
      5          1           0       -1.118019    1.641950    0.022789
      6          7           0        0.634952    2.016651    0.004819
      7          7           0        2.084981    0.048533    0.001025
      8          7           0        1.831541   -1.308679   -0.013951
      9          7           0        0.589985   -1.541019    0.015277
     10          7           0       -0.058031   -0.340598    0.016122
     11          8           0       -1.925149    1.065820   -0.010538
     12          8           0       -2.206299   -1.186050   -0.009039
 ---------------------------------------------------------------------

 SCF Done:  E(RHF) =  -499.959292574     A.U. after    2 cycles

 The electronic state is 1-A.
 Alpha  occ. eigenvalues --  -20.62104 -20.57313 -15.64546 -15.62843 -15.61443
 Alpha  occ. eigenvalues --  -15.59432 -15.57010 -11.46946 -11.40729  -1.57455
 Alpha  occ. eigenvalues --   -1.50833  -1.49733  -1.31565  -1.29643  -1.22012
 Alpha  occ. eigenvalues --   -1.00979  -0.96535  -0.89732  -0.83455  -0.81083
 Alpha  occ. eigenvalues --   -0.78156  -0.74772  -0.70497  -0.66815  -0.65674
 Alpha  occ. eigenvalues --   -0.65146  -0.57379  -0.56425  -0.53806  -0.53114
 Alpha  occ. eigenvalues --   -0.50077  -0.49979  -0.49450
 Alpha virt. eigenvalues --    0.01087   0.03485   0.04522   0.05256   0.06881
 Alpha virt. eigenvalues --    0.08930   0.09439   0.10189   0.10584   0.10780
 Alpha virt. eigenvalues --    0.12092   0.12276   0.13667   0.15075   0.15553

 Mulliken charges:
               1
     1  C   -1.532937
     2  C    1.717428
     3  H    0.439203
     4  H    0.438604
     5  H    0.711571
     6  N    0.145686
     7  N    0.530045
     8  N   -0.239089
     9  N   -0.505633
    10  N    0.651663
    11  O   -1.229047
    12  O   -1.127493
 Sum of Mulliken charges =  -0.00000

 Dipole moment (field-independent basis, Debye):
    X=              1.2522    Y=              6.4243    Z=              0.0954  Tot=              6.5459

 Test job not archived.
 1\1\GINC-SE116\SP\RHF\Aug-CC-pVDZ\C2H3N5O2\OHZDE\08-Apr-2025\0\\#t hf
 aug-cc-pvdz iop(5/13=1,5/36=2,99/5=2) pseudo=read geom=check guess=(re
 ad,tcheck) scf=(maxcycle=1)\\title\\0,1\C,0,0.926881,0.632628,-0.02440
 28\C,0,-1.49979,-0.244966,0.0114733\H,0,0.999428,2.41438,0.866876\H,0,
 1.02362,2.45532,-0.818523\H,0,-1.11802,1.64195,0.0227887\N,0,0.634951,
 2.01665,0.00481904\N,0,2.08498,0.048532,0.0010253\N,0,1.83154,-1.30868
 ,-0.0139508\N,0,0.589984,-1.54102,0.0152774\N,0,-0.0580316,-0.340599,0
 .016122\O,0,-1.92515,1.06582,-0.0105384\O,0,-2.2063,-1.18605,-0.009038

 Normal termination of Gaussian 16 at Tue Apr  8 21:45:03 2025.
