 Gaussian 16, Revision C.01,

 ----------------------------------------------------------------------
 #t hf aug-cc-pvdz symm=none int=(grid=ultrafine) guess=(read,tcheck) s
 table=(opt,rrhf)
 ----------------------------------------------------------------------
 -----
 title
 -----
 Symbolic Z-matrix:
 Charge =  0 Multiplicity = 1

 SCF Done:  E(RHF) =  -451.830578427     A.U. after   13 cycles
 Normal termination of Gaussian 16 at Tue Apr  8 21:54:29 2025.
 Gaussian 16:  ES64L-G16RevC.01  3-Jul-2019

 ----------------------------------------------------------------------
 #t hf aug-cc-pvdz iop(5/13=1,5/36=2,99/5=2) pseudo=read geom=check gue
 ss=(read,tcheck) scf=(maxcycle=1)
 ----------------------------------------------------------------------
 -----
 title
 -----
 Structure from the checkpoint file:  "ANI1ccx_764_conf4_mol1.chk"
 Charge =  0 Multiplicity = 1

                         Standard orientation:
 ---------------------------------------------------------------------
 Center     Atomic      Atomic             Coordinates (Angstroms)
 Number     Number       Type             X           Y           Z
 ---------------------------------------------------------------------
      1          6           0        2.175300   -0.225187   -0.549212
      2          6           0       -0.055682    0.621392    0.016883
      3          6           0       -1.845050   -0.929223    0.281553
      4          1           0        1.961610   -1.517490    0.875975
      5          1           0        3.090860    0.198486   -1.008610
      6          1           0        1.806260   -1.008040   -1.265840
      7          1           0        1.553341    1.698160   -0.119837
      8          1           0       -0.231894   -1.158579   -1.003330
      9          1           0       -2.097231   -1.973759    0.049930
     10          1           0       -1.812310   -0.714534    1.356110
     11          1           0       -2.545829    0.791050   -0.126150
     12          7           0        1.196291    0.860777   -0.516043
     13          7           0       -0.519439   -0.646646   -0.182031
     14          8           0        2.463520   -0.684964    0.738106
     15          8           0       -0.690222    1.486431    0.602096
     16          8           0       -2.787070   -0.128479   -0.386087
 ---------------------------------------------------------------------

 SCF Done:  E(RHF) =  -452.290450599     A.U. after    2 cycles

 The electronic state is 1-A.
 Alpha  occ. eigenvalues --  -20.57754 -20.54324 -20.52123 -15.53307 -15.52707
 Alpha  occ. eigenvalues --  -11.39412 -11.35231 -11.32666  -1.49087  -1.47948
 Alpha  occ. eigenvalues --   -1.44906  -1.27656  -1.22083  -0.97504  -0.94216
 Alpha  occ. eigenvalues --   -0.84297  -0.79926  -0.74636  -0.71457  -0.70483
 Alpha  occ. eigenvalues --   -0.67191  -0.66355  -0.63516  -0.62043  -0.59313
 Alpha  occ. eigenvalues --   -0.54172  -0.52858  -0.50769  -0.46809  -0.45922
 Alpha  occ. eigenvalues --   -0.45239  -0.44284
 Alpha virt. eigenvalues --    0.02476   0.03785   0.04501   0.04784   0.05678
 Alpha virt. eigenvalues --    0.05988   0.06989   0.08395   0.10204   0.11407
 Alpha virt. eigenvalues --    0.12446   0.13066   0.13828   0.14045   0.15481

 Mulliken charges:
               1
     1  C    0.451700
     2  C    0.028997
     3  C    0.492151
     4  H    0.400068
     5  H    0.024251
     6  H    0.188475
     7  H    0.311675
     8  H    0.185893
     9  H    0.003286
    10  H    0.102708
    11  H    0.359330
    12  N    0.523200
    13  N    0.410062
    14  O   -1.138262
    15  O   -1.221251
    16  O   -1.122281
 Sum of Mulliken charges =   0.00000

 Dipole moment (field-independent basis, Debye):
    X=              2.4855    Y=             -3.0784    Z=             -1.2806  Tot=              4.1586

 Test job not archived.
 1\1\GINC-SE331\SP\RHF\Aug-CC-pVDZ\C3H8N2O3\OHZDE\08-Apr-2025\0\\#t hf
 aug-cc-pvdz iop(5/13=1,5/36=2,99/5=2) pseudo=read geom=check guess=(re
 ad,tcheck) scf=(maxcycle=1)\\title\\0,1\C,0,2.1753,-0.225187,-0.549212
 \C,0,-0.055683,0.621391,0.0168825\C,0,-1.84505,-0.929224,0.281553\H,0,
 1.96161,-1.51749,0.875975\H,0,3.09086,0.198487,-1.00861\H,0,1.80626,-1
 .00804,-1.26584\H,0,1.55334,1.69816,-0.119837\H,0,-0.231894,-1.15858,-
 1.00333\H,0,-2.09723,-1.97376,0.0499301\H,0,-1.81231,-0.714535,1.35611
 \H,0,-2.54583,0.791048,-0.12615\N,0,1.19629,0.860777,-0.516043\N,0,-0.

 Normal termination of Gaussian 16 at Tue Apr  8 21:54:35 2025.
