 Gaussian 16, Revision C.01,

 ----------------------------------------------------------------------
 #t hf aug-cc-pvdz symm=none int=(grid=ultrafine) guess=(read,tcheck) s
 table=(opt,rrhf)
 ----------------------------------------------------------------------
 -----
 title
 -----
 Symbolic Z-matrix:
 Charge =  0 Multiplicity = 1

 SCF Done:  E(RHF) =  -350.926049310     A.U. after   14 cycles
 Normal termination of Gaussian 16 at Tue Apr  8 21:45:57 2025.
 Gaussian 16:  ES64L-G16RevC.01  3-Jul-2019

 ----------------------------------------------------------------------
 #t hf aug-cc-pvdz iop(5/13=1,5/36=2,99/5=2) pseudo=read geom=check gue
 ss=(read,tcheck) scf=(maxcycle=1)
 ----------------------------------------------------------------------
 -----
 title
 -----
 Structure from the checkpoint file:  "ANI1ccx_542_conf4_mol2.chk"
 Charge =  0 Multiplicity = 1

                         Standard orientation:
 ---------------------------------------------------------------------
 Center     Atomic      Atomic             Coordinates (Angstroms)
 Number     Number       Type             X           Y           Z
 ---------------------------------------------------------------------
      1          6           0       -1.080430   -0.030445    0.006183
      2          6           0        1.074110   -0.026435   -0.012403
      3          1           0       -3.036460    0.275177    0.144573
      4          1           0       -2.645980   -1.134960   -0.674961
      5          1           0        2.655030   -0.920089    0.830107
      6          1           0        3.053420    0.237013   -0.211488
      7          1           0        0.029630   -1.868430   -0.097200
      8          7           0       -2.379500   -0.498456    0.096346
      9          7           0       -0.702405    1.208160   -0.026608
     10          7           0        0.693983    1.220780    0.013856
     11          7           0        2.388220   -0.522198   -0.082279
     12          7           0       -0.002828   -0.872203    0.005299
 ---------------------------------------------------------------------

 SCF Done:  E(RHF) =  -351.283837307     A.U. after    2 cycles

 The electronic state is 1-A.
 Alpha  occ. eigenvalues --  -15.56425 -15.53201 -15.53179 -15.50424 -15.49777
 Alpha  occ. eigenvalues --  -11.33822 -11.33721  -1.39367  -1.24351  -1.22644
 Alpha  occ. eigenvalues --   -1.20103  -1.07048  -0.88337  -0.87829  -0.80377
 Alpha  occ. eigenvalues --   -0.73841  -0.73115  -0.69078  -0.67613  -0.65626
 Alpha  occ. eigenvalues --   -0.55895  -0.51551  -0.51405  -0.47774  -0.47013
 Alpha  occ. eigenvalues --   -0.36289
 Alpha virt. eigenvalues --    0.02180   0.03804   0.04226   0.06028   0.06212
 Alpha virt. eigenvalues --    0.10046   0.10260   0.11747   0.12004   0.13377
 Alpha virt. eigenvalues --    0.13713   0.14234   0.16076   0.16824   0.17052

 Mulliken charges:
               1
     1  C   -1.289110
     2  C   -1.308465
     3  H    0.243825
     4  H    0.186078
     5  H    0.231685
     6  H    0.225838
     7  H    0.042862
     8  N    0.498827
     9  N    0.190475
    10  N    0.206603
    11  N    0.465170
    12  N    0.306211
 Sum of Mulliken charges =  -0.00000

 Dipole moment (field-independent basis, Debye):
    X=             -0.1237    Y=             -5.2491    Z=             -0.1180  Tot=              5.2519

 Test job not archived.
 1\1\GINC-SE393\SP\RHF\Aug-CC-pVDZ\C2H5N5\OHZDE\08-Apr-2025\0\\#t hf au
 g-cc-pvdz iop(5/13=1,5/36=2,99/5=2) pseudo=read geom=check guess=(read
 ,tcheck) scf=(maxcycle=1)\\title\\0,1\C,0,-1.08043,-0.030445,0.0061829
 \C,0,1.07411,-0.0264347,-0.0124027\H,0,-3.03646,0.275177,0.144573\H,0,
 -2.64598,-1.13496,-0.674961\H,0,2.65503,-0.920089,0.830107\H,0,3.05342
 ,0.237014,-0.211488\H,0,0.0296303,-1.86843,-0.0971999\N,0,-2.3795,-0.4
 98456,0.0963455\N,0,-0.702405,1.20816,-0.0266085\N,0,0.693983,1.22078,
 0.0138556\N,0,2.38822,-0.522198,-0.0822792\N,0,-0.00282805,-0.872203,0

 Normal termination of Gaussian 16 at Tue Apr  8 21:46:02 2025.
