 Gaussian 16, Revision C.01,

 ----------------------------------------------------------------------
 #t hf aug-cc-pvdz symm=none int=(grid=ultrafine) guess=(read,tcheck) s
 table=(opt,rrhf)
 ----------------------------------------------------------------------
 -----
 title
 -----
 Symbolic Z-matrix:
 Charge =  0 Multiplicity = 1

 SCF Done:  E(RHF) =  -604.208382369     A.U. after   14 cycles
 Normal termination of Gaussian 16 at Tue Apr  8 22:10:41 2025.
 Gaussian 16:  ES64L-G16RevC.01  3-Jul-2019

 ----------------------------------------------------------------------
 #t hf aug-cc-pvdz iop(5/13=1,5/36=2,99/5=2) pseudo=read geom=check gue
 ss=(read,tcheck) scf=(maxcycle=1)
 ----------------------------------------------------------------------
 -----
 title
 -----
 Structure from the checkpoint file:  "ANI1ccx_934_conf8_mol1.chk"
 Charge =  0 Multiplicity = 1

                         Standard orientation:
 ---------------------------------------------------------------------
 Center     Atomic      Atomic             Coordinates (Angstroms)
 Number     Number       Type             X           Y           Z
 ---------------------------------------------------------------------
      1          6           0        0.563734   -1.007200    0.018850
      2          6           0       -0.729992   -0.510921   -0.740518
      3          6           0       -1.068070    0.826933   -0.136575
      4          6           0        1.583300    0.132798    0.009514
      5          1           0       -0.629277   -1.645140    1.402860
      6          1           0        0.823446   -1.907960   -0.564581
      7          1           0       -0.609309   -0.527448   -1.804100
      8          1           0       -2.556000   -1.080570   -0.489489
      9          1           0       -2.621370    1.848470    0.212104
     10          1           0        1.933130   -0.629187   -1.666230
     11          8           0        0.240582   -1.183290    1.345210
     12          8           0       -1.638800   -1.425730   -0.345831
     13          8           0       -2.325980    0.934978    0.174808
     14          8           0       -0.266130    1.737990   -0.020805
     15          8           0        2.258530    0.126614   -1.152210
     16          8           0        1.927490    0.720958    0.999054
 ---------------------------------------------------------------------

 SCF Done:  E(RHF) =  -604.802689158     A.U. after    2 cycles

 The electronic state is 1-A.
 Alpha  occ. eigenvalues --  -20.63500 -20.60217 -20.59687 -20.56717 -20.55367
 Alpha  occ. eigenvalues --  -20.51729 -11.41454 -11.38690 -11.33885 -11.33157
 Alpha  occ. eigenvalues --   -1.60122  -1.54511  -1.53079  -1.48081  -1.47002
 Alpha  occ. eigenvalues --   -1.44019  -1.07720  -0.96944  -0.88691  -0.82816
 Alpha  occ. eigenvalues --   -0.80126  -0.76362  -0.73715  -0.73006  -0.71450
 Alpha  occ. eigenvalues --   -0.67036  -0.65486  -0.64269  -0.61934  -0.60076
 Alpha  occ. eigenvalues --   -0.57851  -0.57622  -0.53214  -0.52937  -0.49138
 Alpha  occ. eigenvalues --   -0.46980  -0.46073  -0.43568  -0.42620
 Alpha virt. eigenvalues --    0.01858   0.02626   0.03790   0.04331   0.06257
 Alpha virt. eigenvalues --    0.06416   0.08897   0.10700   0.10987   0.11708
 Alpha virt. eigenvalues --    0.11838   0.12643   0.13534   0.14018   0.14088

 Mulliken charges:
               1
     1  C    0.633310
     2  C    0.641653
     3  C    2.467555
     4  C    2.755660
     5  H    0.319150
     6  H    0.188348
     7  H    0.082947
     8  H    0.371862
     9  H    0.357953
    10  H    0.424321
    11  O   -1.480719
    12  O   -1.494712
    13  O   -1.299595
    14  O   -1.258419
    15  O   -1.398262
    16  O   -1.311052
 Sum of Mulliken charges =  -0.00000

 Dipole moment (field-independent basis, Debye):
    X=             -5.9923    Y=             -2.7363    Z=             -4.1916  Tot=              7.8080

 Test job not archived.
 1\1\GINC-SE227\SP\RHF\Aug-CC-pVDZ\C4H6O6\OHZDE\08-Apr-2025\0\\#t hf au
 g-cc-pvdz iop(5/13=1,5/36=2,99/5=2) pseudo=read geom=check guess=(read
 ,tcheck) scf=(maxcycle=1)\\title\\0,1\C,0,0.563734,-1.0072,0.0188494\C
 ,0,-0.729992,-0.510921,-0.740518\C,0,-1.06807,0.826933,-0.136575\C,0,1
 .5833,0.132798,0.00951406\H,0,-0.629277,-1.64514,1.40286\H,0,0.823446,
 -1.90796,-0.564581\H,0,-0.609309,-0.527448,-1.8041\H,0,-2.556,-1.08057
 ,-0.489489\H,0,-2.62137,1.84847,0.212104\H,0,1.93313,-0.629187,-1.6662
 3\O,0,0.240582,-1.18329,1.34521\O,0,-1.6388,-1.42573,-0.345831\O,0,-2.

 Normal termination of Gaussian 16 at Tue Apr  8 22:10:49 2025.
