 Gaussian 16, Revision C.01,

 ----------------------------------------------------------------------
 #t hf aug-cc-pvdz symm=none int=(grid=ultrafine) guess=(read,tcheck) s
 table=(opt,rrhf)
 ----------------------------------------------------------------------
 -----
 title
 -----
 Symbolic Z-matrix:
 Charge =  0 Multiplicity = 1

 SCF Done:  E(RHF) =  -911.513101735     A.U. after   14 cycles
 Normal termination of Gaussian 16 at Tue Apr  8 21:40:23 2025.
 Gaussian 16:  ES64L-G16RevC.01  3-Jul-2019

 ----------------------------------------------------------------------
 #t hf aug-cc-pvdz iop(5/13=1,5/36=2,99/5=2) pseudo=read geom=check gue
 ss=(read,tcheck) scf=(maxcycle=1)
 ----------------------------------------------------------------------
 -----
 title
 -----
 Structure from the checkpoint file:  "ANI1ccx_191_conf22_mol1.chk"
 Charge =  0 Multiplicity = 1

                         Standard orientation:
 ---------------------------------------------------------------------
 Center     Atomic      Atomic             Coordinates (Angstroms)
 Number     Number       Type             X           Y           Z
 ---------------------------------------------------------------------
      1          6           0        1.817550    0.238900    0.205450
      2          6           0       -3.660570   -1.684549   -0.096334
      3          6           0       -3.230950   -0.268870    1.948940
      4          6           0       -2.654410   -0.697089    0.629930
      5          6           0       -2.641220    1.581731   -0.491395
      6          6           0       -3.020090   -2.406739   -1.309480
      7          6           0        4.403050   -0.293671   -0.377441
      8          6           0        4.024460   -0.309014    1.158040
      9          6           0        2.553430   -0.619004    1.216080
     10          6           0        0.355363   -0.328612    0.143185
     11          6           0       -1.917390    0.288090   -0.348532
     12          1           0       -2.461820    0.346390    2.469490
     13          1           0       -4.261660    2.357421   -0.976890
     14          1           0       -3.635150   -3.256049   -1.666370
     15          1           0       -2.829530   -1.688299   -2.074020
     16          1           0       -2.005820   -2.774020   -0.976596
     17          1           0       -3.915420   -2.465789    0.659153
     18          1           0       -4.536490   -1.173519   -0.523837
     19          1           0       -3.353940   -1.177059    2.624790
     20          1           0       -4.111000    0.406325    2.143880
     21          1           0       -1.680380   -1.318010    0.786418
     22          1           0        4.745480    0.779779   -1.857950
     23          1           0       -0.394058    1.556860    0.288856
     24          1           0        4.781130   -0.904399    1.730830
     25          1           0        4.178500    0.722449    1.370270
     26          1           0        2.252740   -0.383358    2.166690
     27          1           0        2.435590   -1.668080    0.966209
     28          1           0        2.164000   -0.114420   -0.765174
     29          1           0        1.976090    2.071970   -0.592263
     30          1           0        1.666700    2.178130    1.110620
     31          1           0       -1.833050   -0.234595   -1.234440
     32          7           0        2.046830    1.700590    0.311614
     33          7           0       -0.605116    0.599263    0.140746
     34          8           0       -2.154860    2.644340   -0.318941
     35          8           0        0.201347   -1.554020   -0.054575
     36          8           0        4.305230   -1.276230   -1.085330
     37          8           0        4.697550    0.937213   -0.863062
     38          8           0       -3.980420    1.452731   -0.788942
 ---------------------------------------------------------------------

 SCF Done:  E(RHF) =  -912.440484583     A.U. after    2 cycles

 The electronic state is 1-A.
 Alpha  occ. eigenvalues --  -20.61211 -20.60628 -20.56501 -20.53300 -20.51326
 Alpha  occ. eigenvalues --  -15.53930 -15.50513 -11.41125 -11.39164 -11.36358
 Alpha  occ. eigenvalues --  -11.29796 -11.28773 -11.25204 -11.25138 -11.23904
 Alpha  occ. eigenvalues --  -11.23330 -11.23036 -11.21647  -1.57162  -1.53982
 Alpha  occ. eigenvalues --   -1.48069  -1.44731  -1.44278  -1.27890  -1.20355
 Alpha  occ. eigenvalues --   -1.10250  -1.08684  -1.02395  -0.98234  -0.97030
 Alpha  occ. eigenvalues --   -0.88659  -0.87523  -0.84784  -0.84013  -0.78715
 Alpha  occ. eigenvalues --   -0.77696  -0.75888  -0.73953  -0.72754  -0.71026
 Alpha  occ. eigenvalues --   -0.70650  -0.69837  -0.68270  -0.65778  -0.65328
 Alpha  occ. eigenvalues --   -0.63573  -0.62458  -0.61903  -0.61214  -0.59944
 Alpha  occ. eigenvalues --   -0.59393  -0.57851  -0.57371  -0.56336  -0.55682
 Alpha  occ. eigenvalues --   -0.53713  -0.53112  -0.51767  -0.50916  -0.50498
 Alpha  occ. eigenvalues --   -0.49982  -0.48807  -0.47782  -0.47195  -0.46657
 Alpha  occ. eigenvalues --   -0.45686  -0.44683  -0.42712  -0.41515  -0.39651
 Alpha virt. eigenvalues --    0.02696   0.03187   0.03385   0.03888   0.04195
 Alpha virt. eigenvalues --    0.04305   0.04608   0.05193   0.05937   0.06166
 Alpha virt. eigenvalues --    0.06909   0.07634   0.07790   0.07817   0.09181

 Mulliken charges:
               1
     1  C   -1.618164
     2  C   -0.421962
     3  C   -0.442880
     4  C   -0.328545
     5  C    3.391889
     6  C   -0.389297
     7  C    2.574739
     8  C   -0.643000
     9  C    0.492932
    10  C   -0.361495
    11  C   -1.584287
    12  H    0.167661
    13  H    0.413516
    14  H    0.048972
    15  H    0.178963
    16  H    0.308959
    17  H    0.236260
    18  H    0.146116
    19  H    0.261900
    20  H    0.149106
    21  H    0.406190
    22  H    0.323902
    23  H    0.274389
    24  H    0.170734
    25  H    0.227671
    26  H   -0.011574
    27  H    0.191314
    28  H    0.414264
    29  H    0.333211
    30  H    0.201194
    31  H   -0.119665
    32  N    0.620679
    33  N    1.642283
    34  O   -1.437547
    35  O   -1.507419
    36  O   -1.429681
    37  O   -1.323541
    38  O   -1.557786
 Sum of Mulliken charges =   0.00000

 Dipole moment (field-independent basis, Debye):
    X=             -1.4494    Y=              3.5593    Z=              0.6657  Tot=              3.9003

 Test job not archived.
 1\1\GINC-SE150\SP\RHF\Aug-CC-pVDZ\C11H20N2O5\OHZDE\08-Apr-2025\0\\#t h
 f aug-cc-pvdz iop(5/13=1,5/36=2,99/5=2) pseudo=read geom=check guess=(
 read,tcheck) scf=(maxcycle=1)\\title\\0,1\C,0,1.81755,0.2389,0.20545\C
 ,0,-3.66057,-1.68455,-0.0963341\C,0,-3.23095,-0.268871,1.94894\C,0,-2.
 65441,-0.69709,0.62993\C,0,-2.64122,1.58173,-0.491395\C,0,-3.02009,-2.
 40674,-1.30948\C,0,4.40305,-0.293671,-0.377441\C,0,4.02446,-0.309014,1
 .15804\C,0,2.55343,-0.619004,1.21608\C,0,0.355363,-0.328612,0.143185\C
 ,0,-1.91739,0.28809,-0.348532\H,0,-2.46182,0.346389,2.46949\H,0,-4.261

 Normal termination of Gaussian 16 at Tue Apr  8 21:41:31 2025.
