 Gaussian 16, Revision C.01,

 ----------------------------------------------------------------------
 #t hf aug-cc-pvdz symm=none int=(grid=ultrafine) guess=(read,tcheck) s
 table=(opt,rrhf)
 ----------------------------------------------------------------------
 -----
 title
 -----
 Symbolic Z-matrix:
 Charge =  0 Multiplicity = 1

 SCF Done:  E(RHF) =  -226.849102857     A.U. after   13 cycles
 Normal termination of Gaussian 16 at Tue Apr  8 21:11:17 2025.
 Gaussian 16:  ES64L-G16RevC.01  3-Jul-2019

 ----------------------------------------------------------------------
 #t hf aug-cc-pvdz iop(5/13=1,5/36=2,99/5=2) pseudo=read geom=check gue
 ss=(read,tcheck) scf=(maxcycle=1)
 ----------------------------------------------------------------------
 -----
 title
 -----
 Structure from the checkpoint file:  "ANI1ccx_1883_conf10_mol2.chk"
 Charge =  0 Multiplicity = 1

                         Standard orientation:
 ---------------------------------------------------------------------
 Center     Atomic      Atomic             Coordinates (Angstroms)
 Number     Number       Type             X           Y           Z
 ---------------------------------------------------------------------
      1          1           0       -1.932001   -0.881025    0.491260
      2          1           0       -2.610871    0.439561    0.167381
      3          1           0       -0.054220    0.708007   -0.167214
      4          1           0        1.687839   -0.769922    0.718960
      5          8           0       -1.837021   -0.103826   -0.076837
      6          8           0        0.895079    0.756385    0.057215
      7          8           0        1.305599   -0.589638   -0.131677
 ---------------------------------------------------------------------

 SCF Done:  E(RHF) =  -227.075787949     A.U. after    2 cycles

 The electronic state is 1-A.
 Alpha  occ. eigenvalues --  -20.59654 -20.58830 -20.58706  -1.57740  -1.46244
 Alpha  occ. eigenvalues --   -1.25281  -0.72698  -0.69949  -0.68927  -0.60594
 Alpha  occ. eigenvalues --   -0.58950  -0.52688  -0.49063  -0.43670
 Alpha virt. eigenvalues --    0.02813   0.04599   0.06208   0.08335   0.14317
 Alpha virt. eigenvalues --    0.17753   0.19269   0.19761   0.20705   0.23199
 Alpha virt. eigenvalues --    0.24177   0.24922   0.25274   0.26579   0.28119

 Mulliken charges:
               1
     1  H    0.395352
     2  H    0.428345
     3  H    0.637086
     4  H    0.441776
     5  O   -0.858373
     6  O   -0.600972
     7  O   -0.443214
 Sum of Mulliken charges =  -0.00000

 Dipole moment (field-independent basis, Debye):
    X=             -2.9920    Y=             -0.8462    Z=              2.4185  Tot=              3.9392

 Test job not archived.
 1\1\GINC-SE393\SP\RHF\Aug-CC-pVDZ\H4O3\OHZDE\08-Apr-2025\0\\#t hf aug-
 cc-pvdz iop(5/13=1,5/36=2,99/5=2) pseudo=read geom=check guess=(read,t
 check) scf=(maxcycle=1)\\title\\0,1\H,0,-1.932,-0.881024,0.49126\H,0,-
 2.61087,0.439562,0.167381\H,0,-0.0542189,0.708007,-0.167214\H,0,1.6878
 4,-0.769923,0.71896\O,0,-1.83702,-0.103825,-0.0768367\O,0,0.89508,0.75
 6385,0.0572154\O,0,1.3056,-0.589638,-0.131677\\Version=ES64L-G16RevC.0
 1\State=1-A\HF=-227.0757879\RMSD=7.514e-03\Dipole=-1.1771533,-0.332927
 8,0.9515179\Quadrupole=2.9655903,-1.1432609,-1.8223295,-1.8696266,-0.1

 Normal termination of Gaussian 16 at Tue Apr  8 21:11:18 2025.
