 Gaussian 16, Revision C.01,

 ----------------------------------------------------------------------
 #t hf aug-cc-pvdz symm=none int=(grid=ultrafine) guess=(read,tcheck) s
 table=(opt,rrhf)
 ----------------------------------------------------------------------
 -----
 title
 -----
 Symbolic Z-matrix:
 Charge =  0 Multiplicity = 1

 SCF Done:  E(RHF) =  -394.541903660     A.U. after   15 cycles
 Normal termination of Gaussian 16 at Tue Apr  8 21:37:47 2025.
 Gaussian 16:  ES64L-G16RevC.01  3-Jul-2019

 ----------------------------------------------------------------------
 #t hf aug-cc-pvdz iop(5/13=1,5/36=2,99/5=2) pseudo=read geom=check gue
 ss=(read,tcheck) scf=(maxcycle=1)
 ----------------------------------------------------------------------
 -----
 title
 -----
 Structure from the checkpoint file:  "ANI1ccx_415_conf1_mol1.chk"
 Charge =  0 Multiplicity = 1

                         Standard orientation:
 ---------------------------------------------------------------------
 Center     Atomic      Atomic             Coordinates (Angstroms)
 Number     Number       Type             X           Y           Z
 ---------------------------------------------------------------------
      1          6           0        2.187070    0.337803   -0.043391
      2          1           0        1.434800   -1.549270    0.277065
      3          1           0        0.265818   -0.202506    0.303998
      4          1           0        1.765210    1.352000   -0.167179
      5          1           0       -1.588010    1.523850   -0.697148
      6          1           0       -3.043080   -1.124340   -0.037590
      7          7           0        1.198840   -0.568601    0.111962
      8          8           0        3.382900    0.095000   -0.093217
      9          8           0       -2.218570    1.166550   -0.041197
     10          8           0       -1.583360    0.016037    0.432110
     11          8           0       -2.124600   -1.033380   -0.323013
 ---------------------------------------------------------------------

 SCF Done:  E(RHF) =  -394.930374493     A.U. after    2 cycles

 The electronic state is 1-A.
 Alpha  occ. eigenvalues --  -20.72057 -20.66412 -20.65780 -20.50893 -15.52466
 Alpha  occ. eigenvalues --  -11.35684  -1.72514  -1.49042  -1.44752  -1.23289
 Alpha  occ. eigenvalues --   -1.21743  -0.86442  -0.82027  -0.77237  -0.73053
 Alpha  occ. eigenvalues --   -0.71445  -0.68553  -0.67078  -0.60696  -0.57904
 Alpha  occ. eigenvalues --   -0.54805  -0.53227  -0.50894  -0.43090  -0.42303
 Alpha virt. eigenvalues --    0.02888   0.03516   0.05007   0.06386   0.08083
 Alpha virt. eigenvalues --    0.10118   0.11646   0.12547   0.13105   0.15744
 Alpha virt. eigenvalues --    0.16143   0.16782   0.17423   0.17979   0.19091

 Mulliken charges:
               1
     1  C    0.436585
     2  H    0.097360
     3  H    0.036307
     4  H    0.056285
     5  H    0.435485
     6  H    0.469391
     7  N    0.509660
     8  O   -1.061340
     9  O   -0.548411
    10  O    0.154543
    11  O   -0.585865
 Sum of Mulliken charges =  -0.00000

 Dipole moment (field-independent basis, Debye):
    X=             -5.4221    Y=              0.3375    Z=             -0.1821  Tot=              5.4356

 Test job not archived.
 1\1\GINC-SE127\SP\RHF\Aug-CC-pVDZ\C1H5N1O4\OHZDE\08-Apr-2025\0\\#t hf
 aug-cc-pvdz iop(5/13=1,5/36=2,99/5=2) pseudo=read geom=check guess=(re
 ad,tcheck) scf=(maxcycle=1)\\title\\0,1\C,0,2.18707,0.337803,-0.043390
 6\H,0,1.4348,-1.54927,0.277065\H,0,0.265818,-0.202506,0.303998\H,0,1.7
 6521,1.352,-0.167179\H,0,-1.58801,1.52385,-0.697148\H,0,-3.04308,-1.12
 434,-0.0375899\N,0,1.19884,-0.568601,0.111962\O,0,3.3829,0.0950005,-0.
 0932174\O,0,-2.21857,1.16655,-0.0411967\O,0,-1.58336,0.0160371,0.43211
 \O,0,-2.1246,-1.03338,-0.323013\\Version=ES64L-G16RevC.01\State=1-A\HF

 Normal termination of Gaussian 16 at Tue Apr  8 21:37:51 2025.
