 Gaussian 16, Revision C.01,

 ----------------------------------------------------------------------
 #t hf aug-cc-pvdz symm=none int=(grid=ultrafine) guess=(read,tcheck) s
 table=(opt,rrhf)
 ----------------------------------------------------------------------
 -----
 title
 -----
 Symbolic Z-matrix:
 Charge =  0 Multiplicity = 1

 SCF Done:  E(RHF) =  -637.356264141     A.U. after   15 cycles
 Normal termination of Gaussian 16 at Tue Apr  8 19:54:27 2025.
 Gaussian 16:  ES64L-G16RevC.01  3-Jul-2019

 ----------------------------------------------------------------------
 #t hf aug-cc-pvdz iop(5/13=1,5/36=2,99/5=2) pseudo=read geom=check gue
 ss=(read,tcheck) scf=(maxcycle=1)
 ----------------------------------------------------------------------
 -----
 title
 -----
 Structure from the checkpoint file:  "ANI1ccx_1522_conf2_mol2.chk"
 Charge =  0 Multiplicity = 1

                         Standard orientation:
 ---------------------------------------------------------------------
 Center     Atomic      Atomic             Coordinates (Angstroms)
 Number     Number       Type             X           Y           Z
 ---------------------------------------------------------------------
      1          6           0        1.606342    0.678867    0.018169
      2          6           0        2.392468   -1.480734   -0.192921
      3          6           0        0.135599   -1.171370    0.006718
      4          6           0       -2.117421   -1.174056    0.650146
      5          6           0       -2.780319   -0.234847   -0.361144
      6          6           0       -0.797055    1.246951   -0.037024
      7          6           0        0.250108    0.221722   -0.042395
      8          1           0       -2.630046    1.874215   -0.526100
      9          1           0       -2.761900   -0.738168   -1.342100
     10          1           0       -3.815139   -0.041250   -0.126107
     11          1           0       -2.796523   -1.984345    0.813955
     12          1           0       -1.836870   -0.706865    1.582060
     13          1           0        3.183407   -2.177416   -0.421976
     14          1           0        2.971015    2.118135    0.202154
     15          1           0        1.298486    2.647248    0.384796
     16          7           0        1.981194    1.957127    0.146339
     17          7           0        2.680291   -0.206722   -0.094873
     18          7           0        1.196147   -1.986492   -0.080428
     19          7           0       -2.077577    1.049474   -0.464547
     20          8           0       -0.988210   -1.878278    0.096533
     21          8           0       -0.538184    2.477721    0.233291
 ---------------------------------------------------------------------

 SCF Done:  E(RHF) =  -637.995020174     A.U. after    2 cycles

 The electronic state is 1-A.
 Alpha  occ. eigenvalues --  -20.60540 -20.51131 -15.53850 -15.52020 -15.48987
 Alpha  occ. eigenvalues --  -15.48057 -11.38423 -11.37914 -11.35937 -11.32488
 Alpha  occ. eigenvalues --  -11.31860 -11.30512 -11.26311  -1.54437  -1.43751
 Alpha  occ. eigenvalues --   -1.31398  -1.25374  -1.24706  -1.16441  -1.09510
 Alpha  occ. eigenvalues --   -1.05162  -0.96828  -0.91395  -0.88447  -0.85295
 Alpha  occ. eigenvalues --   -0.80284  -0.77630  -0.74683  -0.73738  -0.70582
 Alpha  occ. eigenvalues --   -0.68459  -0.67038  -0.65600  -0.64470  -0.63158
 Alpha  occ. eigenvalues --   -0.61409  -0.59064  -0.55902  -0.55120  -0.53429
 Alpha  occ. eigenvalues --   -0.51466  -0.49485  -0.45835  -0.43832  -0.42373
 Alpha  occ. eigenvalues --   -0.40452  -0.37678
 Alpha virt. eigenvalues --    0.02512   0.03768   0.04072   0.04205   0.05210
 Alpha virt. eigenvalues --    0.05544   0.06401   0.07269   0.07575   0.09155
 Alpha virt. eigenvalues --    0.09664   0.10264   0.10967   0.11190   0.11409

 Mulliken charges:
               1
     1  C   -3.642677
     2  C   -0.560200
     3  C   -0.012503
     4  C    0.385801
     5  C   -0.320314
     6  C    0.151274
     7  C    2.343048
     8  H    0.099378
     9  H    0.144494
    10  H    0.009902
    11  H   -0.061314
    12  H    0.226738
    13  H   -0.092959
    14  H    0.024911
    15  H    0.220905
    16  N    1.232329
    17  N    1.229758
    18  N    1.103482
    19  N    0.889061
    20  O   -1.673114
    21  O   -1.698001
 Sum of Mulliken charges =  -0.00000

 Dipole moment (field-independent basis, Debye):
    X=             -3.9191    Y=              0.1704    Z=              0.5708  Tot=              3.9641

 Test job not archived.
 1\1\GINC-SE081\SP\RHF\Aug-CC-pVDZ\C7H8N4O2\OHZDE\08-Apr-2025\0\\#t hf
 aug-cc-pvdz iop(5/13=1,5/36=2,99/5=2) pseudo=read geom=check guess=(re
 ad,tcheck) scf=(maxcycle=1)\\title\\0,1\C,0,1.60634,0.67887,0.0181693\
 C,0,2.39247,-1.48073,-0.192921\C,0,0.1356,-1.17137,0.00671786\C,0,-2.1
 1742,-1.17406,0.650146\C,0,-2.78032,-0.234852,-0.361144\C,0,-0.797058,
 1.24695,-0.0370242\C,0,0.250107,0.221722,-0.0423951\H,0,-2.63005,1.874
 21,-0.5261\H,0,-2.7619,-0.738173,-1.3421\H,0,-3.81514,-0.0412569,-0.12
 6107\H,0,-2.79652,-1.98435,0.813955\H,0,-1.83687,-0.706868,1.58206\H,0

 Normal termination of Gaussian 16 at Tue Apr  8 19:54:44 2025.
