 Gaussian 16, Revision C.01,

 ----------------------------------------------------------------------
 #t hf aug-cc-pvdz symm=none int=(grid=ultrafine) guess=(read,tcheck) s
 table=(opt,rrhf)
 ----------------------------------------------------------------------
 -----
 title
 -----
 Symbolic Z-matrix:
 Charge =  0 Multiplicity = 1

 SCF Done:  E(RHF) =  -222.377689583     A.U. after   12 cycles
 Normal termination of Gaussian 16 at Tue Apr  8 21:13:24 2025.
 Gaussian 16:  ES64L-G16RevC.01  3-Jul-2019

 ----------------------------------------------------------------------
 #t hf aug-cc-pvdz iop(5/13=1,5/36=2,99/5=2) pseudo=read geom=check gue
 ss=(read,tcheck) scf=(maxcycle=1)
 ----------------------------------------------------------------------
 -----
 title
 -----
 Structure from the checkpoint file:  "ANI1ccx_1903_conf9_mol1.chk"
 Charge =  0 Multiplicity = 1

                         Standard orientation:
 ---------------------------------------------------------------------
 Center     Atomic      Atomic             Coordinates (Angstroms)
 Number     Number       Type             X           Y           Z
 ---------------------------------------------------------------------
      1          1           0       -2.974290   -0.307409   -0.796249
      2          1           0       -2.979840    0.438738    0.659527
      3          1           0       -1.136360   -1.119930    0.770343
      4          1           0       -0.448154    0.382195    0.442062
      5          1           0        2.247540   -1.033301    0.700810
      6          1           0        0.965334   -1.059130   -0.414076
      7          1           0        1.747641    1.295650   -0.799457
      8          1           0        2.355871    1.203069    0.654108
      9          7           0       -2.368060    0.303245   -0.152352
     10          7           0       -1.093990   -0.345094    0.136971
     11          7           0        1.842060   -0.669943   -0.219783
     12          7           0        1.651740    0.740381    0.061298
 ---------------------------------------------------------------------

 SCF Done:  E(RHF) =  -222.616746508     A.U. after    2 cycles

 The electronic state is 1-A.
 Alpha  occ. eigenvalues --  -15.51544 -15.51379 -15.50968 -15.49939  -1.24285
 Alpha  occ. eigenvalues --   -1.22263  -1.02853  -1.01780  -0.73085  -0.71260
 Alpha  occ. eigenvalues --   -0.68568  -0.67173  -0.64364  -0.61579  -0.54189
 Alpha  occ. eigenvalues --   -0.46155  -0.43780  -0.39834
 Alpha virt. eigenvalues --    0.03152   0.04634   0.05329   0.06286   0.06571
 Alpha virt. eigenvalues --    0.07014   0.07997   0.09002   0.14868   0.16117
 Alpha virt. eigenvalues --    0.16364   0.16813   0.17513   0.18049   0.18851

 Mulliken charges:
               1
     1  H    0.127098
     2  H    0.097003
     3  H    0.122766
     4  H    0.071803
     5  H    0.202453
     6  H   -0.010657
     7  H    0.121782
     8  H    0.115039
     9  N   -0.355997
    10  N   -0.114157
    11  N   -0.021748
    12  N   -0.355386
 Sum of Mulliken charges =   0.00000

 Dipole moment (field-independent basis, Debye):
    X=             -0.1829    Y=             -0.5402    Z=              2.3771  Tot=              2.4446

 Test job not archived.
 1\1\GINC-SE043\SP\RHF\Aug-CC-pVDZ\H8N4\OHZDE\08-Apr-2025\0\\#t hf aug-
 cc-pvdz iop(5/13=1,5/36=2,99/5=2) pseudo=read geom=check guess=(read,t
 check) scf=(maxcycle=1)\\title\\0,1\H,0,-2.97429,-0.30741,-0.796249\H,
 0,-2.97984,0.438737,0.659527\H,0,-1.13636,-1.11993,0.770343\H,0,-0.448
 154,0.382195,0.442062\H,0,2.24754,-1.0333,0.70081\H,0,0.965334,-1.0591
 3,-0.414076\H,0,1.74764,1.29565,-0.799457\H,0,2.35587,1.20307,0.654108
 \N,0,-2.36806,0.303244,-0.152352\N,0,-1.09399,-0.345094,0.136971\N,0,1
 .84206,-0.669943,-0.219783\N,0,1.65174,0.740381,0.0612976\\Version=ES6

 Normal termination of Gaussian 16 at Tue Apr  8 21:13:28 2025.
