 Gaussian 16, Revision C.01,

 ----------------------------------------------------------------------
 #t hf aug-cc-pvdz symm=none int=(grid=ultrafine) guess=(read,tcheck) s
 table=(opt,rrhf)
 ----------------------------------------------------------------------
 -----
 title
 -----
 Symbolic Z-matrix:
 Charge =  0 Multiplicity = 1

 SCF Done:  E(RHF) =  -559.965193253     A.U. after   14 cycles
 Normal termination of Gaussian 16 at Tue Apr  8 21:43:04 2025.
 Gaussian 16:  ES64L-G16RevC.01  3-Jul-2019

 ----------------------------------------------------------------------
 #t hf aug-cc-pvdz iop(5/13=1,5/36=2,99/5=2) pseudo=read geom=check gue
 ss=(read,tcheck) scf=(maxcycle=1)
 ----------------------------------------------------------------------
 -----
 title
 -----
 Structure from the checkpoint file:  "ANI1ccx_485_conf4_mol1.chk"
 Charge =  0 Multiplicity = 1

                         Standard orientation:
 ---------------------------------------------------------------------
 Center     Atomic      Atomic             Coordinates (Angstroms)
 Number     Number       Type             X           Y           Z
 ---------------------------------------------------------------------
      1          6           0       -1.051782   -0.709542   -0.201085
      2          6           0        1.139768   -0.620289    0.232956
      3          1           0        1.269584    2.448536   -0.320635
      4          1           0       -2.444348    1.273593    1.000840
      5          7           0        0.631570    0.626000    0.256669
      6          7           0       -0.684148    0.633745   -0.123774
      7          8           0        1.451622    1.385066   -0.558823
      8          8           0       -1.527048    1.649081    0.306861
      9          8           0       -2.186233   -1.211858   -0.137108
     10          8           0        0.085183   -1.520812   -0.173843
     11          8           0        2.303338   -0.871647    0.337701
 ---------------------------------------------------------------------

 SCF Done:  E(RHF) =  -560.503096058     A.U. after    2 cycles

 The electronic state is 1-A.
 Alpha  occ. eigenvalues --  -20.67651 -20.67382 -20.65268 -20.58681 -20.57734
 Alpha  occ. eigenvalues --  -15.67591 -15.66603 -11.48029 -11.47311  -1.63157
 Alpha  occ. eigenvalues --   -1.56348  -1.54487  -1.51685  -1.47956  -1.33624
 Alpha  occ. eigenvalues --   -1.14407  -0.97912  -0.89502  -0.83241  -0.81254
 Alpha  occ. eigenvalues --   -0.76053  -0.71337  -0.69569  -0.68859  -0.67383
 Alpha  occ. eigenvalues --   -0.65689  -0.61157  -0.58372  -0.57241  -0.53777
 Alpha  occ. eigenvalues --   -0.52607  -0.50092  -0.48194  -0.44960
 Alpha virt. eigenvalues --    0.01745   0.03246   0.07947   0.08594   0.09337
 Alpha virt. eigenvalues --    0.09473   0.09798   0.10413   0.11077   0.11457
 Alpha virt. eigenvalues --    0.11556   0.14304   0.15148   0.16158   0.16852

 Mulliken charges:
               1
     1  C    1.563540
     2  C    1.559663
     3  H    0.439025
     4  H    0.492413
     5  N    1.010226
     6  N    1.128002
     7  O   -1.327477
     8  O   -1.398084
     9  O   -1.159684
    10  O   -1.224499
    11  O   -1.083125
 Sum of Mulliken charges =  -0.00000

 Dipole moment (field-independent basis, Debye):
    X=             -1.4719    Y=              3.9503    Z=              1.3809  Tot=              4.4360

 Test job not archived.
 1\1\GINC-SE109\SP\RHF\Aug-CC-pVDZ\C2H2N2O5\OHZDE\08-Apr-2025\0\\#t hf
 aug-cc-pvdz iop(5/13=1,5/36=2,99/5=2) pseudo=read geom=check guess=(re
 ad,tcheck) scf=(maxcycle=1)\\title\\0,1\C,0,-1.05178,-0.709542,-0.2010
 85\C,0,1.13977,-0.620285,0.232956\H,0,1.26958,2.44854,-0.320635\H,0,-2
 .44435,1.27359,1.00084\N,0,0.631569,0.626003,0.256669\N,0,-0.684149,0.
 633745,-0.123774\O,0,1.45162,1.38507,-0.558823\O,0,-1.52705,1.64908,0.
 306861\O,0,-2.18623,-1.21186,-0.137108\O,0,0.0851871,-1.52081,-0.17384
 3\O,0,2.30334,-0.871641,0.337701\\Version=ES64L-G16RevC.01\State=1-A\H

 Normal termination of Gaussian 16 at Tue Apr  8 21:43:10 2025.
