 Gaussian 16, Revision C.01,

 ----------------------------------------------------------------------
 #t hf aug-cc-pvdz symm=none int=(grid=ultrafine) guess=(read,tcheck) s
 table=(opt,rrhf)
 ----------------------------------------------------------------------
 -----
 title
 -----
 Symbolic Z-matrix:
 Charge =  0 Multiplicity = 1

 SCF Done:  E(RHF) =  -814.734103703     A.U. after   15 cycles
 Normal termination of Gaussian 16 at Tue Apr  8 21:11:38 2025.
 Gaussian 16:  ES64L-G16RevC.01  3-Jul-2019

 ----------------------------------------------------------------------
 #t hf aug-cc-pvdz iop(5/13=1,5/36=2,99/5=2) pseudo=read geom=check gue
 ss=(read,tcheck) scf=(maxcycle=1)
 ----------------------------------------------------------------------
 -----
 title
 -----
 Structure from the checkpoint file:  "ANI1ccx_1785_conf17_mol1.chk"
 Charge =  0 Multiplicity = 1

                         Standard orientation:
 ---------------------------------------------------------------------
 Center     Atomic      Atomic             Coordinates (Angstroms)
 Number     Number       Type             X           Y           Z
 ---------------------------------------------------------------------
      1          6           0       -3.052550    0.760843    0.161040
      2          6           0        2.898540    0.986976    0.663373
      3          6           0        1.738510    1.881000    0.221778
      4          6           0        0.728090    1.271730   -0.777349
      5          6           0        3.772700    0.431127   -0.455236
      6          6           0       -0.091118    0.132455   -0.251923
      7          6           0       -3.781510   -0.266146   -0.692780
      8          6           0       -2.117750   -0.081265    1.122691
      9          6           0        0.855806   -1.065850   -0.116940
     10          1           0        1.252110    2.311040    1.103541
     11          1           0        1.808121   -2.251530   -1.030239
     12          1           0        4.919420   -0.758252    0.786977
     13          1           0        3.836651   -1.544759    0.007919
     14          1           0        3.140840    0.081242   -1.298919
     15          1           0        4.483680    1.136791   -0.825830
     16          1           0        2.604940    0.053491    1.210981
     17          1           0        3.497060    1.646981    1.291701
     18          1           0        2.108070    2.833430   -0.250688
     19          1           0        0.051562    1.951380   -1.320439
     20          1           0       -0.740900   -0.257157   -1.072669
     21          1           0       -0.279013   -0.355674    1.783141
     22          1           0       -3.130969   -1.471501   -2.053839
     23          1           0       -4.273510    0.291894   -1.544109
     24          1           0       -4.617770   -0.663415   -0.085432
     25          1           0       -3.732300    1.199869    0.903177
     26          1           0       -2.847270    2.394749   -1.108509
     27          1           0       -1.572080    2.155979   -0.154811
     28          1           0        1.221650    0.771930   -1.667889
     29          7           0       -2.269790    1.665569   -0.666329
     30          7           0       -0.782468    0.252249    1.102221
     31          7           0        4.566100   -0.845717   -0.120528
     32          8           0        1.244591   -1.441710    1.002151
     33          8           0       -2.548140   -0.877441    1.891761
     34          8           0       -2.828389   -1.197191   -1.169659
     35          8           0        1.128001   -1.650710   -1.240439
 ---------------------------------------------------------------------

 SCF Done:  E(RHF) =  -815.570144793     A.U. after    2 cycles

 The electronic state is 1-A.
 Alpha  occ. eigenvalues --  -20.63073 -20.56824 -20.54349 -20.51407 -15.51408
 Alpha  occ. eigenvalues --  -15.50118 -15.48246 -11.40572 -11.35022 -11.30320
 Alpha  occ. eigenvalues --  -11.29388 -11.28451 -11.25592 -11.24848 -11.24394
 Alpha  occ. eigenvalues --  -11.22544  -1.59860  -1.48109  -1.46622  -1.45783
 Alpha  occ. eigenvalues --   -1.23509  -1.19404  -1.17180  -1.09667  -1.03203
 Alpha  occ. eigenvalues --   -1.01348  -0.94697  -0.88510  -0.88462  -0.83890
 Alpha  occ. eigenvalues --   -0.80032  -0.77455  -0.74460  -0.72719  -0.72356
 Alpha  occ. eigenvalues --   -0.72235  -0.70243  -0.68632  -0.67097  -0.65068
 Alpha  occ. eigenvalues --   -0.64843  -0.63044  -0.62464  -0.61796  -0.60567
 Alpha  occ. eigenvalues --   -0.59653  -0.58885  -0.57779  -0.56902  -0.55036
 Alpha  occ. eigenvalues --   -0.53502  -0.52476  -0.51874  -0.50801  -0.49610
 Alpha  occ. eigenvalues --   -0.47631  -0.46051  -0.45520  -0.45055  -0.44077
 Alpha  occ. eigenvalues --   -0.43192  -0.42780  -0.41097
 Alpha virt. eigenvalues --    0.02436   0.02996   0.03472   0.03672   0.04016
 Alpha virt. eigenvalues --    0.04361   0.04793   0.05748   0.06263   0.06809
 Alpha virt. eigenvalues --    0.07188   0.07671   0.07974   0.09158   0.09724

 Mulliken charges:
               1
     1  C   -1.738376
     2  C   -0.219864
     3  C   -0.059312
     4  C   -0.398554
     5  C   -0.986568
     6  C   -1.755748
     7  C    0.901618
     8  C    1.450877
     9  C    2.901452
    10  H    0.091863
    11  H    0.284476
    12  H    0.156077
    13  H    0.066044
    14  H    0.238730
    15  H   -0.056468
    16  H    0.287661
    17  H    0.103734
    18  H    0.165524
    19  H    0.102249
    20  H    0.598099
    21  H    0.209603
    22  H    0.328143
    23  H    0.180634
    24  H    0.200151
    25  H    0.189825
    26  H    0.247838
    27  H    0.099183
    28  H    0.327556
    29  N    0.633985
    30  N    1.015288
    31  N    0.320516
    32  O   -1.556246
    33  O   -1.625256
    34  O   -1.208685
    35  O   -1.496047
 Sum of Mulliken charges =  -0.00000

 Dipole moment (field-independent basis, Debye):
    X=             -2.1687    Y=              3.1637    Z=             -3.7926  Tot=              5.3940

 Test job not archived.
 1\1\GINC-SE460\SP\RHF\Aug-CC-pVDZ\C9H19N3O4\OHZDE\08-Apr-2025\0\\#t hf
  aug-cc-pvdz iop(5/13=1,5/36=2,99/5=2) pseudo=read geom=check guess=(r
 ead,tcheck) scf=(maxcycle=1)\\title\\0,1\C,0,-3.05255,0.760844,0.16103
 9\C,0,2.89854,0.986976,0.663372\C,0,1.73851,1.881,0.221777\C,0,0.72809
 ,1.27173,-0.77735\C,0,3.7727,0.431126,-0.455237\C,0,-0.0911186,0.13245
 5,-0.251924\C,0,-3.78151,-0.266145,-0.692781\C,0,-2.11775,-0.0812641,1
 .12269\C,0,0.855806,-1.06585,-0.116941\H,0,1.25211,2.31104,1.10354\H,0
 ,1.80812,-2.25153,-1.03024\H,0,4.91942,-0.758253,0.786976\H,0,3.83665,

 Normal termination of Gaussian 16 at Tue Apr  8 21:12:30 2025.
