 Gaussian 16, Revision C.01,

 ----------------------------------------------------------------------
 #t hf aug-cc-pvdz symm=none int=(grid=ultrafine) guess=(read,tcheck) s
 table=(opt,rrhf)
 ----------------------------------------------------------------------
 -----
 title
 -----
 Symbolic Z-matrix:
 Charge =  0 Multiplicity = 1

 SCF Done:  E(RHF) =  -460.010340718     A.U. after   12 cycles

 1\1\GINC-SE051\Stability\RHF\Aug-CC-pVDZ\C6H14O3\OHZDE\08-Apr-2025\0\\
 #t hf aug-cc-pvdz symm=none int=(grid=ultrafine) guess=(read,tcheck) s
 table=(opt,rrhf)\\title\\0,1\C,0,-2.63351,-0.979321,1.0034\C,0,-2.3223
 3,0.367799,0.405994\C,0,-1.11208,0.389283,-0.508771\C,0,1.09596,-0.357
 587,-0.527528\C,0,2.32318,-0.387907,0.395065\C,0,2.6363,0.953143,1.039
 57\H,0,2.79757,1.65097,0.208151\H,0,3.50305,0.974404,1.70511\H,0,1.769
 28,1.31447,1.59951\H,0,2.11031,-1.09062,1.21838\H,0,3.13037,-0.826434,
 -0.204399\H,0,0.826704,-2.29128,-0.469719\H,0,1.23702,0.40424,-1.31898

 Normal termination of Gaussian 16 at Tue Apr  8 19:25:47 2025.
 Gaussian 16:  ES64L-G16RevC.01  3-Jul-2019

 ----------------------------------------------------------------------
 #t hf aug-cc-pvdz iop(5/13=1,5/36=2,99/5=2) pseudo=read geom=check gue
 ss=(read,tcheck) scf=(maxcycle=1)
 ----------------------------------------------------------------------
 -----
 title
 -----
 Structure from the checkpoint file:  "ANI1ccx_1253_conf1_mol2.chk"
 Charge =  0 Multiplicity = 1

                         Standard orientation:
 ---------------------------------------------------------------------
 Center     Atomic      Atomic             Coordinates (Angstroms)
 Number     Number       Type             X           Y           Z
 ---------------------------------------------------------------------
      1          6           0       -2.633511   -0.979322    1.003400
      2          6           0       -2.322331    0.367798    0.405994
      3          6           0       -1.112081    0.389282   -0.508771
      4          6           0        1.095959   -0.357587   -0.527528
      5          6           0        2.323179   -0.387907    0.395065
      6          6           0        2.636299    0.953143    1.039570
      7          1           0        2.797569    1.650970    0.208151
      8          1           0        3.503049    0.974404    1.705110
      9          1           0        1.769279    1.314470    1.599510
     10          1           0        2.110310   -1.090620    1.218380
     11          1           0        3.130369   -0.826434   -0.204399
     12          1           0        0.826704   -2.291280   -0.469719
     13          1           0        1.237019    0.404240   -1.318980
     14          1           0       -1.219341   -0.352799   -1.332930
     15          1           0       -2.054711    1.056859    1.201880
     16          1           0       -3.218351    0.745135   -0.107675
     17          1           0       -1.753830   -1.379861    1.530840
     18          1           0       -3.503131   -0.930656    1.662160
     19          1           0       -2.801440   -1.692991    0.198836
     20          1           0       -0.716513    2.330599   -0.480671
     21          8           0       -0.030237   -0.005339    0.251750
     22          8           0       -0.898071    1.643589   -1.132120
     23          8           0        0.924299   -1.616310   -1.151740
 ---------------------------------------------------------------------

 SCF Done:  E(RHF) =  -460.493463560     A.U. after    2 cycles

 The electronic state is 1-A.
 Alpha  occ. eigenvalues --  -20.55599 -20.55410 -20.55239 -11.34164 -11.33539
 Alpha  occ. eigenvalues --  -11.23564 -11.22857 -11.22853 -11.22410  -1.52486
 Alpha  occ. eigenvalues --   -1.45886  -1.42209  -1.07624  -1.04437  -0.93765
 Alpha  occ. eigenvalues --   -0.89393  -0.83236  -0.81870  -0.74693  -0.69824
 Alpha  occ. eigenvalues --   -0.65967  -0.65398  -0.61694  -0.61536  -0.60473
 Alpha  occ. eigenvalues --   -0.59444  -0.57452  -0.55307  -0.52920  -0.51571
 Alpha  occ. eigenvalues --   -0.49993  -0.49395  -0.48624  -0.48027  -0.45917
 Alpha  occ. eigenvalues --   -0.45035  -0.44105
 Alpha virt. eigenvalues --    0.03328   0.03502   0.03748   0.04474   0.05178
 Alpha virt. eigenvalues --    0.05611   0.05813   0.06780   0.07248   0.08403
 Alpha virt. eigenvalues --    0.08621   0.09254   0.09316   0.09823   0.13873

 Mulliken charges:
               1
     1  C   -0.306049
     2  C   -0.595036
     3  C    1.689100
     4  C    1.694393
     5  C   -0.615215
     6  C   -0.275919
     7  H    0.212318
     8  H    0.064315
     9  H    0.266049
    10  H    0.236294
    11  H    0.178519
    12  H    0.267098
    13  H    0.207863
    14  H    0.249967
    15  H    0.233394
    16  H    0.182642
    17  H    0.265274
    18  H    0.096699
    19  H    0.170547
    20  H    0.235792
    21  O   -1.829990
    22  O   -1.308052
    23  O   -1.320004
 Sum of Mulliken charges =   0.00000

 Dipole moment (field-independent basis, Debye):
    X=              0.2298    Y=              0.0123    Z=              2.0499  Tot=              2.0628

 Test job not archived.
 1\1\GINC-SE051\SP\RHF\Aug-CC-pVDZ\C6H14O3\OHZDE\08-Apr-2025\0\\#t hf a
 ug-cc-pvdz iop(5/13=1,5/36=2,99/5=2) pseudo=read geom=check guess=(rea
 d,tcheck) scf=(maxcycle=1)\\title\\0,1\C,0,-2.63351,-0.979321,1.0034\C
 ,0,-2.32233,0.367799,0.405994\C,0,-1.11208,0.389283,-0.508771\C,0,1.09
 596,-0.357587,-0.527528\C,0,2.32318,-0.387907,0.395065\C,0,2.6363,0.95
 3143,1.03957\H,0,2.79757,1.65097,0.208151\H,0,3.50305,0.974404,1.70511
 \H,0,1.76928,1.31447,1.59951\H,0,2.11031,-1.09062,1.21838\H,0,3.13037,
 -0.826434,-0.204399\H,0,0.826704,-2.29128,-0.469719\H,0,1.23702,0.4042

 Normal termination of Gaussian 16 at Tue Apr  8 19:26:00 2025.
