 Gaussian 16, Revision C.01,

 ----------------------------------------------------------------------
 #t hf aug-cc-pvdz symm=none int=(grid=ultrafine) guess=(read,tcheck) s
 table=(opt,rrhf)
 ----------------------------------------------------------------------
 -----
 title
 -----
 Symbolic Z-matrix:
 Charge =  0 Multiplicity = 1

 SCF Done:  E(RHF) =  -489.695641825     A.U. after   14 cycles
 Normal termination of Gaussian 16 at Tue Apr  8 22:14:12 2025.
 Gaussian 16:  ES64L-G16RevC.01  3-Jul-2019

 ----------------------------------------------------------------------
 #t hf aug-cc-pvdz iop(5/13=1,5/36=2,99/5=2) pseudo=read geom=check gue
 ss=(read,tcheck) scf=(maxcycle=1)
 ----------------------------------------------------------------------
 -----
 title
 -----
 Structure from the checkpoint file:  "ANI1ccx_957_conf23_mol1.chk"
 Charge =  0 Multiplicity = 1

                         Standard orientation:
 ---------------------------------------------------------------------
 Center     Atomic      Atomic             Coordinates (Angstroms)
 Number     Number       Type             X           Y           Z
 ---------------------------------------------------------------------
      1          6           0       -0.706998    0.302598   -0.922273
      2          6           0       -1.431509   -0.588670    0.133127
      3          6           0        0.799636   -0.180981   -1.157600
      4          6           0        1.705681   -0.130547    0.056122
      5          1           0       -1.458309    0.998766    0.990206
      6          1           0        2.017041    0.728738    1.856940
      7          1           0        0.528678    1.172669    1.250610
      8          1           0        1.294641    0.457510   -1.950330
      9          1           0       -1.187349    0.152071   -1.908580
     10          1           0       -0.086292    2.281249   -0.841494
     11          1           0       -1.617539    2.169250   -0.830187
     12          1           0        0.838687   -1.186371   -1.607040
     13          7           0       -0.837381    1.688630   -0.570793
     14          7           0        1.373741    0.758864    1.095340
     15          8           0        2.652551   -0.847635    0.126319
     16          8           0       -1.678549   -1.772000   -0.076476
     17          8           0       -1.759619    0.079544    1.289130
 ---------------------------------------------------------------------

 SCF Done:  E(RHF) =  -490.190622231     A.U. after    2 cycles

 The electronic state is 1-A.
 Alpha  occ. eigenvalues --  -20.60654 -20.54447 -20.52519 -15.54149 -15.52494
 Alpha  occ. eigenvalues --  -11.40820 -11.37624 -11.33147 -11.28931  -1.53149
 Alpha  occ. eigenvalues --   -1.49059  -1.44823  -1.26653  -1.22202  -1.06703
 Alpha  occ. eigenvalues --   -0.96041  -0.84530  -0.80890  -0.79124  -0.78381
 Alpha  occ. eigenvalues --   -0.73381  -0.72469  -0.67680  -0.65173  -0.64427
 Alpha  occ. eigenvalues --   -0.62156  -0.61061  -0.57694  -0.56925  -0.54618
 Alpha  occ. eigenvalues --   -0.50440  -0.46966  -0.45248  -0.44006  -0.43449
 Alpha virt. eigenvalues --    0.01471   0.03558   0.03688   0.04415   0.05663
 Alpha virt. eigenvalues --    0.06695   0.06967   0.08157   0.09836   0.10834
 Alpha virt. eigenvalues --    0.11100   0.11681   0.12704   0.13590   0.13977

 Mulliken charges:
               1
     1  C   -1.715456
     2  C    2.511545
     3  C   -0.283482
     4  C    0.463477
     5  H    0.694836
     6  H    0.130362
     7  H   -0.091800
     8  H    0.303828
     9  H    0.252296
    10  H    0.283713
    11  H    0.150074
    12  H    0.158005
    13  N    0.356592
    14  N    0.696523
    15  O   -1.248337
    16  O   -1.327117
    17  O   -1.335056
 Sum of Mulliken charges =  -0.00000

 Dipole moment (field-independent basis, Debye):
    X=             -0.8306    Y=              6.4004    Z=             -2.4150  Tot=              6.8912

 Test job not archived.
 1\1\GINC-SE109\SP\RHF\Aug-CC-pVDZ\C4H8N2O3\OHZDE\08-Apr-2025\0\\#t hf
 aug-cc-pvdz iop(5/13=1,5/36=2,99/5=2) pseudo=read geom=check guess=(re
 ad,tcheck) scf=(maxcycle=1)\\title\\0,1\C,0,-0.706999,0.302598,-0.9222
 73\C,0,-1.43151,-0.58867,0.133127\C,0,0.799635,-0.18098,-1.1576\C,0,1.
 70568,-0.130546,0.0561221\H,0,-1.45831,0.998766,0.990206\H,0,2.01704,0
 .728739,1.85694\H,0,0.528677,1.17267,1.25061\H,0,1.29464,0.457511,-1.9
 5033\H,0,-1.18735,0.152071,-1.90858\H,0,-0.0862933,2.28125,-0.841494\H
 ,0,-1.61754,2.16925,-0.830187\H,0,0.838686,-1.18637,-1.60704\N,0,-0.83

 Normal termination of Gaussian 16 at Tue Apr  8 22:14:21 2025.
