 Gaussian 16, Revision C.01,

 ----------------------------------------------------------------------
 #t hf aug-cc-pvdz symm=none int=(grid=ultrafine) guess=(read,tcheck) s
 table=(opt,rrhf)
 ----------------------------------------------------------------------
 -----
 title
 -----
 Symbolic Z-matrix:
 Charge =  0 Multiplicity = 1

 SCF Done:  E(RHF) =  -371.291348680     A.U. after   14 cycles
 Normal termination of Gaussian 16 at Tue Apr  8 21:39:42 2025.
 Gaussian 16:  ES64L-G16RevC.01  3-Jul-2019

 ----------------------------------------------------------------------
 #t hf aug-cc-pvdz iop(5/13=1,5/36=2,99/5=2) pseudo=read geom=check gue
 ss=(read,tcheck) scf=(maxcycle=1)
 ----------------------------------------------------------------------
 -----
 title
 -----
 Structure from the checkpoint file:  "ANI1ccx_455_conf10_mol2.chk"
 Charge =  0 Multiplicity = 1

                         Standard orientation:
 ---------------------------------------------------------------------
 Center     Atomic      Atomic             Coordinates (Angstroms)
 Number     Number       Type             X           Y           Z
 ---------------------------------------------------------------------
      1          6           0        0.767181    0.017705    0.004735
      2          7           0       -1.367450   -0.624894   -0.010779
      3          7           0       -1.378770    0.604672   -0.017354
      4          8           0        1.950530   -0.007233   -0.017518
      5          8           0       -0.055211   -1.075220    0.017962
      6          8           0       -0.067762    1.086870    0.020621
 ---------------------------------------------------------------------

 SCF Done:  E(RHF) =  -371.645881215     A.U. after    2 cycles

 The electronic state is 1-A.
 Alpha  occ. eigenvalues --  -20.70747 -20.70485 -20.59363 -15.71339 -15.70884
 Alpha  occ. eigenvalues --  -11.50211  -1.73278  -1.58387  -1.55060  -1.39921
 Alpha  occ. eigenvalues --   -1.01932  -0.97769  -0.82475  -0.81409  -0.72209
 Alpha  occ. eigenvalues --   -0.69454  -0.67620  -0.64205  -0.63492  -0.61556
 Alpha  occ. eigenvalues --   -0.51494  -0.50161
 Alpha virt. eigenvalues --    0.02617   0.06559   0.08781   0.08981   0.09239
 Alpha virt. eigenvalues --    0.11698   0.12715   0.14408   0.15589   0.16831
 Alpha virt. eigenvalues --    0.17648   0.18336   0.18771   0.22451   0.24896

 Mulliken charges:
               1
     1  C    1.966776
     2  N    0.678191
     3  N    0.653200
     4  O   -0.956799
     5  O   -1.178359
     6  O   -1.163009
 Sum of Mulliken charges =  -0.00000

 Dipole moment (field-independent basis, Debye):
    X=             -1.0792    Y=              0.0481    Z=              0.0425  Tot=              1.0811

 Test job not archived.
 1\1\GINC-SE331\SP\RHF\Aug-CC-pVDZ\C1N2O3\OHZDE\08-Apr-2025\0\\#t hf au
 g-cc-pvdz iop(5/13=1,5/36=2,99/5=2) pseudo=read geom=check guess=(read
 ,tcheck) scf=(maxcycle=1)\\title\\0,1\C,0,0.767181,0.0177046,0.0047352
 7\N,0,-1.36745,-0.624893,-0.0107786\N,0,-1.37877,0.604673,-0.0173544\O
 ,0,1.95053,-0.00723447,-0.0175179\O,0,-0.0552116,-1.07522,0.0179621\O,
 0,-0.0677616,1.08687,0.0206207\\Version=ES64L-G16RevC.01\State=1-A\HF=
 -371.6458812\RMSD=2.984e-02\Dipole=-0.424579,0.0189389,0.0167312\Quadr
 upole=-3.3529492,0.5223017,2.8306475,0.0741529,0.0310477,-0.0008212\PG

 Normal termination of Gaussian 16 at Tue Apr  8 21:39:43 2025.
