 Gaussian 16, Revision C.01,

 ----------------------------------------------------------------------
 #t hf aug-cc-pvdz symm=none int=(grid=ultrafine) guess=(read,tcheck) s
 table=(opt,rrhf)
 ----------------------------------------------------------------------
 -----
 title
 -----
 Symbolic Z-matrix:
 Charge =  0 Multiplicity = 1

 SCF Done:  E(RHF) =  -352.358527414     A.U. after   16 cycles
 Normal termination of Gaussian 16 at Tue Apr  8 21:48:53 2025.
 Gaussian 16:  ES64L-G16RevC.01  3-Jul-2019

 ----------------------------------------------------------------------
 #t hf aug-cc-pvdz iop(5/13=1,5/36=2,99/5=2) pseudo=read geom=check gue
 ss=(read,tcheck) scf=(maxcycle=1)
 ----------------------------------------------------------------------
 -----
 title
 -----
 Structure from the checkpoint file:  "ANI1ccx_648_conf2_mol2.chk"
 Charge =  0 Multiplicity = 1

                         Standard orientation:
 ---------------------------------------------------------------------
 Center     Atomic      Atomic             Coordinates (Angstroms)
 Number     Number       Type             X           Y           Z
 ---------------------------------------------------------------------
      1          6           0       -1.682069   -0.041783    0.012876
      2          6           0       -0.263686    0.025931   -0.048509
      3          6           0        1.771461   -0.505611    0.087617
      4          1           0        2.646212   -1.226538    0.072560
      5          7           0       -2.863569   -0.037491    0.029262
      6          7           0        0.370232    1.132581    0.000869
      7          7           0        1.668851    0.781612   -0.021830
      8          8           0        0.521369   -1.097699   -0.055321
 ---------------------------------------------------------------------

 SCF Done:  E(RHF) =  -352.697328957     A.U. after    2 cycles

 The electronic state is 1-A.
 Alpha  occ. eigenvalues --  -20.69137 -15.59480 -15.58129 -15.57213 -11.41438
 Alpha  occ. eigenvalues --  -11.40339 -11.33333  -1.63095  -1.39143  -1.26128
 Alpha  occ. eigenvalues --   -1.19226  -0.98742  -0.94077  -0.85556  -0.74533
 Alpha  occ. eigenvalues --   -0.72926  -0.69747  -0.64737  -0.59717  -0.56793
 Alpha  occ. eigenvalues --   -0.56149  -0.54832  -0.52861  -0.44881
 Alpha virt. eigenvalues --    0.02166   0.02451   0.06049   0.07278   0.07415
 Alpha virt. eigenvalues --    0.08214   0.09983   0.10660   0.11630   0.12768
 Alpha virt. eigenvalues --    0.13142   0.14464   0.15216   0.15855   0.17156

 Mulliken charges:
               1
     1  C   -2.040973
     2  C    1.480869
     3  C    0.468443
     4  H    0.178942
     5  N    0.961625
     6  N    0.110035
     7  N    0.086916
     8  O   -1.245857
 Sum of Mulliken charges =   0.00000

 Dipole moment (field-independent basis, Debye):
    X=              3.7635    Y=             -3.6210    Z=              0.0915  Tot=              5.2234

 Test job not archived.
 1\1\GINC-SE221\SP\RHF\Aug-CC-pVDZ\C3H1N3O1\OHZDE\08-Apr-2025\0\\#t hf
 aug-cc-pvdz iop(5/13=1,5/36=2,99/5=2) pseudo=read geom=check guess=(re
 ad,tcheck) scf=(maxcycle=1)\\title\\0,1\C,0,-1.68207,-0.0417838,0.0128
 759\C,0,-0.263687,0.0259296,-0.0485094\C,0,1.77146,-0.505613,0.0876166
 \H,0,2.64621,-1.22654,0.0725603\N,0,-2.86357,-0.0374908,0.0292621\N,0,
 0.370231,1.13258,0.00086917\N,0,1.66885,0.78161,-0.0218304\O,0,0.52136
 7,-1.0977,-0.0553207\\Version=ES64L-G16RevC.01\State=1-A\HF=-352.69732
 9\RMSD=6.360e-02\Dipole=1.4806914,-1.4246188,0.0359992\Quadrupole=-3.0

 Normal termination of Gaussian 16 at Tue Apr  8 21:48:56 2025.
