 Gaussian 16, Revision C.01,

 ----------------------------------------------------------------------
 #t hf aug-cc-pvdz symm=none int=(grid=ultrafine) guess=(read,tcheck) s
 table=(opt,rrhf)
 ----------------------------------------------------------------------
 -----
 title
 -----
 Symbolic Z-matrix:
 Charge =  0 Multiplicity = 1

 SCF Done:  E(RHF) =  -301.522341384     A.U. after   15 cycles
 Normal termination of Gaussian 16 at Tue Apr  8 21:42:42 2025.
 Gaussian 16:  ES64L-G16RevC.01  3-Jul-2019

 ----------------------------------------------------------------------
 #t hf aug-cc-pvdz iop(5/13=1,5/36=2,99/5=2) pseudo=read geom=check gue
 ss=(read,tcheck) scf=(maxcycle=1)
 ----------------------------------------------------------------------
 -----
 title
 -----
 Structure from the checkpoint file:  "ANI1ccx_493_conf22_mol2.chk"
 Charge =  0 Multiplicity = 1

                         Standard orientation:
 ---------------------------------------------------------------------
 Center     Atomic      Atomic             Coordinates (Angstroms)
 Number     Number       Type             X           Y           Z
 ---------------------------------------------------------------------
      1          6           0        0.543169   -0.119283   -0.011222
      2          6           0       -0.921534   -0.642462    0.104611
      3          1           0       -0.183828    1.618081   -0.087826
      4          1           0       -1.021971   -1.764779    0.265423
      5          8           0        0.694739    1.249990    0.067477
      6          8           0        1.537710   -0.791265   -0.067538
      7          8           0       -1.797950    0.130921   -0.092181
 ---------------------------------------------------------------------

 SCF Done:  E(RHF) =  -301.813134558     A.U. after    2 cycles

 The electronic state is 1-A.
 Alpha  occ. eigenvalues --  -20.62066 -20.61621 -20.57515 -11.42548 -11.40892
 Alpha  occ. eigenvalues --   -1.57237  -1.54737  -1.47551  -0.97406  -0.83420
 Alpha  occ. eigenvalues --   -0.78861  -0.72979  -0.67791  -0.65335  -0.61587
 Alpha  occ. eigenvalues --   -0.58108  -0.53907  -0.49528  -0.45110
 Alpha virt. eigenvalues --    0.03400   0.03662   0.04654   0.08076   0.09472
 Alpha virt. eigenvalues --    0.10889   0.11580   0.11816   0.13050   0.14835
 Alpha virt. eigenvalues --    0.18461   0.19357   0.20395   0.22184   0.23783

 Mulliken charges:
               1
     1  C    1.887058
     2  C    0.700896
     3  H    0.430722
     4  H    0.244291
     5  O   -1.175905
     6  O   -1.116569
     7  O   -0.970493
 Sum of Mulliken charges =  -0.00000

 Dipole moment (field-independent basis, Debye):
    X=             -2.4251    Y=             -0.5066    Z=              0.2501  Tot=              2.4901

 Test job not archived.
 1\1\GINC-SE365\SP\RHF\Aug-CC-pVDZ\C2H2O3\OHZDE\08-Apr-2025\0\\#t hf au
 g-cc-pvdz iop(5/13=1,5/36=2,99/5=2) pseudo=read geom=check guess=(read
 ,tcheck) scf=(maxcycle=1)\\title\\0,1\C,0,0.543169,-0.119283,-0.011221
 6\C,0,-0.921534,-0.642463,0.104611\H,0,-0.183829,1.61808,-0.0878258\H,
 0,-1.02197,-1.76478,0.265423\O,0,0.694738,1.24999,0.0674772\O,0,1.5377
 1,-0.791265,-0.067538\O,0,-1.79795,0.130919,-0.0921812\\Version=ES64L-
 G16RevC.01\State=1-A\HF=-301.8131346\RMSD=1.156e-02\Dipole=-0.9541122,
 -0.1993318,0.0983913\Quadrupole=-4.9952948,2.9255598,2.069735,1.568346

 Normal termination of Gaussian 16 at Tue Apr  8 21:42:44 2025.
