 Gaussian 16, Revision C.01,

 ----------------------------------------------------------------------
 #t hf aug-cc-pvdz symm=none int=(grid=ultrafine) guess=(read,tcheck) s
 table=(opt,rrhf)
 ----------------------------------------------------------------------
 -----
 title
 -----
 Symbolic Z-matrix:
 Charge =  0 Multiplicity = 1

 SCF Done:  E(RHF) =  -908.327623232     A.U. after   14 cycles
 Normal termination of Gaussian 16 at Tue Apr  8 21:08:41 2025.
 Gaussian 16:  ES64L-G16RevC.01  3-Jul-2019

 ----------------------------------------------------------------------
 #t hf aug-cc-pvdz iop(5/13=1,5/36=2,99/5=2) pseudo=read geom=check gue
 ss=(read,tcheck) scf=(maxcycle=1)
 ----------------------------------------------------------------------
 -----
 title
 -----
 Structure from the checkpoint file:  "ANI1ccx_1761_conf30_mol1.chk"
 Charge =  0 Multiplicity = 1

                         Standard orientation:
 ---------------------------------------------------------------------
 Center     Atomic      Atomic             Coordinates (Angstroms)
 Number     Number       Type             X           Y           Z
 ---------------------------------------------------------------------
      1          6           0       -2.186111    0.038232    0.549953
      2          6           0        3.035409    0.697326   -1.054900
      3          6           0        2.215159   -0.492880   -1.559720
      4          6           0        1.850679   -1.314170    0.781669
      5          6           0        2.336239    1.741350   -0.252222
      6          6           0       -4.143071   -1.035450   -0.433703
      7          6           0       -3.407361    0.270367   -0.340822
      8          6           0       -1.121851   -0.869286   -0.234803
      9          6           0        1.255439   -1.085330   -0.554188
     10          1           0        0.901962   -2.006220   -0.973640
     11          1           0        3.138559   -2.004100    1.778520
     12          1           0        0.715294    2.894510   -0.342954
     13          1           0        3.869279    0.287355   -0.554437
     14          1           0        3.374109    1.085210   -2.032420
     15          1           0        3.015499   -1.279950   -1.755830
     16          1           0        1.625559   -0.362652   -2.439980
     17          1           0        0.100855    0.595873    0.062226
     18          1           0       -5.258701   -0.958043   -0.279135
     19          1           0       -3.734241   -1.669330    0.357597
     20          1           0       -3.996371   -1.580210   -1.325190
     21          1           0       -4.538411    1.098960    1.012810
     22          1           0       -2.998901    0.659209   -1.257320
     23          1           0       -2.486301   -0.534433    1.447040
     24          1           0       -2.181671    2.111420    0.847223
     25          1           0       -0.991618    1.494860    1.823300
     26          7           0       -1.531051    1.363180    0.915968
     27          7           0        0.049583   -0.271990   -0.420359
     28          8           0       -1.395051   -2.018820   -0.547521
     29          8           0       -4.172541    1.339480    0.167325
     30          8           0        1.505109   -0.697442    1.741870
     31          8           0        2.648569    2.134730    0.847503
     32          8           0        1.098579    2.057170   -0.732954
     33          8           0        2.916359   -2.211590    0.868195
 ---------------------------------------------------------------------

 SCF Done:  E(RHF) =  -909.240336669     A.U. after    2 cycles

 The electronic state is 1-A.
 Alpha  occ. eigenvalues --  -20.61057 -20.59970 -20.55728 -20.55568 -20.54651
 Alpha  occ. eigenvalues --  -20.50514 -15.51023 -15.49743 -11.40538 -11.40488
 Alpha  occ. eigenvalues --  -11.35115 -11.29578 -11.29497 -11.28896 -11.27095
 Alpha  occ. eigenvalues --  -11.27063 -11.21943  -1.56132  -1.54675  -1.46900
 Alpha  occ. eigenvalues --   -1.46844  -1.45489  -1.44952  -1.26282  -1.17116
 Alpha  occ. eigenvalues --   -1.12277  -1.05538  -1.03234  -0.93427  -0.91665
 Alpha  occ. eigenvalues --   -0.86149  -0.84121  -0.82843  -0.80874  -0.74282
 Alpha  occ. eigenvalues --   -0.72333  -0.71891  -0.70701  -0.70120  -0.68979
 Alpha  occ. eigenvalues --   -0.67939  -0.67695  -0.66983  -0.64796  -0.63975
 Alpha  occ. eigenvalues --   -0.62306  -0.61726  -0.60528  -0.60349  -0.59403
 Alpha  occ. eigenvalues --   -0.57680  -0.56569  -0.55280  -0.54897  -0.53638
 Alpha  occ. eigenvalues --   -0.52813  -0.50786  -0.49537  -0.48667  -0.47522
 Alpha  occ. eigenvalues --   -0.46506  -0.45911  -0.44898  -0.44322  -0.42630
 Alpha  occ. eigenvalues --   -0.39870
 Alpha virt. eigenvalues --    0.02932   0.03417   0.03707   0.04025   0.04228
 Alpha virt. eigenvalues --    0.04665   0.05028   0.05384   0.06282   0.07084
 Alpha virt. eigenvalues --    0.07458   0.07938   0.08449   0.09110   0.10212

 Mulliken charges:
               1
     1  C   -1.506431
     2  C   -0.582600
     3  C   -0.093951
     4  C    3.437339
     5  C    2.879362
     6  C   -0.276238
     7  C    1.531023
     8  C    0.836596
     9  C   -2.623883
    10  H    0.055773
    11  H    0.280970
    12  H    0.489144
    13  H    0.080182
    14  H    0.320763
    15  H    0.323841
    16  H    0.017282
    17  H    0.157530
    18  H    0.143276
    19  H    0.233095
    20  H    0.081623
    21  H    0.251366
    22  H    0.074930
    23  H    0.148666
    24  H    0.108230
    25  H    0.150290
    26  N    0.728671
    27  N    1.814164
    28  O   -1.560418
    29  O   -1.538599
    30  O   -1.368737
    31  O   -1.402048
    32  O   -1.771146
    33  O   -1.420064
 Sum of Mulliken charges =  -0.00000

 Dipole moment (field-independent basis, Debye):
    X=              0.6976    Y=              1.0918    Z=             -0.5211  Tot=              1.3965

 Test job not archived.
 1\1\GINC-SE226\SP\RHF\Aug-CC-pVDZ\C9H16N2O6\OHZDE\08-Apr-2025\0\\#t hf
  aug-cc-pvdz iop(5/13=1,5/36=2,99/5=2) pseudo=read geom=check guess=(r
 ead,tcheck) scf=(maxcycle=1)\\title\\0,1\C,0,-2.18611,0.0382317,0.5499
 53\C,0,3.03541,0.697326,-1.0549\C,0,2.21516,-0.49288,-1.55972\C,0,1.85
 068,-1.31417,0.781669\C,0,2.33624,1.74135,-0.252222\C,0,-4.14307,-1.03
 545,-0.433703\C,0,-3.40736,0.270367,-0.340822\C,0,-1.12185,-0.869286,-
 0.234803\C,0,1.25544,-1.08533,-0.554188\H,0,0.901963,-2.00622,-0.97364
 \H,0,3.13856,-2.0041,1.77852\H,0,0.715295,2.89451,-0.342954\H,0,3.8692

 Normal termination of Gaussian 16 at Tue Apr  8 21:09:31 2025.
