 Gaussian 16, Revision C.01,

 ----------------------------------------------------------------------
 #t hf aug-cc-pvdz symm=none int=(grid=ultrafine) guess=(read,tcheck) s
 table=(opt,rrhf)
 ----------------------------------------------------------------------
 -----
 title
 -----
 Symbolic Z-matrix:
 Charge =  0 Multiplicity = 1

 SCF Done:  E(RHF) =  -739.900941233     A.U. after   14 cycles
 Normal termination of Gaussian 16 at Tue Apr  8 21:08:41 2025.
 Gaussian 16:  ES64L-G16RevC.01  3-Jul-2019

 ----------------------------------------------------------------------
 #t hf aug-cc-pvdz iop(5/13=1,5/36=2,99/5=2) pseudo=read geom=check gue
 ss=(read,tcheck) scf=(maxcycle=1)
 ----------------------------------------------------------------------
 -----
 title
 -----
 Structure from the checkpoint file:  "ANI1ccx_1784_conf3_mol2.chk"
 Charge =  0 Multiplicity = 1

                         Standard orientation:
 ---------------------------------------------------------------------
 Center     Atomic      Atomic             Coordinates (Angstroms)
 Number     Number       Type             X           Y           Z
 ---------------------------------------------------------------------
      1          6           0        2.612370   -1.039929    0.678539
      2          6           0       -3.263101    0.575189    0.041759
      3          6           0       -2.177721    1.109139    0.940344
      4          6           0       -0.823464    0.417300    0.908727
      5          6           0       -3.605560   -0.890732    0.262370
      6          6           0       -0.071921    0.553347   -0.423286
      7          6           0        2.192280   -0.301699    1.928150
      8          6           0        1.516560   -1.562139   -0.278322
      9          6           0        0.806501    1.761200   -0.573352
     10          1           0       -2.000111    2.169720    0.671485
     11          1           0        1.689249    0.689145   -1.816950
     12          1           0       -5.548930   -0.829573   -0.304701
     13          1           0       -4.470080   -1.125021   -1.507380
     14          1           0       -3.762120   -1.043751    1.334510
     15          1           0       -2.733860   -1.548081    0.045039
     16          1           0       -4.174971    1.220979    0.191730
     17          1           0       -2.948461    0.715888   -1.016420
     18          1           0       -2.509501    1.058229    1.987370
     19          1           0       -0.842669    0.645628   -1.194440
     20          1           0       -0.190109    0.907631    1.669390
     21          1           0       -0.017332   -1.247250   -1.438740
     22          1           0        1.416460   -0.896501    2.456940
     23          1           0        3.053100   -0.296236    2.613460
     24          1           0        1.907299    0.724590    1.681710
     25          1           0        3.148890   -1.926509    0.991053
     26          1           0        3.966180   -0.777642   -0.853700
     27          1           0        3.215589    0.624153   -0.326024
     28          1           0       -0.925658   -0.642163    1.163820
     29          7           0        3.630390   -0.258402   -0.046330
     30          7           0        0.572350   -0.674847   -0.838703
     31          7           0       -4.692390   -1.306641   -0.531502
     32          8           0        0.656117    2.834170   -0.039228
     33          8           0        1.533480   -2.710539   -0.674658
     34          8           0        1.815269    1.567111   -1.453860
 ---------------------------------------------------------------------

 SCF Done:  E(RHF) =  -740.666795125     A.U. after    2 cycles

 The electronic state is 1-A.
 Alpha  occ. eigenvalues --  -20.61295 -20.55529 -20.53913 -15.55309 -15.49874
 Alpha  occ. eigenvalues --  -15.49022 -11.41334 -11.38075 -11.32402 -11.28706
 Alpha  occ. eigenvalues --  -11.26591 -11.25706 -11.24975 -11.24520 -11.24393
 Alpha  occ. eigenvalues --   -1.56581  -1.48666  -1.47161  -1.26932  -1.20979
 Alpha  occ. eigenvalues --   -1.20319  -1.11053  -1.04445  -1.03001  -0.96471
 Alpha  occ. eigenvalues --   -0.90830  -0.89059  -0.85690  -0.82534  -0.80903
 Alpha  occ. eigenvalues --   -0.76445  -0.73704  -0.72352  -0.72147  -0.69227
 Alpha  occ. eigenvalues --   -0.68379  -0.67193  -0.65737  -0.64441  -0.64081
 Alpha  occ. eigenvalues --   -0.63471  -0.61982  -0.60582  -0.59595  -0.58255
 Alpha  occ. eigenvalues --   -0.56789  -0.55492  -0.55267  -0.53081  -0.52858
 Alpha  occ. eigenvalues --   -0.51950  -0.49405  -0.49124  -0.48896  -0.47754
 Alpha  occ. eigenvalues --   -0.47001  -0.43836  -0.42316  -0.42031
 Alpha virt. eigenvalues --    0.02003   0.02856   0.03209   0.03840   0.04441
 Alpha virt. eigenvalues --    0.04671   0.05012   0.05856   0.06580   0.06645
 Alpha virt. eigenvalues --    0.06857   0.07323   0.08138   0.08746   0.09010

 Mulliken charges:
               1
     1  C   -1.391800
     2  C   -0.275607
     3  C   -0.353883
     4  C   -0.126436
     5  C   -1.188038
     6  C   -1.679145
     7  C    0.146377
     8  C    0.877520
     9  C    2.790169
    10  H    0.221505
    11  H    0.684341
    12  H    0.166466
    13  H    0.180812
    14  H    0.055853
    15  H    0.162485
    16  H    0.136386
    17  H    0.267383
    18  H    0.153033
    19  H    0.193776
    20  H    0.174205
    21  H    0.523938
    22  H    0.275968
    23  H    0.025009
    24  H    0.248283
    25  H   -0.038944
    26  H    0.153880
    27  H    0.145632
    28  H    0.055760
    29  N    0.712704
    30  N    0.515191
    31  N    0.618372
    32  O   -1.449104
    33  O   -1.415419
    34  O   -1.566672
 Sum of Mulliken charges =   0.00000

 Dipole moment (field-independent basis, Debye):
    X=             -2.8790    Y=              0.0292    Z=             -0.2926  Tot=              2.8939

 Test job not archived.
 1\1\GINC-SE074\SP\RHF\Aug-CC-pVDZ\C9H19N3O3\OHZDE\08-Apr-2025\0\\#t hf
  aug-cc-pvdz iop(5/13=1,5/36=2,99/5=2) pseudo=read geom=check guess=(r
 ead,tcheck) scf=(maxcycle=1)\\title\\0,1\C,0,2.61237,-1.03993,0.678539
 \C,0,-3.2631,0.57519,0.0417591\C,0,-2.17772,1.10914,0.940344\C,0,-0.82
 3463,0.4173,0.908727\C,0,-3.60556,-0.890731,0.26237\C,0,-0.0719208,0.5
 53347,-0.423286\C,0,2.19228,-0.3017,1.92815\C,0,1.51656,-1.56214,-0.27
 8322\C,0,0.806502,1.7612,-0.573352\H,0,-2.00011,2.16972,0.671485\H,0,1
 .68925,0.689144,-1.81695\H,0,-5.54893,-0.829571,-0.304701\H,0,-4.47008

 Normal termination of Gaussian 16 at Tue Apr  8 21:09:28 2025.
