 Gaussian 16, Revision C.01,

 ----------------------------------------------------------------------
 #t hf aug-cc-pvdz symm=none int=(grid=ultrafine) guess=(read,tcheck) s
 table=(opt,rrhf)
 ----------------------------------------------------------------------
 -----
 title
 -----
 Symbolic Z-matrix:
 Charge =  0 Multiplicity = 1

 SCF Done:  E(RHF) =  -528.732981651     A.U. after   14 cycles
 Normal termination of Gaussian 16 at Tue Apr  8 22:18:15 2025.
 Gaussian 16:  ES64L-G16RevC.01  3-Jul-2019

 ----------------------------------------------------------------------
 #t hf aug-cc-pvdz iop(5/13=1,5/36=2,99/5=2) pseudo=read geom=check gue
 ss=(read,tcheck) scf=(maxcycle=1)
 ----------------------------------------------------------------------
 -----
 title
 -----
 Structure from the checkpoint file:  "ANI1ccx_998_conf19_mol1.chk"
 Charge =  0 Multiplicity = 1

                         Standard orientation:
 ---------------------------------------------------------------------
 Center     Atomic      Atomic             Coordinates (Angstroms)
 Number     Number       Type             X           Y           Z
 ---------------------------------------------------------------------
      1          6           0        0.970148    0.195240    0.392739
      2          6           0        2.376251   -0.339918   -0.081806
      3          6           0       -0.033993   -0.945945    0.118686
      4          6           0       -1.474649   -0.787900    0.656503
      5          6           0       -2.596979   -0.050021   -0.049832
      6          1           0        3.249131    1.155141    0.990395
      7          1           0       -3.042769    1.765240   -0.790449
      8          1           0       -1.907878   -1.828750    0.663801
      9          1           0       -1.467689   -0.525619    1.725940
     10          1           0       -1.542219    1.704670   -0.030419
     11          1           0        1.364951    2.215551   -0.061551
     12          1           0        0.639212    1.327870   -1.149910
     13          1           0        0.973471    0.481413    1.438370
     14          1           0       -0.040004   -1.119580   -0.944822
     15          1           0        0.360848   -1.854130    0.588337
     16          7           0        0.663714    1.511920   -0.209787
     17          7           0       -2.478079    1.310400   -0.145158
     18          8           0       -3.619569   -0.690486   -0.285288
     19          8           0        2.594392   -1.282599   -0.730080
     20          8           0        3.358781    0.534737    0.245015
 ---------------------------------------------------------------------

 SCF Done:  E(RHF) =  -529.271177219     A.U. after    2 cycles

 The electronic state is 1-A.
 Alpha  occ. eigenvalues --  -20.60782 -20.55980 -20.50696 -15.52873 -15.51782
 Alpha  occ. eigenvalues --  -11.40690 -11.35754 -11.31338 -11.26312 -11.25242
 Alpha  occ. eigenvalues --   -1.56597  -1.48460  -1.44673  -1.24210  -1.22060
 Alpha  occ. eigenvalues --   -1.08003  -0.98982  -0.89764  -0.85149  -0.81370
 Alpha  occ. eigenvalues --   -0.76846  -0.76351  -0.74283  -0.69447  -0.68620
 Alpha  occ. eigenvalues --   -0.66584  -0.63998  -0.60967  -0.60345  -0.58759
 Alpha  occ. eigenvalues --   -0.56699  -0.54095  -0.53373  -0.51594  -0.50856
 Alpha  occ. eigenvalues --   -0.49835  -0.44157  -0.43275  -0.41292
 Alpha virt. eigenvalues --    0.01489   0.03134   0.03744   0.04754   0.05159
 Alpha virt. eigenvalues --    0.05620   0.06178   0.06598   0.08105   0.09040
 Alpha virt. eigenvalues --    0.10458   0.10473   0.11521   0.12393   0.12911

 Mulliken charges:
               1
     1  C   -0.777116
     2  C    2.229347
     3  C    0.108436
     4  C   -0.552613
     5  C    0.278956
     6  H    0.426550
     7  H    0.104556
     8  H    0.174107
     9  H    0.254346
    10  H    0.082389
    11  H    0.247135
    12  H    0.276976
    13  H   -0.000531
    14  H    0.131063
    15  H    0.165740
    16  N   -0.195585
    17  N    0.798300
    18  O   -1.281430
    19  O   -1.168290
    20  O   -1.302335
 Sum of Mulliken charges =   0.00000

 Dipole moment (field-independent basis, Debye):
    X=              3.1975    Y=              4.1224    Z=              2.0582  Tot=              5.6084

 Test job not archived.
 1\1\GINC-SE016\SP\RHF\Aug-CC-pVDZ\C5H10N2O3\OHZDE\08-Apr-2025\0\\#t hf
  aug-cc-pvdz iop(5/13=1,5/36=2,99/5=2) pseudo=read geom=check guess=(r
 ead,tcheck) scf=(maxcycle=1)\\title\\0,1\C,0,0.970147,0.195239,0.39273
 9\C,0,2.37625,-0.339919,-0.0818065\C,0,-0.0339948,-0.945945,0.118686\C
 ,0,-1.47465,-0.7879,0.656503\C,0,-2.59698,-0.0500205,-0.0498326\H,0,3.
 24913,1.15514,0.990395\H,0,-3.04277,1.76524,-0.790449\H,0,-1.90788,-1.
 82875,0.663801\H,0,-1.46769,-0.525619,1.72594\H,0,-1.54222,1.70467,-0.
 030419\H,0,1.36495,2.21555,-0.0615514\H,0,0.639211,1.32787,-1.14991\H,

 Normal termination of Gaussian 16 at Tue Apr  8 22:18:26 2025.
