 Gaussian 16, Revision C.01,

 ----------------------------------------------------------------------
 #t hf aug-cc-pvdz symm=none int=(grid=ultrafine) guess=(read,tcheck) s
 table=(opt,rrhf)
 ----------------------------------------------------------------------
 -----
 title
 -----
 Symbolic Z-matrix:
 Charge =  0 Multiplicity = 1

 SCF Done:  E(RHF) =  -380.209160094     A.U. after   11 cycles
 Normal termination of Gaussian 16 at Tue Apr  8 21:03:27 2025.
 Gaussian 16:  ES64L-G16RevC.01  3-Jul-2019

 ----------------------------------------------------------------------
 #t hf aug-cc-pvdz iop(5/13=1,5/36=2,99/5=2) pseudo=read geom=check gue
 ss=(read,tcheck) scf=(maxcycle=1)
 ----------------------------------------------------------------------
 -----
 title
 -----
 Structure from the checkpoint file:  "ANI1ccx_1843_conf253_mol1.chk"
 Charge =  0 Multiplicity = 1

                         Standard orientation:
 ---------------------------------------------------------------------
 Center     Atomic      Atomic             Coordinates (Angstroms)
 Number     Number       Type             X           Y           Z
 ---------------------------------------------------------------------
      1          1           0       -3.729311    0.043090    1.144210
      2          1           0       -3.700911   -0.835177   -0.057805
      3          1           0        0.944692    1.617741   -0.209359
      4          1           0        0.601876    2.995361   -0.626282
      5          1           0        2.235659   -0.293666    2.048760
      6          1           0        2.267979   -0.432996    0.507657
      7          1           0        0.886392   -1.282079   -0.438269
      8          1           0        2.032269   -1.121179   -1.344380
      9          1           0       -0.811083    0.658874   -1.098660
     10          1           0       -1.697071   -0.403506   -0.386176
     11          8           0       -3.134961   -0.565717    0.746869
     12          8           0        0.154544    2.215180   -0.394420
     13          8           0        2.193309    0.190026    1.221870
     14          8           0        1.783779   -1.660769   -0.581626
     15          8           0       -0.875483   -0.297028   -0.935156
 ---------------------------------------------------------------------

 SCF Done:  E(RHF) =  -380.603176889     A.U. after    2 cycles

 The electronic state is 1-A.
 Alpha  occ. eigenvalues --  -20.59248 -20.56079 -20.55607 -20.52976 -20.52352
 Alpha  occ. eigenvalues --   -1.46761  -1.44605  -1.44345  -1.41125  -1.40413
 Alpha  occ. eigenvalues --   -0.73037  -0.71145  -0.70484  -0.68824  -0.67403
 Alpha  occ. eigenvalues --   -0.61971  -0.60338  -0.58920  -0.56293  -0.55384
 Alpha  occ. eigenvalues --   -0.51695  -0.50182  -0.48761  -0.47319  -0.46897
 Alpha virt. eigenvalues --    0.02698   0.03917   0.05181   0.05556   0.06402
 Alpha virt. eigenvalues --    0.08040   0.08816   0.09850   0.10512   0.11618
 Alpha virt. eigenvalues --    0.17151   0.18351   0.19350   0.20378   0.20852

 Mulliken charges:
               1
     1  H    0.387363
     2  H    0.426234
     3  H    0.542033
     4  H    0.354304
     5  H    0.315459
     6  H    0.645761
     7  H    0.629662
     8  H    0.393675
     9  H    0.525567
    10  H    0.682570
    11  O   -0.848667
    12  O   -0.916737
    13  O   -0.902660
    14  O   -1.065482
    15  O   -1.169083
 Sum of Mulliken charges =  -0.00000

 Dipole moment (field-independent basis, Debye):
    X=             -2.8687    Y=              1.7899    Z=             -0.6457  Tot=              3.4424

 Test job not archived.
 1\1\GINC-SE143\SP\RHF\Aug-CC-pVDZ\H10O5\OHZDE\08-Apr-2025\0\\#t hf aug
 -cc-pvdz iop(5/13=1,5/36=2,99/5=2) pseudo=read geom=check guess=(read,
 tcheck) scf=(maxcycle=1)\\title\\0,1\H,0,-3.72931,0.0430907,1.14421\H,
 0,-3.70091,-0.835177,-0.057805\H,0,0.944693,1.61774,-0.209359\H,0,0.60
 1878,2.99536,-0.626282\H,0,2.23566,-0.293667,2.04876\H,0,2.26798,-0.43
 2997,0.507657\H,0,0.886393,-1.28208,-0.438269\H,0,2.03227,-1.12118,-1.
 34438\H,0,-0.811082,0.658874,-1.09866\H,0,-1.69707,-0.403506,-0.386176
 \O,0,-3.13496,-0.565717,0.746869\O,0,0.154546,2.21518,-0.39442\O,0,2.1

 Normal termination of Gaussian 16 at Tue Apr  8 21:03:31 2025.
