 Gaussian 16, Revision C.01,

 ----------------------------------------------------------------------
 #t hf aug-cc-pvdz symm=none int=(grid=ultrafine) guess=(read,tcheck) s
 table=(opt,rrhf)
 ----------------------------------------------------------------------
 -----
 title
 -----
 Symbolic Z-matrix:
 Charge =  0 Multiplicity = 1

 SCF Done:  E(RHF) =  -456.267863521     A.U. after   11 cycles
 Normal termination of Gaussian 16 at Tue Apr  8 21:07:44 2025.
 Gaussian 16:  ES64L-G16RevC.01  3-Jul-2019

 ----------------------------------------------------------------------
 #t hf aug-cc-pvdz iop(5/13=1,5/36=2,99/5=2) pseudo=read geom=check gue
 ss=(read,tcheck) scf=(maxcycle=1)
 ----------------------------------------------------------------------
 -----
 title
 -----
 Structure from the checkpoint file:  "ANI1ccx_1844_conf309_mol1.chk"
 Charge =  0 Multiplicity = 1

                         Standard orientation:
 ---------------------------------------------------------------------
 Center     Atomic      Atomic             Coordinates (Angstroms)
 Number     Number       Type             X           Y           Z
 ---------------------------------------------------------------------
      1          1           0        0.069400   -0.362574    1.019280
      2          1           0        3.195252   -1.161584   -0.655565
      3          1           0        2.925412   -0.672093    0.593951
      4          1           0       -0.847879    1.253321    0.567880
      5          1           0       -0.328139    2.727211    0.647057
      6          1           0        1.765199    1.424474   -0.243471
      7          1           0        0.838778   -1.326287    0.208569
      8          1           0        2.626009    1.580475   -1.458400
      9          1           0       -2.729556   -2.200732   -0.921825
     10          1           0       -1.700197   -1.816660    0.154197
     11          1           0       -2.714030    0.270128   -0.676721
     12          1           0       -3.249692    1.700948   -0.387207
     13          8           0       -0.196237    1.833762    0.950140
     14          8           0       -2.599867   -1.694292   -0.148364
     15          8           0        2.760353   -1.507674    0.133461
     16          8           0        2.545029    1.101795   -0.715920
     17          8           0       -0.053497   -1.074268    0.434372
     18          8           0       -2.437101    1.163599   -0.509658
 ---------------------------------------------------------------------

 SCF Done:  E(RHF) =  -456.744110726     A.U. after    2 cycles

 The electronic state is 1-A.
 Alpha  occ. eigenvalues --  -20.55913 -20.55911 -20.55214 -20.54718 -20.53899
 Alpha  occ. eigenvalues --  -20.53312  -1.47088  -1.45213  -1.44463  -1.43826
 Alpha  occ. eigenvalues --   -1.43328  -1.42414  -0.74883  -0.74064  -0.72264
 Alpha  occ. eigenvalues --   -0.71255  -0.70159  -0.67437  -0.62975  -0.60643
 Alpha  occ. eigenvalues --   -0.59328  -0.57632  -0.55836  -0.53985  -0.51837
 Alpha  occ. eigenvalues --   -0.50342  -0.49848  -0.49197  -0.48706  -0.47880
 Alpha virt. eigenvalues --    0.02996   0.03993   0.04545   0.05911   0.06180
 Alpha virt. eigenvalues --    0.07341   0.08161   0.09330   0.09673   0.10761
 Alpha virt. eigenvalues --    0.11451   0.11796   0.18004   0.18637   0.19018

 Mulliken charges:
               1
     1  H    0.427944
     2  H    0.430483
     3  H    0.524709
     4  H    0.683315
     5  H    0.389261
     6  H    0.576487
     7  H    0.549146
     8  H    0.316112
     9  H    0.365520
    10  H    0.596766
    11  H    0.569717
    12  H    0.380039
    13  O   -0.978726
    14  O   -0.893190
    15  O   -0.991028
    16  O   -0.881425
    17  O   -1.066498
    18  O   -0.998631
 Sum of Mulliken charges =  -0.00000

 Dipole moment (field-independent basis, Debye):
    X=             -0.0622    Y=              2.8608    Z=             -2.6343  Tot=              3.8894

 Test job not archived.
 1\1\GINC-SE221\SP\RHF\Aug-CC-pVDZ\H12O6\OHZDE\08-Apr-2025\0\\#t hf aug
 -cc-pvdz iop(5/13=1,5/36=2,99/5=2) pseudo=read geom=check guess=(read,
 tcheck) scf=(maxcycle=1)\\title\\0,1\H,0,0.0693991,-0.362576,1.01928\H
 ,0,3.19525,-1.16159,-0.655565\H,0,2.92541,-0.672099,0.593951\H,0,-0.84
 7878,1.25332,0.56788\H,0,-0.328136,2.72721,0.647057\H,0,1.7652,1.42447
 ,-0.243471\H,0,0.838775,-1.32629,0.208569\H,0,2.62601,1.58047,-1.4584\
 H,0,-2.72956,-2.20073,-0.921825\H,0,-1.7002,-1.81666,0.154197\H,0,-2.7
 1403,0.27013,-0.676721\H,0,-3.24969,1.70095,-0.387207\O,0,-0.196235,1.

 Normal termination of Gaussian 16 at Tue Apr  8 21:07:49 2025.
