 Gaussian 16, Revision C.01,

 ----------------------------------------------------------------------
 #t hf aug-cc-pvdz symm=none int=(grid=ultrafine) guess=(read,tcheck) s
 table=(opt,rrhf)
 ----------------------------------------------------------------------
 -----
 title
 -----
 Symbolic Z-matrix:
 Charge =  0 Multiplicity = 1

 SCF Done:  E(RHF) =  -489.702976037     A.U. after   14 cycles
 Normal termination of Gaussian 16 at Tue Apr  8 22:13:02 2025.
 Gaussian 16:  ES64L-G16RevC.01  3-Jul-2019

 ----------------------------------------------------------------------
 #t hf aug-cc-pvdz iop(5/13=1,5/36=2,99/5=2) pseudo=read geom=check gue
 ss=(read,tcheck) scf=(maxcycle=1)
 ----------------------------------------------------------------------
 -----
 title
 -----
 Structure from the checkpoint file:  "ANI1ccx_957_conf11_mol1.chk"
 Charge =  0 Multiplicity = 1

                         Standard orientation:
 ---------------------------------------------------------------------
 Center     Atomic      Atomic             Coordinates (Angstroms)
 Number     Number       Type             X           Y           Z
 ---------------------------------------------------------------------
      1          6           0        0.729403    0.656612    0.330619
      2          6           0        1.167721   -0.791151    0.205919
      3          6           0       -0.498875    0.946900   -0.530346
      4          6           0       -1.734709    0.096985   -0.289216
      5          1           0        2.593431   -0.032459   -0.710732
      6          1           0       -3.076979   -0.297676    1.176710
      7          1           0       -0.275290    0.867581   -1.604200
      8          1           0       -0.788926    1.991040   -0.231945
      9          1           0       -2.081659    1.057740    1.558460
     10          1           0        2.539551    1.552269    0.618852
     11          1           0        1.866101    1.942419   -0.843523
     12          1           0        0.354759    0.736610    1.357700
     13          7           0        1.697421    1.697749    0.134869
     14          7           0       -2.271749    0.251932    0.946580
     15          8           0       -2.304379   -0.656393   -1.070610
     16          8           0        0.640037   -1.752290    0.709301
     17          8           0        2.277851   -0.956488   -0.537858
 ---------------------------------------------------------------------

 SCF Done:  E(RHF) =  -490.195804331     A.U. after    2 cycles

 The electronic state is 1-A.
 Alpha  occ. eigenvalues --  -20.60937 -20.53850 -20.51345 -15.54077 -15.52748
 Alpha  occ. eigenvalues --  -11.39688 -11.36884 -11.31797 -11.28354  -1.55152
 Alpha  occ. eigenvalues --   -1.45694  -1.45398  -1.25499  -1.22229  -1.07576
 Alpha  occ. eigenvalues --   -0.95586  -0.84647  -0.82390  -0.78534  -0.77323
 Alpha  occ. eigenvalues --   -0.74288  -0.70197  -0.67069  -0.65791  -0.64215
 Alpha  occ. eigenvalues --   -0.61061  -0.60082  -0.58769  -0.55191  -0.54380
 Alpha  occ. eigenvalues --   -0.51167  -0.47050  -0.43688  -0.43414  -0.42767
 Alpha virt. eigenvalues --    0.01774   0.02894   0.03965   0.04772   0.05627
 Alpha virt. eigenvalues --    0.06025   0.06335   0.07847   0.09933   0.10362
 Alpha virt. eigenvalues --    0.10846   0.11671   0.12893   0.13364   0.14102

 Mulliken charges:
               1
     1  C   -1.564004
     2  C    2.645350
     3  C   -0.524780
     4  C    0.559102
     5  H    0.421745
     6  H    0.035295
     7  H    0.113755
     8  H    0.353710
     9  H    0.054821
    10  H    0.108255
    11  H    0.269500
    12  H    0.214226
    13  N    0.631033
    14  N    0.785215
    15  O   -1.381455
    16  O   -1.341119
    17  O   -1.380650
 Sum of Mulliken charges =  -0.00000

 Dipole moment (field-independent basis, Debye):
    X=              2.2929    Y=              6.2288    Z=              1.4434  Tot=              6.7926

 Test job not archived.
 1\1\GINC-SE435\SP\RHF\Aug-CC-pVDZ\C4H8N2O3\OHZDE\08-Apr-2025\0\\#t hf
 aug-cc-pvdz iop(5/13=1,5/36=2,99/5=2) pseudo=read geom=check guess=(re
 ad,tcheck) scf=(maxcycle=1)\\title\\0,1\C,0,0.729402,0.656612,0.330619
 \C,0,1.16772,-0.79115,0.205919\C,0,-0.498876,0.9469,-0.530346\C,0,-1.7
 3471,0.0969852,-0.289216\H,0,2.59343,-0.0324579,-0.710732\H,0,-3.07698
 ,-0.297676,1.17671\H,0,-0.275291,0.867581,-1.6042\H,0,-0.788927,1.9910
 4,-0.231945\H,0,-2.08166,1.05774,1.55846\H,0,2.53955,1.55227,0.618852\
 H,0,1.8661,1.94242,-0.843523\H,0,0.354758,0.73661,1.3577\N,0,1.69742,1

 Normal termination of Gaussian 16 at Tue Apr  8 22:13:09 2025.
