 Gaussian 16, Revision C.01,

 ----------------------------------------------------------------------
 #t hf aug-cc-pvdz symm=none int=(grid=ultrafine) guess=(read,tcheck) s
 table=(opt,rrhf)
 ----------------------------------------------------------------------
 -----
 title
 -----
 Symbolic Z-matrix:
 Charge =  0 Multiplicity = 1

 SCF Done:  E(RHF) =  -639.623802304     A.U. after   15 cycles
 Normal termination of Gaussian 16 at Tue Apr  8 19:39:35 2025.
 Gaussian 16:  ES64L-G16RevC.01  3-Jul-2019

 ----------------------------------------------------------------------
 #t hf aug-cc-pvdz iop(5/13=1,5/36=2,99/5=2) pseudo=read geom=check gue
 ss=(read,tcheck) scf=(maxcycle=1)
 ----------------------------------------------------------------------
 -----
 title
 -----
 Structure from the checkpoint file:  "ANI1ccx_1409_conf3_mol1.chk"
 Charge =  0 Multiplicity = 1

                         Standard orientation:
 ---------------------------------------------------------------------
 Center     Atomic      Atomic             Coordinates (Angstroms)
 Number     Number       Type             X           Y           Z
 ---------------------------------------------------------------------
      1          6           0       -2.336909    0.919241   -0.525134
      2          6           0       -2.989200   -0.412258   -0.186592
      3          6           0       -1.008021   -1.408639    0.804312
      4          6           0        0.946218   -1.324160   -0.715351
      5          6           0        2.122119   -0.748953   -1.230181
      6          6           0        2.721930    0.306120   -0.348847
      7          6           0        0.863894    0.319039    1.083959
      8          1           0        4.616790    0.458944   -1.395941
      9          1           0        4.392001    1.527687    0.078712
     10          1           0        2.620479   -1.166312   -2.126291
     11          1           0        0.502715   -2.166740   -1.205141
     12          1           0       -0.808029   -2.493699    1.116719
     13          1           0       -1.391541   -0.899159    1.689359
     14          1           0       -3.616361   -0.748828   -1.105841
     15          1           0       -3.503890   -0.326113    0.749590
     16          1           0       -1.571379    1.204841    0.275682
     17          1           0       -1.739070    0.801404   -1.421771
     18          1           0       -3.823749    2.181153   -0.018785
     19          1           0       -3.028888    2.574832   -1.456491
     20          7           0       -3.425819    1.816882   -0.933444
     21          7           0        0.307365   -0.762059    0.368772
     22          7           0        3.918910    0.864782   -0.645064
     23          7           0        2.055830    0.791483    0.701037
     24          8           0       -2.024311   -1.474699   -0.165240
     25          8           0        0.203901    0.746204    2.051249
 ---------------------------------------------------------------------

 SCF Done:  E(RHF) =  -640.265230653     A.U. after    2 cycles

 The electronic state is 1-A.
 Alpha  occ. eigenvalues --  -20.55636 -20.48224 -15.56236 -15.56184 -15.49250
 Alpha  occ. eigenvalues --  -15.48152 -11.37355 -11.37333 -11.34237 -11.33772
 Alpha  occ. eigenvalues --  -11.28744 -11.26766 -11.25230  -1.47393  -1.42984
 Alpha  occ. eigenvalues --   -1.30003  -1.25718  -1.18050  -1.17845  -1.05914
 Alpha  occ. eigenvalues --   -0.99932  -0.94159  -0.91264  -0.88729  -0.82135
 Alpha  occ. eigenvalues --   -0.78638  -0.75642  -0.73584  -0.70143  -0.69355
 Alpha  occ. eigenvalues --   -0.68988  -0.65226  -0.64314  -0.63156  -0.62130
 Alpha  occ. eigenvalues --   -0.60964  -0.60219  -0.58688  -0.57106  -0.52588
 Alpha  occ. eigenvalues --   -0.51224  -0.48851  -0.48745  -0.46588  -0.45224
 Alpha  occ. eigenvalues --   -0.42741  -0.41847  -0.41255  -0.35066
 Alpha virt. eigenvalues --    0.01994   0.03258   0.03852   0.04072   0.04775
 Alpha virt. eigenvalues --    0.05352   0.06097   0.06361   0.07078   0.07807
 Alpha virt. eigenvalues --    0.08115   0.08741   0.08935   0.10124   0.10565

 Mulliken charges:
               1
     1  C   -1.272196
     2  C    0.537494
     3  C    0.209371
     4  C   -0.178165
     5  C    0.943110
     6  C   -1.974299
     7  C   -0.379690
     8  H    0.195276
     9  H    0.088958
    10  H   -0.187646
    11  H   -0.381242
    12  H    0.081683
    13  H    0.016910
    14  H    0.176959
    15  H    0.128723
    16  H    0.177175
    17  H    0.019210
    18  H    0.216263
    19  H    0.136478
    20  N    0.522671
    21  N    1.535576
    22  N    0.795177
    23  N    1.350787
    24  O   -1.360627
    25  O   -1.397956
 Sum of Mulliken charges =  -0.00000

 Dipole moment (field-independent basis, Debye):
    X=              3.4668    Y=             -2.1567    Z=             -3.8464  Tot=              5.6094

 Test job not archived.
 1\1\GINC-SE368\SP\RHF\Aug-CC-pVDZ\C7H12N4O2\OHZDE\08-Apr-2025\0\\#t hf
  aug-cc-pvdz iop(5/13=1,5/36=2,99/5=2) pseudo=read geom=check guess=(r
 ead,tcheck) scf=(maxcycle=1)\\title\\0,1\C,0,-2.33691,0.919239,-0.5251
 33\C,0,-2.9892,-0.41226,-0.186591\C,0,-1.00802,-1.40864,0.804313\C,0,0
 .946219,-1.32416,-0.71535\C,0,2.12212,-0.748952,-1.23018\C,0,2.72193,0
 .306122,-0.348846\C,0,0.863894,0.319039,1.08396\H,0,4.61679,0.458947,-
 1.39594\H,0,4.392,1.52769,0.0787128\H,0,2.62048,-1.16631,-2.12629\H,0,
 0.502716,-2.16674,-1.20514\H,0,-0.808027,-2.4937,1.11672\H,0,-1.39154,

 Normal termination of Gaussian 16 at Tue Apr  8 19:39:54 2025.
