 Gaussian 16, Revision C.01,

 ----------------------------------------------------------------------
 #t hf aug-cc-pvdz symm=none int=(grid=ultrafine) guess=(read,tcheck) s
 table=(opt,rrhf)
 ----------------------------------------------------------------------
 -----
 title
 -----
 Symbolic Z-matrix:
 Charge =  0 Multiplicity = 1

 SCF Done:  E(RHF) =  -868.311117618     A.U. after   16 cycles
 Normal termination of Gaussian 16 at Tue Apr  8 20:51:46 2025.
 Gaussian 16:  ES64L-G16RevC.01  3-Jul-2019

 ----------------------------------------------------------------------
 #t hf aug-cc-pvdz iop(5/13=1,5/36=2,99/5=2) pseudo=read geom=check gue
 ss=(read,tcheck) scf=(maxcycle=1)
 ----------------------------------------------------------------------
 -----
 title
 -----
 Structure from the checkpoint file:  "ANI1ccx_170_conf14_mol1.chk"
 Charge =  0 Multiplicity = 1

                         Standard orientation:
 ---------------------------------------------------------------------
 Center     Atomic      Atomic             Coordinates (Angstroms)
 Number     Number       Type             X           Y           Z
 ---------------------------------------------------------------------
      1          6           0       -0.629846    0.896053    1.168981
      2          6           0        1.610812   -2.023919    0.154728
      3          6           0        3.598902   -0.677139    0.234346
      4          6           0        2.228471    1.035001   -1.013849
      5          6           0        2.402321    0.243238    0.272014
      6          6           0        3.026122   -1.943539   -0.371194
      7          6           0       -2.697508   -0.706796   -1.230769
      8          6           0       -2.566709    0.278311   -0.317918
      9          6           0       -1.338669    1.140110   -0.152795
     10          6           0        0.146151   -0.392830    1.218641
     11          6           0       -4.608979   -0.374032   -0.167294
     12          1           0        3.888832   -0.840483    1.293441
     13          1           0        1.393991    2.155611    0.010190
     14          1           0        0.932014   -2.432170   -0.567326
     15          1           0        1.500192   -2.532869    1.085141
     16          1           0        3.427792   -2.923509   -0.081047
     17          1           0        2.988042   -1.865109   -1.443929
     18          1           0        4.567091   -0.345061   -0.229922
     19          1           0        2.328211    1.049481    1.068841
     20          1           0       -2.061508   -1.164501   -1.985989
     21          1           0       -5.671869   -0.441205    0.197764
     22          1           0       -0.680641    1.042790   -1.007509
     23          1           0       -1.639350    2.206230   -0.041799
     24          1           0       -1.363519    0.855263    1.983421
     25          1           0       -0.242113    2.926320    1.489541
     26          1           0        0.906900    1.834610    2.211701
     27          1           0       -4.631228   -1.635272   -1.798879
     28          7           0        0.363573    2.073290    1.375761
     29          7           0       -3.807359    0.525014    0.386448
     30          7           0       -4.073838   -1.126781   -1.131999
     31          7           0        1.222301   -0.630935    0.428101
     32          8           0        2.736171    0.603826   -2.042069
     33          8           0       -0.305769   -1.362010    1.934161
     34          8           0        1.494351    2.180561   -0.937230
 ---------------------------------------------------------------------

 SCF Done:  E(RHF) =  -869.184681339     A.U. after    2 cycles

 The electronic state is 1-A.
 Alpha  occ. eigenvalues --  -20.57899 -20.52427 -20.51848 -15.56230 -15.53920
 Alpha  occ. eigenvalues --  -15.53268 -15.49527 -11.38334 -11.36815 -11.31600
 Alpha  occ. eigenvalues --  -11.31174 -11.30114 -11.27577 -11.26979 -11.25886
 Alpha  occ. eigenvalues --  -11.25724 -11.25709 -11.23432  -1.52937  -1.43964
 Alpha  occ. eigenvalues --   -1.42736  -1.33082  -1.27708  -1.21230  -1.16723
 Alpha  occ. eigenvalues --   -1.09779  -1.07197  -1.03917  -1.00835  -0.93683
 Alpha  occ. eigenvalues --   -0.89522  -0.85283  -0.84238  -0.81456  -0.80542
 Alpha  occ. eigenvalues --   -0.79471  -0.77602  -0.74404  -0.72250  -0.68845
 Alpha  occ. eigenvalues --   -0.68597  -0.66888  -0.66088  -0.64920  -0.63926
 Alpha  occ. eigenvalues --   -0.63310  -0.61802  -0.61211  -0.60539  -0.59247
 Alpha  occ. eigenvalues --   -0.58184  -0.57839  -0.56503  -0.55196  -0.53756
 Alpha  occ. eigenvalues --   -0.52692  -0.51775  -0.50361  -0.49118  -0.48639
 Alpha  occ. eigenvalues --   -0.47242  -0.45628  -0.43915  -0.43548  -0.42201
 Alpha  occ. eigenvalues --   -0.39366  -0.34912
 Alpha virt. eigenvalues --    0.02534   0.02689   0.03621   0.04099   0.04266
 Alpha virt. eigenvalues --    0.04805   0.04940   0.05298   0.05475   0.06644
 Alpha virt. eigenvalues --    0.07037   0.07876   0.08206   0.08963   0.09568

 Mulliken charges:
               1
     1  C   -0.429982
     2  C    0.001198
     3  C   -0.336035
     4  C    2.320524
     5  C   -0.664284
     6  C   -0.120205
     7  C   -0.350362
     8  C   -0.126879
     9  C    0.269426
    10  C   -0.023214
    11  C   -1.145922
    12  H    0.165576
    13  H    0.869211
    14  H    0.012005
    15  H   -0.047961
    16  H    0.200505
    17  H    0.104812
    18  H    0.109564
    19  H    0.104517
    20  H   -0.286326
    21  H   -0.026183
    22  H    0.168030
    23  H    0.262371
    24  H    0.052028
    25  H    0.286809
    26  H    0.300736
    27  H   -0.017693
    28  N   -0.179810
    29  N    0.917725
    30  N    0.800117
    31  N    1.268118
    32  O   -1.459069
    33  O   -1.539429
    34  O   -1.459915
 Sum of Mulliken charges =   0.00000

 Dipole moment (field-independent basis, Debye):
    X=             -1.1586    Y=             -0.7862    Z=              0.6858  Tot=              1.5591

 Test job not archived.
 1\1\GINC-SE150\SP\RHF\Aug-CC-pVDZ\C11H16N4O3\OHZDE\08-Apr-2025\0\\#t h
 f aug-cc-pvdz iop(5/13=1,5/36=2,99/5=2) pseudo=read geom=check guess=(
 read,tcheck) scf=(maxcycle=1)\\title\\0,1\C,0,-0.629847,0.896053,1.168
 98\C,0,1.61081,-2.02392,0.154727\C,0,3.5989,-0.67714,0.234345\C,0,2.22
 847,1.035,-1.01385\C,0,2.40232,0.243237,0.272013\C,0,3.02612,-1.94354,
 -0.371195\C,0,-2.69751,-0.706795,-1.23077\C,0,-2.56671,0.278312,-0.317
 919\C,0,-1.33867,1.14011,-0.152796\C,0,0.14615,-0.39283,1.21864\C,0,-4
 .60898,-0.37403,-0.167295\H,0,3.88883,-0.840484,1.29344\H,0,1.39399,2.

 Normal termination of Gaussian 16 at Tue Apr  8 20:52:47 2025.
