 Gaussian 16, Revision C.01,

 ----------------------------------------------------------------------
 #t hf aug-cc-pvdz symm=none int=(grid=ultrafine) guess=(read,tcheck) s
 table=(opt,rrhf)
 ----------------------------------------------------------------------
 -----
 title
 -----
 Symbolic Z-matrix:
 Charge =  0 Multiplicity = 1

 SCF Done:  E(RHF) =  -509.536197143     A.U. after   14 cycles
 Normal termination of Gaussian 16 at Tue Apr  8 22:11:57 2025.
 Gaussian 16:  ES64L-G16RevC.01  3-Jul-2019

 ----------------------------------------------------------------------
 #t hf aug-cc-pvdz iop(5/13=1,5/36=2,99/5=2) pseudo=read geom=check gue
 ss=(read,tcheck) scf=(maxcycle=1)
 ----------------------------------------------------------------------
 -----
 title
 -----
 Structure from the checkpoint file:  "ANI1ccx_939_conf43_mol1.chk"
 Charge =  0 Multiplicity = 1

                         Standard orientation:
 ---------------------------------------------------------------------
 Center     Atomic      Atomic             Coordinates (Angstroms)
 Number     Number       Type             X           Y           Z
 ---------------------------------------------------------------------
      1          6           0       -0.958298    0.561644   -0.723775
      2          6           0       -1.165751   -0.598326    0.196727
      3          6           0        0.478505    0.506042   -1.131290
      4          6           0        1.455489   -0.001764   -0.089173
      5          1           0       -1.664010    1.801311    0.693299
      6          1           0       -0.310632    2.273770    0.173283
      7          1           0       -1.531551    0.319068   -1.600180
      8          1           0        0.549349   -0.102390   -2.014860
      9          1           0        0.791780    1.474380   -1.293640
     10          1           0        2.030439    0.400782    1.696040
     11          1           0       -1.087402   -2.514199    0.016008
     12          7           0       -1.185440    1.906311   -0.121695
     13          8           0       -1.338831   -0.586823    1.417320
     14          8           0        2.269829   -0.925114   -0.175486
     15          8           0        1.452319    0.767778    0.997857
     16          8           0       -1.050762   -1.731149   -0.531317
 ---------------------------------------------------------------------

 SCF Done:  E(RHF) =  -510.046490118     A.U. after    2 cycles

 The electronic state is 1-A.
 Alpha  occ. eigenvalues --  -20.61729 -20.61197 -20.55670 -20.54606 -15.49803
 Alpha  occ. eigenvalues --  -11.41336 -11.41067 -11.30597 -11.27157  -1.56339
 Alpha  occ. eigenvalues --   -1.56010  -1.45832  -1.44430  -1.22784  -1.09622
 Alpha  occ. eigenvalues --   -0.98478  -0.87204  -0.82103  -0.75371  -0.73723
 Alpha  occ. eigenvalues --   -0.71906  -0.70754  -0.67690  -0.67302  -0.65390
 Alpha  occ. eigenvalues --   -0.61978  -0.61088  -0.58014  -0.57138  -0.55764
 Alpha  occ. eigenvalues --   -0.49235  -0.47977  -0.46927  -0.46053  -0.44495
 Alpha virt. eigenvalues --    0.03500   0.03856   0.04239   0.05106   0.05422
 Alpha virt. eigenvalues --    0.06508   0.07585   0.09568   0.10239   0.11552
 Alpha virt. eigenvalues --    0.12417   0.12744   0.13960   0.14298   0.14401

 Mulliken charges:
               1
     1  C   -1.558464
     2  C    2.717714
     3  C   -0.446523
     4  C    2.572162
     5  H    0.165057
     6  H    0.331849
     7  H    0.152265
     8  H    0.100538
     9  H    0.127597
    10  H    0.365018
    11  H    0.328072
    12  N    0.521546
    13  O   -1.374185
    14  O   -1.373866
    15  O   -1.309789
    16  O   -1.318992
 Sum of Mulliken charges =  -0.00000

 Dipole moment (field-independent basis, Debye):
    X=             -0.1940    Y=              0.1883    Z=             -0.5089  Tot=              0.5763

 Test job not archived.
 1\1\GINC-SE095\SP\RHF\Aug-CC-pVDZ\C4H7N1O4\OHZDE\08-Apr-2025\0\\#t hf
 aug-cc-pvdz iop(5/13=1,5/36=2,99/5=2) pseudo=read geom=check guess=(re
 ad,tcheck) scf=(maxcycle=1)\\title\\0,1\C,0,-0.958297,0.561644,-0.7237
 75\C,0,-1.16575,-0.598327,0.196727\C,0,0.478506,0.506042,-1.13129\C,0,
 1.45549,-0.00176403,-0.0891726\H,0,-1.66401,1.80131,0.693299\H,0,-0.31
 0632,2.27377,0.173283\H,0,-1.53155,0.319067,-1.60018\H,0,0.54935,-0.10
 239,-2.01486\H,0,0.791781,1.47438,-1.29364\H,0,2.03044,0.400782,1.6960
 4\H,0,-1.0874,-2.5142,0.0160086\N,0,-1.18544,1.90631,-0.121695\O,0,-1.

 Normal termination of Gaussian 16 at Tue Apr  8 22:12:05 2025.
