 Gaussian 16, Revision C.01,

 ----------------------------------------------------------------------
 #t hf aug-cc-pvdz symm=none int=(grid=ultrafine) guess=(read,tcheck) s
 table=(opt,rrhf)
 ----------------------------------------------------------------------
 -----
 title
 -----
 Symbolic Z-matrix:
 Charge =  0 Multiplicity = 1

 SCF Done:  E(RHF) =  -466.635280844     A.U. after   13 cycles
 Normal termination of Gaussian 16 at Tue Apr  8 21:46:11 2025.
 Gaussian 16:  ES64L-G16RevC.01  3-Jul-2019

 ----------------------------------------------------------------------
 #t hf aug-cc-pvdz iop(5/13=1,5/36=2,99/5=2) pseudo=read geom=check gue
 ss=(read,tcheck) scf=(maxcycle=1)
 ----------------------------------------------------------------------
 -----
 title
 -----
 Structure from the checkpoint file:  "ANI1ccx_540_conf2_mol1.chk"
 Charge =  0 Multiplicity = 1

                         Standard orientation:
 ---------------------------------------------------------------------
 Center     Atomic      Atomic             Coordinates (Angstroms)
 Number     Number       Type             X           Y           Z
 ---------------------------------------------------------------------
      1          6           0       -1.494170   -0.411187   -0.034658
      2          6           0        0.735875    0.601523   -0.005783
      3          1           0       -3.034169    0.947052    0.201468
      4          1           0       -1.437759    1.620071   -0.308234
      5          1           0        0.229670   -1.368600    0.067329
      6          1           0        2.753831    0.777847   -0.529294
      7          1           0        2.765470   -1.364871    0.619911
      8          7           0       -2.021959    0.882069    0.009636
      9          7           0       -0.139420   -0.470865   -0.051336
     10          7           0        2.067780    0.225334    0.150466
     11          8           0       -2.124980   -1.396399    0.026002
     12          8           0        0.416571    1.758510    0.022993
     13          8           0        2.199400   -1.138271   -0.120231
 ---------------------------------------------------------------------

 SCF Done:  E(RHF) =  -467.097768421     A.U. after    2 cycles

 The electronic state is 1-A.
 Alpha  occ. eigenvalues --  -20.63244 -20.54302 -20.50975 -15.61507 -15.55064
 Alpha  occ. eigenvalues --  -15.50757 -11.42052 -11.38673  -1.56482  -1.51417
 Alpha  occ. eigenvalues --   -1.50013  -1.29194  -1.20351  -1.16988  -0.94282
 Alpha  occ. eigenvalues --   -0.85679  -0.80986  -0.77113  -0.76085  -0.73849
 Alpha  occ. eigenvalues --   -0.70471  -0.66676  -0.65534  -0.64329  -0.59033
 Alpha  occ. eigenvalues --   -0.55933  -0.48843  -0.48198  -0.46866  -0.45425
 Alpha  occ. eigenvalues --   -0.43416
 Alpha virt. eigenvalues --    0.02383   0.04190   0.04798   0.06123   0.07433
 Alpha virt. eigenvalues --    0.09494   0.09813   0.10881   0.11965   0.12242
 Alpha virt. eigenvalues --    0.13368   0.13846   0.14421   0.15930   0.15970

 Mulliken charges:
               1
     1  C   -0.007085
     2  C    0.088363
     3  H    0.151095
     4  H    0.107756
     5  H    0.247230
     6  H    0.303584
     7  H    0.331485
     8  N    0.469373
     9  N    0.694447
    10  N    1.143078
    11  O   -1.183639
    12  O   -1.227820
    13  O   -1.117867
 Sum of Mulliken charges =  -0.00000

 Dipole moment (field-independent basis, Debye):
    X=              3.8897    Y=              0.1864    Z=             -0.0962  Tot=              3.8954

 Test job not archived.
 1\1\GINC-SE402\SP\RHF\Aug-CC-pVDZ\C2H5N3O3\OHZDE\08-Apr-2025\0\\#t hf
 aug-cc-pvdz iop(5/13=1,5/36=2,99/5=2) pseudo=read geom=check guess=(re
 ad,tcheck) scf=(maxcycle=1)\\title\\0,1\C,0,-1.49417,-0.411188,-0.0346
 576\C,0,0.735874,0.601523,-0.00578325\H,0,-3.03417,0.947051,0.201468\H
 ,0,-1.43776,1.62007,-0.308234\H,0,0.22967,-1.3686,0.067329\H,0,2.75383
 ,0.777848,-0.529294\H,0,2.76547,-1.36487,0.619911\N,0,-2.02196,0.88206
 8,0.00963597\N,0,-0.13942,-0.470865,-0.051336\N,0,2.06778,0.225335,0.1
 50466\O,0,-2.12498,-1.3964,0.0260018\O,0,0.41657,1.75851,0.022993\O,0,

 Normal termination of Gaussian 16 at Tue Apr  8 21:46:16 2025.
