 Gaussian 16, Revision C.01,

 ----------------------------------------------------------------------
 #t hf aug-cc-pvdz symm=none int=(grid=ultrafine) guess=(read,tcheck) s
 table=(opt,rrhf)
 ----------------------------------------------------------------------
 -----
 title
 -----
 Symbolic Z-matrix:
 Charge =  0 Multiplicity = 1

 SCF Done:  E(RHF) =  -221.190151906     A.U. after   14 cycles
 Normal termination of Gaussian 16 at Tue Apr  8 21:13:22 2025.
 Gaussian 16:  ES64L-G16RevC.01  3-Jul-2019

 ----------------------------------------------------------------------
 #t hf aug-cc-pvdz iop(5/13=1,5/36=2,99/5=2) pseudo=read geom=check gue
 ss=(read,tcheck) scf=(maxcycle=1)
 ----------------------------------------------------------------------
 -----
 title
 -----
 Structure from the checkpoint file:  "ANI1ccx_1899_conf17_mol1.chk"
 Charge =  0 Multiplicity = 1

                         Standard orientation:
 ---------------------------------------------------------------------
 Center     Atomic      Atomic             Coordinates (Angstroms)
 Number     Number       Type             X           Y           Z
 ---------------------------------------------------------------------
      1          1           0       -0.676478   -0.505015    0.255758
      2          1           0       -1.889392   -1.280280   -0.537333
      3          1           0       -3.247172   -0.157561    0.602763
      4          1           0       -2.911733    1.078800   -0.284487
      5          1           0        2.748517    1.116891    0.445505
      6          1           0        2.316378   -0.677103    1.141320
      7          7           0       -1.462332   -0.376194   -0.413122
      8          7           0       -2.419082    0.432902    0.300344
      9          7           0        2.447768    0.521645   -0.317708
     10          7           0        1.956488   -0.517745    0.198553
 ---------------------------------------------------------------------

 SCF Done:  E(RHF) =  -221.420105828     A.U. after    2 cycles

 The electronic state is 1-A.
 Alpha  occ. eigenvalues --  -15.58358 -15.57826 -15.51126 -15.50727  -1.36002
 Alpha  occ. eigenvalues --   -1.24169  -1.02073  -0.96625  -0.80605  -0.70957
 Alpha  occ. eigenvalues --   -0.66555  -0.65631  -0.62836  -0.57098  -0.47910
 Alpha  occ. eigenvalues --   -0.46166  -0.43254
 Alpha virt. eigenvalues --    0.02811   0.04184   0.04771   0.05688   0.06349
 Alpha virt. eigenvalues --    0.06899   0.09035   0.14576   0.14867   0.15759
 Alpha virt. eigenvalues --    0.17441   0.17711   0.17988   0.18585   0.19387

 Mulliken charges:
               1
     1  H    0.154786
     2  H    0.140276
     3  H    0.123297
     4  H    0.073315
     5  H    0.115017
     6  H    0.098548
     7  N   -0.203687
     8  N   -0.250582
     9  N   -0.087313
    10  N   -0.163657
 Sum of Mulliken charges =  -0.00000

 Dipole moment (field-independent basis, Debye):
    X=              0.0109    Y=             -0.7190    Z=              2.9590  Tot=              3.0451

 Test job not archived.
 1\1\GINC-SE059\SP\RHF\Aug-CC-pVDZ\H6N4\OHZDE\08-Apr-2025\0\\#t hf aug-
 cc-pvdz iop(5/13=1,5/36=2,99/5=2) pseudo=read geom=check guess=(read,t
 check) scf=(maxcycle=1)\\title\\0,1\H,0,-0.676476,-0.505015,0.255758\H
 ,0,-1.88939,-1.28028,-0.537333\H,0,-3.24717,-0.157561,0.602763\H,0,-2.
 91173,1.0788,-0.284487\H,0,2.74852,1.11689,0.445505\H,0,2.31638,-0.677
 103,1.14132\N,0,-1.46233,-0.376194,-0.413122\N,0,-2.41908,0.432902,0.3
 00344\N,0,2.44777,0.521645,-0.317708\N,0,1.95649,-0.517745,0.198553\\V
 ersion=ES64L-G16RevC.01\State=1-A\HF=-221.4201058\RMSD=2.459e-02\Dipol

 Normal termination of Gaussian 16 at Tue Apr  8 21:13:24 2025.
