 Gaussian 16, Revision C.01,

 ----------------------------------------------------------------------
 #t hf aug-cc-pvdz symm=none int=(grid=ultrafine) guess=(read,tcheck) s
 table=(opt,rrhf)
 ----------------------------------------------------------------------
 -----
 title
 -----
 Symbolic Z-matrix:
 Charge =  0 Multiplicity = 1

 SCF Done:  E(RHF) =  -638.817943478     A.U. after   14 cycles
 Normal termination of Gaussian 16 at Tue Apr  8 19:19:19 2025.
 Gaussian 16:  ES64L-G16RevC.01  3-Jul-2019

 ----------------------------------------------------------------------
 #t hf aug-cc-pvdz iop(5/13=1,5/36=2,99/5=2) pseudo=read geom=check gue
 ss=(read,tcheck) scf=(maxcycle=1)
 ----------------------------------------------------------------------
 -----
 title
 -----
 Structure from the checkpoint file:  "ANI1ccx_1034_conf2_mol1.chk"
 Charge =  0 Multiplicity = 1

                         Standard orientation:
 ---------------------------------------------------------------------
 Center     Atomic      Atomic             Coordinates (Angstroms)
 Number     Number       Type             X           Y           Z
 ---------------------------------------------------------------------
      1          6           0       -2.377319   -0.789905    0.141519
      2          6           0       -1.241459    1.229200    0.080961
      3          6           0        1.226331    1.043199    0.770343
      4          6           0        1.941731    0.180136   -0.325433
      5          6           0        3.379851    0.023685    0.202746
      6          1           0        3.469870   -1.779471   -0.444697
      7          1           0        4.028291    0.939904    0.081318
      8          1           0        3.272531   -0.215929    1.300920
      9          1           0        0.475484   -1.027701   -0.706811
     10          1           0        2.065441    0.715108   -1.302120
     11          1           0        1.907471    1.810149    1.134710
     12          1           0        0.146726    2.700729    0.057882
     13          1           0       -2.893680   -2.785470    0.151299
     14          1           0       -1.759000   -2.308460    1.405010
     15          1           0       -4.163619   -0.926044   -0.993774
     16          1           0       -3.068109    0.360337   -1.229200
     17          1           0        0.949011    0.339527    1.598680
     18          7           0       -3.319629   -0.476169   -0.723499
     19          7           0       -2.496140   -2.029320    0.734697
     20          7           0       -1.310499   -0.063114    0.460684
     21          7           0        0.067555    1.722809    0.283912
     22          8           0        1.379730   -1.101521   -0.486056
     23          8           0       -2.071849    1.878710   -0.505241
     24          8           0        4.117840   -1.029691   -0.454275
 ---------------------------------------------------------------------

 SCF Done:  E(RHF) =  -639.466899236     A.U. after    2 cycles

 The electronic state is 1-A.
 Alpha  occ. eigenvalues --  -20.54620 -20.53444 -20.49874 -15.54888 -15.54521
 Alpha  occ. eigenvalues --  -15.50135 -15.47185 -11.39838 -11.36885 -11.28787
 Alpha  occ. eigenvalues --  -11.28385 -11.27171  -1.47130  -1.46453  -1.41553
 Alpha  occ. eigenvalues --   -1.33173  -1.23332  -1.20526  -1.18023  -1.03134
 Alpha  occ. eigenvalues --   -0.93919  -0.90834  -0.85265  -0.81693  -0.81324
 Alpha  occ. eigenvalues --   -0.75408  -0.72131  -0.71118  -0.70603  -0.68390
 Alpha  occ. eigenvalues --   -0.65551  -0.64453  -0.63937  -0.62842  -0.59086
 Alpha  occ. eigenvalues --   -0.57096  -0.56590  -0.54664  -0.51628  -0.51311
 Alpha  occ. eigenvalues --   -0.49375  -0.49112  -0.46511  -0.42576  -0.42104
 Alpha  occ. eigenvalues --   -0.41558  -0.39128
 Alpha virt. eigenvalues --    0.01783   0.03687   0.04123   0.04413   0.04906
 Alpha virt. eigenvalues --    0.05584   0.05981   0.07129   0.07433   0.07629
 Alpha virt. eigenvalues --    0.08926   0.09412   0.10549   0.11233   0.11674

 Mulliken charges:
               1
     1  C   -1.608716
     2  C    0.136119
     3  C   -0.993945
     4  C    0.870850
     5  C    0.691710
     6  H    0.367302
     7  H    0.138247
     8  H    0.193205
     9  H    0.458426
    10  H    0.197855
    11  H    0.015077
    12  H    0.251309
    13  H    0.164157
    14  H    0.215727
    15  H    0.022061
    16  H    0.321489
    17  H    0.238196
    18  N    0.611449
    19  N    0.607180
    20  N    0.474627
    21  N    0.666556
    22  O   -1.472639
    23  O   -1.302905
    24  O   -1.263335
 Sum of Mulliken charges =  -0.00000

 Dipole moment (field-independent basis, Debye):
    X=             -4.2510    Y=             -2.6673    Z=             -0.0173  Tot=              5.0186

 Test job not archived.
 1\1\GINC-SE423\SP\RHF\Aug-CC-pVDZ\C5H12N4O3\OHZDE\08-Apr-2025\0\\#t hf
  aug-cc-pvdz iop(5/13=1,5/36=2,99/5=2) pseudo=read geom=check guess=(r
 ead,tcheck) scf=(maxcycle=1)\\title\\0,1\C,0,-2.37732,-0.789905,0.1415
 19\C,0,-1.24146,1.2292,0.0809607\C,0,1.22633,1.0432,0.770343\C,0,1.941
 73,0.180137,-0.325433\C,0,3.37985,0.0236864,0.202746\H,0,3.46987,-1.77
 947,-0.444697\H,0,4.02829,0.939905,0.0813179\H,0,3.27253,-0.215928,1.3
 0092\H,0,0.475484,-1.0277,-0.706811\H,0,2.06544,0.715109,-1.30212\H,0,
 1.90747,1.81015,1.13471\H,0,0.146725,2.70073,0.0578818\H,0,-2.89368,-2

 Normal termination of Gaussian 16 at Tue Apr  8 19:19:34 2025.
