 Gaussian 16, Revision C.01,

 ----------------------------------------------------------------------
 #t hf aug-cc-pvdz symm=none int=(grid=ultrafine) guess=(read,tcheck) s
 table=(opt,rrhf)
 ----------------------------------------------------------------------
 -----
 title
 -----
 Symbolic Z-matrix:
 Charge =  0 Multiplicity = 1

 SCF Done:  E(RHF) =  -794.440790266     A.U. after   14 cycles
 Normal termination of Gaussian 16 at Tue Apr  8 20:11:16 2025.
 Gaussian 16:  ES64L-G16RevC.01  3-Jul-2019

 ----------------------------------------------------------------------
 #t hf aug-cc-pvdz iop(5/13=1,5/36=2,99/5=2) pseudo=read geom=check gue
 ss=(read,tcheck) scf=(maxcycle=1)
 ----------------------------------------------------------------------
 -----
 title
 -----
 Structure from the checkpoint file:  "ANI1ccx_1592_conf15_mol1.chk"
 Charge =  0 Multiplicity = 1

                         Standard orientation:
 ---------------------------------------------------------------------
 Center     Atomic      Atomic             Coordinates (Angstroms)
 Number     Number       Type             X           Y           Z
 ---------------------------------------------------------------------
      1          6           0        0.550285    1.450499   -0.301021
      2          6           0       -0.855869    1.868870    0.005743
      3          6           0        1.450282    1.163578    0.912245
      4          6           0        2.703712    0.381527    0.502752
      5          6           0        2.536260   -1.096643    0.020560
      6          6           0       -1.471909   -0.520211    0.569402
      7          6           0       -2.089040   -1.326699   -0.531969
      8          6           0       -2.124780   -0.997632    1.827070
      9          1           0       -0.331314   -2.052410   -0.859755
     10          1           0       -3.200019   -0.689775    1.676980
     11          1           0       -1.689269   -0.665614    2.794310
     12          1           0       -2.058661   -2.109649    1.835440
     13          1           0       -0.402773   -0.659376    0.654019
     14          1           0       -2.672468    0.984643    0.278650
     15          1           0        3.584908   -2.767614   -0.032225
     16          1           0        3.155892    0.833998   -0.382887
     17          1           0        3.396482    0.415746    1.411640
     18          1           0        1.896873    2.053917    1.385770
     19          1           0        0.981589    0.580993    1.775340
     20          1           0        0.456453    0.522484   -0.793976
     21          1           0        0.718955    2.403839   -2.117140
     22          1           0        1.063665    3.438098   -0.830804
     23          7           0        1.144844    2.450938   -1.200890
     24          7           0       -1.708738    0.851275    0.381906
     25          8           0       -1.351986    2.984331   -0.069011
     26          8           0        1.533680   -1.591912   -0.460435
     27          8           0        3.679379   -1.784494    0.103678
     28          8           0       -3.280450   -1.329947   -0.767697
     29          8           0       -1.223961   -2.146039   -1.192930
 ---------------------------------------------------------------------

 SCF Done:  E(RHF) =  -795.238676063     A.U. after    2 cycles

 The electronic state is 1-A.
 Alpha  occ. eigenvalues --  -20.63442 -20.59221 -20.57697 -20.53740 -20.51673
 Alpha  occ. eigenvalues --  -15.52097 -15.50645 -11.43948 -11.39386 -11.36523
 Alpha  occ. eigenvalues --  -11.29631 -11.29408 -11.29373 -11.28483 -11.25299
 Alpha  occ. eigenvalues --   -1.58050  -1.53486  -1.48546  -1.46400  -1.45001
 Alpha  occ. eigenvalues --   -1.26994  -1.20460  -1.09797  -1.07482  -1.00252
 Alpha  occ. eigenvalues --   -0.92683  -0.91371  -0.84627  -0.83906  -0.81901
 Alpha  occ. eigenvalues --   -0.78180  -0.74692  -0.74443  -0.71767  -0.71437
 Alpha  occ. eigenvalues --   -0.68476  -0.67206  -0.66262  -0.64786  -0.63585
 Alpha  occ. eigenvalues --   -0.62906  -0.61540  -0.60412  -0.59579  -0.58877
 Alpha  occ. eigenvalues --   -0.56885  -0.55414  -0.54927  -0.54027  -0.52758
 Alpha  occ. eigenvalues --   -0.52150  -0.50872  -0.47367  -0.47022  -0.46514
 Alpha  occ. eigenvalues --   -0.45605  -0.42695  -0.40834
 Alpha virt. eigenvalues --    0.01860   0.02514   0.03277   0.03906   0.05413
 Alpha virt. eigenvalues --    0.05431   0.05487   0.06335   0.06600   0.07491
 Alpha virt. eigenvalues --    0.08572   0.08716   0.09352   0.09658   0.10279

 Mulliken charges:
               1
     1  C   -1.679865
     2  C    0.721838
     3  C   -0.025226
     4  C   -0.615142
     5  C    2.279593
     6  C   -1.128875
     7  C    2.361082
     8  C   -0.308320
     9  H    0.621216
    10  H    0.330849
    11  H    0.144651
    12  H    0.287324
    13  H    0.097189
    14  H    0.176862
    15  H    0.429662
    16  H    0.378674
    17  H    0.228278
    18  H    0.126303
    19  H    0.259044
    20  H    0.223718
    21  H    0.247040
    22  H    0.284430
    23  N    0.584950
    24  N    0.925084
    25  O   -1.412946
    26  O   -1.276026
    27  O   -1.474698
    28  O   -1.381781
    29  O   -1.404906
 Sum of Mulliken charges =  -0.00000

 Dipole moment (field-independent basis, Debye):
    X=              6.5280    Y=             -1.6998    Z=              3.2535  Tot=              7.4893

 Test job not archived.
 1\1\GINC-SE368\SP\RHF\Aug-CC-pVDZ\C8H14N2O5\OHZDE\08-Apr-2025\0\\#t hf
  aug-cc-pvdz iop(5/13=1,5/36=2,99/5=2) pseudo=read geom=check guess=(r
 ead,tcheck) scf=(maxcycle=1)\\title\\0,1\C,0,0.550282,1.4505,-0.301021
 \C,0,-0.855872,1.86887,0.00574362\C,0,1.45028,1.16358,0.912245\C,0,2.7
 0371,0.38153,0.502752\C,0,2.53626,-1.09664,0.0205601\C,0,-1.47191,-0.5
 20212,0.569402\C,0,-2.08904,-1.3267,-0.531969\C,0,-2.12478,-0.997633,1
 .82707\H,0,-0.331313,-2.05241,-0.859755\H,0,-3.20002,-0.689778,1.67698
 \H,0,-1.68927,-0.665615,2.79431\H,0,-2.05866,-2.10965,1.83544\H,0,-0.4

 Normal termination of Gaussian 16 at Tue Apr  8 20:11:45 2025.
