 Gaussian 16, Revision C.01,

 ----------------------------------------------------------------------
 #t hf aug-cc-pvdz symm=none int=(grid=ultrafine) guess=(read,tcheck) s
 table=(opt,rrhf)
 ----------------------------------------------------------------------
 -----
 title
 -----
 Symbolic Z-matrix:
 Charge =  0 Multiplicity = 1

 SCF Done:  E(RHF) =  -544.133512015     A.U. after   14 cycles
 Normal termination of Gaussian 16 at Tue Apr  8 21:50:06 2025.
 Gaussian 16:  ES64L-G16RevC.01  3-Jul-2019

 ----------------------------------------------------------------------
 #t hf aug-cc-pvdz iop(5/13=1,5/36=2,99/5=2) pseudo=read geom=check gue
 ss=(read,tcheck) scf=(maxcycle=1)
 ----------------------------------------------------------------------
 -----
 title
 -----
 Structure from the checkpoint file:  "ANI1ccx_673_conf1_mol1.chk"
 Charge =  0 Multiplicity = 1

                         Standard orientation:
 ---------------------------------------------------------------------
 Center     Atomic      Atomic             Coordinates (Angstroms)
 Number     Number       Type             X           Y           Z
 ---------------------------------------------------------------------
      1          6           0        1.203110   -0.156146   -0.111123
      2          6           0        0.041123    1.878160    0.319173
      3          6           0       -1.261109   -0.028641   -0.059124
      4          1           0       -0.018753   -2.375629   -0.584096
      5          1           0       -0.007568    2.893710   -0.241415
      6          1           0        0.003765    1.972030    1.467910
      7          7           0       -0.024413   -0.669254    0.219235
      8          8           0       -0.029483   -2.050829    0.372872
      9          8           0        2.210856   -0.759252   -0.279952
     10          8           0        1.261699    1.218992   -0.036775
     11          8           0       -1.096491    1.230707   -0.249738
     12          8           0       -2.309743   -0.635315   -0.190233
 ---------------------------------------------------------------------

 SCF Done:  E(RHF) =  -544.658641386     A.U. after    2 cycles

 The electronic state is 1-A.
 Alpha  occ. eigenvalues --  -20.65513 -20.64772 -20.63871 -20.56556 -20.56358
 Alpha  occ. eigenvalues --  -15.64406 -11.46970 -11.45989 -11.43346  -1.64726
 Alpha  occ. eigenvalues --   -1.58174  -1.55636  -1.49764  -1.48483  -1.25176
 Alpha  occ. eigenvalues --   -1.03259  -0.98404  -0.86267  -0.83335  -0.80642
 Alpha  occ. eigenvalues --   -0.75243  -0.69908  -0.69529  -0.67723  -0.67311
 Alpha  occ. eigenvalues --   -0.66704  -0.60957  -0.60098  -0.54431  -0.51556
 Alpha  occ. eigenvalues --   -0.51012  -0.50760  -0.48809  -0.47231
 Alpha virt. eigenvalues --    0.02657   0.03908   0.04500   0.06950   0.07628
 Alpha virt. eigenvalues --    0.09716   0.10039   0.10462   0.10829   0.12176
 Alpha virt. eigenvalues --    0.12796   0.13675   0.13935   0.14768   0.15593

 Mulliken charges:
               1
     1  C    1.339671
     2  C    0.873157
     3  C    1.381503
     4  H    0.327845
     5  H    0.209061
     6  H    0.279851
     7  N    1.544213
     8  O   -1.309508
     9  O   -1.078015
    10  O   -1.271912
    11  O   -1.180960
    12  O   -1.114906
 Sum of Mulliken charges =  -0.00000

 Dipole moment (field-independent basis, Debye):
    X=             -0.1362    Y=              2.8172    Z=              0.0018  Tot=              2.8205

 Test job not archived.
 1\1\GINC-SE424\SP\RHF\Aug-CC-pVDZ\C3H3N1O5\OHZDE\08-Apr-2025\0\\#t hf
 aug-cc-pvdz iop(5/13=1,5/36=2,99/5=2) pseudo=read geom=check guess=(re
 ad,tcheck) scf=(maxcycle=1)\\title\\0,1\C,0,1.20311,-0.156139,-0.11112
 3\C,0,0.0411098,1.87816,0.319173\C,0,-1.26111,-0.0286494,-0.0591242\H,
 0,-0.0187388,-2.37563,-0.584096\H,0,-0.00758743,2.89371,-0.241415\H,0,
 0.00375164,1.97203,1.46791\N,0,-0.0244098,-0.669255,0.219235\O,0,-0.02
 94711,-2.05083,0.372872\O,0,2.21086,-0.759238,-0.279952\O,0,1.26169,1.
 219,-0.0367747\O,0,-1.0965,1.2307,-0.249738\O,0,-2.30974,-0.63533,-0.1

 Normal termination of Gaussian 16 at Tue Apr  8 21:50:11 2025.
