 Gaussian 16, Revision C.01,

 ----------------------------------------------------------------------
 #t hf aug-cc-pvdz symm=none int=(grid=ultrafine) guess=(read,tcheck) s
 table=(opt,rrhf)
 ----------------------------------------------------------------------
 -----
 title
 -----
 Symbolic Z-matrix:
 Charge =  0 Multiplicity = 1

 SCF Done:  E(RHF) =  -256.797810749     A.U. after   15 cycles
 Normal termination of Gaussian 16 at Tue Apr  8 21:29:29 2025.
 Gaussian 16:  ES64L-G16RevC.01  3-Jul-2019

 ----------------------------------------------------------------------
 #t hf aug-cc-pvdz iop(5/13=1,5/36=2,99/5=2) pseudo=read geom=check gue
 ss=(read,tcheck) scf=(maxcycle=1)
 ----------------------------------------------------------------------
 -----
 title
 -----
 Structure from the checkpoint file:  "ANI1ccx_377_conf35_mol2.chk"
 Charge =  0 Multiplicity = 1

                         Standard orientation:
 ---------------------------------------------------------------------
 Center     Atomic      Atomic             Coordinates (Angstroms)
 Number     Number       Type             X           Y           Z
 ---------------------------------------------------------------------
      1          6           0       -1.057661   -0.301953    0.000274
      2          1           0       -2.100002   -0.587747    0.022400
      3          1           0        1.929078   -0.663160    0.026097
      4          7           0       -0.638392    0.989906   -0.002078
      5          7           0        0.660468    0.947502    0.001345
      6          7           0        0.969170   -0.341490   -0.002745
      7          7           0       -0.060262   -1.158400   -0.003685
 ---------------------------------------------------------------------

 SCF Done:  E(RHF) =  -257.055754425     A.U. after    2 cycles

 The electronic state is 1-A.
 Alpha  occ. eigenvalues --  -15.64754 -15.61610 -15.57557 -15.55678 -11.31279
 Alpha  occ. eigenvalues --   -1.50603  -1.29401  -1.21009  -0.96989  -0.94055
 Alpha  occ. eigenvalues --   -0.84202  -0.73783  -0.69074  -0.62781  -0.56558
 Alpha  occ. eigenvalues --   -0.53330  -0.50865  -0.45768
 Alpha virt. eigenvalues --    0.02772   0.05233   0.06422   0.08374   0.09272
 Alpha virt. eigenvalues --    0.09961   0.11758   0.14529   0.15262   0.15922
 Alpha virt. eigenvalues --    0.16315   0.17055   0.17972   0.19877   0.21385

 Mulliken charges:
               1
     1  C   -0.128065
     2  H   -0.004619
     3  H    0.081831
     4  N    0.215478
     5  N   -0.303017
     6  N    0.060325
     7  N    0.078066
 Sum of Mulliken charges =  -0.00000

 Dipole moment (field-independent basis, Debye):
    X=              0.7513    Y=             -1.9702    Z=              0.0697  Tot=              2.1097

 Test job not archived.
 1\1\GINC-SE094\SP\RHF\Aug-CC-pVDZ\C1H2N4\OHZDE\08-Apr-2025\0\\#t hf au
 g-cc-pvdz iop(5/13=1,5/36=2,99/5=2) pseudo=read geom=check guess=(read
 ,tcheck) scf=(maxcycle=1)\\title\\0,1\C,0,-1.05766,-0.301957,0.0002736
 5\H,0,-2.1,-0.587754,0.0223999\H,0,1.92908,-0.663153,0.0260971\N,0,-0.
 638396,0.989904,-0.00207764\N,0,0.660464,0.947504,0.00134516\N,0,0.969
 171,-0.341487,-0.00274532\N,0,-0.0602578,-1.1584,-0.00368491\\Version=
 ES64L-G16RevC.01\State=1-A\HF=-257.0557544\RMSD=5.190e-02\Dipole=0.295
 5989,-0.7751261,0.0274196\Quadrupole=6.0346044,-4.9183193,-1.1162851,-

 Normal termination of Gaussian 16 at Tue Apr  8 21:29:31 2025.
