 Gaussian 16, Revision C.01,

 ----------------------------------------------------------------------
 #t hf aug-cc-pvdz symm=none int=(grid=ultrafine) guess=(read,tcheck) s
 table=(opt,rrhf)
 ----------------------------------------------------------------------
 -----
 title
 -----
 Symbolic Z-matrix:
 Charge =  0 Multiplicity = 1

 SCF Done:  E(RHF) =  -849.434243614     A.U. after   14 cycles
 Normal termination of Gaussian 16 at Tue Apr  8 20:25:46 2025.
 Gaussian 16:  ES64L-G16RevC.01  3-Jul-2019

 ----------------------------------------------------------------------
 #t hf aug-cc-pvdz iop(5/13=1,5/36=2,99/5=2) pseudo=read geom=check gue
 ss=(read,tcheck) scf=(maxcycle=1)
 ----------------------------------------------------------------------
 -----
 title
 -----
 Structure from the checkpoint file:  "ANI1ccx_1611_conf14_mol1.chk"
 Charge =  0 Multiplicity = 1

                         Standard orientation:
 ---------------------------------------------------------------------
 Center     Atomic      Atomic             Coordinates (Angstroms)
 Number     Number       Type             X           Y           Z
 ---------------------------------------------------------------------
      1          6           0        2.185859    0.389547   -0.822812
      2          6           0        0.962708   -0.509183   -0.301599
      3          6           0        3.539860    0.025410   -0.037400
      4          6           0        3.954839    0.676056    1.254000
      5          6           0       -1.208630   -0.485758    0.691085
      6          6           0       -2.243779   -1.415712    0.087991
      7          6           0       -2.008991    0.667302    1.292080
      8          6           0       -2.470461    1.595768    0.152452
      9          1           0       -1.084849   -2.289361   -1.149540
     10          1           0       -3.857460    0.230277   -0.271310
     11          1           0       -3.740961    1.585687   -1.511470
     12          1           0       -2.846191    0.308813    1.840950
     13          1           0       -1.428321    1.344859    1.949270
     14          1           0       -0.608270   -1.164901    1.353610
     15          1           0       -0.053067    1.101390    0.065108
     16          1           0        4.211579    1.726662    1.113180
     17          1           0        3.193079    0.809830    1.927470
     18          1           0        4.981850    0.245606    1.653930
     19          1           0        3.127201   -1.794958    0.601252
     20          1           0        4.309470    0.270968   -0.807105
     21          1           0        2.428610   -0.003610   -1.812180
     22          1           0        2.825188    2.163232   -1.529530
     23          1           0        1.913078    2.339891   -0.131707
     24          7           0        2.024208    1.850961   -0.971895
     25          7           0       -0.139366    0.132981   -0.089069
     26          7           0       -3.498021    1.165168   -0.603875
     27          8           0        1.101561   -1.756750   -0.279234
     28          8           0        3.752331   -1.402708    0.042457
     29          8           0       -3.277289   -1.523582    0.737877
     30          8           0       -1.794302    2.533289   -0.169268
     31          8           0       -2.075689   -2.172592   -1.023440
 ---------------------------------------------------------------------

 SCF Done:  E(RHF) =  -850.291771386     A.U. after    2 cycles

 The electronic state is 1-A.
 Alpha  occ. eigenvalues --  -20.62497 -20.55666 -20.53714 -20.53044 -20.52300
 Alpha  occ. eigenvalues --  -15.56392 -15.54074 -15.51481 -11.42670 -11.38671
 Alpha  occ. eigenvalues --  -11.37169 -11.34101 -11.30725 -11.30529 -11.27609
 Alpha  occ. eigenvalues --  -11.24276  -1.55665  -1.48985  -1.47162  -1.46865
 Alpha  occ. eigenvalues --   -1.43869  -1.31302  -1.23342  -1.20933  -1.11056
 Alpha  occ. eigenvalues --   -1.03931  -0.98616  -0.95801  -0.89490  -0.84817
 Alpha  occ. eigenvalues --   -0.84210  -0.82328  -0.79284  -0.76964  -0.75220
 Alpha  occ. eigenvalues --   -0.72317  -0.70794  -0.69281  -0.68422  -0.68035
 Alpha  occ. eigenvalues --   -0.66162  -0.64767  -0.63136  -0.62841  -0.62443
 Alpha  occ. eigenvalues --   -0.60766  -0.60465  -0.58870  -0.58357  -0.56608
 Alpha  occ. eigenvalues --   -0.55031  -0.53446  -0.52476  -0.50416  -0.49346
 Alpha  occ. eigenvalues --   -0.48084  -0.46749  -0.45716  -0.45291  -0.44340
 Alpha  occ. eigenvalues --   -0.43419  -0.40658
 Alpha virt. eigenvalues --    0.02403   0.02953   0.03684   0.04081   0.04311
 Alpha virt. eigenvalues --    0.04772   0.05267   0.05711   0.06482   0.07045
 Alpha virt. eigenvalues --    0.07341   0.08124   0.08709   0.09283   0.09704

 Mulliken charges:
               1
     1  C   -1.523608
     2  C   -0.068030
     3  C    1.451396
     4  C   -0.459230
     5  C   -1.072412
     6  C    2.543685
     7  C   -0.058613
     8  C    0.340346
     9  H    0.386797
    10  H    0.215123
    11  H    0.152193
    12  H   -0.025690
    13  H    0.103689
    14  H    0.206854
    15  H    0.365119
    16  H    0.117931
    17  H   -0.039185
    18  H    0.327597
    19  H    0.356054
    20  H    0.026610
    21  H    0.286692
    22  H    0.202335
    23  H    0.188436
    24  N    0.753996
    25  N    1.681868
    26  N    0.711623
    27  O   -1.450635
    28  O   -1.467289
    29  O   -1.394346
    30  O   -1.377169
    31  O   -1.482135
 Sum of Mulliken charges =  -0.00000

 Dipole moment (field-independent basis, Debye):
    X=              1.2465    Y=              2.4582    Z=              1.2534  Tot=              3.0278

 Test job not archived.
 1\1\GINC-SE362\SP\RHF\Aug-CC-pVDZ\C8H15N3O5\OHZDE\08-Apr-2025\0\\#t hf
  aug-cc-pvdz iop(5/13=1,5/36=2,99/5=2) pseudo=read geom=check guess=(r
 ead,tcheck) scf=(maxcycle=1)\\title\\0,1\C,0,2.18586,0.389546,-0.82281
 2\C,0,0.962708,-0.509183,-0.301599\C,0,3.53986,0.0254077,-0.0374007\C,
 0,3.95484,0.676054,1.254\C,0,-1.20863,-0.485757,0.691085\C,0,-2.24378,
 -1.41571,0.0879907\C,0,-2.00899,0.667304,1.29208\C,0,-2.47046,1.59577,
 0.152452\H,0,-1.08485,-2.28936,-1.14954\H,0,-3.85746,0.23028,-0.27131\
 H,0,-3.74096,1.58569,-1.51147\H,0,-2.84619,0.308815,1.84095\H,0,-1.428

 Normal termination of Gaussian 16 at Tue Apr  8 20:26:19 2025.
