 Gaussian 16, Revision C.01,

 ----------------------------------------------------------------------
 #t hf aug-cc-pvdz symm=none int=(grid=ultrafine) guess=(read,tcheck) s
 table=(opt,rrhf)
 ----------------------------------------------------------------------
 -----
 title
 -----
 Symbolic Z-matrix:
 Charge =  0 Multiplicity = 1

 SCF Done:  E(RHF) =  -578.775166001     A.U. after   14 cycles
 Normal termination of Gaussian 16 at Tue Apr  8 22:17:02 2025.
 Gaussian 16:  ES64L-G16RevC.01  3-Jul-2019

 ----------------------------------------------------------------------
 #t hf aug-cc-pvdz iop(5/13=1,5/36=2,99/5=2) pseudo=read geom=check gue
 ss=(read,tcheck) scf=(maxcycle=1)
 ----------------------------------------------------------------------
 -----
 title
 -----
 Structure from the checkpoint file:  "ANI1ccx_987_conf7_mol1.chk"
 Charge =  0 Multiplicity = 1

                         Standard orientation:
 ---------------------------------------------------------------------
 Center     Atomic      Atomic             Coordinates (Angstroms)
 Number     Number       Type             X           Y           Z
 ---------------------------------------------------------------------
      1          6           0        2.063010   -0.487135    0.006382
      2          6           0        0.421987    1.218280    0.107057
      3          6           0       -1.823640    0.531802    0.752249
      4          6           0       -2.206800   -0.607836   -0.228732
      5          1           0       -0.418092   -1.448350    0.192964
      6          1           0       -2.289800    0.321026    1.743790
      7          1           0       -2.326750    1.456780    0.363015
      8          1           0        0.741956    2.762400   -1.106440
      9          1           0        0.024469    0.079603    1.639930
     10          1           0        2.001350   -2.337430    0.503206
     11          1           0        3.698660    0.276864   -0.755092
     12          1           0        3.490960   -1.422580   -0.898980
     13          1           0       -0.563357    2.927550   -0.078901
     14          7           0        3.382830   -0.585777   -0.355809
     15          7           0        1.371100   -1.511810    0.446714
     16          7           0        1.666990    0.815597   -0.065005
     17          7           0       -0.013042    2.274540   -0.626041
     18          7           0       -0.443492    0.705611    1.008470
     19          8           0       -1.322960   -1.708940   -0.241424
     20          8           0       -3.281720   -0.595267   -0.794020
 ---------------------------------------------------------------------

 SCF Done:  E(RHF) =  -579.361820993     A.U. after    2 cycles

 The electronic state is 1-A.
 Alpha  occ. eigenvalues --  -20.56782 -20.53458 -15.55918 -15.55760 -15.51730
 Alpha  occ. eigenvalues --  -15.48321 -15.47181 -11.40438 -11.39375 -11.35862
 Alpha  occ. eigenvalues --  -11.31858  -1.49363  -1.42198  -1.35997  -1.29100
 Alpha  occ. eigenvalues --   -1.24476  -1.18442  -1.14543  -1.02594  -0.92133
 Alpha  occ. eigenvalues --   -0.87185  -0.81592  -0.78575  -0.76030  -0.74679
 Alpha  occ. eigenvalues --   -0.73529  -0.72461  -0.70416  -0.67197  -0.64644
 Alpha  occ. eigenvalues --   -0.62449  -0.61350  -0.59401  -0.56921  -0.54326
 Alpha  occ. eigenvalues --   -0.52075  -0.48849  -0.47748  -0.46247  -0.45155
 Alpha  occ. eigenvalues --   -0.42891  -0.40388
 Alpha virt. eigenvalues --    0.01951   0.03520   0.04066   0.04493   0.04970
 Alpha virt. eigenvalues --    0.06044   0.06716   0.07275   0.08299   0.08727
 Alpha virt. eigenvalues --    0.09745   0.10279   0.11551   0.11986   0.12223

 Mulliken charges:
               1
     1  C   -1.724889
     2  C   -2.418578
     3  C   -1.193280
     4  C    2.254108
     5  H    0.815680
     6  H    0.230911
     7  H    0.216835
     8  H    0.236712
     9  H    0.553693
    10  H    0.088114
    11  H    0.188908
    12  H    0.208012
    13  H    0.210802
    14  N    0.456546
    15  N    0.550139
    16  N    0.649055
    17  N    0.810036
    18  N    0.684704
    19  O   -1.544205
    20  O   -1.273302
 Sum of Mulliken charges =   0.00000

 Dipole moment (field-independent basis, Debye):
    X=              3.4627    Y=              4.6104    Z=              1.5125  Tot=              5.9610

 Test job not archived.
 1\1\GINC-SE334\SP\RHF\Aug-CC-pVDZ\C4H9N5O2\OHZDE\08-Apr-2025\0\\#t hf
 aug-cc-pvdz iop(5/13=1,5/36=2,99/5=2) pseudo=read geom=check guess=(re
 ad,tcheck) scf=(maxcycle=1)\\title\\0,1\C,0,2.06301,-0.487135,0.006381
 74\C,0,0.421987,1.21828,0.107057\C,0,-1.82364,0.531802,0.752249\C,0,-2
 .2068,-0.607836,-0.228732\H,0,-0.418092,-1.44835,0.192964\H,0,-2.2898,
 0.321026,1.74379\H,0,-2.32675,1.45678,0.363015\H,0,0.741956,2.7624,-1.
 10644\H,0,0.0244692,0.0796025,1.63993\H,0,2.00135,-2.33743,0.503206\H,
 0,3.69866,0.276864,-0.755092\H,0,3.49096,-1.42258,-0.89898\H,0,-0.5633

 Normal termination of Gaussian 16 at Tue Apr  8 22:17:14 2025.
