 Gaussian 16, Revision C.01,

 ----------------------------------------------------------------------
 #t hf aug-cc-pvdz symm=none int=(grid=ultrafine) guess=(read,tcheck) s
 table=(opt,rrhf)
 ----------------------------------------------------------------------
 -----
 title
 -----
 Symbolic Z-matrix:
 Charge =  0 Multiplicity = 1

 SCF Done:  E(RHF) =  -205.849576643     A.U. after   15 cycles
 Normal termination of Gaussian 16 at Tue Apr  8 21:10:16 2025.
 Gaussian 16:  ES64L-G16RevC.01  3-Jul-2019

 ----------------------------------------------------------------------
 #t hf aug-cc-pvdz iop(5/13=1,5/36=2,99/5=2) pseudo=read geom=check gue
 ss=(read,tcheck) scf=(maxcycle=1)
 ----------------------------------------------------------------------
 -----
 title
 -----
 Structure from the checkpoint file:  "ANI1ccx_1869_conf27_mol1.chk"
 Charge =  0 Multiplicity = 1

                         Standard orientation:
 ---------------------------------------------------------------------
 Center     Atomic      Atomic             Coordinates (Angstroms)
 Number     Number       Type             X           Y           Z
 ---------------------------------------------------------------------
      1          1           0        2.341290   -0.228951    0.937954
      2          1           0       -2.868050    0.617683    0.482806
      3          1           0       -1.637840    0.111079   -0.278786
      4          7           0        1.978430   -0.322809   -0.067923
      5          8           0        1.047810    0.399814   -0.070269
      6          8           0       -2.508360   -0.179832   -0.013045
 ---------------------------------------------------------------------

 SCF Done:  E(RHF) =  -206.050762089     A.U. after    2 cycles

 The electronic state is 1-A.
 Alpha  occ. eigenvalues --  -20.64742 -20.55512 -15.66416  -1.64714  -1.42298
 Alpha  occ. eigenvalues --   -1.02096  -0.78966  -0.70963  -0.68864  -0.64198
 Alpha  occ. eigenvalues --   -0.57051  -0.49030  -0.44467
 Alpha virt. eigenvalues --    0.03138   0.04689   0.05062   0.07951   0.12911
 Alpha virt. eigenvalues --    0.14923   0.16928   0.17408   0.18132   0.21168
 Alpha virt. eigenvalues --    0.22191   0.23320   0.23965   0.25807   0.27080

 Mulliken charges:
               1
     1  H    0.068236
     2  H    0.389281
     3  H    0.405279
     4  N    0.768385
     5  O   -0.831717
     6  O   -0.799465
 Sum of Mulliken charges =   0.00000

 Dipole moment (field-independent basis, Debye):
    X=              1.7534    Y=              1.7472    Z=              1.8935  Tot=              3.1165

 Test job not archived.
 1\1\GINC-SE455\SP\RHF\Aug-CC-pVDZ\H3N1O2\OHZDE\08-Apr-2025\0\\#t hf au
 g-cc-pvdz iop(5/13=1,5/36=2,99/5=2) pseudo=read geom=check guess=(read
 ,tcheck) scf=(maxcycle=1)\\title\\0,1\H,0,2.34129,-0.228951,0.937954\H
 ,0,-2.86805,0.617683,0.482806\H,0,-1.63784,0.111079,-0.278786\N,0,1.97
 843,-0.322809,-0.0679225\O,0,1.04781,0.399814,-0.0702693\O,0,-2.50836,
 -0.179832,-0.0130452\\Version=ES64L-G16RevC.01\State=1-A\HF=-206.05076
 21\RMSD=1.083e-02\Dipole=0.6898467,0.6873928,0.7449457\Quadrupole=-0.2
 596456,-0.0628367,0.3224823,-3.0618788,1.0448101,-0.0061499\PG=C01 [X(

 Normal termination of Gaussian 16 at Tue Apr  8 21:10:17 2025.
