 Gaussian 16, Revision C.01,

 ----------------------------------------------------------------------
 #t hf aug-cc-pvdz symm=none int=(grid=ultrafine) guess=(read,tcheck) s
 table=(opt,rrhf)
 ----------------------------------------------------------------------
 -----
 title
 -----
 Symbolic Z-matrix:
 Charge =  0 Multiplicity = 1

 SCF Done:  E(RHF) =  -298.830136360     A.U. after   14 cycles
 Normal termination of Gaussian 16 at Tue Apr  8 21:35:39 2025.
 Gaussian 16:  ES64L-G16RevC.01  3-Jul-2019

 ----------------------------------------------------------------------
 #t hf aug-cc-pvdz iop(5/13=1,5/36=2,99/5=2) pseudo=read geom=check gue
 ss=(read,tcheck) scf=(maxcycle=1)
 ----------------------------------------------------------------------
 -----
 title
 -----
 Structure from the checkpoint file:  "ANI1ccx_398_conf13_mol2.chk"
 Charge =  0 Multiplicity = 1

                         Standard orientation:
 ---------------------------------------------------------------------
 Center     Atomic      Atomic             Coordinates (Angstroms)
 Number     Number       Type             X           Y           Z
 ---------------------------------------------------------------------
      1          6           0       -0.476638    0.139429   -0.029285
      2          1           0       -1.850980   -1.285842   -0.453012
      3          1           0       -2.468721    0.217373   -0.019322
      4          1           0        0.540945   -1.438010    0.690964
      5          1           0        1.531409    0.806345    0.203026
      6          7           0       -1.712570   -0.447844    0.085694
      7          7           0        0.591545   -0.805836   -0.100194
      8          8           0       -0.216286    1.317539   -0.003208
      9          8           0        1.835580   -0.112625   -0.014847
 ---------------------------------------------------------------------

 SCF Done:  E(RHF) =  -299.130249699     A.U. after    2 cycles

 The electronic state is 1-A.
 Alpha  occ. eigenvalues --  -20.58202 -20.54609 -15.57953 -15.55364 -11.41072
 Alpha  occ. eigenvalues --   -1.52678  -1.46635  -1.26456  -1.14342  -0.86672
 Alpha  occ. eigenvalues --   -0.81209  -0.75885  -0.72138  -0.66935  -0.63381
 Alpha  occ. eigenvalues --   -0.58228  -0.54763  -0.49166  -0.47675  -0.44130
 Alpha virt. eigenvalues --    0.02384   0.04941   0.05605   0.06717   0.10207
 Alpha virt. eigenvalues --    0.11299   0.11999   0.13943   0.14978   0.15739
 Alpha virt. eigenvalues --    0.16592   0.16989   0.17706   0.19074   0.20564

 Mulliken charges:
               1
     1  C   -0.048797
     2  H    0.140482
     3  H    0.193012
     4  H    0.230516
     5  H    0.373495
     6  N    0.410380
     7  N    0.915629
     8  O   -1.094943
     9  O   -1.119774
 Sum of Mulliken charges =  -0.00000

 Dipole moment (field-independent basis, Debye):
    X=             -3.1251    Y=             -1.6427    Z=              0.5071  Tot=              3.5667

 Test job not archived.
 1\1\GINC-SE250\SP\RHF\Aug-CC-pVDZ\C1H4N2O2\OHZDE\08-Apr-2025\0\\#t hf
 aug-cc-pvdz iop(5/13=1,5/36=2,99/5=2) pseudo=read geom=check guess=(re
 ad,tcheck) scf=(maxcycle=1)\\title\\0,1\C,0,-0.476637,0.13943,-0.02928
 54\H,0,-1.85098,-1.28584,-0.453012\H,0,-2.46872,0.217375,-0.0193219\H,
 0,0.540945,-1.43801,0.690964\H,0,1.53141,0.806345,0.203026\N,0,-1.7125
 7,-0.447842,0.0856939\N,0,0.591545,-0.805836,-0.100194\O,0,-0.216285,1
 .31754,-0.00320816\O,0,1.83558,-0.112625,-0.0148472\\Version=ES64L-G16
 RevC.01\State=1-A\HF=-299.1302497\RMSD=1.555e-02\Dipole=-1.2294933,-0.

 Normal termination of Gaussian 16 at Tue Apr  8 21:35:41 2025.
