 Gaussian 16, Revision C.01,

 ----------------------------------------------------------------------
 #t hf aug-cc-pvdz symm=none int=(grid=ultrafine) guess=(read,tcheck) s
 table=(opt,rrhf)
 ----------------------------------------------------------------------
 -----
 title
 -----
 Symbolic Z-matrix:
 Charge =  0 Multiplicity = 1

 SCF Done:  E(RHF) =  -716.199964218     A.U. after   13 cycles
 Normal termination of Gaussian 16 at Tue Apr  8 20:32:03 2025.
 Gaussian 16:  ES64L-G16RevC.01  3-Jul-2019

 ----------------------------------------------------------------------
 #t hf aug-cc-pvdz iop(5/13=1,5/36=2,99/5=2) pseudo=read geom=check gue
 ss=(read,tcheck) scf=(maxcycle=1)
 ----------------------------------------------------------------------
 -----
 title
 -----
 Structure from the checkpoint file:  "ANI1ccx_1645_conf3_mol2.chk"
 Charge =  0 Multiplicity = 1

                         Standard orientation:
 ---------------------------------------------------------------------
 Center     Atomic      Atomic             Coordinates (Angstroms)
 Number     Number       Type             X           Y           Z
 ---------------------------------------------------------------------
      1          6           0        1.537249    1.958311   -0.262208
      2          6           0        3.258410    0.051959   -0.140887
      3          6           0        2.760681   -0.945976    0.982449
      4          6           0        2.192681   -2.232049    0.293275
      5          6           0       -0.133316   -1.990250    0.222062
      6          6           0       -1.207029   -1.946081   -0.848155
      7          6           0       -2.587679   -1.624572   -0.301592
      8          6           0       -3.027960    0.767227    0.275551
      9          1           0       -1.298258   -2.910211   -1.432900
     10          1           0       -0.808961   -1.196470   -1.504450
     11          1           0       -3.311689   -1.451072   -1.102180
     12          1           0       -3.012798   -2.474782    0.232381
     13          1           0       -4.241441    2.217638    0.774768
     14          1           0       -1.506671    1.281339   -1.114850
     15          1           0       -2.809181    2.218958   -1.156170
     16          1           0       -0.193444   -2.860640    0.874072
     17          1           0       -3.084019   -0.708900    1.528380
     18          1           0       -0.298561   -1.134440    0.917414
     19          1           0        2.919382   -2.698388   -0.343082
     20          1           0        1.979472   -2.957819    1.081670
     21          1           0        2.008970   -0.552288    1.677060
     22          1           0        3.627891   -1.177148    1.595390
     23          1           0        2.835810   -0.311444   -1.139240
     24          1           0        4.330230    0.004849   -0.191080
     25          1           0        3.204899    1.868542    0.868738
     26          1           0        0.942060    0.327532   -0.840638
     27          1           0        2.072258    3.943241   -0.225885
     28          1           0        0.471217    3.542830    0.049621
     29          7           0        1.421428    3.270761    0.213321
     30          7           0        0.525088    1.264220   -0.771374
     31          7           0        2.839929    1.473112    0.002606
     32          7           0       -2.562190   -0.523926    0.664861
     33          7           0       -2.479431    1.322239   -0.903251
     34          7           0       -3.899221    1.305728    1.091420
     35          8           0        1.061921   -1.998459   -0.494385
 ---------------------------------------------------------------------

 SCF Done:  E(RHF) =  -716.944679346     A.U. after    2 cycles

 The electronic state is 1-A.
 Alpha  occ. eigenvalues --  -20.54882 -15.52554 -15.52522 -15.48967 -15.48696
 Alpha  occ. eigenvalues --  -15.47358 -15.44259 -11.36440 -11.33796 -11.28827
 Alpha  occ. eigenvalues --  -11.28787 -11.26979 -11.25707 -11.24681 -11.21947
 Alpha  occ. eigenvalues --   -1.48115  -1.29145  -1.25767  -1.18738  -1.16499
 Alpha  occ. eigenvalues --   -1.14418  -1.11553  -1.06278  -1.02622  -0.94687
 Alpha  occ. eigenvalues --   -0.90868  -0.84228  -0.82989  -0.80572  -0.79851
 Alpha  occ. eigenvalues --   -0.76728  -0.72704  -0.72041  -0.71455  -0.69330
 Alpha  occ. eigenvalues --   -0.67391  -0.66426  -0.65530  -0.64610  -0.62972
 Alpha  occ. eigenvalues --   -0.62205  -0.60673  -0.59323  -0.58380  -0.55726
 Alpha  occ. eigenvalues --   -0.54472  -0.53491  -0.52423  -0.51039  -0.50143
 Alpha  occ. eigenvalues --   -0.50056  -0.48906  -0.46833  -0.45348  -0.44954
 Alpha  occ. eigenvalues --   -0.43610  -0.41603  -0.40171  -0.37355
 Alpha virt. eigenvalues --    0.02606   0.02989   0.03374   0.03618   0.04627
 Alpha virt. eigenvalues --    0.04784   0.05081   0.05549   0.06379   0.06471
 Alpha virt. eigenvalues --    0.06814   0.07464   0.07683   0.08201   0.08733

 Mulliken charges:
               1
     1  C   -2.689913
     2  C   -0.825172
     3  C    0.057460
     4  C    0.379837
     5  C    0.655947
     6  C   -0.750936
     7  C   -0.079343
     8  C   -2.278603
     9  H    0.220358
    10  H    0.092883
    11  H    0.173637
    12  H    0.042560
    13  H    0.079016
    14  H   -0.105729
    15  H    0.174615
    16  H   -0.053222
    17  H    0.337787
    18  H    0.370792
    19  H   -0.090295
    20  H    0.232655
    21  H    0.088985
    22  H    0.126289
    23  H    0.279819
    24  H   -0.090797
    25  H    0.290299
    26  H    0.023399
    27  H    0.239383
    28  H    0.127534
    29  N    0.681229
    30  N    1.169584
    31  N    0.710202
    32  N    0.316508
    33  N    0.800534
    34  N    0.705109
    35  O   -1.412411
 Sum of Mulliken charges =  -0.00000

 Dipole moment (field-independent basis, Debye):
    X=              5.3023    Y=              0.0584    Z=             -0.3519  Tot=              5.3143

 Test job not archived.
 1\1\GINC-SE366\SP\RHF\Aug-CC-pVDZ\C8H20N6O1\OHZDE\08-Apr-2025\0\\#t hf
  aug-cc-pvdz iop(5/13=1,5/36=2,99/5=2) pseudo=read geom=check guess=(r
 ead,tcheck) scf=(maxcycle=1)\\title\\0,1\C,0,1.53725,1.95831,-0.262208
 \C,0,3.25841,0.0519571,-0.140887\C,0,2.76068,-0.945978,0.982449\C,0,2.
 19268,-2.23205,0.293275\C,0,-0.133317,-1.99025,0.222062\C,0,-1.20703,-
 1.94608,-0.848155\C,0,-2.58768,-1.62457,-0.301592\C,0,-3.02796,0.76722
 9,0.275551\H,0,-1.29826,-2.91021,-1.4329\H,0,-0.808962,-1.19647,-1.504
 45\H,0,-3.31169,-1.45107,-1.10218\H,0,-3.0128,-2.47478,0.232381\H,0,-4

 Normal termination of Gaussian 16 at Tue Apr  8 20:32:43 2025.
