 Gaussian 16, Revision C.01,

 ----------------------------------------------------------------------
 #t hf aug-cc-pvdz symm=none int=(grid=ultrafine) guess=(read,tcheck) s
 table=(opt,rrhf)
 ----------------------------------------------------------------------
 -----
 title
 -----
 Symbolic Z-matrix:
 Charge =  0 Multiplicity = 1

 SCF Done:  E(RHF) =  -489.168051712     A.U. after   13 cycles
 Normal termination of Gaussian 16 at Tue Apr  8 21:49:58 2025.
 Gaussian 16:  ES64L-G16RevC.01  3-Jul-2019

 ----------------------------------------------------------------------
 #t hf aug-cc-pvdz iop(5/13=1,5/36=2,99/5=2) pseudo=read geom=check gue
 ss=(read,tcheck) scf=(maxcycle=1)
 ----------------------------------------------------------------------
 -----
 title
 -----
 Structure from the checkpoint file:  "ANI1ccx_667_conf3_mol2.chk"
 Charge =  0 Multiplicity = 1

                         Standard orientation:
 ---------------------------------------------------------------------
 Center     Atomic      Atomic             Coordinates (Angstroms)
 Number     Number       Type             X           Y           Z
 ---------------------------------------------------------------------
      1          6           0        1.209279   -0.386374   -0.009914
      2          6           0        0.009965    1.582180    0.267569
      3          6           0       -1.220501   -0.360783   -0.022763
      4          1           0        0.008419    1.531720    1.348270
      5          1           0       -0.077156    2.591750   -0.107705
      6          8           0        2.199498   -1.024663   -0.109091
      7          8           0        1.158471    0.952620   -0.223869
      8          8           0       -1.174309    0.920309   -0.243093
      9          8           0       -2.188522   -1.040106   -0.088065
     10          8           0        0.014395   -0.949861    0.332879
 ---------------------------------------------------------------------

 SCF Done:  E(RHF) =  -489.636750681     A.U. after    2 cycles

 The electronic state is 1-A.
 Alpha  occ. eigenvalues --  -20.66289 -20.66140 -20.65877 -20.57887 -20.57730
 Alpha  occ. eigenvalues --  -11.49310 -11.49252 -11.43039  -1.68056  -1.60068
 Alpha  occ. eigenvalues --   -1.56657  -1.51164  -1.50482  -1.05588  -0.96646
 Alpha  occ. eigenvalues --   -0.86745  -0.84562  -0.79490  -0.75685  -0.70608
 Alpha  occ. eigenvalues --   -0.69850  -0.69015  -0.67543  -0.60676  -0.60508
 Alpha  occ. eigenvalues --   -0.55634  -0.53201  -0.52266  -0.49587  -0.49451
 Alpha virt. eigenvalues --    0.02221   0.03706   0.06390   0.06892   0.09646
 Alpha virt. eigenvalues --    0.10434   0.10601   0.11099   0.11299   0.13229
 Alpha virt. eigenvalues --    0.13741   0.14255   0.14388   0.15323   0.17056

 Mulliken charges:
               1
     1  C    2.249272
     2  C    1.084942
     3  C    2.232123
     4  H    0.129973
     5  H    0.013663
     6  O   -1.114924
     7  O   -1.162302
     8  O   -1.116258
     9  O   -1.109897
    10  O   -1.206592
 Sum of Mulliken charges =  -0.00000

 Dipole moment (field-independent basis, Debye):
    X=             -0.0755    Y=              4.6372    Z=              1.2322  Tot=              4.7987

 Test job not archived.
 1\1\GINC-SE247\SP\RHF\Aug-CC-pVDZ\C3H2O5\OHZDE\08-Apr-2025\0\\#t hf au
 g-cc-pvdz iop(5/13=1,5/36=2,99/5=2) pseudo=read geom=check guess=(read
 ,tcheck) scf=(maxcycle=1)\\title\\0,1\C,0,1.20928,-0.386372,-0.0099138
 2\C,0,0.00996225,1.58218,0.267569\C,0,-1.2205,-0.360785,-0.0227631\H,0
 ,0.00841688,1.53172,1.34827\H,0,-0.0771595,2.59175,-0.107705\O,0,2.199
 5,-1.02466,-0.109091\O,0,1.15847,0.952621,-0.223869\O,0,-1.17431,0.920
 307,-0.243093\O,0,-2.18852,-1.04011,-0.0880648\O,0,0.0143964,-0.949861
 ,0.332879\\Version=ES64L-G16RevC.01\State=1-A\HF=-489.6367507\RMSD=8.6

 Normal termination of Gaussian 16 at Tue Apr  8 21:50:02 2025.
