 Gaussian 16, Revision C.01,

 ----------------------------------------------------------------------
 #t hf aug-cc-pvdz symm=none int=(grid=ultrafine) guess=(read,tcheck) s
 table=(opt,rrhf)
 ----------------------------------------------------------------------
 -----
 title
 -----
 Symbolic Z-matrix:
 Charge =  0 Multiplicity = 1

 SCF Done:  E(RHF) =  -564.586506577     A.U. after   14 cycles
 Normal termination of Gaussian 16 at Tue Apr  8 22:14:20 2025.
 Gaussian 16:  ES64L-G16RevC.01  3-Jul-2019

 ----------------------------------------------------------------------
 #t hf aug-cc-pvdz iop(5/13=1,5/36=2,99/5=2) pseudo=read geom=check gue
 ss=(read,tcheck) scf=(maxcycle=1)
 ----------------------------------------------------------------------
 -----
 title
 -----
 Structure from the checkpoint file:  "ANI1ccx_958_conf1_mol1.chk"
 Charge =  0 Multiplicity = 1

                         Standard orientation:
 ---------------------------------------------------------------------
 Center     Atomic      Atomic             Coordinates (Angstroms)
 Number     Number       Type             X           Y           Z
 ---------------------------------------------------------------------
      1          6           0       -0.471889    1.799740    1.052840
      2          6           0       -0.382018   -0.019023   -0.462575
      3          6           0        2.055909   -0.369265   -0.029194
      4          6           0       -1.719921   -0.705481   -0.093426
      5          1           0       -2.580931    0.911914   -0.576399
      6          1           0        1.472309    1.426380   -0.764202
      7          1           0        3.117629    1.089200   -0.872788
      8          1           0        0.562518   -1.599770    0.544521
      9          1           0       -1.349951    1.465889    1.618200
     10          1           0        0.413428    1.417390    1.591330
     11          1           0       -0.423204    2.882100    1.014230
     12          1           0       -0.288962   -0.174643   -1.529520
     13          7           0        0.679671   -0.632761    0.225115
     14          7           0        2.170999    0.748151   -0.800656
     15          8           0       -2.831371    0.022960   -0.386374
     16          8           0       -0.497242    1.387790   -0.286572
     17          8           0        2.886170   -1.123130    0.429137
     18          8           0       -1.778810   -1.845371    0.268501
 ---------------------------------------------------------------------

 SCF Done:  E(RHF) =  -565.150838429     A.U. after    2 cycles

 The electronic state is 1-A.
 Alpha  occ. eigenvalues --  -20.61810 -20.60735 -20.56248 -20.52188 -15.53814
 Alpha  occ. eigenvalues --  -15.53329 -11.41825 -11.40244 -11.37475 -11.31628
 Alpha  occ. eigenvalues --   -1.56931  -1.53000  -1.48481  -1.47769  -1.28405
 Alpha  occ. eigenvalues --   -1.21954  -1.03838  -0.95371  -0.87727  -0.85097
 Alpha  occ. eigenvalues --   -0.82262  -0.79149  -0.75195  -0.74450  -0.68881
 Alpha  occ. eigenvalues --   -0.67730  -0.66944  -0.64467  -0.64101  -0.63007
 Alpha  occ. eigenvalues --   -0.60331  -0.58987  -0.54719  -0.50908  -0.49690
 Alpha  occ. eigenvalues --   -0.48739  -0.46267  -0.45763  -0.43421
 Alpha virt. eigenvalues --    0.02385   0.03452   0.03824   0.04322   0.05462
 Alpha virt. eigenvalues --    0.06940   0.07283   0.07736   0.09287   0.11040
 Alpha virt. eigenvalues --    0.11415   0.12089   0.12875   0.13325   0.13719

 Mulliken charges:
               1
     1  C    0.070220
     2  C    0.096143
     3  C    0.123871
     4  C    2.333346
     5  H    0.439123
     6  H    0.060143
     7  H    0.215063
     8  H    0.308338
     9  H    0.116195
    10  H    0.338538
    11  H    0.027288
    12  H    0.089752
    13  N    0.569192
    14  N    0.574254
    15  O   -1.331921
    16  O   -1.502669
    17  O   -1.207616
    18  O   -1.319261
 Sum of Mulliken charges =  -0.00000

 Dipole moment (field-independent basis, Debye):
    X=             -0.4682    Y=              5.5891    Z=             -1.0551  Tot=              5.7070

 Test job not archived.
 1\1\GINC-SE455\SP\RHF\Aug-CC-pVDZ\C4H8N2O4\OHZDE\08-Apr-2025\0\\#t hf
 aug-cc-pvdz iop(5/13=1,5/36=2,99/5=2) pseudo=read geom=check guess=(re
 ad,tcheck) scf=(maxcycle=1)\\title\\0,1\C,0,-0.471888,1.79974,1.05284\
 C,0,-0.382017,-0.0190225,-0.462575\C,0,2.05591,-0.369265,-0.0291945\C,
 0,-1.71992,-0.70548,-0.0934261\H,0,-2.58093,0.911915,-0.576399\H,0,1.4
 7231,1.42638,-0.764202\H,0,3.11763,1.0892,-0.872788\H,0,0.562518,-1.59
 977,0.544521\H,0,-1.34995,1.46589,1.6182\H,0,0.413429,1.41739,1.59133\
 H,0,-0.423203,2.8821,1.01423\H,0,-0.288961,-0.174643,-1.52952\N,0,0.67

 Normal termination of Gaussian 16 at Tue Apr  8 22:14:30 2025.
