 Gaussian 16, Revision C.01,

 ----------------------------------------------------------------------
 #t hf aug-cc-pvdz symm=none int=(grid=ultrafine) guess=(read,tcheck) s
 table=(opt,rrhf)
 ----------------------------------------------------------------------
 -----
 title
 -----
 Symbolic Z-matrix:
 Charge =  0 Multiplicity = 1

 SCF Done:  E(RHF) =  -756.557053281     A.U. after   15 cycles
 Normal termination of Gaussian 16 at Tue Apr  8 19:46:52 2025.
 Gaussian 16:  ES64L-G16RevC.01  3-Jul-2019

 ----------------------------------------------------------------------
 #t hf aug-cc-pvdz iop(5/13=1,5/36=2,99/5=2) pseudo=read geom=check gue
 ss=(read,tcheck) scf=(maxcycle=1)
 ----------------------------------------------------------------------
 -----
 title
 -----
 Structure from the checkpoint file:  "ANI1ccx_1435_conf1_mol1.chk"
 Charge =  0 Multiplicity = 1

                         Standard orientation:
 ---------------------------------------------------------------------
 Center     Atomic      Atomic             Coordinates (Angstroms)
 Number     Number       Type             X           Y           Z
 ---------------------------------------------------------------------
      1          6           0        1.725080    0.540902    0.562279
      2          6           0        0.292337    0.505017    0.034851
      3          6           0        2.679170    0.201750   -0.588864
      4          6           0        4.158790    0.208407   -0.215193
      5          6           0       -1.970050    0.148407    0.642767
      6          6           0       -2.080430   -1.239719    0.057411
      7          6           0       -2.548910    1.096041   -0.385168
      8          1           0       -3.333180   -2.473399   -0.575220
      9          1           0       -1.459300    2.706061   -0.711845
     10          1           0       -2.205120    0.852870   -1.407310
     11          1           0       -3.646920    1.082541   -0.432515
     12          1           0       -2.578460    0.181998    1.526120
     13          1           0       -0.179239   -0.141776    1.751710
     14          1           0        4.477790    1.190431    0.210350
     15          1           0        4.354430   -0.589383    0.490918
     16          1           0        4.786920    0.006263   -1.091500
     17          1           0        1.524090   -1.275989   -1.373470
     18          1           0        2.530800    0.860311   -1.460290
     19          1           0        1.913540    1.580691    0.915697
     20          1           0        2.734820   -0.248891    2.089820
     21          1           0        1.841830   -1.364159    1.312870
     22          7           0        1.882930   -0.377622    1.654600
     23          7           0       -0.584372    0.477508    1.031880
     24          8           0        0.103310    0.753157   -1.151630
     25          8           0        2.406820   -1.171689   -0.965781
     26          8           0       -1.157560   -1.972389   -0.199623
     27          8           0       -2.210060    2.489831   -0.115454
     28          8           0       -3.315990   -1.577859   -0.154915
 ---------------------------------------------------------------------

 SCF Done:  E(RHF) =  -757.325262751     A.U. after    2 cycles

 The electronic state is 1-A.
 Alpha  occ. eigenvalues --  -20.62663 -20.55110 -20.54805 -20.53638 -20.52136
 Alpha  occ. eigenvalues --  -15.53757 -15.49567 -11.40769 -11.35882 -11.30616
 Alpha  occ. eigenvalues --  -11.29854 -11.28538 -11.27625 -11.22943  -1.58930
 Alpha  occ. eigenvalues --   -1.47494  -1.46920  -1.43020  -1.42764  -1.27833
 Alpha  occ. eigenvalues --   -1.20821  -1.08055  -1.03011  -0.96142  -0.91005
 Alpha  occ. eigenvalues --   -0.87402  -0.80917  -0.80156  -0.76100  -0.74376
 Alpha  occ. eigenvalues --   -0.73205  -0.71677  -0.69522  -0.68629  -0.67009
 Alpha  occ. eigenvalues --   -0.66090  -0.64360  -0.63683  -0.61527  -0.60481
 Alpha  occ. eigenvalues --   -0.59751  -0.56706  -0.55194  -0.54385  -0.53623
 Alpha  occ. eigenvalues --   -0.52920  -0.50462  -0.49450  -0.48954  -0.47748
 Alpha  occ. eigenvalues --   -0.46821  -0.45486  -0.44130  -0.43153  -0.41350
 Alpha virt. eigenvalues --    0.03008   0.03540   0.04069   0.04312   0.04652
 Alpha virt. eigenvalues --    0.04862   0.05074   0.06319   0.06820   0.07557
 Alpha virt. eigenvalues --    0.07729   0.08181   0.09540   0.10407   0.11004

 Mulliken charges:
               1
     1  C   -1.384780
     2  C    0.430291
     3  C    1.224024
     4  C   -0.383995
     5  C   -2.105675
     6  C    2.888006
     7  C    1.005254
     8  H    0.394689
     9  H    0.337409
    10  H    0.236414
    11  H    0.015782
    12  H    0.057704
    13  H    0.447194
    14  H    0.245458
    15  H    0.172691
    16  H    0.156309
    17  H    0.385542
    18  H    0.026662
    19  H    0.169741
    20  H    0.189092
    21  H    0.339751
    22  N    0.547310
    23  N    1.525689
    24  O   -1.580428
    25  O   -1.441525
    26  O   -1.288197
    27  O   -1.236647
    28  O   -1.373767
 Sum of Mulliken charges =  -0.00000

 Dipole moment (field-independent basis, Debye):
    X=             -0.7122    Y=             -1.1645    Z=              0.9668  Tot=              1.6727

 Test job not archived.
 1\1\GINC-SE462\SP\RHF\Aug-CC-pVDZ\C7H14N2O5\OHZDE\08-Apr-2025\0\\#t hf
  aug-cc-pvdz iop(5/13=1,5/36=2,99/5=2) pseudo=read geom=check guess=(r
 ead,tcheck) scf=(maxcycle=1)\\title\\0,1\C,0,1.72508,0.540901,0.562279
 \C,0,0.292337,0.505016,0.0348512\C,0,2.67917,0.201749,-0.588864\C,0,4.
 15879,0.208406,-0.215193\C,0,-1.97005,0.148406,0.642767\C,0,-2.08043,-
 1.23972,0.057411\C,0,-2.54891,1.09604,-0.385168\H,0,-3.33318,-2.4734,-
 0.57522\H,0,-1.4593,2.70606,-0.711845\H,0,-2.20512,0.852869,-1.40731\H
 ,0,-3.64692,1.08254,-0.432515\H,0,-2.57846,0.181997,1.52612\H,0,-0.179

 Normal termination of Gaussian 16 at Tue Apr  8 19:47:16 2025.
