 Gaussian 16, Revision C.01,

 ----------------------------------------------------------------------
 #t hf aug-cc-pvdz symm=none int=(grid=ultrafine) guess=(read,tcheck) s
 table=(opt,rrhf)
 ----------------------------------------------------------------------
 -----
 title
 -----
 Symbolic Z-matrix:
 Charge =  0 Multiplicity = 1

 SCF Done:  E(RHF) =  -505.054939512     A.U. after   15 cycles
 Normal termination of Gaussian 16 at Tue Apr  8 21:40:53 2025.
 Gaussian 16:  ES64L-G16RevC.01  3-Jul-2019

 ----------------------------------------------------------------------
 #t hf aug-cc-pvdz iop(5/13=1,5/36=2,99/5=2) pseudo=read geom=check gue
 ss=(read,tcheck) scf=(maxcycle=1)
 ----------------------------------------------------------------------
 -----
 title
 -----
 Structure from the checkpoint file:  "ANI1ccx_471_conf10_mol2.chk"
 Charge =  0 Multiplicity = 1

                         Standard orientation:
 ---------------------------------------------------------------------
 Center     Atomic      Atomic             Coordinates (Angstroms)
 Number     Number       Type             X           Y           Z
 ---------------------------------------------------------------------
      1          6           0        1.309170   -0.032184   -0.004508
      2          6           0       -0.780341   -0.752939   -0.117855
      3          1           0       -1.790129    2.149670    0.069176
      4          7           0       -0.771249    0.637178   -0.490199
      5          8           0       -1.430600    1.373980    0.513965
      6          8           0        0.631253    1.067070   -0.342561
      7          8           0        2.482040   -0.054137    0.223368
      8          8           0        0.516152   -1.140860    0.097713
      9          8           0       -1.696860   -1.483450    0.019564
 ---------------------------------------------------------------------

 SCF Done:  E(RHF) =  -505.534716628     A.U. after    2 cycles

 The electronic state is 1-A.
 Alpha  occ. eigenvalues --  -20.69463 -20.68824 -20.66836 -20.61033 -20.57882
 Alpha  occ. eigenvalues --  -15.71946 -11.49545 -11.49159  -1.69919  -1.60550
 Alpha  occ. eigenvalues --   -1.57567  -1.52835  -1.51006  -1.20585  -0.95221
 Alpha  occ. eigenvalues --   -0.94417  -0.83701  -0.79689  -0.75372  -0.73603
 Alpha  occ. eigenvalues --   -0.71679  -0.69784  -0.66548  -0.65202  -0.61278
 Alpha  occ. eigenvalues --   -0.57303  -0.53947  -0.52893  -0.50550  -0.49470
 Alpha virt. eigenvalues --    0.02450   0.07137   0.08228   0.08508   0.09196
 Alpha virt. eigenvalues --    0.09788   0.10745   0.11162   0.11416   0.13180
 Alpha virt. eigenvalues --    0.15242   0.15638   0.17139   0.18090   0.19309

 Mulliken charges:
               1
     1  C    2.135731
     2  C    1.488355
     3  H    0.353467
     4  N    1.433028
     5  O   -1.078414
     6  O   -1.029059
     7  O   -1.099818
     8  O   -1.095032
     9  O   -1.108259
 Sum of Mulliken charges =  -0.00000

 Dipole moment (field-independent basis, Debye):
    X=             -2.1924    Y=              2.5812    Z=             -0.8634  Tot=              3.4949

 Test job not archived.
 1\1\GINC-SE273\SP\RHF\Aug-CC-pVDZ\C2H1N1O5\OHZDE\08-Apr-2025\0\\#t hf
 aug-cc-pvdz iop(5/13=1,5/36=2,99/5=2) pseudo=read geom=check guess=(re
 ad,tcheck) scf=(maxcycle=1)\\title\\0,1\C,0,1.30917,-0.0321832,-0.0045
 0793\C,0,-0.780341,-0.752939,-0.117855\H,0,-1.79013,2.14967,0.0691761\
 N,0,-0.771249,0.637178,-0.490199\O,0,-1.4306,1.37398,0.513965\O,0,0.63
 1253,1.06707,-0.342561\O,0,2.48204,-0.054136,0.223368\O,0,0.516152,-1.
 14086,0.0977132\O,0,-1.69686,-1.48345,0.0195636\\Version=ES64L-G16RevC
 .01\State=1-A\HF=-505.5347166\RMSD=1.249e-02\Dipole=-0.8625551,1.01551

 Normal termination of Gaussian 16 at Tue Apr  8 21:40:57 2025.
