 Gaussian 16, Revision C.01,

 ----------------------------------------------------------------------
 #t hf aug-cc-pvdz symm=none int=(grid=ultrafine) guess=(read,tcheck) s
 table=(opt,rrhf)
 ----------------------------------------------------------------------
 -----
 title
 -----
 Symbolic Z-matrix:
 Charge =  0 Multiplicity = 1

 SCF Done:  E(RHF) =  -609.263788509     A.U. after   12 cycles
 Normal termination of Gaussian 16 at Tue Apr  8 22:31:28 2025.
 Gaussian 16:  ES64L-G16RevC.01  3-Jul-2019

 ----------------------------------------------------------------------
 #t hf aug-cc-pvdz iop(5/13=1,5/36=2,99/5=2) pseudo=read geom=check gue
 ss=(read,tcheck) scf=(maxcycle=1)
 ----------------------------------------------------------------------
 -----
 title
 -----
 Structure from the checkpoint file:  "ANI1ccx_99_conf2_mol2.chk"
 Charge =  0 Multiplicity = 1

                         Standard orientation:
 ---------------------------------------------------------------------
 Center     Atomic      Atomic             Coordinates (Angstroms)
 Number     Number       Type             X           Y           Z
 ---------------------------------------------------------------------
      1          6           0       -2.403209   -1.125251   -0.532991
      2          6           0       -1.477979   -1.828351    0.446522
      3          6           0        0.834152   -2.199580   -0.344613
      4          6           0        2.154151   -1.522439   -0.695610
      5          6           0        2.511890    0.852093   -0.234421
      6          6           0        1.498199    1.983481    0.028557
      7          6           0       -0.974997    2.207759   -0.182321
      8          6           0       -1.872991    1.288419   -1.018720
      9          6           0        0.004949    0.816028    1.577050
     10          6           0        0.396097   -0.658233    1.568350
     11          1           0       -1.568871    2.674239    0.615133
     12          1           0       -0.598649    2.983880   -0.850583
     13          1           0       -2.592401    1.895179   -1.583220
     14          1           0       -1.191990    0.758646   -1.721800
     15          1           0        1.492891   -0.746186    1.571050
     16          1           0        0.554934    1.331600    2.391930
     17          1           0       -1.071520    0.899031    1.853510
     18          1           0        0.074451   -1.098710    2.511730
     19          1           0        1.895089    2.663881    0.817210
     20          1           0       -3.645590    0.462641   -0.263950
     21          1           0        1.443509    2.568611   -0.886203
     22          1           0        2.840611   -1.545289    0.184147
     23          1           0        3.363179    1.291082   -0.753396
     24          1           0        0.934983   -0.010150   -1.085460
     25          1           0        2.644661   -2.096469   -1.489390
     26          1           0        1.087022   -3.111330    0.204498
     27          1           0        0.331050   -2.514530   -1.295430
     28          1           0       -1.535088   -2.914961    0.228424
     29          1           0       -1.892099   -1.715371    1.480150
     30          1           0       -3.364549   -1.674922   -0.489547
     31          1           0       -1.978519   -1.255761   -1.532420
     32          1           0        2.869400    0.409900    0.713758
     33          7           0        0.180631    1.502940    0.329302
     34          7           0       -0.089448   -1.377530    0.413718
     35          7           0        1.953860   -0.146834   -1.133160
     36          7           0       -2.632770    0.287343   -0.222852
 ---------------------------------------------------------------------

 SCF Done:  E(RHF) =  -609.913761929     A.U. after    2 cycles

 The electronic state is 1-A.
 Alpha  occ. eigenvalues --  -15.47969 -15.46840 -15.46491 -15.45810 -11.25249
 Alpha  occ. eigenvalues --  -11.25167 -11.25054 -11.25012 -11.24883 -11.24845
 Alpha  occ. eigenvalues --  -11.24417 -11.24368 -11.24218 -11.23926  -1.24356
 Alpha  occ. eigenvalues --   -1.20919  -1.19180  -1.17297  -1.03142  -1.01483
 Alpha  occ. eigenvalues --   -0.98721  -0.97873  -0.89301  -0.87133  -0.84926
 Alpha  occ. eigenvalues --   -0.82214  -0.78756  -0.75864  -0.71112  -0.68664
 Alpha  occ. eigenvalues --   -0.67115  -0.66209  -0.65079  -0.64392  -0.63270
 Alpha  occ. eigenvalues --   -0.61485  -0.60201  -0.59379  -0.57956  -0.57315
 Alpha  occ. eigenvalues --   -0.56068  -0.54401  -0.53185  -0.52846  -0.51889
 Alpha  occ. eigenvalues --   -0.50406  -0.49806  -0.49304  -0.48748  -0.46845
 Alpha  occ. eigenvalues --   -0.46278  -0.40272  -0.38636  -0.36226  -0.35577
 Alpha virt. eigenvalues --    0.03466   0.03793   0.03867   0.04015   0.04311
 Alpha virt. eigenvalues --    0.04351   0.04572   0.04679   0.04965   0.07143
 Alpha virt. eigenvalues --    0.07285   0.07762   0.08464   0.08506   0.08737

 Mulliken charges:
               1
     1  C   -0.620727
     2  C   -0.711055
     3  C   -0.120920
     4  C   -0.509276
     5  C   -0.351568
     6  C   -0.608604
     7  C   -0.431387
     8  C   -0.584688
     9  C   -1.399593
    10  C   -0.814856
    11  H    0.036657
    12  H    0.097041
    13  H   -0.037756
    14  H    0.223941
    15  H    0.155508
    16  H   -0.054748
    17  H    0.122074
    18  H   -0.128809
    19  H    0.067108
    20  H    0.322034
    21  H   -0.045704
    22  H    0.174098
    23  H   -0.119711
    24  H   -0.041725
    25  H   -0.061980
    26  H    0.096859
    27  H    0.108119
    28  H    0.064094
    29  H    0.084744
    30  H    0.030883
    31  H    0.147321
    32  H    0.242380
    33  N    2.305408
    34  N    1.173841
    35  N    0.810040
    36  N    0.380958
 Sum of Mulliken charges =  -0.00000

 Dipole moment (field-independent basis, Debye):
    X=             -1.5203    Y=             -0.1188    Z=              0.7691  Tot=              1.7079

 Test job not archived.
 1\1\GINC-SE212\SP\RHF\Aug-CC-pVDZ\C10H22N4\OHZDE\08-Apr-2025\0\\#t hf
 aug-cc-pvdz iop(5/13=1,5/36=2,99/5=2) pseudo=read geom=check guess=(re
 ad,tcheck) scf=(maxcycle=1)\\title\\0,1\C,0,-2.40321,-1.12525,-0.53299
 1\C,0,-1.47798,-1.82835,0.446522\C,0,0.834151,-2.19958,-0.344613\C,0,2
 .15415,-1.52244,-0.69561\C,0,2.51189,0.852092,-0.234421\C,0,1.4982,1.9
 8348,0.0285569\C,0,-0.974996,2.20776,-0.182321\C,0,-1.87299,1.28842,-1
 .01872\C,0,0.0049497,0.816028,1.57705\C,0,0.396097,-0.658233,1.56835\H
 ,0,-1.56887,2.67424,0.615133\H,0,-0.598648,2.98388,-0.850583\H,0,-2.59

 Normal termination of Gaussian 16 at Tue Apr  8 22:32:24 2025.
