 Gaussian 16, Revision C.01,

 ----------------------------------------------------------------------
 #t hf aug-cc-pvdz symm=none int=(grid=ultrafine) guess=(read,tcheck) s
 table=(opt,rrhf)
 ----------------------------------------------------------------------
 -----
 title
 -----
 Symbolic Z-matrix:
 Charge =  0 Multiplicity = 1

 SCF Done:  E(RHF) =  -489.404618330     A.U. after   16 cycles
 Normal termination of Gaussian 16 at Tue Apr  8 19:27:06 2025.
 Gaussian 16:  ES64L-G16RevC.01  3-Jul-2019

 ----------------------------------------------------------------------
 #t hf aug-cc-pvdz iop(5/13=1,5/36=2,99/5=2) pseudo=read geom=check gue
 ss=(read,tcheck) scf=(maxcycle=1)
 ----------------------------------------------------------------------
 -----
 title
 -----
 Structure from the checkpoint file:  "ANI1ccx_1315_conf1_mol1.chk"
 Charge =  0 Multiplicity = 1

                         Standard orientation:
 ---------------------------------------------------------------------
 Center     Atomic      Atomic             Coordinates (Angstroms)
 Number     Number       Type             X           Y           Z
 ---------------------------------------------------------------------
      1          6           0        2.042691   -0.052188    0.011387
      2          6           0        1.419320    1.183070    0.086773
      3          6           0        0.047091    1.274820    0.054994
      4          6           0       -0.685906    0.091045   -0.070738
      5          6           0        1.207831   -1.187630   -0.009479
      6          6           0       -2.177750    0.089593   -0.012085
      7          1           0        3.922121   -0.955086    0.159881
      8          1           0        3.926060    0.755728    0.217518
      9          1           0        2.097920    2.023451    0.006621
     10          1           0       -0.361019    2.263340    0.117603
     11          1           0        1.708331   -2.177230   -0.100950
     12          1           0       -1.889129   -1.742091    0.187921
     13          7           0        3.416641   -0.094891   -0.072347
     14          7           0       -0.111720   -1.110030   -0.096571
     15          8           0       -2.684299   -1.144101    0.126275
     16          8           0       -2.773000    1.128359   -0.097684
 ---------------------------------------------------------------------

 SCF Done:  E(RHF) =  -489.891874301     A.U. after    2 cycles

 The electronic state is 1-A.
 Alpha  occ. eigenvalues --  -20.58542 -20.52440 -15.54527 -15.54416 -11.38474
 Alpha  occ. eigenvalues --  -11.31730 -11.29980 -11.29057 -11.27404 -11.26970
 Alpha  occ. eigenvalues --   -1.52883  -1.44992  -1.29849  -1.24613  -1.10516
 Alpha  occ. eigenvalues --   -1.05767  -0.92143  -0.90988  -0.82511  -0.78780
 Alpha  occ. eigenvalues --   -0.76736  -0.75505  -0.69329  -0.65993  -0.64665
 Alpha  occ. eigenvalues --   -0.63482  -0.63344  -0.60254  -0.58915  -0.56022
 Alpha  occ. eigenvalues --   -0.53817  -0.49368  -0.46592  -0.43623  -0.41712
 Alpha  occ. eigenvalues --   -0.34575
 Alpha virt. eigenvalues --    0.01641   0.03353   0.03974   0.05239   0.05308
 Alpha virt. eigenvalues --    0.06455   0.07431   0.08167   0.08695   0.09528
 Alpha virt. eigenvalues --    0.10474   0.11095   0.11128   0.11886   0.12870

 Mulliken charges:
               1
     1  C   -1.178930
     2  C    0.643856
     3  C    0.636094
     4  C   -0.883239
     5  C   -0.530956
     6  C    1.971219
     7  H    0.038057
     8  H    0.048751
     9  H   -0.273888
    10  H   -0.242138
    11  H   -0.132214
    12  H    0.546221
    13  N    0.814219
    14  N    1.211379
    15  O   -1.393598
    16  O   -1.274834
 Sum of Mulliken charges =   0.00000

 Dipole moment (field-independent basis, Debye):
    X=              7.6571    Y=             -0.2716    Z=              1.0853  Tot=              7.7384

 Test job not archived.
 1\1\GINC-SE150\SP\RHF\Aug-CC-pVDZ\C6H6N2O2\OHZDE\08-Apr-2025\0\\#t hf
 aug-cc-pvdz iop(5/13=1,5/36=2,99/5=2) pseudo=read geom=check guess=(re
 ad,tcheck) scf=(maxcycle=1)\\title\\0,1\C,0,2.04269,-0.0521886,0.01138
 67\C,0,1.41932,1.18307,0.0867732\C,0,0.0470909,1.27482,0.0549939\C,0,-
 0.685906,0.0910455,-0.0707378\C,0,1.20783,-1.18763,-0.00947941\C,0,-2.
 17775,0.089594,-0.0120853\H,0,3.92212,-0.955087,0.159881\H,0,3.92606,0
 .755727,0.217518\H,0,2.09792,2.02345,0.00662092\H,0,-0.361019,2.26334,
 0.117603\H,0,1.70833,-2.17723,-0.10095\H,0,-1.88913,-1.74209,0.187921\

 Normal termination of Gaussian 16 at Tue Apr  8 19:27:14 2025.
