 Gaussian 16, Revision C.01,

 ----------------------------------------------------------------------
 #t hf aug-cc-pvdz symm=none int=(grid=ultrafine) guess=(read,tcheck) s
 table=(opt,rrhf)
 ----------------------------------------------------------------------
 -----
 title
 -----
 Symbolic Z-matrix:
 Charge =  0 Multiplicity = 1

 SCF Done:  E(RHF) =  -424.687898332     A.U. after   15 cycles
 Normal termination of Gaussian 16 at Tue Apr  8 21:43:57 2025.
 Gaussian 16:  ES64L-G16RevC.01  3-Jul-2019

 ----------------------------------------------------------------------
 #t hf aug-cc-pvdz iop(5/13=1,5/36=2,99/5=2) pseudo=read geom=check gue
 ss=(read,tcheck) scf=(maxcycle=1)
 ----------------------------------------------------------------------
 -----
 title
 -----
 Structure from the checkpoint file:  "ANI1ccx_507_conf3_mol1.chk"
 Charge =  0 Multiplicity = 1

                         Standard orientation:
 ---------------------------------------------------------------------
 Center     Atomic      Atomic             Coordinates (Angstroms)
 Number     Number       Type             X           Y           Z
 ---------------------------------------------------------------------
      1          6           0        1.286049   -0.325860    0.062354
      2          6           0       -0.184201    1.428341   -0.055771
      3          1           0        3.018817   -1.378547    0.132276
      4          1           0        3.006260    0.000166   -0.993513
      5          1           0       -2.047055    1.962936    0.061371
      6          7           0        2.596379   -0.562316   -0.223852
      7          7           0        0.879486    0.893753   -0.475990
      8          7           0       -1.076724    2.118884    0.354747
      9          7           0       -2.273561   -0.605281   -0.225424
     10          7           0       -2.335694   -1.726433   -0.259649
     11          8           0        0.610212   -1.003711    0.821443
 ---------------------------------------------------------------------

 SCF Done:  E(RHF) =  -425.099215554     A.U. after    2 cycles

 The electronic state is 1-A.
 Alpha  occ. eigenvalues --  -20.51512 -15.63119 -15.62705 -15.55005 -15.53614
 Alpha  occ. eigenvalues --  -15.53223 -11.40280 -11.40219  -1.47344  -1.47156
 Alpha  occ. eigenvalues --   -1.31359  -1.26000  -1.21734  -0.93527  -0.83917
 Alpha  occ. eigenvalues --   -0.82718  -0.78609  -0.74324  -0.69242  -0.66554
 Alpha  occ. eigenvalues --   -0.66478  -0.65775  -0.65401  -0.61791  -0.59384
 Alpha  occ. eigenvalues --   -0.51554  -0.47422  -0.44471  -0.44020
 Alpha virt. eigenvalues --    0.02913   0.04393   0.05737   0.07154   0.08462
 Alpha virt. eigenvalues --    0.09372   0.09825   0.10379   0.10806   0.11342
 Alpha virt. eigenvalues --    0.11978   0.12309   0.13619   0.14180   0.14650

 Mulliken charges:
               1
     1  C    0.240073
     2  C   -1.407369
     3  H    0.101318
     4  H    0.128399
     5  H    0.265332
     6  N    0.565572
     7  N    0.488727
     8  N    0.817848
     9  N    0.131998
    10  N   -0.185039
    11  O   -1.146859
 Sum of Mulliken charges =  -0.00000

 Dipole moment (field-independent basis, Debye):
    X=              0.3202    Y=              0.3668    Z=             -2.1521  Tot=              2.2065

 Test job not archived.
 1\1\GINC-SE458\SP\RHF\Aug-CC-pVDZ\C2H3N5O1\OHZDE\08-Apr-2025\0\\#t hf
 aug-cc-pvdz iop(5/13=1,5/36=2,99/5=2) pseudo=read geom=check guess=(re
 ad,tcheck) scf=(maxcycle=1)\\title\\0,1\C,0,1.28605,-0.325858,0.062354
 4\C,0,-0.184205,1.42834,-0.0557704\H,0,3.01882,-1.37854,0.132276\H,0,3
 .00626,0.00017295,-0.993513\H,0,-2.04706,1.96293,0.0613713\N,0,2.59638
 ,-0.56231,-0.223852\N,0,0.879483,0.893754,-0.47599\N,0,-1.07673,2.1188
 8,0.354747\N,0,-2.27356,-0.605288,-0.225424\N,0,-2.33569,-1.72644,-0.2
 59649\O,0,0.610214,-1.00371,0.821443\\Version=ES64L-G16RevC.01\State=1

 Normal termination of Gaussian 16 at Tue Apr  8 21:44:02 2025.
