 Gaussian 16, Revision C.01,

 ----------------------------------------------------------------------
 #t hf aug-cc-pvdz symm=none int=(grid=ultrafine) guess=(read,tcheck) s
 table=(opt,rrhf)
 ----------------------------------------------------------------------
 -----
 title
 -----
 Symbolic Z-matrix:
 Charge =  0 Multiplicity = 1

 SCF Done:  E(RHF) =  -557.491364379     A.U. after   16 cycles
 Normal termination of Gaussian 16 at Tue Apr  8 19:29:11 2025.
 Gaussian 16:  ES64L-G16RevC.01  3-Jul-2019

 ----------------------------------------------------------------------
 #t hf aug-cc-pvdz iop(5/13=1,5/36=2,99/5=2) pseudo=read geom=check gue
 ss=(read,tcheck) scf=(maxcycle=1)
 ----------------------------------------------------------------------
 -----
 title
 -----
 Structure from the checkpoint file:  "ANI1ccx_1322_conf4_mol1.chk"
 Charge =  0 Multiplicity = 1

                         Standard orientation:
 ---------------------------------------------------------------------
 Center     Atomic      Atomic             Coordinates (Angstroms)
 Number     Number       Type             X           Y           Z
 ---------------------------------------------------------------------
      1          6           0       -1.836630   -0.582285   -0.013220
      2          6           0       -0.650489    1.313329   -0.018030
      3          6           0        0.467240    0.449347   -0.023542
      4          6           0        2.746410    0.263662   -0.001748
      5          6           0        2.625211   -1.121568    0.021473
      6          6           0        0.337472   -0.946956    0.023496
      7          1           0        3.495241   -1.739038    0.078923
      8          1           0        3.744129    0.704820   -0.013786
      9          1           0        0.554110    2.737710    0.067072
     10          1           0       -1.141832    3.247059    0.326473
     11          1           0       -3.102779   -2.076332   -0.117607
     12          1           0       -3.876990   -0.516384   -0.238254
     13          7           0       -3.116909   -1.102312    0.063467
     14          7           0       -1.848721    0.776530   -0.020033
     15          7           0       -0.439474    2.621490   -0.024310
     16          7           0        1.712039    1.056261   -0.016009
     17          7           0        1.457541   -1.720079   -0.029968
     18          7           0       -0.879784   -1.433461    0.022082
 ---------------------------------------------------------------------

 SCF Done:  E(RHF) =  -558.053347413     A.U. after    2 cycles

 The electronic state is 1-A.
 Alpha  occ. eigenvalues --  -15.55113 -15.53279 -15.52567 -15.50475 -15.49403
 Alpha  occ. eigenvalues --  -15.47440 -11.35070 -11.34489 -11.32663 -11.30513
 Alpha  occ. eigenvalues --  -11.28930 -11.27768  -1.35706  -1.30314  -1.28727
 Alpha  occ. eigenvalues --   -1.22728  -1.19879  -1.18673  -1.06547  -0.96754
 Alpha  occ. eigenvalues --   -0.94042  -0.89514  -0.83464  -0.82375  -0.78093
 Alpha  occ. eigenvalues --   -0.75277  -0.72922  -0.70496  -0.67500  -0.66801
 Alpha  occ. eigenvalues --   -0.65966  -0.62587  -0.59072  -0.57808  -0.55626
 Alpha  occ. eigenvalues --   -0.53282  -0.49479  -0.48816  -0.45958  -0.43342
 Alpha  occ. eigenvalues --   -0.42688  -0.34376
 Alpha virt. eigenvalues --    0.01569   0.02852   0.03797   0.04238   0.04650
 Alpha virt. eigenvalues --    0.06271   0.07160   0.08592   0.08935   0.10176
 Alpha virt. eigenvalues --    0.10375   0.10685   0.10892   0.11378   0.12024

 Mulliken charges:
               1
     1  C   -1.231735
     2  C   -1.925448
     3  C   -0.396114
     4  C   -0.488995
     5  C   -0.216812
     6  C   -1.988479
     7  H   -0.172278
     8  H   -0.171184
     9  H    0.420014
    10  H    0.052954
    11  H    0.171405
    12  H    0.149152
    13  N    0.641991
    14  N    0.731507
    15  N    0.993785
    16  N    1.223989
    17  N    1.270671
    18  N    0.935575
 Sum of Mulliken charges =   0.00000

 Dipole moment (field-independent basis, Debye):
    X=              1.7971    Y=              2.6796    Z=              0.0367  Tot=              3.2267

 Test job not archived.
 1\1\GINC-SE051\SP\RHF\Aug-CC-pVDZ\C6H6N6\OHZDE\08-Apr-2025\0\\#t hf au
 g-cc-pvdz iop(5/13=1,5/36=2,99/5=2) pseudo=read geom=check guess=(read
 ,tcheck) scf=(maxcycle=1)\\title\\0,1\C,0,-1.83663,-0.582284,-0.013219
 7\C,0,-0.650488,1.31333,-0.0180301\C,0,0.46724,0.449347,-0.0235422\C,0
 ,2.74641,0.26366,-0.00174786\C,0,2.62521,-1.12157,0.0214734\C,0,0.3374
 72,-0.946956,0.0234961\H,0,3.49524,-1.73904,0.0789231\H,0,3.74413,0.70
 4818,-0.0137856\H,0,0.554112,2.73771,0.0670718\H,0,-1.14183,3.24706,0.
 326473\H,0,-3.10278,-2.07633,-0.117607\H,0,-3.87699,-0.516381,-0.23825

 Normal termination of Gaussian 16 at Tue Apr  8 19:29:22 2025.
