 Gaussian 16, Revision C.01,

 ----------------------------------------------------------------------
 #t hf aug-cc-pvdz symm=none int=(grid=ultrafine) guess=(read,tcheck) s
 table=(opt,rrhf)
 ----------------------------------------------------------------------
 -----
 title
 -----
 Symbolic Z-matrix:
 Charge =  0 Multiplicity = 1

 SCF Done:  E(RHF) =  -407.108981560     A.U. after   14 cycles
 Normal termination of Gaussian 16 at Tue Apr  8 21:48:27 2025.
 Gaussian 16:  ES64L-G16RevC.01  3-Jul-2019

 ----------------------------------------------------------------------
 #t hf aug-cc-pvdz iop(5/13=1,5/36=2,99/5=2) pseudo=read geom=check gue
 ss=(read,tcheck) scf=(maxcycle=1)
 ----------------------------------------------------------------------
 -----
 title
 -----
 Structure from the checkpoint file:  "ANI1ccx_588_conf5_mol1.chk"
 Charge =  0 Multiplicity = 1

                         Standard orientation:
 ---------------------------------------------------------------------
 Center     Atomic      Atomic             Coordinates (Angstroms)
 Number     Number       Type             X           Y           Z
 ---------------------------------------------------------------------
      1          6           0        1.606311    0.003898   -0.043228
      2          6           0       -1.832299    0.008009   -0.045770
      3          1           0        3.492621    0.564456    0.224961
      4          1           0        2.683791    1.371399   -0.987330
      5          1           0        0.856064   -1.314540    1.309050
      6          1           0        2.321040   -1.680751    0.629771
      7          1           0       -0.541358   -1.217429   -1.031160
      8          1           0       -1.087218    1.813441    0.504156
      9          1           0       -2.733369    1.590442    0.715241
     10          1           0       -2.502050   -1.466318   -0.962965
     11          7           0        2.780661    0.487232   -0.502138
     12          7           0        1.755850   -0.909155    0.974599
     13          7           0        0.510513    0.481317   -0.470912
     14          7           0       -0.533487   -0.427023   -0.410644
     15          7           0       -1.844749    1.135151    0.747023
     16          7           0       -2.830730   -0.729256   -0.319033
 ---------------------------------------------------------------------

 SCF Done:  E(RHF) =  -407.534807214     A.U. after    2 cycles

 The electronic state is 1-A.
 Alpha  occ. eigenvalues --  -15.53611 -15.53488 -15.52855 -15.50857 -15.49814
 Alpha  occ. eigenvalues --  -15.44178 -11.35966 -11.33547  -1.35265  -1.28617
 Alpha  occ. eigenvalues --   -1.22629  -1.19571  -1.15355  -1.08075  -0.86551
 Alpha  occ. eigenvalues --   -0.83814  -0.80324  -0.76964  -0.75871  -0.69855
 Alpha  occ. eigenvalues --   -0.67934  -0.67247  -0.64447  -0.63097  -0.60024
 Alpha  occ. eigenvalues --   -0.53986  -0.49975  -0.47820  -0.45217  -0.42548
 Alpha  occ. eigenvalues --   -0.36597
 Alpha virt. eigenvalues --    0.02270   0.03952   0.04688   0.05291   0.05577
 Alpha virt. eigenvalues --    0.06133   0.07455   0.07925   0.11005   0.11537
 Alpha virt. eigenvalues --    0.11851   0.13052   0.13875   0.14191   0.14461

 Mulliken charges:
               1
     1  C   -2.327670
     2  C   -1.792030
     3  H    0.154524
     4  H    0.195669
     5  H    0.220368
     6  H    0.215219
     7  H    0.156423
     8  H    0.219348
     9  H    0.192700
    10  H    0.174139
    11  N    0.650559
    12  N    0.499478
    13  N    0.314315
    14  N   -0.045048
    15  N    0.541796
    16  N    0.630211
 Sum of Mulliken charges =  -0.00000

 Dipole moment (field-independent basis, Debye):
    X=              5.5169    Y=              0.0643    Z=             -0.2626  Tot=              5.5236

 Test job not archived.
 1\1\GINC-SE094\SP\RHF\Aug-CC-pVDZ\C2H8N6\OHZDE\08-Apr-2025\0\\#t hf au
 g-cc-pvdz iop(5/13=1,5/36=2,99/5=2) pseudo=read geom=check guess=(read
 ,tcheck) scf=(maxcycle=1)\\title\\0,1\C,0,1.60631,0.0038983,-0.0432276
 \C,0,-1.8323,0.00800786,-0.0457703\H,0,3.49262,0.564457,0.224961\H,0,2
 .68379,1.3714,-0.98733\H,0,0.856064,-1.31454,1.30905\H,0,2.32104,-1.68
 075,0.629771\H,0,-0.541358,-1.21743,-1.03116\H,0,-1.08722,1.81344,0.50
 4156\H,0,-2.73337,1.59044,0.715241\H,0,-2.50205,-1.46632,-0.962965\N,0
 ,2.78066,0.487233,-0.502138\N,0,1.75585,-0.909155,0.974599\N,0,0.51051

 Normal termination of Gaussian 16 at Tue Apr  8 21:48:34 2025.
