 Gaussian 16, Revision C.01,

 ----------------------------------------------------------------------
 #t hf aug-cc-pvdz symm=none int=(grid=ultrafine) guess=(read,tcheck) s
 table=(opt,rrhf)
 ----------------------------------------------------------------------
 -----
 title
 -----
 Symbolic Z-matrix:
 Charge =  0 Multiplicity = 1

 SCF Done:  E(RHF) =  -509.550747759     A.U. after   14 cycles
 Normal termination of Gaussian 16 at Tue Apr  8 22:10:59 2025.
 Gaussian 16:  ES64L-G16RevC.01  3-Jul-2019

 ----------------------------------------------------------------------
 #t hf aug-cc-pvdz iop(5/13=1,5/36=2,99/5=2) pseudo=read geom=check gue
 ss=(read,tcheck) scf=(maxcycle=1)
 ----------------------------------------------------------------------
 -----
 title
 -----
 Structure from the checkpoint file:  "ANI1ccx_939_conf1_mol1.chk"
 Charge =  0 Multiplicity = 1

                         Standard orientation:
 ---------------------------------------------------------------------
 Center     Atomic      Atomic             Coordinates (Angstroms)
 Number     Number       Type             X           Y           Z
 ---------------------------------------------------------------------
      1          6           0       -0.828064    0.654489   -0.719774
      2          6           0       -1.256330   -0.641633   -0.100417
      3          6           0        0.693959    0.652979   -0.956487
      4          6           0        1.596080    0.120651    0.117442
      5          1           0       -1.483280    2.565111   -0.291824
      6          1           0       -1.949500    1.308751    0.766476
      7          1           0       -1.376220    0.815889   -1.624801
      8          1           0        1.000680    0.209914   -1.910011
      9          1           0        1.092880    1.684141   -1.094581
     10          1           0        1.735550   -0.263171    1.894919
     11          1           0       -0.809382   -2.461229   -0.205080
     12          7           0       -1.195460    1.721581    0.246335
     13          8           0       -2.122380   -0.742773    0.737752
     14          8           0        2.656730   -0.390571   -0.131491
     15          8           0        1.093010    0.203369    1.353499
     16          8           0       -0.511906   -1.648699   -0.622767
 ---------------------------------------------------------------------

 SCF Done:  E(RHF) =  -510.056965035     A.U. after    2 cycles

 The electronic state is 1-A.
 Alpha  occ. eigenvalues --  -20.62220 -20.60388 -20.56104 -20.53425 -15.49534
 Alpha  occ. eigenvalues --  -11.41345 -11.39598 -11.30074 -11.26480  -1.56664
 Alpha  occ. eigenvalues --   -1.55844  -1.47802  -1.45527  -1.20406  -1.06283
 Alpha  occ. eigenvalues --   -0.96611  -0.85104  -0.81037  -0.75521  -0.73395
 Alpha  occ. eigenvalues --   -0.72076  -0.68619  -0.67281  -0.65979  -0.64665
 Alpha  occ. eigenvalues --   -0.61218  -0.59693  -0.58685  -0.56300  -0.54409
 Alpha  occ. eigenvalues --   -0.49886  -0.47563  -0.46346  -0.45791  -0.43530
 Alpha virt. eigenvalues --    0.02956   0.03690   0.04331   0.05021   0.05300
 Alpha virt. eigenvalues --    0.06578   0.07179   0.09190   0.10902   0.11427
 Alpha virt. eigenvalues --    0.12376   0.13469   0.13678   0.13968   0.14911

 Mulliken charges:
               1
     1  C   -1.643063
     2  C    2.658604
     3  C   -0.262963
     4  C    2.169447
     5  H    0.235678
     6  H    0.193649
     7  H    0.151181
     8  H    0.158413
     9  H    0.310342
    10  H    0.327884
    11  H    0.373406
    12  N    0.470157
    13  O   -1.351569
    14  O   -1.280788
    15  O   -1.210765
    16  O   -1.299614
 Sum of Mulliken charges =  -0.00000

 Dipole moment (field-independent basis, Debye):
    X=             -1.5750    Y=              0.1031    Z=             -1.5996  Tot=              2.2472

 Test job not archived.
 1\1\GINC-SE364\SP\RHF\Aug-CC-pVDZ\C4H7N1O4\OHZDE\08-Apr-2025\0\\#t hf
 aug-cc-pvdz iop(5/13=1,5/36=2,99/5=2) pseudo=read geom=check guess=(re
 ad,tcheck) scf=(maxcycle=1)\\title\\0,1\C,0,-0.828064,0.654488,-0.7197
 73\C,0,-1.25633,-0.641634,-0.100416\C,0,0.693959,0.652978,-0.956486\C,
 0,1.59608,0.12065,0.117443\H,0,-1.48328,2.56511,-0.291823\H,0,-1.9495,
 1.30875,0.766477\H,0,-1.37622,0.815888,-1.6248\H,0,1.00068,0.209913,-1
 .91001\H,0,1.09288,1.68414,-1.09458\H,0,1.73555,-0.263172,1.89492\H,0,
 -0.809381,-2.46123,-0.205079\N,0,-1.19546,1.72158,0.246336\O,0,-2.1223

 Normal termination of Gaussian 16 at Tue Apr  8 22:11:06 2025.
