 Gaussian 16, Revision C.01,

 ----------------------------------------------------------------------
 #t hf aug-cc-pvdz symm=none int=(grid=ultrafine) guess=(read,tcheck) s
 table=(opt,rrhf)
 ----------------------------------------------------------------------
 -----
 title
 -----
 Symbolic Z-matrix:
 Charge =  0 Multiplicity = 1

 SCF Done:  E(RHF) =  -334.008700939     A.U. after   14 cycles
 Normal termination of Gaussian 16 at Tue Apr  8 21:38:50 2025.
 Gaussian 16:  ES64L-G16RevC.01  3-Jul-2019

 ----------------------------------------------------------------------
 #t hf aug-cc-pvdz iop(5/13=1,5/36=2,99/5=2) pseudo=read geom=check gue
 ss=(read,tcheck) scf=(maxcycle=1)
 ----------------------------------------------------------------------
 -----
 title
 -----
 Structure from the checkpoint file:  "ANI1ccx_431_conf1_mol1.chk"
 Charge =  0 Multiplicity = 1

                         Standard orientation:
 ---------------------------------------------------------------------
 Center     Atomic      Atomic             Coordinates (Angstroms)
 Number     Number       Type             X           Y           Z
 ---------------------------------------------------------------------
      1          6           0        0.799977    0.011535   -0.001241
      2          1           0       -1.160293    0.784324   -1.136590
      3          1           0       -1.940065    1.214542    0.240928
      4          1           0        0.525042    1.897242    0.643760
      5          1           0        0.575544   -1.928677   -0.500348
      6          1           0       -1.942185   -1.139198   -0.279522
      7          1           0       -1.253616   -0.973593    1.243330
      8          7           0       -1.137806    1.415465   -0.360768
      9          7           0        0.003857    1.059570    0.413793
     10          7           0        0.024659   -1.076150   -0.369581
     11          7           0       -1.151254   -1.394165    0.304670
     12          8           0        2.027440    0.005388   -0.015114
 ---------------------------------------------------------------------

 SCF Done:  E(RHF) =  -334.354173264     A.U. after    2 cycles

 The electronic state is 1-A.
 Alpha  occ. eigenvalues --  -20.52019 -15.55766 -15.55470 -15.54891 -15.54572
 Alpha  occ. eigenvalues --  -11.39299  -1.46859  -1.33886  -1.29112  -1.12072
 Alpha  occ. eigenvalues --   -1.08120  -0.89191  -0.79023  -0.75184  -0.74006
 Alpha  occ. eigenvalues --   -0.73002  -0.68921  -0.64596  -0.60619  -0.55908
 Alpha  occ. eigenvalues --   -0.50674  -0.45676  -0.44622  -0.43065
 Alpha virt. eigenvalues --    0.02499   0.05222   0.05330   0.05547   0.05771
 Alpha virt. eigenvalues --    0.06010   0.09866   0.10800   0.12548   0.13618
 Alpha virt. eigenvalues --    0.13957   0.15000   0.15907   0.18037   0.18265

 Mulliken charges:
               1
     1  C    0.156729
     2  H    0.191770
     3  H    0.195425
     4  H    0.189998
     5  H    0.200539
     6  H    0.125365
     7  H    0.230742
     8  N   -0.067515
     9  N    0.020916
    10  N   -0.029558
    11  N   -0.040761
    12  O   -1.173649
 Sum of Mulliken charges =   0.00000

 Dipole moment (field-independent basis, Debye):
    X=             -3.7887    Y=             -0.1361    Z=              0.4492  Tot=              3.8176

 Test job not archived.
 1\1\GINC-SE460\SP\RHF\Aug-CC-pVDZ\C1H6N4O1\OHZDE\08-Apr-2025\0\\#t hf
 aug-cc-pvdz iop(5/13=1,5/36=2,99/5=2) pseudo=read geom=check guess=(re
 ad,tcheck) scf=(maxcycle=1)\\title\\0,1\C,0,0.799977,0.0115318,-0.0012
 4068\H,0,-1.16029,0.784329,-1.13659\H,0,-1.94006,1.21455,0.240928\H,0,
 0.52505,1.89724,0.64376\H,0,0.575535,-1.92868,-0.500348\H,0,-1.94219,-
 1.13919,-0.279522\H,0,-1.25362,-0.973588,1.24333\N,0,-1.1378,1.41547,-
 0.360768\N,0,0.0038616,1.05957,0.413793\N,0,0.0246542,-1.07615,-0.3695
 81\N,0,-1.15126,-1.39416,0.30467\O,0,2.02744,0.00537882,-0.0151145\\Ve

 Normal termination of Gaussian 16 at Tue Apr  8 21:38:54 2025.
