 Gaussian 16, Revision C.01,

 ----------------------------------------------------------------------
 #t hf aug-cc-pvdz symm=none int=(grid=ultrafine) guess=(read,tcheck) s
 table=(opt,rrhf)
 ----------------------------------------------------------------------
 -----
 title
 -----
 Symbolic Z-matrix:
 Charge =  0 Multiplicity = 1

 SCF Done:  E(RHF) =  -525.202041205     A.U. after   16 cycles
 Normal termination of Gaussian 16 at Tue Apr  8 19:16:46 2025.
 Gaussian 16:  ES64L-G16RevC.01  3-Jul-2019

 ----------------------------------------------------------------------
 #t hf aug-cc-pvdz iop(5/13=1,5/36=2,99/5=2) pseudo=read geom=check gue
 ss=(read,tcheck) scf=(maxcycle=1)
 ----------------------------------------------------------------------
 -----
 title
 -----
 Structure from the checkpoint file:  "ANI1ccx_1088_conf1_mol1.chk"
 Charge =  0 Multiplicity = 1

                         Standard orientation:
 ---------------------------------------------------------------------
 Center     Atomic      Atomic             Coordinates (Angstroms)
 Number     Number       Type             X           Y           Z
 ---------------------------------------------------------------------
      1          6           0       -2.101121   -0.452929   -0.013784
      2          6           0       -0.667501    0.026663    0.032093
      3          6           0        0.485546   -0.759207    0.057641
      4          6           0        1.461549    0.242053    0.010019
      5          6           0        2.871439    0.037729    0.010398
      6          1           0       -3.804621    0.332475    0.241780
      7          1           0        0.424942   -1.811709    0.067504
      8          1           0        3.487779    0.932974    0.211633
      9          1           0       -0.815207    2.237680   -0.158214
     10          7           0        0.996408    1.444551   -0.136478
     11          7           0       -0.339065    1.346270   -0.032025
     12          8           0       -2.898641    0.654451    0.131315
     13          8           0       -2.506030   -1.567641   -0.131860
     14          8           0        3.380450   -1.060938    0.030372
 ---------------------------------------------------------------------

 SCF Done:  E(RHF) =  -525.717850151     A.U. after    2 cycles

 The electronic state is 1-A.
 Alpha  occ. eigenvalues --  -20.62745 -20.57413 -20.55211 -15.62412 -15.57341
 Alpha  occ. eigenvalues --  -11.43508 -11.34496 -11.32599 -11.28624 -11.27234
 Alpha  occ. eigenvalues --   -1.57414  -1.48970  -1.48155  -1.42205  -1.17458
 Alpha  occ. eigenvalues --   -1.11655  -0.96016  -0.94693  -0.87932  -0.80641
 Alpha  occ. eigenvalues --   -0.78484  -0.73373  -0.72424  -0.69946  -0.68465
 Alpha  occ. eigenvalues --   -0.65383  -0.64149  -0.63867  -0.60615  -0.55746
 Alpha  occ. eigenvalues --   -0.54841  -0.51344  -0.48284  -0.43647  -0.42805
 Alpha  occ. eigenvalues --   -0.40341
 Alpha virt. eigenvalues --    0.02497   0.03925   0.04835   0.04894   0.05256
 Alpha virt. eigenvalues --    0.07050   0.08064   0.08629   0.09318   0.09921
 Alpha virt. eigenvalues --    0.11306   0.12174   0.13587   0.14029   0.14203

 Mulliken charges:
               1
     1  C    2.600998
     2  C   -0.626787
     3  C    0.065522
     4  C   -0.509171
     5  C    1.401243
     6  H    0.488141
     7  H   -0.325509
     8  H    0.071794
     9  H    0.080882
    10  N    0.273580
    11  N    0.457731
    12  O   -1.382869
    13  O   -1.346301
    14  O   -1.249253
 Sum of Mulliken charges =  -0.00000

 Dipole moment (field-independent basis, Debye):
    X=             -3.3835    Y=              2.6808    Z=              0.3958  Tot=              4.3349

 Test job not archived.
 1\1\GINC-SE222\SP\RHF\Aug-CC-pVDZ\C5H4N2O3\OHZDE\08-Apr-2025\0\\#t hf
 aug-cc-pvdz iop(5/13=1,5/36=2,99/5=2) pseudo=read geom=check guess=(re
 ad,tcheck) scf=(maxcycle=1)\\title\\0,1\C,0,-2.10112,-0.452928,-0.0137
 84\C,0,-0.6675,0.0266631,0.0320927\C,0,0.485547,-0.759208,0.0576408\C,
 0,1.46155,0.242052,0.0100192\C,0,2.87144,0.0377267,0.0103976\H,0,-3.80
 462,0.332477,0.24178\H,0,0.424942,-1.81171,0.0675042\H,0,3.48778,0.932
 972,0.211633\H,0,-0.815205,2.23768,-0.158214\N,0,0.99641,1.44455,-0.13
 6478\N,0,-0.339063,1.34627,-0.0320249\O,0,-2.89864,0.654452,0.131315\O

 Normal termination of Gaussian 16 at Tue Apr  8 19:16:52 2025.
