 Gaussian 16, Revision C.01,

 ----------------------------------------------------------------------
 #t hf aug-cc-pvdz symm=none int=(grid=ultrafine) guess=(read,tcheck) s
 table=(opt,rrhf)
 ----------------------------------------------------------------------
 -----
 title
 -----
 Symbolic Z-matrix:
 Charge =  0 Multiplicity = 1

 SCF Done:  E(RHF) =  -441.659101439     A.U. after   15 cycles
 Normal termination of Gaussian 16 at Tue Apr  8 21:36:53 2025.
 Gaussian 16:  ES64L-G16RevC.01  3-Jul-2019

 ----------------------------------------------------------------------
 #t hf aug-cc-pvdz iop(5/13=1,5/36=2,99/5=2) pseudo=read geom=check gue
 ss=(read,tcheck) scf=(maxcycle=1)
 ----------------------------------------------------------------------
 -----
 title
 -----
 Structure from the checkpoint file:  "ANI1ccx_405_conf9_mol1.chk"
 Charge =  0 Multiplicity = 1

                         Standard orientation:
 ---------------------------------------------------------------------
 Center     Atomic      Atomic             Coordinates (Angstroms)
 Number     Number       Type             X           Y           Z
 ---------------------------------------------------------------------
      1          6           0        0.088033    0.717746    0.089188
      2          1           0       -2.707510    0.657363    0.728229
      3          1           0       -2.302910    0.781270   -0.892114
      4          1           0        2.662270    0.350486    0.833534
      5          1           0        2.601850    0.671312   -0.674415
      6          7           0       -2.360850    0.166922   -0.134122
      7          7           0       -0.995883   -0.102332    0.239940
      8          7           0       -0.759439   -1.453351   -0.002130
      9          7           0        0.467216   -1.503171   -0.070086
     10          7           0        1.018600   -0.255273   -0.032455
     11          7           0        2.311060   -0.080307   -0.039647
     12          8           0        0.181645    1.978209   -0.032608
 ---------------------------------------------------------------------

 SCF Done:  E(RHF) =  -442.109227109     A.U. after    2 cycles

 The electronic state is 1-A.
 Alpha  occ. eigenvalues --  -20.54308 -15.63532 -15.62829 -15.62295 -15.61871
 Alpha  occ. eigenvalues --  -15.56955 -15.56907 -11.42094  -1.54029  -1.45216
 Alpha  occ. eigenvalues --   -1.38849  -1.31613  -1.19497  -1.14454  -0.97023
 Alpha  occ. eigenvalues --   -0.95583  -0.84884  -0.81373  -0.78150  -0.74758
 Alpha  occ. eigenvalues --   -0.69077  -0.67659  -0.64172  -0.58079  -0.57502
 Alpha  occ. eigenvalues --   -0.54940  -0.54012  -0.51004  -0.46245  -0.42949
 Alpha virt. eigenvalues --    0.02562   0.04380   0.04871   0.06384   0.07304
 Alpha virt. eigenvalues --    0.08786   0.09576   0.11714   0.11856   0.12789
 Alpha virt. eigenvalues --    0.13562   0.14197   0.14327   0.15873   0.16337

 Mulliken charges:
               1
     1  C    0.926937
     2  H    0.226279
     3  H    0.129107
     4  H    0.219144
     5  H    0.173532
     6  N    0.359670
     7  N   -0.484239
     8  N    0.172963
     9  N   -0.538389
    10  N   -0.836934
    11  N    0.766333
    12  O   -1.114403
 Sum of Mulliken charges =  -0.00000

 Dipole moment (field-independent basis, Debye):
    X=              0.3924    Y=              1.8497    Z=              0.5744  Tot=              1.9762

 Test job not archived.
 1\1\GINC-SE250\SP\RHF\Aug-CC-pVDZ\C1H4N6O1\OHZDE\08-Apr-2025\0\\#t hf
 aug-cc-pvdz iop(5/13=1,5/36=2,99/5=2) pseudo=read geom=check guess=(re
 ad,tcheck) scf=(maxcycle=1)\\title\\0,1\C,0,0.0880325,0.717747,0.08918
 78\H,0,-2.70751,0.657364,0.728229\H,0,-2.30291,0.781271,-0.892114\H,0,
 2.66227,0.350487,0.833534\H,0,2.60185,0.671313,-0.674415\N,0,-2.36085,
 0.166923,-0.134122\N,0,-0.995883,-0.102331,0.23994\N,0,-0.759439,-1.45
 335,-0.00212984\N,0,0.467216,-1.50317,-0.0700862\N,0,1.0186,-0.255272,
 -0.0324551\N,0,2.31106,-0.0803058,-0.0396467\O,0,0.181645,1.97821,-0.0

 Normal termination of Gaussian 16 at Tue Apr  8 21:36:58 2025.
