 Gaussian 16, Revision C.01,

 ----------------------------------------------------------------------
 #t hf aug-cc-pvdz symm=none int=(grid=ultrafine) guess=(read,tcheck) s
 table=(opt,rrhf)
 ----------------------------------------------------------------------
 -----
 title
 -----
 Symbolic Z-matrix:
 Charge =  0 Multiplicity = 1

 SCF Done:  E(RHF) =  -276.580196146     A.U. after   15 cycles
 Normal termination of Gaussian 16 at Tue Apr  8 21:20:25 2025.
 Gaussian 16:  ES64L-G16RevC.01  3-Jul-2019

 ----------------------------------------------------------------------
 #t hf aug-cc-pvdz iop(5/13=1,5/36=2,99/5=2) pseudo=read geom=check gue
 ss=(read,tcheck) scf=(maxcycle=1)
 ----------------------------------------------------------------------
 -----
 title
 -----
 Structure from the checkpoint file:  "ANI1ccx_370_conf75_mol1.chk"
 Charge =  0 Multiplicity = 1

                         Standard orientation:
 ---------------------------------------------------------------------
 Center     Atomic      Atomic             Coordinates (Angstroms)
 Number     Number       Type             X           Y           Z
 ---------------------------------------------------------------------
      1          6           0        1.056640   -0.020663    0.003742
      2          1           0        2.183159   -0.184569    0.034154
      3          7           0        0.441468    1.140697    0.000980
      4          7           0       -0.959069    0.686909   -0.010870
      5          7           0       -1.045193   -0.571707    0.018885
      6          8           0        0.302070   -1.060343   -0.014946
 ---------------------------------------------------------------------

 SCF Done:  E(RHF) =  -276.843278068     A.U. after    2 cycles

 The electronic state is 1-A.
 Alpha  occ. eigenvalues --  -20.68356 -15.66855 -15.63947 -15.57963 -11.40165
 Alpha  occ. eigenvalues --   -1.65239  -1.38662  -1.25036  -0.96266  -0.92855
 Alpha  occ. eigenvalues --   -0.79535  -0.74493  -0.67139  -0.64323  -0.58833
 Alpha  occ. eigenvalues --   -0.55764  -0.54528  -0.49998
 Alpha virt. eigenvalues --    0.03026   0.04899   0.07609   0.07980   0.08073
 Alpha virt. eigenvalues --    0.12679   0.13213   0.13461   0.14995   0.16110
 Alpha virt. eigenvalues --    0.17773   0.19178   0.19221   0.20339   0.22674

 Mulliken charges:
               1
     1  C    0.329143
     2  H    0.214357
     3  N    0.318894
     4  N   -0.689443
     5  N    0.996344
     6  O   -1.169294
 Sum of Mulliken charges =  -0.00000

 Dipole moment (field-independent basis, Debye):
    X=              3.3157    Y=             -1.8108    Z=              0.0288  Tot=              3.7781

 Test job not archived.
 1\1\GINC-SE110\SP\RHF\Aug-CC-pVDZ\C1H1N3O1\OHZDE\08-Apr-2025\0\\#t hf
 aug-cc-pvdz iop(5/13=1,5/36=2,99/5=2) pseudo=read geom=check guess=(re
 ad,tcheck) scf=(maxcycle=1)\\title\\0,1\C,0,1.05664,-0.0206562,0.00374
 188\H,0,2.18316,-0.184556,0.034154\N,0,0.441462,1.1407,0.0009799\N,0,-
 0.959073,0.686905,-0.0108699\N,0,-1.04519,-0.571712,0.0188852\O,0,0.30
 2076,-1.06034,-0.0149465\\Version=ES64L-G16RevC.01\State=1-A\HF=-276.8
 432781\RMSD=3.555e-02\Dipole=1.3045119,-0.7124091,0.011343\Quadrupole=
 2.9662663,-3.3019382,0.3356719,-1.1029299,0.0746041,-0.0155245\PG=C01

 Normal termination of Gaussian 16 at Tue Apr  8 21:20:27 2025.
