 Gaussian 16, Revision C.01,

 ----------------------------------------------------------------------
 #t hf aug-cc-pvdz symm=none int=(grid=ultrafine) guess=(read,tcheck) s
 table=(opt,rrhf)
 ----------------------------------------------------------------------
 -----
 title
 -----
 Symbolic Z-matrix:
 Charge =  0 Multiplicity = 1

 SCF Done:  E(RHF) =  -205.851017611     A.U. after   14 cycles
 Normal termination of Gaussian 16 at Tue Apr  8 21:10:16 2025.
 Gaussian 16:  ES64L-G16RevC.01  3-Jul-2019

 ----------------------------------------------------------------------
 #t hf aug-cc-pvdz iop(5/13=1,5/36=2,99/5=2) pseudo=read geom=check gue
 ss=(read,tcheck) scf=(maxcycle=1)
 ----------------------------------------------------------------------
 -----
 title
 -----
 Structure from the checkpoint file:  "ANI1ccx_1869_conf28_mol1.chk"
 Charge =  0 Multiplicity = 1

                         Standard orientation:
 ---------------------------------------------------------------------
 Center     Atomic      Atomic             Coordinates (Angstroms)
 Number     Number       Type             X           Y           Z
 ---------------------------------------------------------------------
      1          1           0       -1.123368    1.243731   -0.227796
      2          1           0        2.352232    0.605782    0.551356
      3          1           0        1.268802   -0.263554   -0.151492
      4          7           0       -0.830803    0.271585   -0.020617
      5          8           0       -1.838368   -0.297654    0.043321
      6          8           0        2.253112   -0.138227   -0.046790
 ---------------------------------------------------------------------

 SCF Done:  E(RHF) =  -206.053833895     A.U. after    2 cycles

 The electronic state is 1-A.
 Alpha  occ. eigenvalues --  -20.65632 -20.54426 -15.66680  -1.67443  -1.41557
 Alpha  occ. eigenvalues --   -1.03819  -0.81121  -0.73311  -0.68464  -0.66172
 Alpha  occ. eigenvalues --   -0.56006  -0.48231  -0.45167
 Alpha virt. eigenvalues --    0.02771   0.04559   0.05636   0.07578   0.11932
 Alpha virt. eigenvalues --    0.15292   0.16372   0.18024   0.19839   0.22470
 Alpha virt. eigenvalues --    0.23099   0.24601   0.25524   0.25667   0.27230

 Mulliken charges:
               1
     1  H    0.044944
     2  H    0.347386
     3  H    0.512450
     4  N    0.818928
     5  O   -0.842438
     6  O   -0.881270
 Sum of Mulliken charges =  -0.00000

 Dipole moment (field-independent basis, Debye):
    X=             -2.2226    Y=              2.5967    Z=              0.4920  Tot=              3.4532

 Test job not archived.
 1\1\GINC-SE078\SP\RHF\Aug-CC-pVDZ\H3N1O2\OHZDE\08-Apr-2025\0\\#t hf au
 g-cc-pvdz iop(5/13=1,5/36=2,99/5=2) pseudo=read geom=check guess=(read
 ,tcheck) scf=(maxcycle=1)\\title\\0,1\H,0,-1.12337,1.24373,-0.227796\H
 ,0,2.35223,0.605782,0.551356\H,0,1.2688,-0.263554,-0.151492\N,0,-0.830
 805,0.271584,-0.0206166\O,0,-1.83837,-0.297655,0.043321\O,0,2.25311,-0
 .138227,-0.0467899\\Version=ES64L-G16RevC.01\State=1-A\HF=-206.0538339
 \RMSD=1.198e-02\Dipole=-0.8744228,1.0216332,0.1935531\Quadrupole=-3.61
 04484,2.3251703,1.2852782,0.8293046,2.0464452,0.6914774\PG=C01 [X(H3N1

 Normal termination of Gaussian 16 at Tue Apr  8 21:10:17 2025.
