 Gaussian 16, Revision C.01,

 ----------------------------------------------------------------------
 #t hf aug-cc-pvdz symm=none int=(grid=ultrafine) guess=(read,tcheck) s
 table=(opt,rrhf)
 ----------------------------------------------------------------------
 -----
 title
 -----
 Symbolic Z-matrix:
 Charge =  0 Multiplicity = 1

 SCF Done:  E(RHF) =  -276.586599515     A.U. after   15 cycles
 Normal termination of Gaussian 16 at Tue Apr  8 21:17:22 2025.
 Gaussian 16:  ES64L-G16RevC.01  3-Jul-2019

 ----------------------------------------------------------------------
 #t hf aug-cc-pvdz iop(5/13=1,5/36=2,99/5=2) pseudo=read geom=check gue
 ss=(read,tcheck) scf=(maxcycle=1)
 ----------------------------------------------------------------------
 -----
 title
 -----
 Structure from the checkpoint file:  "ANI1ccx_370_conf33_mol1.chk"
 Charge =  0 Multiplicity = 1

                         Standard orientation:
 ---------------------------------------------------------------------
 Center     Atomic      Atomic             Coordinates (Angstroms)
 Number     Number       Type             X           Y           Z
 ---------------------------------------------------------------------
      1          6           0        1.034732    0.104276   -0.012211
      2          1           0        2.127331    0.047692    0.094938
      3          7           0        0.289105    1.142357    0.008917
      4          7           0       -0.990920    0.604280   -0.020267
      5          7           0       -0.975172   -0.675076    0.031554
      6          8           0        0.425399   -1.021784   -0.020387
 ---------------------------------------------------------------------

 SCF Done:  E(RHF) =  -276.853122052     A.U. after    2 cycles

 The electronic state is 1-A.
 Alpha  occ. eigenvalues --  -20.68327 -15.66548 -15.63865 -15.56981 -11.39185
 Alpha  occ. eigenvalues --   -1.65369  -1.39782  -1.26272  -0.97296  -0.94630
 Alpha  occ. eigenvalues --   -0.80381  -0.75053  -0.68179  -0.64192  -0.57624
 Alpha  occ. eigenvalues --   -0.55932  -0.55745  -0.50312
 Alpha virt. eigenvalues --    0.03064   0.04227   0.07603   0.08032   0.08396
 Alpha virt. eigenvalues --    0.12732   0.13537   0.14187   0.15121   0.16027
 Alpha virt. eigenvalues --    0.17786   0.18886   0.19853   0.21660   0.22574

 Mulliken charges:
               1
     1  C    0.400801
     2  H    0.122324
     3  N    0.361951
     4  N   -0.786944
     5  N    1.053866
     6  O   -1.151998
 Sum of Mulliken charges =  -0.00000

 Dipole moment (field-independent basis, Debye):
    X=              3.4677    Y=             -1.2555    Z=              0.0309  Tot=              3.6881

 Test job not archived.
 1\1\GINC-SE072\SP\RHF\Aug-CC-pVDZ\C1H1N3O1\OHZDE\08-Apr-2025\0\\#t hf
 aug-cc-pvdz iop(5/13=1,5/36=2,99/5=2) pseudo=read geom=check guess=(re
 ad,tcheck) scf=(maxcycle=1)\\title\\0,1\C,0,1.03473,0.104284,-0.012211
 1\H,0,2.12733,0.0477084,0.0949375\N,0,0.289096,1.14236,0.0089165\N,0,-
 0.990925,0.604274,-0.020267\N,0,-0.975168,-0.675082,0.0315543\O,0,0.42
 5405,-1.02178,-0.0203872\\Version=ES64L-G16RevC.01\State=1-A\HF=-276.8
 531221\RMSD=3.776e-02\Dipole=1.3642867,-0.4939462,0.0121683\Quadrupole
 =2.8161181,-3.2911263,0.4750082,-0.4032954,0.1413215,-0.0192251\PG=C01

 Normal termination of Gaussian 16 at Tue Apr  8 21:17:24 2025.
