 Gaussian 16, Revision C.01,

 ----------------------------------------------------------------------
 #t hf aug-cc-pvdz symm=none int=(grid=ultrafine) guess=(read,tcheck) s
 table=(opt,rrhf)
 ----------------------------------------------------------------------
 -----
 title
 -----
 Symbolic Z-matrix:
 Charge =  0 Multiplicity = 1

 SCF Done:  E(RHF) =  -646.683640162     A.U. after   15 cycles
 Normal termination of Gaussian 16 at Tue Apr  8 21:53:06 2025.
 Gaussian 16:  ES64L-G16RevC.01  3-Jul-2019

 ----------------------------------------------------------------------
 #t hf aug-cc-pvdz iop(5/13=1,5/36=2,99/5=2) pseudo=read geom=check gue
 ss=(read,tcheck) scf=(maxcycle=1)
 ----------------------------------------------------------------------
 -----
 title
 -----
 Structure from the checkpoint file:  "ANI1ccx_51_conf1_mol1.chk"
 Charge =  0 Multiplicity = 1

                         Standard orientation:
 ---------------------------------------------------------------------
 Center     Atomic      Atomic             Coordinates (Angstroms)
 Number     Number       Type             X           Y           Z
 ---------------------------------------------------------------------
      1          6           0       -3.111130    0.159567   -0.061423
      2          6           0        0.781537   -1.227870   -0.937607
      3          6           0        1.725100   -1.597700    0.976334
      4          6           0        3.008490   -0.136658   -0.594682
      5          6           0        2.953370    1.325000   -0.081892
      6          6           0        0.476346   -2.197270    0.888201
      7          6           0        0.464634    1.716610    0.701889
      8          6           0       -0.816598    1.414690   -0.100836
      9          6           0       -1.951400    0.754699    0.726500
     10          6           0        1.626710    2.096500   -0.246758
     11          1           0        3.253090    1.379730    1.003420
     12          1           0        0.711703   -0.797199   -1.931660
     13          1           0        0.058931   -2.797420    1.692590
     14          1           0        2.523820   -1.537470    1.677780
     15          1           0        3.944610   -0.603546   -0.133412
     16          1           0        3.049220   -0.171333   -1.666100
     17          1           0        3.771280    1.853970   -0.622219
     18          1           0        1.917950    3.171320   -0.145135
     19          1           0       -0.509566    0.786864   -0.966424
     20          1           0        0.674586    0.902649    1.399900
     21          1           0        0.267217    2.569470    1.361180
     22          1           0       -1.163800    2.419880   -0.495781
     23          1           0       -1.472410   -0.043163    1.381900
     24          1           0       -2.324350    1.550500    1.356510
     25          1           0       -1.978990   -1.276230   -0.571635
     26          1           0        1.279410    1.975110   -1.254550
     27          7           0        1.867170   -0.958146   -0.198223
     28          7           0       -0.164332   -1.936830   -0.347902
     29          8           0       -2.946230   -1.091600   -0.590382
     30          8           0       -4.161890    0.721140   -0.144847
 ---------------------------------------------------------------------

 SCF Done:  E(RHF) =  -647.350031754     A.U. after    2 cycles

 The electronic state is 1-A.
 Alpha  occ. eigenvalues --  -20.56202 -20.50909 -15.57927 -15.52062 -11.36792
 Alpha  occ. eigenvalues --  -11.32315 -11.31845 -11.28204 -11.27807 -11.27059
 Alpha  occ. eigenvalues --  -11.25424 -11.25314 -11.24989 -11.24386  -1.50648
 Alpha  occ. eigenvalues --   -1.42509  -1.37613  -1.21763  -1.11211  -1.07295
 Alpha  occ. eigenvalues --   -1.04213  -1.00523  -0.93955  -0.87235  -0.86138
 Alpha  occ. eigenvalues --   -0.81764  -0.81385  -0.78689  -0.75364  -0.70679
 Alpha  occ. eigenvalues --   -0.69708  -0.66407  -0.66177  -0.64609  -0.63349
 Alpha  occ. eigenvalues --   -0.63173  -0.61929  -0.60709  -0.60108  -0.58431
 Alpha  occ. eigenvalues --   -0.56814  -0.55468  -0.55077  -0.52164  -0.50903
 Alpha  occ. eigenvalues --   -0.50532  -0.49381  -0.48901  -0.48156  -0.44401
 Alpha  occ. eigenvalues --   -0.44129  -0.41143  -0.35174
 Alpha virt. eigenvalues --    0.01844   0.02264   0.02515   0.03454   0.04116
 Alpha virt. eigenvalues --    0.04418   0.04693   0.06045   0.06115   0.07603
 Alpha virt. eigenvalues --    0.07987   0.08309   0.08647   0.09147   0.09473

 Mulliken charges:
               1
     1  C    2.539379
     2  C   -1.748851
     3  C    0.138991
     4  C   -0.739779
     5  C   -0.350033
     6  C   -0.480242
     7  C    0.003439
     8  C   -0.741016
     9  C   -0.446025
    10  C   -0.147071
    11  H    0.180454
    12  H   -0.323341
    13  H   -0.199319
    14  H   -0.428481
    15  H    0.205591
    16  H   -0.054706
    17  H    0.167874
    18  H    0.202236
    19  H    0.258879
    20  H    0.025004
    21  H    0.086192
    22  H    0.217303
    23  H    0.425807
    24  H    0.042935
    25  H    0.697017
    26  H    0.029421
    27  N    2.160021
    28  N    1.202270
    29  O   -1.571194
    30  O   -1.352753
 Sum of Mulliken charges =  -0.00000

 Dipole moment (field-independent basis, Debye):
    X=              9.9382    Y=              1.6414    Z=              1.0532  Tot=             10.1278

 Test job not archived.
 1\1\GINC-SE331\SP\RHF\Aug-CC-pVDZ\C10H16N2O2\OHZDE\08-Apr-2025\0\\#t h
 f aug-cc-pvdz iop(5/13=1,5/36=2,99/5=2) pseudo=read geom=check guess=(
 read,tcheck) scf=(maxcycle=1)\\title\\0,1\C,0,-3.11113,0.159567,-0.061
 4225\C,0,0.781537,-1.22787,-0.937607\C,0,1.7251,-1.5977,0.976334\C,0,3
 .00849,-0.136658,-0.594682\C,0,2.95337,1.325,-0.0818921\C,0,0.476346,-
 2.19727,0.888201\C,0,0.464634,1.71661,0.701889\C,0,-0.816598,1.41469,-
 0.100836\C,0,-1.9514,0.754699,0.7265\C,0,1.62671,2.0965,-0.246758\H,0,
 3.25309,1.37973,1.00342\H,0,0.711703,-0.797199,-1.93166\H,0,0.0589307,

 Normal termination of Gaussian 16 at Tue Apr  8 21:53:37 2025.
