 Gaussian 16, Revision C.01,

 ----------------------------------------------------------------------
 #t hf aug-cc-pvdz symm=none int=(grid=ultrafine) guess=(read,tcheck) s
 table=(opt,rrhf)
 ----------------------------------------------------------------------
 -----
 title
 -----
 Symbolic Z-matrix:
 Charge =  0 Multiplicity = 1

 SCF Done:  E(RHF) =  -755.426756454     A.U. after   14 cycles
 Normal termination of Gaussian 16 at Tue Apr  8 19:39:02 2025.
 Gaussian 16:  ES64L-G16RevC.01  3-Jul-2019

 ----------------------------------------------------------------------
 #t hf aug-cc-pvdz iop(5/13=1,5/36=2,99/5=2) pseudo=read geom=check gue
 ss=(read,tcheck) scf=(maxcycle=1)
 ----------------------------------------------------------------------
 -----
 title
 -----
 Structure from the checkpoint file:  "ANI1ccx_1405_conf14_mol2.chk"
 Charge =  0 Multiplicity = 1

                         Standard orientation:
 ---------------------------------------------------------------------
 Center     Atomic      Atomic             Coordinates (Angstroms)
 Number     Number       Type             X           Y           Z
 ---------------------------------------------------------------------
      1          6           0        0.794434   -1.589739    0.579857
      2          6           0        0.267092   -1.184549   -0.826072
      3          6           0        0.965024   -0.394161    1.524710
      4          6           0        1.993930    0.653867    1.154050
      5          6           0        1.557020    1.588101    0.052251
      6          6           0       -2.110089   -0.963074   -0.058848
      7          6           0       -2.849920    0.323670    0.196256
      8          1           0       -1.259770    1.225300   -0.446272
      9          1           0       -2.844539   -1.641250   -0.532792
     10          1           0       -1.847839   -1.442160    0.908645
     11          1           0       -1.300860   -0.590505   -1.960120
     12          1           0        2.100129    2.793481   -1.203160
     13          1           0        2.201510    1.301801    2.030420
     14          1           0        2.967490    0.209192    0.907811
     15          1           0        1.353241   -0.761339    2.491140
     16          1           0       -0.012499    0.100168    1.647300
     17          1           0        0.049675   -2.246819    1.047510
     18          1           0        1.903111   -3.160049   -0.031305
     19          1           0        2.712951   -1.757989   -0.196898
     20          7           0        2.091641   -2.276479    0.439763
     21          7           0       -1.030059   -0.830443   -0.993553
     22          8           0        1.032711   -1.155349   -1.785720
     23          8           0        0.404163    1.676981   -0.371508
     24          8           0        2.537720    2.308481   -0.474950
     25          8           0       -3.909200    0.364599    0.759420
     26          8           0       -2.210220    1.444530   -0.192114
 ---------------------------------------------------------------------

 SCF Done:  E(RHF) =  -756.182914132     A.U. after    2 cycles

 The electronic state is 1-A.
 Alpha  occ. eigenvalues --  -20.63198 -20.57841 -20.56497 -20.52739 -20.52563
 Alpha  occ. eigenvalues --  -15.55284 -15.50676 -11.42852 -11.38807 -11.37584
 Alpha  occ. eigenvalues --  -11.31446 -11.30682 -11.28345 -11.27160  -1.58429
 Alpha  occ. eigenvalues --   -1.52727  -1.47611  -1.47184  -1.44143  -1.27218
 Alpha  occ. eigenvalues --   -1.20830  -1.10382  -1.03785  -1.00147  -0.91588
 Alpha  occ. eigenvalues --   -0.84331  -0.83155  -0.79965  -0.77979  -0.74523
 Alpha  occ. eigenvalues --   -0.73835  -0.73394  -0.71365  -0.70763  -0.67464
 Alpha  occ. eigenvalues --   -0.66092  -0.65012  -0.64160  -0.62239  -0.61092
 Alpha  occ. eigenvalues --   -0.60922  -0.59910  -0.56720  -0.55836  -0.54722
 Alpha  occ. eigenvalues --   -0.53704  -0.52336  -0.49947  -0.47967  -0.47359
 Alpha  occ. eigenvalues --   -0.45869  -0.45640  -0.43603  -0.42034
 Alpha virt. eigenvalues --    0.02835   0.03051   0.03247   0.04085   0.04378
 Alpha virt. eigenvalues --    0.05177   0.05676   0.06376   0.07501   0.07793
 Alpha virt. eigenvalues --    0.09365   0.09399   0.09807   0.11118   0.11554

 Mulliken charges:
               1
     1  C   -1.935068
     2  C    0.723785
     3  C   -0.002124
     4  C   -0.702959
     5  C    2.490282
     6  C   -0.837797
     7  C    2.280752
     8  H    0.842906
     9  H    0.166735
    10  H    0.172384
    11  H    0.309536
    12  H    0.340313
    13  H    0.294458
    14  H    0.187487
    15  H    0.204382
    16  H    0.180614
    17  H    0.148700
    18  H    0.170174
    19  H    0.270371
    20  N    0.845708
    21  N    1.004867
    22  O   -1.506910
    23  O   -1.501721
    24  O   -1.423540
    25  O   -1.362553
    26  O   -1.360783
 Sum of Mulliken charges =  -0.00000

 Dipole moment (field-independent basis, Debye):
    X=              3.7106    Y=             -1.4220    Z=              0.2066  Tot=              3.9791

 Test job not archived.
 1\1\GINC-SE335\SP\RHF\Aug-CC-pVDZ\C7H12N2O5\OHZDE\08-Apr-2025\0\\#t hf
  aug-cc-pvdz iop(5/13=1,5/36=2,99/5=2) pseudo=read geom=check guess=(r
 ead,tcheck) scf=(maxcycle=1)\\title\\0,1\C,0,0.794433,-1.58974,0.57985
 7\C,0,0.267091,-1.18455,-0.826072\C,0,0.965024,-0.394162,1.52471\C,0,1
 .99393,0.653866,1.15405\C,0,1.55702,1.5881,0.0522511\C,0,-2.11009,-0.9
 63074,-0.0588482\C,0,-2.84992,0.32367,0.196256\H,0,-1.25977,1.2253,-0.
 446272\H,0,-2.84454,-1.64125,-0.532792\H,0,-1.84784,-1.44216,0.908645\
 H,0,-1.30086,-0.590505,-1.96012\H,0,2.10013,2.79348,-1.20316\H,0,2.201

 Normal termination of Gaussian 16 at Tue Apr  8 19:39:29 2025.
