 Gaussian 16, Revision C.01,

 ----------------------------------------------------------------------
 #t hf aug-cc-pvdz symm=none int=(grid=ultrafine) guess=(read,tcheck) s
 table=(opt,rrhf)
 ----------------------------------------------------------------------
 -----
 title
 -----
 Symbolic Z-matrix:
 Charge =  0 Multiplicity = 1

 SCF Done:  E(RHF) =  -810.423079739     A.U. after   14 cycles
 Normal termination of Gaussian 16 at Tue Apr  8 19:46:12 2025.
 Gaussian 16:  ES64L-G16RevC.01  3-Jul-2019

 ----------------------------------------------------------------------
 #t hf aug-cc-pvdz iop(5/13=1,5/36=2,99/5=2) pseudo=read geom=check gue
 ss=(read,tcheck) scf=(maxcycle=1)
 ----------------------------------------------------------------------
 -----
 title
 -----
 Structure from the checkpoint file:  "ANI1ccx_1427_conf11_mol1.chk"
 Charge =  0 Multiplicity = 1

                         Standard orientation:
 ---------------------------------------------------------------------
 Center     Atomic      Atomic             Coordinates (Angstroms)
 Number     Number       Type             X           Y           Z
 ---------------------------------------------------------------------
      1          6           0       -2.194891   -0.763675   -0.542993
      2          6           0       -1.141071    0.354860   -0.137361
      3          6           0       -3.450071   -0.492559    0.343472
      4          6           0        1.208829    0.574817    0.238200
      5          6           0        1.575238    2.026412   -0.011019
      6          6           0        2.397619   -0.279110   -0.110435
      7          6           0        2.050530   -1.659988    0.018351
      8          1           0       -0.250076    2.472611    0.489711
      9          1           0        3.068370   -1.832858    1.745150
     10          1           0        2.277861   -3.348878    1.094590
     11          1           0        2.712449   -0.069077   -1.179630
     12          1           0        3.222439   -0.099004    0.560233
     13          1           0        0.850961    0.409969    1.215970
     14          1           0        0.277955   -0.502771   -1.301760
     15          1           0       -3.061752    1.275689    0.209592
     16          1           0       -3.196691   -0.536145    1.393070
     17          1           0       -4.159780   -1.269721    0.022343
     18          1           0       -2.492871   -0.602833   -1.656140
     19          1           0       -1.672490   -2.298940    0.719814
     20          1           0       -0.744317   -2.221740   -0.759711
     21          7           0       -1.699740   -2.116550   -0.283421
     22          7           0        0.055540    0.292607   -0.669498
     23          7           0        2.559710   -2.343328    1.003350
     24          8           0       -1.313471    1.056310    0.864122
     25          8           0       -3.864761    0.827793    0.061689
     26          8           0        2.606318    2.397972   -0.437026
     27          8           0        1.254280   -2.239869   -0.794523
     28          8           0        0.577919    2.861551    0.093794
 ---------------------------------------------------------------------

 SCF Done:  E(RHF) =  -811.235933982     A.U. after    2 cycles

 The electronic state is 1-A.
 Alpha  occ. eigenvalues --  -20.58315 -20.55244 -20.53717 -20.53579 -20.53183
 Alpha  occ. eigenvalues --  -15.58527 -15.55930 -15.50793 -11.39478 -11.39058
 Alpha  occ. eigenvalues --  -11.38508 -11.32909 -11.30295 -11.28787 -11.28724
 Alpha  occ. eigenvalues --   -1.56116  -1.51170  -1.47036  -1.46477  -1.45231
 Alpha  occ. eigenvalues --   -1.29234  -1.28650  -1.19461  -1.12674  -1.00973
 Alpha  occ. eigenvalues --   -0.98181  -0.89282  -0.87872  -0.84944  -0.83669
 Alpha  occ. eigenvalues --   -0.80352  -0.78643  -0.75668  -0.74379  -0.71270
 Alpha  occ. eigenvalues --   -0.70625  -0.68440  -0.67383  -0.66861  -0.65145
 Alpha  occ. eigenvalues --   -0.64409  -0.62871  -0.61631  -0.60762  -0.59880
 Alpha  occ. eigenvalues --   -0.57637  -0.56890  -0.55895  -0.55240  -0.51483
 Alpha  occ. eigenvalues --   -0.49770  -0.47785  -0.47234  -0.46393  -0.46152
 Alpha  occ. eigenvalues --   -0.44198  -0.43710  -0.42013
 Alpha virt. eigenvalues --    0.00822   0.03361   0.03711   0.04333   0.04795
 Alpha virt. eigenvalues --    0.04959   0.05722   0.06054   0.06735   0.07413
 Alpha virt. eigenvalues --    0.07634   0.08299   0.09285   0.10009   0.10753

 Mulliken charges:
               1
     1  C   -1.991697
     2  C    0.239874
     3  C    1.202390
     4  C   -0.319580
     5  C    2.347595
     6  C   -0.468498
     7  C    0.250015
     8  H    0.524453
     9  H    0.174708
    10  H    0.169727
    11  H    0.351777
    12  H    0.037161
    13  H   -0.072749
    14  H    0.447311
    15  H    0.379581
    16  H    0.086550
    17  H    0.196879
    18  H    0.217073
    19  H    0.258355
    20  H    0.134332
    21  N    0.751106
    22  N    1.088327
    23  N    1.018938
    24  O   -1.440272
    25  O   -1.181379
    26  O   -1.325915
    27  O   -1.602029
    28  O   -1.474033
 Sum of Mulliken charges =  -0.00000

 Dipole moment (field-independent basis, Debye):
    X=              3.9550    Y=             -5.0227    Z=              3.6642  Tot=              7.3686

 Test job not archived.
 1\1\GINC-SE332\SP\RHF\Aug-CC-pVDZ\C7H13N3O5\OHZDE\08-Apr-2025\0\\#t hf
  aug-cc-pvdz iop(5/13=1,5/36=2,99/5=2) pseudo=read geom=check guess=(r
 ead,tcheck) scf=(maxcycle=1)\\title\\0,1\C,0,-2.19489,-0.763675,-0.542
 993\C,0,-1.14107,0.35486,-0.137361\C,0,-3.45007,-0.492558,0.343472\C,0
 ,1.20883,0.574816,0.2382\C,0,1.57524,2.02641,-0.0110197\C,0,2.39762,-0
 .279112,-0.110435\C,0,2.05053,-1.65999,0.0183509\H,0,-0.250074,2.47261
 ,0.489711\H,0,3.06837,-1.83286,1.74515\H,0,2.27786,-3.34888,1.09459\H,
 0,2.71245,-0.0690786,-1.17963\H,0,3.22244,-0.0990059,0.560233\H,0,0.85

 Normal termination of Gaussian 16 at Tue Apr  8 19:46:39 2025.
