 Gaussian 16, Revision C.01,

 ----------------------------------------------------------------------
 #t hf aug-cc-pvdz symm=none int=(grid=ultrafine) guess=(read,tcheck) s
 table=(opt,rrhf)
 ----------------------------------------------------------------------
 -----
 title
 -----
 Symbolic Z-matrix:
 Charge =  0 Multiplicity = 1

 SCF Done:  E(RHF) =  -276.586149038     A.U. after   15 cycles
 Normal termination of Gaussian 16 at Tue Apr  8 21:19:25 2025.
 Gaussian 16:  ES64L-G16RevC.01  3-Jul-2019

 ----------------------------------------------------------------------
 #t hf aug-cc-pvdz iop(5/13=1,5/36=2,99/5=2) pseudo=read geom=check gue
 ss=(read,tcheck) scf=(maxcycle=1)
 ----------------------------------------------------------------------
 -----
 title
 -----
 Structure from the checkpoint file:  "ANI1ccx_370_conf64_mol1.chk"
 Charge =  0 Multiplicity = 1

                         Standard orientation:
 ---------------------------------------------------------------------
 Center     Atomic      Atomic             Coordinates (Angstroms)
 Number     Number       Type             X           Y           Z
 ---------------------------------------------------------------------
      1          6           0        0.999154    0.281312    0.022443
      2          1           0        2.100400    0.245851    0.001466
      3          7           0        0.085967    1.178171   -0.023958
      4          7           0       -1.048300    0.425122    0.020536
      5          7           0       -0.866634   -0.780489   -0.009379
      6          8           0        0.588431   -0.961669   -0.005814
 ---------------------------------------------------------------------

 SCF Done:  E(RHF) =  -276.859243650     A.U. after    2 cycles

 The electronic state is 1-A.
 Alpha  occ. eigenvalues --  -20.67610 -15.65860 -15.62977 -15.57185 -11.39598
 Alpha  occ. eigenvalues --   -1.64137  -1.42569  -1.27786  -0.97246  -0.94493
 Alpha  occ. eigenvalues --   -0.79985  -0.75413  -0.69442  -0.63886  -0.57301
 Alpha  occ. eigenvalues --   -0.56542  -0.54666  -0.50774
 Alpha virt. eigenvalues --    0.03102   0.05222   0.07479   0.08104   0.08979
 Alpha virt. eigenvalues --    0.12752   0.13669   0.14129   0.15267   0.15896
 Alpha virt. eigenvalues --    0.17814   0.18695   0.19505   0.21214   0.22521

 Mulliken charges:
               1
     1  C    0.353612
     2  H    0.151916
     3  N    0.413195
     4  N   -0.912359
     5  N    1.134181
     6  O   -1.140544
 Sum of Mulliken charges =  -0.00000

 Dipole moment (field-independent basis, Debye):
    X=              3.5566    Y=             -0.6979    Z=              0.0680  Tot=              3.6250

 Test job not archived.
 1\1\GINC-SE229\SP\RHF\Aug-CC-pVDZ\C1H1N3O1\OHZDE\08-Apr-2025\0\\#t hf
 aug-cc-pvdz iop(5/13=1,5/36=2,99/5=2) pseudo=read geom=check guess=(re
 ad,tcheck) scf=(maxcycle=1)\\title\\0,1\C,0,0.999154,0.28131,0.0224431
 \H,0,2.1004,0.245848,0.00146568\N,0,0.0859683,1.17817,-0.0239582\N,0,-
 1.0483,0.425123,0.0205356\N,0,-0.866635,-0.780488,-0.00937932\O,0,0.58
 843,-0.96167,-0.00581382\\Version=ES64L-G16RevC.01\State=1-A\HF=-276.8
 592437\RMSD=4.470e-02\Dipole=1.3992554,-0.2745807,0.0267412\Quadrupole
 =2.7874985,-3.3208989,0.5334004,0.4006687,0.0547624,0.0364608\PG=C01 [

 Normal termination of Gaussian 16 at Tue Apr  8 21:19:27 2025.
