 Gaussian 16, Revision C.01,

 ----------------------------------------------------------------------
 #t hf aug-cc-pvdz symm=none int=(grid=ultrafine) guess=(read,tcheck) s
 table=(opt,rrhf)
 ----------------------------------------------------------------------
 -----
 title
 -----
 Symbolic Z-matrix:
 Charge =  0 Multiplicity = 1

 SCF Done:  E(RHF) =  -389.467453922     A.U. after   16 cycles
 Normal termination of Gaussian 16 at Tue Apr  8 21:40:45 2025.
 Gaussian 16:  ES64L-G16RevC.01  3-Jul-2019

 ----------------------------------------------------------------------
 #t hf aug-cc-pvdz iop(5/13=1,5/36=2,99/5=2) pseudo=read geom=check gue
 ss=(read,tcheck) scf=(maxcycle=1)
 ----------------------------------------------------------------------
 -----
 title
 -----
 Structure from the checkpoint file:  "ANI1ccx_473_conf21_mol1.chk"
 Charge =  0 Multiplicity = 1

                         Standard orientation:
 ---------------------------------------------------------------------
 Center     Atomic      Atomic             Coordinates (Angstroms)
 Number     Number       Type             X           Y           Z
 ---------------------------------------------------------------------
      1          6           0        0.942889    1.023690    0.006266
      2          6           0        1.358809   -1.229700   -0.035844
      3          1           0        2.198809   -1.981541   -0.041251
      4          7           0        1.729890    0.091318    0.027774
      5          7           0       -2.741030   -0.417284   -0.157071
      6          7           0       -1.913770    0.299361    0.212103
      7          8           0        0.367456    2.008690   -0.065325
      8          8           0        0.190716   -1.583210    0.020210
 ---------------------------------------------------------------------

 SCF Done:  E(RHF) =  -389.832237770     A.U. after    2 cycles

 The electronic state is 1-A.
 Alpha  occ. eigenvalues --  -20.65123 -20.56273 -15.63051 -15.62885 -15.55778
 Alpha  occ. eigenvalues --  -11.46038 -11.41147  -1.60829  -1.50123  -1.43672
 Alpha  occ. eigenvalues --   -1.32140  -0.99170  -0.83103  -0.78905  -0.77006
 Alpha  occ. eigenvalues --   -0.71869  -0.71476  -0.68258  -0.65239  -0.63398
 Alpha  occ. eigenvalues --   -0.63116  -0.59105  -0.54616  -0.47548  -0.46824
 Alpha virt. eigenvalues --    0.03386   0.06518   0.07165   0.07637   0.07845
 Alpha virt. eigenvalues --    0.09077   0.09163   0.10036   0.10443   0.11787
 Alpha virt. eigenvalues --    0.12602   0.13506   0.15626   0.16959   0.18061

 Mulliken charges:
               1
     1  C    0.172430
     2  C    0.715252
     3  H    0.165437
     4  N    0.656087
     5  N   -0.209649
     6  N    0.160152
     7  O   -0.701852
     8  O   -0.957856
 Sum of Mulliken charges =  -0.00000

 Dipole moment (field-independent basis, Debye):
    X=              1.7790    Y=              0.1688    Z=             -0.0626  Tot=              1.7881

 Test job not archived.
 1\1\GINC-SE457\SP\RHF\Aug-CC-pVDZ\C2H1N3O2\OHZDE\08-Apr-2025\0\\#t hf
 aug-cc-pvdz iop(5/13=1,5/36=2,99/5=2) pseudo=read geom=check guess=(re
 ad,tcheck) scf=(maxcycle=1)\\title\\0,1\C,0,0.942889,1.02369,0.0062661
 5\C,0,1.35881,-1.2297,-0.0358439\H,0,2.19881,-1.98154,-0.0412505\N,0,1
 .72989,0.0913188,0.0277742\N,0,-2.74103,-0.417285,-0.157071\N,0,-1.913
 77,0.299361,0.212103\O,0,0.367456,2.00869,-0.0653253\O,0,0.190717,-1.5
 8321,0.0202099\\Version=ES64L-G16RevC.01\State=1-A\HF=-389.8322378\RMS
 D=2.763e-02\Dipole=0.6999275,0.0664068,-0.0246257\Quadrupole=0.6204621

 Normal termination of Gaussian 16 at Tue Apr  8 21:40:48 2025.
