 Gaussian 16, Revision C.01,

 ----------------------------------------------------------------------
 #t hf aug-cc-pvdz symm=none int=(grid=ultrafine) guess=(read,tcheck) s
 table=(opt,rrhf)
 ----------------------------------------------------------------------
 -----
 title
 -----
 Symbolic Z-matrix:
 Charge =  0 Multiplicity = 1

 SCF Done:  E(RHF) =  -584.435189431     A.U. after   14 cycles
 Normal termination of Gaussian 16 at Tue Apr  8 22:12:49 2025.
 Gaussian 16:  ES64L-G16RevC.01  3-Jul-2019

 ----------------------------------------------------------------------
 #t hf aug-cc-pvdz iop(5/13=1,5/36=2,99/5=2) pseudo=read geom=check gue
 ss=(read,tcheck) scf=(maxcycle=1)
 ----------------------------------------------------------------------
 -----
 title
 -----
 Structure from the checkpoint file:  "ANI1ccx_940_conf13_mol2.chk"
 Charge =  0 Multiplicity = 1

                         Standard orientation:
 ---------------------------------------------------------------------
 Center     Atomic      Atomic             Coordinates (Angstroms)
 Number     Number       Type             X           Y           Z
 ---------------------------------------------------------------------
      1          6           0       -0.750165   -0.600768   -0.013814
      2          6           0        0.474371   -0.803152   -0.925724
      3          6           0        1.715291   -0.059901   -0.442649
      4          6           0       -0.916575    0.905534    0.291151
      5          1           0       -2.264239    0.816491   -0.943653
      6          1           0        2.890741    0.053970    0.986043
      7          1           0        0.656723   -1.878070   -1.067540
      8          1           0        0.192514   -0.411905   -1.889500
      9          1           0       -2.684769   -1.222171   -0.026554
     10          1           0       -1.767528   -1.972281   -1.155800
     11          1           0        0.033931   -0.758387    1.781310
     12          7           0       -1.906819   -1.101361   -0.688435
     13          8           0       -1.891679    1.521229   -0.387427
     14          8           0       -0.570947   -1.250321    1.222810
     15          8           0        2.155281   -0.550809    0.724210
     16          8           0        2.176771    0.923991   -0.991321
     17          8           0       -0.225322    1.409860    1.141850
 ---------------------------------------------------------------------

 SCF Done:  E(RHF) =  -585.013396870     A.U. after    2 cycles

 The electronic state is 1-A.
 Alpha  occ. eigenvalues --  -20.61879 -20.61178 -20.56689 -20.55089 -20.54881
 Alpha  occ. eigenvalues --  -15.54024 -11.41274 -11.40519 -11.37141 -11.28106
 Alpha  occ. eigenvalues --   -1.56279  -1.55846  -1.49145  -1.46666  -1.45969
 Alpha  occ. eigenvalues --   -1.24226  -1.07786  -0.95230  -0.85628  -0.82916
 Alpha  occ. eigenvalues --   -0.79711  -0.75640  -0.73410  -0.72202  -0.68981
 Alpha  occ. eigenvalues --   -0.67593  -0.66180  -0.64249  -0.62216  -0.61819
 Alpha  occ. eigenvalues --   -0.58819  -0.58556  -0.54388  -0.51789  -0.49793
 Alpha  occ. eigenvalues --   -0.48572  -0.47437  -0.45625  -0.43951
 Alpha virt. eigenvalues --    0.02315   0.03865   0.04413   0.05122   0.05967
 Alpha virt. eigenvalues --    0.06420   0.06763   0.09320   0.10192   0.10586
 Alpha virt. eigenvalues --    0.11951   0.12494   0.13259   0.13760   0.14569

 Mulliken charges:
               1
     1  C   -0.481378
     2  C   -0.525035
     3  C    2.700496
     4  C    2.407457
     5  H    0.455166
     6  H    0.389900
     7  H    0.184849
     8  H    0.228072
     9  H    0.294327
    10  H    0.292277
    11  H    0.362279
    12  N    0.614003
    13  O   -1.334938
    14  O   -1.620659
    15  O   -1.327963
    16  O   -1.359929
    17  O   -1.278923
 Sum of Mulliken charges =  -0.00000

 Dipole moment (field-independent basis, Debye):
    X=             -1.3000    Y=             -4.2663    Z=             -1.0931  Tot=              4.5920

 Test job not archived.
 1\1\GINC-SE329\SP\RHF\Aug-CC-pVDZ\C4H7N1O5\OHZDE\08-Apr-2025\0\\#t hf
 aug-cc-pvdz iop(5/13=1,5/36=2,99/5=2) pseudo=read geom=check guess=(re
 ad,tcheck) scf=(maxcycle=1)\\title\\0,1\C,0,-0.750166,-0.600767,-0.013
 8142\C,0,0.47437,-0.803152,-0.925724\C,0,1.71529,-0.0599014,-0.442649\
 C,0,-0.916576,0.905535,0.291151\H,0,-2.26424,0.816492,-0.943653\H,0,2.
 89074,0.0539698,0.986043\H,0,0.656722,-1.87807,-1.06754\H,0,0.192513,-
 0.411905,-1.8895\H,0,-2.68477,-1.22217,-0.0265535\H,0,-1.76753,-1.9722
 8,-1.1558\H,0,0.0339302,-0.758387,1.78131\N,0,-1.90682,-1.10136,-0.688

 Normal termination of Gaussian 16 at Tue Apr  8 22:12:57 2025.
