 Gaussian 16, Revision C.01,

 ----------------------------------------------------------------------
 #t hf aug-cc-pvdz symm=none int=(grid=ultrafine) guess=(read,tcheck) s
 table=(opt,rrhf)
 ----------------------------------------------------------------------
 -----
 title
 -----
 Symbolic Z-matrix:
 Charge =  0 Multiplicity = 1

 SCF Done:  E(RHF) =  -431.383930344     A.U. after   15 cycles
 Normal termination of Gaussian 16 at Tue Apr  8 21:43:52 2025.
 Gaussian 16:  ES64L-G16RevC.01  3-Jul-2019

 ----------------------------------------------------------------------
 #t hf aug-cc-pvdz iop(5/13=1,5/36=2,99/5=2) pseudo=read geom=check gue
 ss=(read,tcheck) scf=(maxcycle=1)
 ----------------------------------------------------------------------
 -----
 title
 -----
 Structure from the checkpoint file:  "ANI1ccx_499_conf8_mol1.chk"
 Charge =  0 Multiplicity = 1

                         Standard orientation:
 ---------------------------------------------------------------------
 Center     Atomic      Atomic             Coordinates (Angstroms)
 Number     Number       Type             X           Y           Z
 ---------------------------------------------------------------------
      1          6           0        0.271860    0.322145    0.022821
      2          6           0       -1.219252    0.013198    0.007759
      3          1           0        2.387648    0.584599    0.324736
      4          1           0        0.986613   -1.696530   -0.115650
      5          1           0       -2.502863   -1.410348   -0.092366
      6          7           0        1.136638   -0.694067   -0.181530
      7          8           0        2.464628   -0.401930   -0.065732
      8          8           0        0.723348    1.449650    0.186382
      9          8           0       -1.561223   -1.283599    0.218019
     10          8           0       -2.019692    0.906965   -0.217356
 ---------------------------------------------------------------------

 SCF Done:  E(RHF) =  -431.803000787     A.U. after    2 cycles

 The electronic state is 1-A.
 Alpha  occ. eigenvalues --  -20.64846 -20.61724 -20.58344 -20.55708 -15.61566
 Alpha  occ. eigenvalues --  -11.44530 -11.41121  -1.57991  -1.55155  -1.49165
 Alpha  occ. eigenvalues --   -1.47560  -1.20202  -0.97653  -0.89668  -0.80372
 Alpha  occ. eigenvalues --   -0.75226  -0.72562  -0.70175  -0.66900  -0.65409
 Alpha  occ. eigenvalues --   -0.63270  -0.59841  -0.55051  -0.50484  -0.50247
 Alpha  occ. eigenvalues --   -0.47324  -0.42434
 Alpha virt. eigenvalues --    0.02374   0.04182   0.05627   0.06009   0.09135
 Alpha virt. eigenvalues --    0.09596   0.11270   0.11533   0.11874   0.13109
 Alpha virt. eigenvalues --    0.15043   0.16670   0.16687   0.17470   0.19535

 Mulliken charges:
               1
     1  C    0.245243
     2  C    2.234212
     3  H    0.463428
     4  H    0.110559
     5  H    0.394639
     6  N    1.423006
     7  O   -1.317607
     8  O   -1.232083
     9  O   -1.232726
    10  O   -1.088670
 Sum of Mulliken charges =  -0.00000

 Dipole moment (field-independent basis, Debye):
    X=             -1.1467    Y=             -3.9107    Z=              0.2827  Tot=              4.0852

 Test job not archived.
 1\1\GINC-SE086\SP\RHF\Aug-CC-pVDZ\C2H3N1O4\OHZDE\08-Apr-2025\0\\#t hf
 aug-cc-pvdz iop(5/13=1,5/36=2,99/5=2) pseudo=read geom=check guess=(re
 ad,tcheck) scf=(maxcycle=1)\\title\\0,1\C,0,0.271862,0.322145,0.022821
 1\C,0,-1.21925,0.0131974,0.00775895\H,0,2.38765,0.5846,0.324736\H,0,0.
 986616,-1.69653,-0.11565\H,0,-2.50286,-1.41035,-0.0923656\N,0,1.13664,
 -0.694066,-0.18153\O,0,2.46463,-0.401929,-0.0657316\O,0,0.723349,1.449
 65,0.186382\O,0,-1.56122,-1.2836,0.218019\O,0,-2.01969,0.906964,-0.217
 356\\Version=ES64L-G16RevC.01\State=1-A\HF=-431.8030008\RMSD=1.931e-02

 Normal termination of Gaussian 16 at Tue Apr  8 21:43:56 2025.
