 Gaussian 16, Revision C.01,

 ----------------------------------------------------------------------
 #t hf aug-cc-pvdz symm=none int=(grid=ultrafine) guess=(read,tcheck) s
 table=(opt,rrhf)
 ----------------------------------------------------------------------
 -----
 title
 -----
 Symbolic Z-matrix:
 Charge =  0 Multiplicity = 1

 SCF Done:  E(RHF) =  -943.005053216     A.U. after   15 cycles
 Normal termination of Gaussian 16 at Tue Apr  8 20:10:05 2025.
 Gaussian 16:  ES64L-G16RevC.01  3-Jul-2019

 ----------------------------------------------------------------------
 #t hf aug-cc-pvdz iop(5/13=1,5/36=2,99/5=2) pseudo=read geom=check gue
 ss=(read,tcheck) scf=(maxcycle=1)
 ----------------------------------------------------------------------
 -----
 title
 -----
 Structure from the checkpoint file:  "ANI1ccx_1569_conf40_mol1.chk"
 Charge =  0 Multiplicity = 1

                         Standard orientation:
 ---------------------------------------------------------------------
 Center     Atomic      Atomic             Coordinates (Angstroms)
 Number     Number       Type             X           Y           Z
 ---------------------------------------------------------------------
      1          6           0       -2.576641   -1.015841   -0.271923
      2          6           0       -1.114670   -1.405290   -0.546283
      3          6           0       -2.649021    0.477807    0.082451
      4          6           0       -1.745471    1.404640   -0.719379
      5          6           0        0.879100   -0.622286    0.718884
      6          6           0        0.526121    0.800169    1.067130
      7          6           0        1.747679   -0.724630   -0.462872
      8          6           0        3.217439   -0.422798   -0.164761
      9          1           0        0.786447    2.478960    0.996714
     10          1           0        4.757589    0.411539   -0.694495
     11          1           0        1.241369   -0.190987   -1.285040
     12          1           0        1.828590   -1.756710   -0.746818
     13          1           0        1.492119   -1.086870    1.505040
     14          1           0       -0.993712   -1.288280    1.395120
     15          1           0       -2.575611    0.632212    1.154630
     16          1           0       -3.650641    0.843981   -0.128452
     17          1           0       -3.242921   -1.257251   -1.178700
     18          1           0       -2.707860   -2.811661    0.597708
     19          1           0       -3.983950   -1.862781    1.090990
     20          1           0       -0.779373    2.895240   -0.540089
     21          7           0       -2.956060   -1.818391    0.865993
     22          7           0       -0.318975   -1.460160    0.645721
     23          8           0        3.854779    0.458731   -0.931447
     24          8           0       -0.602118   -1.697970   -1.604070
     25          8           0       -1.044151    1.138020   -1.629770
     26          8           0       -1.602981    2.595240   -0.131784
     27          8           0       -0.209607    1.041320    1.939110
     28          8           0        3.830249   -0.995181    0.718022
     29          8           0        0.904577    1.833820    0.268928
 ---------------------------------------------------------------------

 SCF Done:  E(RHF) =  -943.934993072     A.U. after    2 cycles

 The electronic state is 1-A.
 Alpha  occ. eigenvalues --  -20.61801 -20.60311 -20.59659 -20.56119 -20.54797
 Alpha  occ. eigenvalues --  -20.53745 -20.53361 -15.53409 -15.52647 -11.40684
 Alpha  occ. eigenvalues --  -11.40256 -11.40237 -11.37137 -11.31469 -11.30750
 Alpha  occ. eigenvalues --  -11.27580 -11.25482  -1.59821  -1.57570  -1.56591
 Alpha  occ. eigenvalues --   -1.48650  -1.47918  -1.46825  -1.45027  -1.26145
 Alpha  occ. eigenvalues --   -1.21806  -1.09802  -1.06927  -0.97022  -0.93500
 Alpha  occ. eigenvalues --   -0.86300  -0.84484  -0.81470  -0.77444  -0.76153
 Alpha  occ. eigenvalues --   -0.75301  -0.73163  -0.72788  -0.71812  -0.71516
 Alpha  occ. eigenvalues --   -0.71029  -0.69891  -0.69188  -0.67427  -0.65502
 Alpha  occ. eigenvalues --   -0.64197  -0.63553  -0.63117  -0.61796  -0.59408
 Alpha  occ. eigenvalues --   -0.58218  -0.57868  -0.56771  -0.55350  -0.54040
 Alpha  occ. eigenvalues --   -0.53550  -0.49997  -0.49039  -0.48175  -0.47333
 Alpha  occ. eigenvalues --   -0.46823  -0.45773  -0.44862  -0.43873  -0.42195
 Alpha virt. eigenvalues --    0.02347   0.03429   0.03834   0.04465   0.04602
 Alpha virt. eigenvalues --    0.05233   0.05467   0.06264   0.06820   0.07344
 Alpha virt. eigenvalues --    0.08530   0.09145   0.10116   0.10906   0.11355

 Mulliken charges:
               1
     1  C   -1.560987
     2  C    0.874496
     3  C   -0.247806
     4  C    2.657958
     5  C   -1.475121
     6  C    2.869226
     7  C   -0.833187
     8  C    2.884548
     9  H    0.265571
    10  H    0.346982
    11  H    0.209900
    12  H    0.317060
    13  H    0.174327
    14  H    0.417491
    15  H    0.243067
    16  H    0.280656
    17  H    0.141813
    18  H    0.316492
    19  H    0.220362
    20  H    0.391752
    21  N    0.488246
    22  N    1.188994
    23  O   -1.316957
    24  O   -1.566733
    25  O   -1.434085
    26  O   -1.512140
    27  O   -1.538116
    28  O   -1.370228
    29  O   -1.433582
 Sum of Mulliken charges =  -0.00000

 Dipole moment (field-independent basis, Debye):
    X=             -3.2111    Y=              1.2842    Z=              1.0904  Tot=              3.6262

 Test job not archived.
 1\1\GINC-SE398\SP\RHF\Aug-CC-pVDZ\C8H12N2O7\OHZDE\08-Apr-2025\0\\#t hf
  aug-cc-pvdz iop(5/13=1,5/36=2,99/5=2) pseudo=read geom=check guess=(r
 ead,tcheck) scf=(maxcycle=1)\\title\\0,1\C,0,-2.57664,-1.01584,-0.2719
 23\C,0,-1.11467,-1.40529,-0.546283\C,0,-2.64902,0.477808,0.0824509\C,0
 ,-1.74547,1.40464,-0.719379\C,0,0.879101,-0.622286,0.718884\C,0,0.5261
 22,0.800169,1.06713\C,0,1.74768,-0.72463,-0.462872\C,0,3.21744,-0.4227
 99,-0.164761\H,0,0.786448,2.47896,0.996714\H,0,4.75759,0.411538,-0.694
 495\H,0,1.24137,-0.190987,-1.28504\H,0,1.82859,-1.75671,-0.746818\H,0,

 Normal termination of Gaussian 16 at Tue Apr  8 20:10:46 2025.
