 Gaussian 16, Revision C.01,

 ----------------------------------------------------------------------
 #t hf aug-cc-pvdz symm=none int=(grid=ultrafine) guess=(read,tcheck) s
 table=(opt,rrhf)
 ----------------------------------------------------------------------
 -----
 title
 -----
 Symbolic Z-matrix:
 Charge =  0 Multiplicity = 1

 SCF Done:  E(RHF) =  -256.786631370     A.U. after   15 cycles
 Normal termination of Gaussian 16 at Tue Apr  8 21:31:30 2025.
 Gaussian 16:  ES64L-G16RevC.01  3-Jul-2019

 ----------------------------------------------------------------------
 #t hf aug-cc-pvdz iop(5/13=1,5/36=2,99/5=2) pseudo=read geom=check gue
 ss=(read,tcheck) scf=(maxcycle=1)
 ----------------------------------------------------------------------
 -----
 title
 -----
 Structure from the checkpoint file:  "ANI1ccx_377_conf49_mol1.chk"
 Charge =  0 Multiplicity = 1

                         Standard orientation:
 ---------------------------------------------------------------------
 Center     Atomic      Atomic             Coordinates (Angstroms)
 Number     Number       Type             X           Y           Z
 ---------------------------------------------------------------------
      1          6           0        0.981209   -0.448094   -0.005979
      2          1           0        1.994548   -0.908124    0.058143
      3          1           0       -2.050261   -0.360383    0.194250
      4          7           0        0.812463    0.892500    0.005987
      5          7           0       -0.510977    1.032112    0.002675
      6          7           0       -1.031301   -0.206847   -0.040700
      7          7           0       -0.103263   -1.152469    0.001107
 ---------------------------------------------------------------------

 SCF Done:  E(RHF) =  -257.040759811     A.U. after    2 cycles

 The electronic state is 1-A.
 Alpha  occ. eigenvalues --  -15.65129 -15.62096 -15.57219 -15.56350 -11.31387
 Alpha  occ. eigenvalues --   -1.49368  -1.28366  -1.20760  -0.96860  -0.92713
 Alpha  occ. eigenvalues --   -0.83155  -0.73135  -0.68247  -0.61422  -0.55994
 Alpha  occ. eigenvalues --   -0.54504  -0.50480  -0.46273
 Alpha virt. eigenvalues --    0.02654   0.05110   0.05295   0.08428   0.09344
 Alpha virt. eigenvalues --    0.09986   0.11720   0.14247   0.14989   0.15926
 Alpha virt. eigenvalues --    0.16579   0.17106   0.17984   0.19953   0.21413

 Mulliken charges:
               1
     1  C   -0.278940
     2  H    0.060726
     3  H    0.148867
     4  N    0.259795
     5  N   -0.324904
     6  N    0.047668
     7  N    0.086787
 Sum of Mulliken charges =  -0.00000

 Dipole moment (field-independent basis, Debye):
    X=             -1.1858    Y=             -1.7772    Z=              0.3965  Tot=              2.1730

 Test job not archived.
 1\1\GINC-SE041\SP\RHF\Aug-CC-pVDZ\C1H2N4\OHZDE\08-Apr-2025\0\\#t hf au
 g-cc-pvdz iop(5/13=1,5/36=2,99/5=2) pseudo=read geom=check guess=(read
 ,tcheck) scf=(maxcycle=1)\\title\\0,1\C,0,0.98121,-0.448094,-0.0059787
 7\H,0,1.99455,-0.908122,0.0581426\H,0,-2.05026,-0.360387,0.19425\N,0,0
 .812462,0.8925,0.00598662\N,0,-0.510978,1.03211,0.00267495\N,0,-1.0313
 ,-0.206849,-0.0406996\N,0,-0.103261,-1.15247,0.00110651\\Version=ES64L
 -G16RevC.01\State=1-A\HF=-257.0407598\RMSD=4.615e-02\Dipole=-0.4665257
 ,-0.6992008,0.1559928\Quadrupole=6.0328187,-4.9064452,-1.1263735,-1.05

 Normal termination of Gaussian 16 at Tue Apr  8 21:31:32 2025.
