 Gaussian 16, Revision C.01,

 ----------------------------------------------------------------------
 #t hf aug-cc-pvdz symm=none int=(grid=ultrafine) guess=(read,tcheck) s
 table=(opt,rrhf)
 ----------------------------------------------------------------------
 -----
 title
 -----
 Symbolic Z-matrix:
 Charge =  0 Multiplicity = 1

 SCF Done:  E(RHF) =  -355.484368061     A.U. after   16 cycles
 Normal termination of Gaussian 16 at Tue Apr  8 21:11:20 2025.
 Gaussian 16:  ES64L-G16RevC.01  3-Jul-2019

 ----------------------------------------------------------------------
 #t hf aug-cc-pvdz iop(5/13=1,5/36=2,99/5=2) pseudo=read geom=check gue
 ss=(read,tcheck) scf=(maxcycle=1)
 ----------------------------------------------------------------------
 -----
 title
 -----
 Structure from the checkpoint file:  "ANI1ccx_1871_conf1_mol2.chk"
 Charge =  0 Multiplicity = 1

                         Standard orientation:
 ---------------------------------------------------------------------
 Center     Atomic      Atomic             Coordinates (Angstroms)
 Number     Number       Type             X           Y           Z
 ---------------------------------------------------------------------
      1          1           0        3.099550   -0.044044    0.916687
      2          1           0        0.924905    0.062105   -0.031147
      3          1           0       -1.463989    1.646952    0.559042
      4          7           0       -1.936410   -0.127332    0.429606
      5          8           0        2.736430   -0.475671    0.136193
      6          8           0        1.764800    0.455272   -0.302147
      7          8           0       -1.330889    0.981717   -0.133732
      8          8           0       -1.796041   -1.058028   -0.256793
 ---------------------------------------------------------------------

 SCF Done:  E(RHF) =  -355.825634744     A.U. after    2 cycles

 The electronic state is 1-A.
 Alpha  occ. eigenvalues --  -20.65450 -20.64730 -20.61332 -20.61113 -15.74303
 Alpha  occ. eigenvalues --   -1.70767  -1.59546  -1.52931  -1.26978  -0.98985
 Alpha  occ. eigenvalues --   -0.82831  -0.77076  -0.73117  -0.71801  -0.69731
 Alpha  occ. eigenvalues --   -0.63990  -0.60351  -0.53869  -0.49059  -0.48059
 Alpha  occ. eigenvalues --   -0.47083
 Alpha virt. eigenvalues --    0.02986   0.04688   0.05424   0.08804   0.12018
 Alpha virt. eigenvalues --    0.12882   0.15077   0.15204   0.16966   0.17736
 Alpha virt. eigenvalues --    0.18918   0.19801   0.20938   0.22571   0.23203

 Mulliken charges:
               1
     1  H    0.436826
     2  H    0.521774
     3  H    0.358670
     4  N    1.617895
     5  O   -0.442346
     6  O   -0.523731
     7  O   -1.072552
     8  O   -0.896536
 Sum of Mulliken charges =  -0.00000

 Dipole moment (field-independent basis, Debye):
    X=             -1.1320    Y=              1.7937    Z=              2.8779  Tot=              3.5751

 Test job not archived.
 1\1\GINC-SE110\SP\RHF\Aug-CC-pVDZ\H3N1O4\OHZDE\08-Apr-2025\0\\#t hf au
 g-cc-pvdz iop(5/13=1,5/36=2,99/5=2) pseudo=read geom=check guess=(read
 ,tcheck) scf=(maxcycle=1)\\title\\0,1\H,0,3.09955,-0.0440426,0.916687\
 H,0,0.924905,0.0621048,-0.0311471\H,0,-1.46399,1.64695,0.559042\N,0,-1
 .93641,-0.127334,0.429606\O,0,2.73643,-0.47567,0.136193\O,0,1.7648,0.4
 55272,-0.302147\O,0,-1.33089,0.981715,-0.133732\O,0,-1.79604,-1.05803,
 -0.256793\\Version=ES64L-G16RevC.01\State=1-A\HF=-355.8256347\RMSD=1.0
 28e-02\Dipole=-0.4453706,0.705697,1.1322595\Quadrupole=-0.6310677,0.55

 Normal termination of Gaussian 16 at Tue Apr  8 21:11:22 2025.
