 Gaussian 16, Revision C.01,

 ----------------------------------------------------------------------
 #t hf aug-cc-pvdz symm=none int=(grid=ultrafine) guess=(read,tcheck) s
 table=(opt,rrhf)
 ----------------------------------------------------------------------
 -----
 title
 -----
 Symbolic Z-matrix:
 Charge =  0 Multiplicity = 1

 SCF Done:  E(RHF) =  -424.692923968     A.U. after   15 cycles
 Normal termination of Gaussian 16 at Tue Apr  8 21:43:56 2025.
 Gaussian 16:  ES64L-G16RevC.01  3-Jul-2019

 ----------------------------------------------------------------------
 #t hf aug-cc-pvdz iop(5/13=1,5/36=2,99/5=2) pseudo=read geom=check gue
 ss=(read,tcheck) scf=(maxcycle=1)
 ----------------------------------------------------------------------
 -----
 title
 -----
 Structure from the checkpoint file:  "ANI1ccx_507_conf2_mol1.chk"
 Charge =  0 Multiplicity = 1

                         Standard orientation:
 ---------------------------------------------------------------------
 Center     Atomic      Atomic             Coordinates (Angstroms)
 Number     Number       Type             X           Y           Z
 ---------------------------------------------------------------------
      1          6           0       -1.284910   -0.316844    0.140782
      2          6           0        0.128224    1.429370   -0.117476
      3          1           0       -2.871570   -0.295014   -1.156000
      4          1           0       -2.802939   -1.597263   -0.052409
      5          1           0        1.886817    2.180002    0.388873
      6          7           0       -2.585500   -0.654467   -0.221132
      7          7           0       -0.867331    0.817769   -0.593484
      8          7           0        0.911204    2.250021    0.329631
      9          7           0        2.251211   -1.721388   -0.235020
     10          7           0        2.512180   -0.651403   -0.255857
     11          8           0       -0.603068   -0.905825    0.938842
 ---------------------------------------------------------------------

 SCF Done:  E(RHF) =  -425.105424453     A.U. after    2 cycles

 The electronic state is 1-A.
 Alpha  occ. eigenvalues --  -20.52950 -15.62481 -15.62122 -15.55283 -15.53661
 Alpha  occ. eigenvalues --  -15.53426 -11.41041 -11.40846  -1.49367  -1.49186
 Alpha  occ. eigenvalues --   -1.31190  -1.25612  -1.21547  -0.92866  -0.85628
 Alpha  occ. eigenvalues --   -0.82338  -0.77760  -0.73070  -0.69003  -0.67424
 Alpha  occ. eigenvalues --   -0.67151  -0.66913  -0.65882  -0.62705  -0.58901
 Alpha  occ. eigenvalues --   -0.52390  -0.48022  -0.45645  -0.45016
 Alpha virt. eigenvalues --    0.02966   0.04532   0.05949   0.07337   0.08913
 Alpha virt. eigenvalues --    0.09743   0.09924   0.10460   0.11093   0.11561
 Alpha virt. eigenvalues --    0.12034   0.12185   0.13031   0.14357   0.14612

 Mulliken charges:
               1
     1  C    0.352766
     2  C   -1.441143
     3  H    0.154812
     4  H    0.146112
     5  H    0.183345
     6  N    0.422198
     7  N    0.532935
     8  N    0.818355
     9  N   -0.122110
    10  N    0.083107
    11  O   -1.130376
 Sum of Mulliken charges =  -0.00000

 Dipole moment (field-independent basis, Debye):
    X=              0.4311    Y=             -0.1608    Z=             -1.9245  Tot=              1.9788

 Test job not archived.
 1\1\GINC-SE455\SP\RHF\Aug-CC-pVDZ\C2H3N5O1\OHZDE\08-Apr-2025\0\\#t hf
 aug-cc-pvdz iop(5/13=1,5/36=2,99/5=2) pseudo=read geom=check guess=(re
 ad,tcheck) scf=(maxcycle=1)\\title\\0,1\C,0,-1.28491,-0.316842,0.14078
 2\C,0,0.128226,1.42937,-0.117476\H,0,-2.87157,-0.295011,-1.156\H,0,-2.
 80294,-1.59726,-0.0524087\H,0,1.88682,2.18,0.388873\N,0,-2.5855,-0.654
 464,-0.221132\N,0,-0.86733,0.81777,-0.593484\N,0,0.911207,2.25002,0.32
 9631\N,0,2.25121,-1.72139,-0.23502\N,0,2.51218,-0.651405,-0.255857\O,0
 ,-0.603068,-0.905824,0.938842\\Version=ES64L-G16RevC.01\State=1-A\HF=-

 Normal termination of Gaussian 16 at Tue Apr  8 21:44:00 2025.
