 Gaussian 16, Revision C.01,

 ----------------------------------------------------------------------
 #t hf aug-cc-pvdz symm=none int=(grid=ultrafine) guess=(read,tcheck) s
 table=(opt,rrhf)
 ----------------------------------------------------------------------
 -----
 title
 -----
 Symbolic Z-matrix:
 Charge =  0 Multiplicity = 1

 SCF Done:  E(RHF) =  -565.457216582     A.U. after   15 cycles
 Normal termination of Gaussian 16 at Tue Apr  8 19:30:06 2025.
 Gaussian 16:  ES64L-G16RevC.01  3-Jul-2019

 ----------------------------------------------------------------------
 #t hf aug-cc-pvdz iop(5/13=1,5/36=2,99/5=2) pseudo=read geom=check gue
 ss=(read,tcheck) scf=(maxcycle=1)
 ----------------------------------------------------------------------
 -----
 title
 -----
 Structure from the checkpoint file:  "ANI1ccx_1346_conf8_mol1.chk"
 Charge =  0 Multiplicity = 1

                         Standard orientation:
 ---------------------------------------------------------------------
 Center     Atomic      Atomic             Coordinates (Angstroms)
 Number     Number       Type             X           Y           Z
 ---------------------------------------------------------------------
      1          6           0       -2.485559   -0.056636   -0.188594
      2          6           0       -1.038619    0.057687    0.234176
      3          6           0       -0.995812   -0.215318    1.764640
      4          6           0       -0.187613   -1.147450   -0.366212
      5          6           0        1.804051   -0.015315   -0.005817
      6          6           0       -0.281326    1.250410   -0.280812
      7          1           0        1.561849    2.050721   -0.095199
      8          1           0        1.538372   -2.059299    0.344266
      9          1           0       -0.018194   -0.122592    2.205740
     10          1           0       -1.668499    0.473695    2.288170
     11          1           0       -1.282788   -1.213521    1.912910
     12          1           0       -2.673159   -0.429708   -1.234740
     13          1           0       -3.012310    0.829864   -0.002319
     14          1           0       -3.008058   -0.857461    0.424496
     15          7           0        1.071762   -1.145329    0.054913
     16          7           0        1.123570    1.152111   -0.202298
     17          8           0       -0.728811   -2.021851   -1.045490
     18          8           0        3.021691   -0.043919    0.158556
     19          8           0       -0.754789    2.320839   -0.582557
 ---------------------------------------------------------------------

 SCF Done:  E(RHF) =  -566.021612053     A.U. after    2 cycles

 The electronic state is 1-A.
 Alpha  occ. eigenvalues --  -20.56594 -20.56405 -20.53907 -15.58543 -15.57989
 Alpha  occ. eigenvalues --  -11.43291 -11.40685 -11.40329 -11.30651 -11.27162
 Alpha  occ. eigenvalues --  -11.24937  -1.51596  -1.50102  -1.48794  -1.34610
 Alpha  occ. eigenvalues --   -1.27329  -1.14099  -0.98779  -0.97548  -0.94304
 Alpha  occ. eigenvalues --   -0.92831  -0.82000  -0.80115  -0.74591  -0.72435
 Alpha  occ. eigenvalues --   -0.69379  -0.67846  -0.66875  -0.65445  -0.60520
 Alpha  occ. eigenvalues --   -0.60186  -0.59907  -0.56728  -0.55363  -0.54578
 Alpha  occ. eigenvalues --   -0.51438  -0.49163  -0.48457  -0.47418  -0.45414
 Alpha  occ. eigenvalues --   -0.43820
 Alpha virt. eigenvalues --    0.02632   0.03419   0.03884   0.04346   0.05346
 Alpha virt. eigenvalues --    0.05614   0.07090   0.07424   0.08032   0.08904
 Alpha virt. eigenvalues --    0.10281   0.10449   0.11519   0.11775   0.12585

 Mulliken charges:
               1
     1  C    0.035780
     2  C   -1.457316
     3  C    0.267065
     4  C    0.906512
     5  C    0.350388
     6  C    0.773787
     7  H    0.193195
     8  H    0.377013
     9  H    0.154431
    10  H    0.270164
    11  H    0.133289
    12  H    0.235041
    13  H    0.025144
    14  H    0.269280
    15  N    0.609121
    16  N    0.876186
    17  O   -1.383487
    18  O   -1.263966
    19  O   -1.371626
 Sum of Mulliken charges =   0.00000

 Dipole moment (field-independent basis, Debye):
    X=             -1.4550    Y=             -0.7266    Z=              3.0302  Tot=              3.4391

 Test job not archived.
 1\1\GINC-SE273\SP\RHF\Aug-CC-pVDZ\C6H8N2O3\OHZDE\08-Apr-2025\0\\#t hf
 aug-cc-pvdz iop(5/13=1,5/36=2,99/5=2) pseudo=read geom=check guess=(re
 ad,tcheck) scf=(maxcycle=1)\\title\\0,1\C,0,-2.48556,-0.0566339,-0.188
 594\C,0,-1.03862,0.0576878,0.234176\C,0,-0.995813,-0.215317,1.76464\C,
 0,-0.187615,-1.14745,-0.366212\C,0,1.80405,-0.0153161,-0.0058172\C,0,-
 0.281326,1.25041,-0.280812\H,0,1.56185,2.05072,-0.0951992\H,0,1.53837,
 -2.0593,0.344266\H,0,-0.0181952,-0.122592,2.20574\H,0,-1.6685,0.473696
 ,2.28817\H,0,-1.28279,-1.21352,1.91291\H,0,-2.67316,-0.429706,-1.23474

 Normal termination of Gaussian 16 at Tue Apr  8 19:30:19 2025.
