 Gaussian 16, Revision C.01,

 ----------------------------------------------------------------------
 #t hf aug-cc-pvdz symm=none int=(grid=ultrafine) guess=(read,tcheck) s
 table=(opt,rrhf)
 ----------------------------------------------------------------------
 -----
 title
 -----
 Symbolic Z-matrix:
 Charge =  0 Multiplicity = 1

 SCF Done:  E(RHF) =  -548.593904085     A.U. after   14 cycles
 Normal termination of Gaussian 16 at Tue Apr  8 19:19:34 2025.
 Gaussian 16:  ES64L-G16RevC.01  3-Jul-2019

 ----------------------------------------------------------------------
 #t hf aug-cc-pvdz iop(5/13=1,5/36=2,99/5=2) pseudo=read geom=check gue
 ss=(read,tcheck) scf=(maxcycle=1)
 ----------------------------------------------------------------------
 -----
 title
 -----
 Structure from the checkpoint file:  "ANI1ccx_1168_conf155_mol2.chk"
 Charge =  0 Multiplicity = 1

                         Standard orientation:
 ---------------------------------------------------------------------
 Center     Atomic      Atomic             Coordinates (Angstroms)
 Number     Number       Type             X           Y           Z
 ---------------------------------------------------------------------
      1          6           0       -1.270209   -0.777152    0.267730
      2          6           0       -1.464240    0.715886    0.109749
      3          6           0        0.126648   -1.262520   -0.088917
      4          6           0        1.230491   -0.645690    0.784575
      5          6           0        2.315211    0.047266   -0.028998
      6          1           0       -2.734980    2.016348   -0.027480
      7          1           0        0.839902    0.020737    1.574220
      8          1           0        1.778061   -1.483889    1.226090
      9          1           0        0.130931   -2.348540    0.006721
     10          1           0        1.086100    1.524300   -0.081267
     11          1           0       -3.245909   -1.310092   -0.157529
     12          1           0       -2.183609   -1.442471   -1.399890
     13          1           0       -1.390969   -0.877570    1.365210
     14          1           0        0.290059   -1.082910   -1.169770
     15          7           0       -2.296118   -1.611981   -0.402621
     16          8           0        3.368791   -0.429217   -0.288185
     17          8           0       -0.624762    1.579870    0.153119
     18          8           0        1.992250    1.281671   -0.402200
     19          8           0       -2.751800    1.042828   -0.060582
 ---------------------------------------------------------------------

 SCF Done:  E(RHF) =  -549.143749765     A.U. after    2 cycles

 The electronic state is 1-A.
 Alpha  occ. eigenvalues --  -20.63894 -20.58232 -20.56682 -20.51526 -15.52447
 Alpha  occ. eigenvalues --  -11.43353 -11.37185 -11.31833 -11.26927 -11.25888
 Alpha  occ. eigenvalues --   -1.59987  -1.52856  -1.49782  -1.44023  -1.22416
 Alpha  occ. eigenvalues --   -1.09348  -1.00496  -0.92156  -0.83190  -0.81814
 Alpha  occ. eigenvalues --   -0.76120  -0.74906  -0.73572  -0.70415  -0.67564
 Alpha  occ. eigenvalues --   -0.66860  -0.64621  -0.63134  -0.61775  -0.60469
 Alpha  occ. eigenvalues --   -0.57457  -0.54379  -0.53831  -0.52351  -0.51848
 Alpha  occ. eigenvalues --   -0.50059  -0.45829  -0.45055  -0.42262
 Alpha virt. eigenvalues --    0.02096   0.03367   0.03436   0.04850   0.05176
 Alpha virt. eigenvalues --    0.06133   0.06994   0.07252   0.08084   0.10195
 Alpha virt. eigenvalues --    0.10725   0.11056   0.12191   0.12818   0.13111

 Mulliken charges:
               1
     1  C   -1.620076
     2  C    2.292761
     3  C   -0.076487
     4  C   -0.307620
     5  C    2.334588
     6  H    0.358242
     7  H    0.125430
     8  H    0.078063
     9  H    0.159733
    10  H    0.681088
    11  H    0.209714
    12  H    0.228809
    13  H    0.272265
    14  H    0.176489
    15  N    0.535486
    16  O   -1.321969
    17  O   -1.350016
    18  O   -1.404809
    19  O   -1.371691
 Sum of Mulliken charges =  -0.00000

 Dipole moment (field-independent basis, Debye):
    X=             -6.7931    Y=              0.4774    Z=              1.4085  Tot=              6.9540

 Test job not archived.
 1\1\GINC-SE127\SP\RHF\Aug-CC-pVDZ\C5H9N1O4\OHZDE\08-Apr-2025\0\\#t hf
 aug-cc-pvdz iop(5/13=1,5/36=2,99/5=2) pseudo=read geom=check guess=(re
 ad,tcheck) scf=(maxcycle=1)\\title\\0,1\C,0,-1.27021,-0.777151,0.26773
 \C,0,-1.46424,0.715887,0.109749\C,0,0.126647,-1.26252,-0.0889166\C,0,1
 .23049,-0.64569,0.784575\C,0,2.31521,0.0472654,-0.0289978\H,0,-2.73498
 ,2.01635,-0.0274794\H,0,0.839901,0.0207363,1.57422\H,0,1.77806,-1.4838
 9,1.22609\H,0,0.130929,-2.34854,0.00672077\H,0,1.0861,1.5243,-0.081267
 \H,0,-3.24591,-1.31009,-0.157529\H,0,-2.18361,-1.44247,-1.39989\H,0,-1

 Normal termination of Gaussian 16 at Tue Apr  8 19:19:44 2025.
