 Gaussian 16, Revision C.01,

 ----------------------------------------------------------------------
 #t hf aug-cc-pvdz symm=none int=(grid=ultrafine) guess=(read,tcheck) s
 table=(opt,rrhf)
 ----------------------------------------------------------------------
 -----
 title
 -----
 Symbolic Z-matrix:
 Charge =  0 Multiplicity = 1

 SCF Done:  E(RHF) =  -441.676961643     A.U. after   15 cycles
 Normal termination of Gaussian 16 at Tue Apr  8 21:36:56 2025.
 Gaussian 16:  ES64L-G16RevC.01  3-Jul-2019

 ----------------------------------------------------------------------
 #t hf aug-cc-pvdz iop(5/13=1,5/36=2,99/5=2) pseudo=read geom=check gue
 ss=(read,tcheck) scf=(maxcycle=1)
 ----------------------------------------------------------------------
 -----
 title
 -----
 Structure from the checkpoint file:  "ANI1ccx_405_conf4_mol1.chk"
 Charge =  0 Multiplicity = 1

                         Standard orientation:
 ---------------------------------------------------------------------
 Center     Atomic      Atomic             Coordinates (Angstroms)
 Number     Number       Type             X           Y           Z
 ---------------------------------------------------------------------
      1          6           0        0.024846    0.671991   -0.042177
      2          1           0        2.606500    0.747969   -0.615215
      3          1           0        2.396430    0.631869    0.945483
      4          1           0       -2.368180    1.258131   -0.238449
      5          1           0       -2.626810    0.419842    0.986522
      6          7           0        2.315770    0.080150    0.084695
      7          7           0        1.020530   -0.288652    0.000429
      8          7           0        0.528494   -1.544639   -0.052818
      9          7           0       -0.730259   -1.497169   -0.031365
     10          7           0       -1.051920   -0.150131   -0.046638
     11          7           0       -2.309260    0.272729    0.012820
     12          8           0        0.178687    1.850531   -0.074393
 ---------------------------------------------------------------------

 SCF Done:  E(RHF) =  -442.124702980     A.U. after    2 cycles

 The electronic state is 1-A.
 Alpha  occ. eigenvalues --  -20.54237 -15.63197 -15.62611 -15.62278 -15.62096
 Alpha  occ. eigenvalues --  -15.56668 -15.56553 -11.40608  -1.53864  -1.49355
 Alpha  occ. eigenvalues --   -1.38490  -1.32990  -1.17439  -1.15917  -0.96192
 Alpha  occ. eigenvalues --   -0.95853  -0.84782  -0.81115  -0.80204  -0.75037
 Alpha  occ. eigenvalues --   -0.69298  -0.68080  -0.64415  -0.59928  -0.59270
 Alpha  occ. eigenvalues --   -0.57046  -0.53135  -0.49647  -0.46742  -0.41677
 Alpha virt. eigenvalues --    0.02613   0.04021   0.05045   0.06285   0.07257
 Alpha virt. eigenvalues --    0.08811   0.09793   0.11239   0.12394   0.12983
 Alpha virt. eigenvalues --    0.13337   0.14296   0.14625   0.16018   0.16934

 Mulliken charges:
               1
     1  C    0.815158
     2  H    0.182424
     3  H    0.218773
     4  H    0.132886
     5  H    0.223134
     6  N    0.855576
     7  N   -1.026096
     8  N   -0.275538
     9  N    0.032568
    10  N   -1.010055
    11  N    0.884025
    12  O   -1.032853
 Sum of Mulliken charges =   0.00000

 Dipole moment (field-independent basis, Debye):
    X=             -0.0282    Y=              2.6121    Z=              1.3325  Tot=              2.9325

 Test job not archived.
 1\1\GINC-SE393\SP\RHF\Aug-CC-pVDZ\C1H4N6O1\OHZDE\08-Apr-2025\0\\#t hf
 aug-cc-pvdz iop(5/13=1,5/36=2,99/5=2) pseudo=read geom=check guess=(re
 ad,tcheck) scf=(maxcycle=1)\\title\\0,1\C,0,0.0248465,0.67199,-0.04217
 71\H,0,2.6065,0.747968,-0.615215\H,0,2.39643,0.631868,0.945483\H,0,-2.
 36818,1.25813,-0.238449\H,0,-2.62681,0.419841,0.986522\N,0,2.31577,0.0
 801492,0.084695\N,0,1.02053,-0.288653,0.00042934\N,0,0.528494,-1.54464
 ,-0.052818\N,0,-0.730259,-1.49717,-0.0313651\N,0,-1.05192,-0.150132,-0
 .046638\N,0,-2.30926,0.272728,0.0128202\O,0,0.178687,1.85053,-0.074392

 Normal termination of Gaussian 16 at Tue Apr  8 21:37:02 2025.
