 Gaussian 16, Revision C.01,

 ----------------------------------------------------------------------
 #t hf aug-cc-pvdz symm=none int=(grid=ultrafine) guess=(read,tcheck) s
 table=(opt,rrhf)
 ----------------------------------------------------------------------
 -----
 title
 -----
 Symbolic Z-matrix:
 Charge =  0 Multiplicity = 1

 SCF Done:  E(RHF) =  -281.804245036     A.U. after   14 cycles
 Normal termination of Gaussian 16 at Tue Apr  8 21:12:20 2025.
 Gaussian 16:  ES64L-G16RevC.01  3-Jul-2019

 ----------------------------------------------------------------------
 #t hf aug-cc-pvdz iop(5/13=1,5/36=2,99/5=2) pseudo=read geom=check gue
 ss=(read,tcheck) scf=(maxcycle=1)
 ----------------------------------------------------------------------
 -----
 title
 -----
 Structure from the checkpoint file:  "ANI1ccx_1889_conf3_mol1.chk"
 Charge =  0 Multiplicity = 1

                         Standard orientation:
 ---------------------------------------------------------------------
 Center     Atomic      Atomic             Coordinates (Angstroms)
 Number     Number       Type             X           Y           Z
 ---------------------------------------------------------------------
      1          1           0        0.404211   -0.904473   -0.331199
      2          1           0        1.515668    0.511168    1.225200
      3          1           0        2.360408    0.901388   -0.171299
      4          1           0       -1.943301   -0.535886    0.926471
      5          1           0       -0.645212    1.218560    0.000034
      6          7           0        1.411478    0.618442    0.172343
      7          8           0        1.378929   -0.726441   -0.241712
      8          8           0       -1.370691   -0.690522    0.154813
      9          8           0       -1.454752    0.726982   -0.270053
 ---------------------------------------------------------------------

 SCF Done:  E(RHF) =  -282.085829064     A.U. after    2 cycles

 The electronic state is 1-A.
 Alpha  occ. eigenvalues --  -20.64022 -20.61744 -20.56397 -15.56424  -1.57518
 Alpha  occ. eigenvalues --   -1.47653  -1.29197  -1.08486  -0.74508  -0.72048
 Alpha  occ. eigenvalues --   -0.70394  -0.65141  -0.63988  -0.59586  -0.52513
 Alpha  occ. eigenvalues --   -0.49414  -0.47913  -0.44048
 Alpha virt. eigenvalues --    0.03247   0.04516   0.06110   0.06295   0.07957
 Alpha virt. eigenvalues --    0.13827   0.15906   0.16564   0.17600   0.18794
 Alpha virt. eigenvalues --    0.19924   0.21265   0.21658   0.22862   0.23748

 Mulliken charges:
               1
     1  H    0.443707
     2  H    0.158002
     3  H    0.125074
     4  H    0.548655
     5  H    0.528613
     6  N    0.356182
     7  O   -1.026889
     8  O   -0.604996
     9  O   -0.528347
 Sum of Mulliken charges =  -0.00000

 Dipole moment (field-independent basis, Debye):
    X=              0.3108    Y=              1.0373    Z=              2.7169  Tot=              2.9247

 Test job not archived.
 1\1\GINC-SE016\SP\RHF\Aug-CC-pVDZ\H5N1O3\OHZDE\08-Apr-2025\0\\#t hf au
 g-cc-pvdz iop(5/13=1,5/36=2,99/5=2) pseudo=read geom=check guess=(read
 ,tcheck) scf=(maxcycle=1)\\title\\0,1\H,0,0.404212,-0.904473,-0.331199
 \H,0,1.51567,0.511167,1.2252\H,0,2.36041,0.901387,-0.171299\H,0,-1.943
 3,-0.535885,0.926471\H,0,-0.64521,1.21856,0.00003425\N,0,1.41148,0.618
 441,0.172343\O,0,1.37893,-0.726442,-0.241712\O,0,-1.37069,-0.690521,0.
 154813\O,0,-1.45475,0.726983,-0.270053\\Version=ES64L-G16RevC.01\State
 =1-A\HF=-282.0858291\RMSD=8.198e-03\Dipole=0.1222697,0.408123,1.068902

 Normal termination of Gaussian 16 at Tue Apr  8 21:12:22 2025.
