 Gaussian 16, Revision C.01,

 ----------------------------------------------------------------------
 #t hf aug-cc-pvdz symm=none int=(grid=ultrafine) guess=(read,tcheck) s
 table=(opt,rrhf)
 ----------------------------------------------------------------------
 -----
 title
 -----
 Symbolic Z-matrix:
 Charge =  0 Multiplicity = 1

 SCF Done:  E(RHF) =  -528.658053643     A.U. after   15 cycles
 Normal termination of Gaussian 16 at Tue Apr  8 22:17:56 2025.
 Gaussian 16:  ES64L-G16RevC.01  3-Jul-2019

 ----------------------------------------------------------------------
 #t hf aug-cc-pvdz iop(5/13=1,5/36=2,99/5=2) pseudo=read geom=check gue
 ss=(read,tcheck) scf=(maxcycle=1)
 ----------------------------------------------------------------------
 -----
 title
 -----
 Structure from the checkpoint file:  "ANI1ccx_998_conf129_mol1.chk"
 Charge =  0 Multiplicity = 1

                         Standard orientation:
 ---------------------------------------------------------------------
 Center     Atomic      Atomic             Coordinates (Angstroms)
 Number     Number       Type             X           Y           Z
 ---------------------------------------------------------------------
      1          6           0       -0.572490    0.008271   -0.183652
      2          6           0       -2.073900   -0.325931   -0.186442
      3          6           0        0.196620   -0.423100    1.139740
      4          6           0        1.497820    0.283119    1.261310
      5          6           0        2.131260   -0.300411    0.062778
      6          1           0       -3.683560    0.350749    0.443965
      7          1           0        3.028120    1.535619   -0.543696
      8          1           0        2.581310    0.302607   -1.929000
      9          1           0        1.164430    1.289169    1.085080
     10          1           0        2.103730    0.538966    2.065090
     11          1           0        0.245760   -1.455900    1.102150
     12          1           0       -0.497112   -0.018368    2.050930
     13          1           0       -0.095515   -0.494625   -1.150980
     14          1           0        0.322329    1.702600   -0.942536
     15          1           0       -1.355599    1.915190   -0.620538
     16          7           0       -0.479644    1.461220   -0.431420
     17          7           0        2.468800    0.678515   -0.916887
     18          8           0       -2.555141   -1.309749   -0.640075
     19          8           0        2.174099   -1.418171   -0.285511
     20          8           0       -2.720690    0.715941    0.339995
 ---------------------------------------------------------------------

 SCF Done:  E(RHF) =  -529.187971881     A.U. after    2 cycles

 The electronic state is 1-A.
 Alpha  occ. eigenvalues --  -20.61695 -20.54633 -20.52327 -15.52668 -15.47601
 Alpha  occ. eigenvalues --  -11.39635 -11.35840 -11.29449 -11.25710 -11.23732
 Alpha  occ. eigenvalues --   -1.56079  -1.50346  -1.47054  -1.19751  -1.17631
 Alpha  occ. eigenvalues --   -1.08923  -0.97686  -0.88121  -0.80865  -0.78189
 Alpha  occ. eigenvalues --   -0.75024  -0.73273  -0.70857  -0.70228  -0.67638
 Alpha  occ. eigenvalues --   -0.66258  -0.64872  -0.63779  -0.59834  -0.57608
 Alpha  occ. eigenvalues --   -0.56992  -0.54714  -0.51408  -0.49073  -0.48354
 Alpha  occ. eigenvalues --   -0.45043  -0.44188  -0.43093  -0.40664
 Alpha virt. eigenvalues --    0.02643   0.03454   0.03816   0.05093   0.05317
 Alpha virt. eigenvalues --    0.05997   0.06246   0.07225   0.07924   0.08782
 Alpha virt. eigenvalues --    0.09995   0.11047   0.11923   0.12566   0.13886

 Mulliken charges:
               1
     1  C   -1.497449
     2  C    2.669070
     3  C   -0.492888
     4  C    0.300957
     5  C    0.380789
     6  H    0.464132
     7  H    0.287723
     8  H    0.223853
     9  H    0.165362
    10  H   -0.012613
    11  H   -0.001350
    12  H    0.388488
    13  H    0.366082
    14  H    0.210827
    15  H    0.165345
    16  N    0.382427
    17  N    0.078157
    18  O   -1.330405
    19  O   -1.342887
    20  O   -1.405620
 Sum of Mulliken charges =  -0.00000

 Dipole moment (field-independent basis, Debye):
    X=              0.5762    Y=              4.0077    Z=              0.9343  Tot=              4.1553

 Test job not archived.
 1\1\GINC-SE435\SP\RHF\Aug-CC-pVDZ\C5H10N2O3\OHZDE\08-Apr-2025\0\\#t hf
  aug-cc-pvdz iop(5/13=1,5/36=2,99/5=2) pseudo=read geom=check guess=(r
 ead,tcheck) scf=(maxcycle=1)\\title\\0,1\C,0,-0.57249,0.00827144,-0.18
 3652\C,0,-2.0739,-0.325931,-0.186442\C,0,0.19662,-0.4231,1.13974\C,0,1
 .49782,0.28312,1.26131\C,0,2.13126,-0.30041,0.0627778\H,0,-3.68356,0.3
 50748,0.443965\H,0,3.02812,1.53562,-0.543696\H,0,2.58131,0.302608,-1.9
 29\H,0,1.16443,1.28917,1.08508\H,0,2.10373,0.538967,2.06509\H,0,0.2457
 61,-1.4559,1.10215\H,0,-0.497112,-0.0183674,2.05093\H,0,-0.0955152,-0.

 Normal termination of Gaussian 16 at Tue Apr  8 22:18:08 2025.
