 Gaussian 16, Revision C.01,

 ----------------------------------------------------------------------
 #t hf aug-cc-pvdz symm=none int=(grid=ultrafine) guess=(read,tcheck) s
 table=(opt,rrhf)
 ----------------------------------------------------------------------
 -----
 title
 -----
 Symbolic Z-matrix:
 Charge =  0 Multiplicity = 1

 SCF Done:  E(RHF) =  -963.590754189     A.U. after   15 cycles
 Normal termination of Gaussian 16 at Tue Apr  8 21:44:45 2025.
 Gaussian 16:  ES64L-G16RevC.01  3-Jul-2019

 ----------------------------------------------------------------------
 #t hf aug-cc-pvdz iop(5/13=1,5/36=2,99/5=2) pseudo=read geom=check gue
 ss=(read,tcheck) scf=(maxcycle=1)
 ----------------------------------------------------------------------
 -----
 title
 -----
 Structure from the checkpoint file:  "ANI1ccx_272_conf12_mol2.chk"
 Charge =  0 Multiplicity = 1

                         Standard orientation:
 ---------------------------------------------------------------------
 Center     Atomic      Atomic             Coordinates (Angstroms)
 Number     Number       Type             X           Y           Z
 ---------------------------------------------------------------------
      1          6           0       -0.994013    1.981210   -0.502889
      2          6           0        4.318050   -0.446468   -1.238950
      3          6           0        3.301550    0.418477    0.958222
      4          6           0        2.273650   -0.712830    1.122690
      5          6           0       -0.062490   -1.505410    0.500929
      6          6           0        0.894836   -0.340294    0.506626
      7          6           0        3.674180    0.740701   -0.461495
      8          6           0       -3.873930    0.460164   -0.315748
      9          6           0       -2.709590    0.010203   -0.898914
     10          6           0       -1.590800    0.875815   -1.406540
     11          6           0       -0.700175    1.625640    0.936442
     12          6           0       -3.749570   -1.749950   -0.294582
     13          1           0        4.127880    0.119053    1.621220
     14          1           0       -1.005910   -2.471330   -0.813313
     15          1           0        5.987390   -1.605999   -1.122070
     16          1           0        5.121550   -1.449359    0.264609
     17          1           0        3.549460   -1.233969   -1.421440
     18          1           0        4.638770   -0.060913   -2.218770
     19          1           0        4.420580    1.506351   -0.446146
     20          1           0        2.801360    1.047171   -1.020040
     21          1           0        2.898230    1.353311    1.495800
     22          1           0        2.058510   -0.830308    2.188900
     23          1           0        0.164126    0.429344    2.268540
     24          1           0        1.078060   -0.007431   -0.504709
     25          1           0        0.524773    3.361300   -0.770551
     26          1           0        2.724910   -1.654089    0.820809
     27          1           0       -1.826571    2.692560   -0.393594
     28          1           0       -1.843580    1.439890   -2.287970
     29          1           0        0.695825    1.956100   -1.634490
     30          1           0       -4.115320    1.447169    0.007912
     31          1           0       -3.988580   -2.729040    0.091356
     32          1           0       -5.446430   -0.756342    0.499147
     33          1           0       -0.774583    0.225617   -1.723330
     34          7           0        0.039176    2.639300   -1.287480
     35          7           0       -2.633490   -1.353860   -0.893861
     36          7           0       -4.502140   -0.721928    0.088521
     37          7           0        0.299832    0.706718    1.302740
     38          7           0        5.465090   -0.903291   -0.502290
     39          8           0       -0.703829   -1.746910    1.495630
     40          8           0       -1.338611    2.202260    1.786290
     41          8           0       -0.102548   -2.141750   -0.693175
 ---------------------------------------------------------------------

 SCF Done:  E(RHF) =  -964.575970231     A.U. after    2 cycles

 The electronic state is 1-A.
 Alpha  occ. eigenvalues --  -20.58053 -20.53385 -20.51176 -15.57743 -15.51823
 Alpha  occ. eigenvalues --  -15.50237 -15.50071 -15.49448 -11.38484 -11.35326
 Alpha  occ. eigenvalues --  -11.31725 -11.29054 -11.27813 -11.26960 -11.26861
 Alpha  occ. eigenvalues --  -11.26060 -11.24788 -11.24515 -11.23711 -11.22791
 Alpha  occ. eigenvalues --   -1.53069  -1.46570  -1.44951  -1.35568  -1.23979
 Alpha  occ. eigenvalues --   -1.20491  -1.19412  -1.18947  -1.08731  -1.06478
 Alpha  occ. eigenvalues --   -1.02079  -1.00062  -0.95152  -0.91832  -0.87345
 Alpha  occ. eigenvalues --   -0.87089  -0.83963  -0.81718  -0.79922  -0.78400
 Alpha  occ. eigenvalues --   -0.78030  -0.72453  -0.71013  -0.70802  -0.70049
 Alpha  occ. eigenvalues --   -0.69312  -0.67716  -0.67151  -0.66042  -0.64966
 Alpha  occ. eigenvalues --   -0.63767  -0.63530  -0.62784  -0.61452  -0.60779
 Alpha  occ. eigenvalues --   -0.59639  -0.58762  -0.58369  -0.56956  -0.56103
 Alpha  occ. eigenvalues --   -0.54583  -0.53681  -0.52784  -0.51263  -0.50362
 Alpha  occ. eigenvalues --   -0.49033  -0.48065  -0.47358  -0.46922  -0.46324
 Alpha  occ. eigenvalues --   -0.45124  -0.44389  -0.42932  -0.41532  -0.40428
 Alpha  occ. eigenvalues --   -0.33983
 Alpha virt. eigenvalues --    0.02579   0.03101   0.03332   0.03736   0.04218
 Alpha virt. eigenvalues --    0.04407   0.04863   0.05573   0.05793   0.06049
 Alpha virt. eigenvalues --    0.06328   0.07113   0.07909   0.08281   0.08799

 Mulliken charges:
               1
     1  C   -1.668906
     2  C   -0.905831
     3  C   -0.720948
     4  C    0.437215
     5  C    3.549421
     6  C   -1.947916
     7  C   -0.030780
     8  C    0.206282
     9  C   -1.341557
    10  C    0.156908
    11  C    0.663508
    12  C   -0.609134
    13  H    0.194962
    14  H    0.488074
    15  H    0.218279
    16  H    0.119672
    17  H    0.149285
    18  H    0.019473
    19  H    0.095783
    20  H    0.211864
    21  H    0.274212
    22  H    0.199205
    23  H    0.381303
    24  H   -0.295504
    25  H    0.121266
    26  H    0.068753
    27  H    0.005510
    28  H    0.181246
    29  H    0.234792
    30  H   -0.300577
    31  H   -0.228606
    32  H    0.006017
    33  H    0.200479
    34  N    1.126887
    35  N    1.438156
    36  N    0.743380
    37  N    0.865361
    38  N    0.409690
    39  O   -1.587154
    40  O   -1.446083
    41  O   -1.683985
 Sum of Mulliken charges =  -0.00000

 Dipole moment (field-independent basis, Debye):
    X=             -2.0233    Y=             -2.1315    Z=             -1.5361  Tot=              3.3161

 Test job not archived.
 1\1\GINC-SE072\SP\RHF\Aug-CC-pVDZ\C12H21N5O3\OHZDE\08-Apr-2025\0\\#t h
 f aug-cc-pvdz iop(5/13=1,5/36=2,99/5=2) pseudo=read geom=check guess=(
 read,tcheck) scf=(maxcycle=1)\\title\\0,1\C,0,-0.994012,1.98121,-0.502
 889\C,0,4.31805,-0.446469,-1.23895\C,0,3.30155,0.418476,0.958222\C,0,2
 .27365,-0.712831,1.12269\C,0,-0.06249,-1.50541,0.500929\C,0,0.894836,-
 0.340294,0.506626\C,0,3.67418,0.7407,-0.461495\C,0,-3.87393,0.460164,-
 0.315748\C,0,-2.70959,0.0102029,-0.898914\C,0,-1.5908,0.875815,-1.4065
 4\C,0,-0.700175,1.62564,0.936442\C,0,-3.74957,-1.74995,-0.294582\H,0,4

 Normal termination of Gaussian 16 at Tue Apr  8 21:46:19 2025.
