 Gaussian 16, Revision C.01,

 ----------------------------------------------------------------------
 #t hf aug-cc-pvdz symm=none int=(grid=ultrafine) guess=(read,tcheck) s
 table=(opt,rrhf)
 ----------------------------------------------------------------------
 -----
 title
 -----
 Symbolic Z-matrix:
 Charge =  0 Multiplicity = 1

 SCF Done:  E(RHF) =  -722.653395206     A.U. after   14 cycles
 Normal termination of Gaussian 16 at Tue Apr  8 22:05:27 2025.
 Gaussian 16:  ES64L-G16RevC.01  3-Jul-2019

 ----------------------------------------------------------------------
 #t hf aug-cc-pvdz iop(5/13=1,5/36=2,99/5=2) pseudo=read geom=check gue
 ss=(read,tcheck) scf=(maxcycle=1)
 ----------------------------------------------------------------------
 -----
 title
 -----
 Structure from the checkpoint file:  "ANI1ccx_67_conf9_mol1.chk"
 Charge =  0 Multiplicity = 1

                         Standard orientation:
 ---------------------------------------------------------------------
 Center     Atomic      Atomic             Coordinates (Angstroms)
 Number     Number       Type             X           Y           Z
 ---------------------------------------------------------------------
      1          6           0        1.885761   -1.062940   -0.159576
      2          6           0       -2.130289   -1.040971    1.440731
      3          6           0       -2.692389   -0.834725    0.082383
      4          6           0       -1.822280    1.590949   -0.119632
      5          6           0       -1.716240    0.155085   -0.744641
      6          6           0       -2.994769   -2.149231   -0.643894
      7          6           0        3.694140    0.276597    0.581904
      8          6           0        2.989351   -0.943618    0.876416
      9          6           0        0.595424   -0.286354    0.189531
     10          6           0        3.343920    0.755735   -0.773554
     11          1           0       -3.647330   -0.180387    0.006026
     12          1           0       -0.096388    1.512100    0.688370
     13          1           0       -3.720029   -2.754621   -0.053424
     14          1           0       -3.503799   -1.799691   -1.536529
     15          1           0       -2.151239   -2.794231   -0.822760
     16          1           0       -1.211019   -1.635861    1.272421
     17          1           0       -1.919490   -0.101221    1.861301
     18          1           0       -2.694809   -1.736931    2.040841
     19          1           0       -2.143800    0.155305   -1.797179
     20          1           0        4.284050    1.164321   -1.445219
     21          1           0        2.792650    1.704411   -0.827559
     22          1           0        3.216130    1.063491    1.187771
     23          1           0        4.828230    0.080003    0.563014
     24          1           0        2.562381   -0.911479    1.999431
     25          1           0        3.590491   -1.903189    0.758485
     26          1           0        1.635361   -2.120290   -0.511016
     27          1           0        1.914530   -0.076222   -2.037719
     28          1           0       -0.092488   -0.902312   -1.685929
     29          7           0        2.611870   -0.315724   -1.329179
     30          7           0       -0.308749   -0.311356   -0.865441
     31          8           0       -2.965490    2.062749   -0.261252
     32          8           0        0.502187    0.327232    1.214891
     33          8           0       -0.871828    2.217920    0.461867
 ---------------------------------------------------------------------

 SCF Done:  E(RHF) =  -723.392539220     A.U. after    2 cycles

 The electronic state is 1-A.
 Alpha  occ. eigenvalues --  -20.57518 -20.57327 -20.50064 -15.57121 -15.51582
 Alpha  occ. eigenvalues --  -11.40844 -11.38106 -11.31766 -11.31189 -11.27531
 Alpha  occ. eigenvalues --  -11.25891 -11.25881 -11.24045 -11.23935 -11.22477
 Alpha  occ. eigenvalues --   -1.55838  -1.52226  -1.40920  -1.27712  -1.24573
 Alpha  occ. eigenvalues --   -1.10388  -1.07199  -1.03305  -0.98126  -0.95629
 Alpha  occ. eigenvalues --   -0.89325  -0.84417  -0.82539  -0.80849  -0.79082
 Alpha  occ. eigenvalues --   -0.75979  -0.75103  -0.72622  -0.69605  -0.68397
 Alpha  occ. eigenvalues --   -0.65977  -0.64887  -0.63950  -0.62693  -0.62542
 Alpha  occ. eigenvalues --   -0.60356  -0.58666  -0.58258  -0.56881  -0.55464
 Alpha  occ. eigenvalues --   -0.54534  -0.54499  -0.53421  -0.52913  -0.50655
 Alpha  occ. eigenvalues --   -0.49501  -0.49222  -0.47968  -0.45873  -0.44899
 Alpha  occ. eigenvalues --   -0.42654  -0.40954  -0.39831
 Alpha virt. eigenvalues --    0.01871   0.02745   0.03255   0.03828   0.03947
 Alpha virt. eigenvalues --    0.04137   0.04721   0.05424   0.05950   0.06602
 Alpha virt. eigenvalues --    0.06664   0.07871   0.08198   0.08652   0.09304

 Mulliken charges:
               1
     1  C   -0.502492
     2  C    0.135020
     3  C   -0.883723
     4  C    2.622051
     5  C   -1.778371
     6  C   -0.253628
     7  C   -0.605585
     8  C   -0.129340
     9  C    0.081066
    10  C   -0.313243
    11  H    0.275822
    12  H    0.761609
    13  H    0.226444
    14  H    0.232620
    15  H    0.120922
    16  H    0.397879
    17  H    0.170896
    18  H   -0.009144
    19  H    0.179410
    20  H    0.223215
    21  H   -0.105344
    22  H    0.313038
    23  H    0.247992
    24  H    0.350356
    25  H    0.249830
    26  H   -0.037454
    27  H    0.194639
    28  H    0.216327
    29  N    0.468309
    30  N    1.573234
    31  O   -1.418438
    32  O   -1.492498
    33  O   -1.511421
 Sum of Mulliken charges =  -0.00000

 Dipole moment (field-independent basis, Debye):
    X=              3.1760    Y=             -5.4182    Z=             -1.5357  Tot=              6.4655

 Test job not archived.
 1\1\GINC-SE227\SP\RHF\Aug-CC-pVDZ\C10H18N2O3\OHZDE\08-Apr-2025\0\\#t h
 f aug-cc-pvdz iop(5/13=1,5/36=2,99/5=2) pseudo=read geom=check guess=(
 read,tcheck) scf=(maxcycle=1)\\title\\0,1\C,0,1.88576,-1.06294,-0.1595
 77\C,0,-2.13029,-1.04097,1.44073\C,0,-2.69239,-0.834724,0.082382\C,0,-
 1.82228,1.59095,-0.119633\C,0,-1.71624,0.155086,-0.744642\C,0,-2.99477
 ,-2.14923,-0.643895\C,0,3.69414,0.276596,0.581903\C,0,2.98935,-0.94361
 9,0.876415\C,0,0.595424,-0.286354,0.18953\C,0,3.34392,0.755734,-0.7735
 55\H,0,-3.64733,-0.180386,0.00602527\H,0,-0.0963875,1.5121,0.688369\H,

 Normal termination of Gaussian 16 at Tue Apr  8 22:06:12 2025.
