 Gaussian 16, Revision C.01,

 ----------------------------------------------------------------------
 #t hf aug-cc-pvdz symm=none int=(grid=ultrafine) guess=(read,tcheck) s
 table=(opt,rrhf)
 ----------------------------------------------------------------------
 -----
 title
 -----
 Symbolic Z-matrix:
 Charge =  0 Multiplicity = 1

 SCF Done:  E(RHF) =  -509.538181497     A.U. after   14 cycles
 Normal termination of Gaussian 16 at Tue Apr  8 22:12:04 2025.
 Gaussian 16:  ES64L-G16RevC.01  3-Jul-2019

 ----------------------------------------------------------------------
 #t hf aug-cc-pvdz iop(5/13=1,5/36=2,99/5=2) pseudo=read geom=check gue
 ss=(read,tcheck) scf=(maxcycle=1)
 ----------------------------------------------------------------------
 -----
 title
 -----
 Structure from the checkpoint file:  "ANI1ccx_939_conf34_mol1.chk"
 Charge =  0 Multiplicity = 1

                         Standard orientation:
 ---------------------------------------------------------------------
 Center     Atomic      Atomic             Coordinates (Angstroms)
 Number     Number       Type             X           Y           Z
 ---------------------------------------------------------------------
      1          6           0       -0.734082    0.617139   -0.757268
      2          6           0       -1.352881   -0.387815    0.224073
      3          6           0        0.703391    0.077404   -1.165580
      4          6           0        1.535499   -0.232776    0.041129
      5          1           0       -1.475287    2.413892   -0.291690
      6          1           0       -0.118335    2.094720    0.572224
      7          1           0       -1.341720    0.535088   -1.705810
      8          1           0        0.594943   -0.885122   -1.723170
      9          1           0        1.273220    0.776142   -1.753540
     10          1           0        1.915491    0.854572    1.730330
     11          1           0       -1.768784   -2.197368    0.208732
     12          7           0       -0.624755    1.986901   -0.323842
     13          8           0       -1.608241   -0.260054    1.382160
     14          8           0        2.260458   -1.207204    0.098021
     15          8           0        1.370520    0.788554    0.887230
     16          8           0       -1.474963   -1.564288   -0.470450
 ---------------------------------------------------------------------

 SCF Done:  E(RHF) =  -510.045680202     A.U. after    2 cycles

 The electronic state is 1-A.
 Alpha  occ. eigenvalues --  -20.61878 -20.60802 -20.55766 -20.54635 -15.48728
 Alpha  occ. eigenvalues --  -11.40475 -11.40234 -11.30642 -11.26294  -1.55615
 Alpha  occ. eigenvalues --   -1.55224  -1.47021  -1.46227  -1.20784  -1.06301
 Alpha  occ. eigenvalues --   -0.95820  -0.85510  -0.80863  -0.75308  -0.72593
 Alpha  occ. eigenvalues --   -0.71850  -0.69099  -0.67422  -0.66734  -0.63257
 Alpha  occ. eigenvalues --   -0.61840  -0.60255  -0.57525  -0.55354  -0.53196
 Alpha  occ. eigenvalues --   -0.49495  -0.48338  -0.47907  -0.44438  -0.42865
 Alpha virt. eigenvalues --    0.03165   0.03853   0.04331   0.04978   0.05497
 Alpha virt. eigenvalues --    0.06654   0.07709   0.09663   0.10353   0.11260
 Alpha virt. eigenvalues --    0.12477   0.13185   0.14066   0.14201   0.14556

 Mulliken charges:
               1
     1  C   -1.897468
     2  C    2.590010
     3  C   -0.477461
     4  C    2.343924
     5  H    0.125379
     6  H    0.272698
     7  H    0.274523
     8  H    0.230401
     9  H    0.211827
    10  H    0.457498
    11  H    0.374447
    12  N    0.872567
    13  O   -1.319524
    14  O   -1.306304
    15  O   -1.449475
    16  O   -1.303041
 Sum of Mulliken charges =  -0.00000

 Dipole moment (field-independent basis, Debye):
    X=             -0.9069    Y=              1.3147    Z=             -0.0796  Tot=              1.5992

 Test job not archived.
 1\1\GINC-SE015\SP\RHF\Aug-CC-pVDZ\C4H7N1O4\OHZDE\08-Apr-2025\0\\#t hf
 aug-cc-pvdz iop(5/13=1,5/36=2,99/5=2) pseudo=read geom=check guess=(re
 ad,tcheck) scf=(maxcycle=1)\\title\\0,1\C,0,-0.734082,0.617138,-0.7572
 68\C,0,-1.35288,-0.387817,0.224073\C,0,0.703392,0.0774058,-1.16558\C,0
 ,1.5355,-0.232773,0.0411287\H,0,-1.47529,2.41389,-0.29169\H,0,-0.11833
 7,2.09472,0.572224\H,0,-1.34172,0.535086,-1.70581\H,0,0.594945,-0.8851
 21,-1.72317\H,0,1.27322,0.776144,-1.75354\H,0,1.91549,0.854575,1.73033
 \H,0,-1.76878,-2.19737,0.208732\N,0,-0.624757,1.9869,-0.323842\O,0,-1.

 Normal termination of Gaussian 16 at Tue Apr  8 22:12:11 2025.
