 Gaussian 16, Revision C.01,

 ----------------------------------------------------------------------
 #t hf aug-cc-pvdz symm=none int=(grid=ultrafine) guess=(read,tcheck) s
 table=(opt,rrhf)
 ----------------------------------------------------------------------
 -----
 title
 -----
 Symbolic Z-matrix:
 Charge =  0 Multiplicity = 1

 SCF Done:  E(RHF) =  -276.571657979     A.U. after   16 cycles
 Normal termination of Gaussian 16 at Tue Apr  8 21:21:26 2025.
 Gaussian 16:  ES64L-G16RevC.01  3-Jul-2019

 ----------------------------------------------------------------------
 #t hf aug-cc-pvdz iop(5/13=1,5/36=2,99/5=2) pseudo=read geom=check gue
 ss=(read,tcheck) scf=(maxcycle=1)
 ----------------------------------------------------------------------
 -----
 title
 -----
 Structure from the checkpoint file:  "ANI1ccx_370_conf88_mol1.chk"
 Charge =  0 Multiplicity = 1

                         Standard orientation:
 ---------------------------------------------------------------------
 Center     Atomic      Atomic             Coordinates (Angstroms)
 Number     Number       Type             X           Y           Z
 ---------------------------------------------------------------------
      1          6           0        1.049300    0.047079    0.010576
      2          1           0        2.128750    0.089168    0.068557
      3          7           0        0.499631   -1.122669   -0.018575
      4          7           0       -0.895091   -0.737149    0.008649
      5          7           0       -1.121590    0.475686    0.007800
      6          8           0        0.274350    1.164660   -0.014642
 ---------------------------------------------------------------------

 SCF Done:  E(RHF) =  -276.836487190     A.U. after    2 cycles

 The electronic state is 1-A.
 Alpha  occ. eigenvalues --  -20.66991 -15.67870 -15.64493 -15.58504 -11.40082
 Alpha  occ. eigenvalues --   -1.58403  -1.40603  -1.26927  -0.96214  -0.90432
 Alpha  occ. eigenvalues --   -0.78414  -0.72500  -0.68553  -0.64199  -0.58908
 Alpha  occ. eigenvalues --   -0.56110  -0.53250  -0.50863
 Alpha virt. eigenvalues --    0.03238   0.04085   0.07610   0.08149   0.08540
 Alpha virt. eigenvalues --    0.11535   0.12675   0.13472   0.15185   0.15727
 Alpha virt. eigenvalues --    0.16740   0.17764   0.18934   0.20358   0.22143

 Mulliken charges:
               1
     1  C    0.562691
     2  H    0.127705
     3  N    0.338084
     4  N   -0.751605
     5  N    0.874613
     6  O   -1.151488
 Sum of Mulliken charges =  -0.00000

 Dipole moment (field-independent basis, Debye):
    X=              2.9289    Y=              1.3267    Z=              0.0892  Tot=              3.2166

 Test job not archived.
 1\1\GINC-SE343\SP\RHF\Aug-CC-pVDZ\C1H1N3O1\OHZDE\08-Apr-2025\0\\#t hf
 aug-cc-pvdz iop(5/13=1,5/36=2,99/5=2) pseudo=read geom=check guess=(re
 ad,tcheck) scf=(maxcycle=1)\\title\\0,1\C,0,1.0493,0.0470776,0.0105764
 \H,0,2.12875,0.0891662,0.0685568\N,0,0.49963,-1.12267,-0.0185748\N,0,-
 0.895092,-0.737148,0.00864872\N,0,-1.12159,0.475687,0.00779993\O,0,0.2
 74351,1.16466,-0.0146415\\Version=ES64L-G16RevC.01\State=1-A\HF=-276.8
 364872\RMSD=3.842e-02\Dipole=1.1523347,0.5219515,0.0350759\Quadrupole=
 2.8647527,-3.2703888,0.4056361,0.8584675,0.1521973,-0.003228\PG=C01 [X

 Normal termination of Gaussian 16 at Tue Apr  8 21:21:29 2025.
