 Gaussian 16, Revision C.01,

 ----------------------------------------------------------------------
 #t hf aug-cc-pvdz symm=none int=(grid=ultrafine) guess=(read,tcheck) s
 table=(opt,rrhf)
 ----------------------------------------------------------------------
 -----
 title
 -----
 Symbolic Z-matrix:
 Charge =  0 Multiplicity = 1

 SCF Done:  E(RHF) =  -697.983717347     A.U. after   17 cycles
 Normal termination of Gaussian 16 at Tue Apr  8 19:57:50 2025.
 Gaussian 16:  ES64L-G16RevC.01  3-Jul-2019

 ----------------------------------------------------------------------
 #t hf aug-cc-pvdz iop(5/13=1,5/36=2,99/5=2) pseudo=read geom=check gue
 ss=(read,tcheck) scf=(maxcycle=1)
 ----------------------------------------------------------------------
 -----
 title
 -----
 Structure from the checkpoint file:  "ANI1ccx_1468_conf4_mol2.chk"
 Charge =  0 Multiplicity = 1

                         Standard orientation:
 ---------------------------------------------------------------------
 Center     Atomic      Atomic             Coordinates (Angstroms)
 Number     Number       Type             X           Y           Z
 ---------------------------------------------------------------------
      1          6           0        2.878162   -1.946577   -0.024580
      2          6           0        1.364372   -1.670848    0.238988
      3          6           0        1.175671   -0.629786    1.359470
      4          6           0       -0.264089   -0.205530    1.408950
      5          6           0       -2.208430    0.947945    0.310479
      6          6           0       -3.248109   -0.118035    0.375695
      7          6           0       -3.337119   -0.978752   -0.872321
      8          1           0        1.178829    2.678742    0.347771
      9          1           0       -1.374269   -1.469580   -0.986055
     10          1           0       -2.306448   -2.571541   -0.220880
     11          1           0       -3.346309   -0.307417   -1.733630
     12          1           0       -4.279958   -1.530042   -0.904073
     13          1           0       -4.212910    0.384968    0.460904
     14          1           0       -3.127269   -0.693656    1.293420
     15          1           0       -2.318581    1.530649    1.220990
     16          1           0       -2.375981    1.639239   -0.515591
     17          1           0       -0.948089   -1.070980    1.569590
     18          1           0       -0.459975    0.470995    2.229430
     19          1           0        1.865880    0.212848    1.282030
     20          1           0        1.455131   -1.104868    2.298180
     21          1           0        0.946526   -1.322928   -0.730669
     22          1           0        0.800870   -2.576258    0.508069
     23          1           0        3.415332   -2.369696    0.826097
     24          1           0        2.911972   -2.708787   -0.796365
     25          1           0        3.794551   -0.176093    0.272552
     26          1           0        3.083871   -0.307056   -1.190420
     27          7           0        3.619251   -0.813827   -0.485846
     28          7           0       -0.829395    0.444171    0.213162
     29          7           0       -2.257888   -1.942371   -1.010770
     30          7           0       -0.012835    1.477831   -0.211985
     31          7           0        0.933863    1.214432   -1.141450
     32          8           0        0.313281    2.442511    0.723072
     33          8           0        1.807109    2.087402   -1.167220
 ---------------------------------------------------------------------

 SCF Done:  E(RHF) =  -698.709798487     A.U. after    2 cycles

 The electronic state is 1-A.
 Alpha  occ. eigenvalues --  -20.61712 -20.60564 -15.70349 -15.66058 -15.56377
 Alpha  occ. eigenvalues --  -15.47536 -15.47479 -11.27988 -11.27718 -11.25685
 Alpha  occ. eigenvalues --  -11.25081 -11.24631 -11.23808 -11.23569  -1.62428
 Alpha  occ. eigenvalues --   -1.53616  -1.33652  -1.20820  -1.18807  -1.18122
 Alpha  occ. eigenvalues --   -1.08677  -1.05480  -0.98149  -0.94417  -0.90721
 Alpha  occ. eigenvalues --   -0.86320  -0.83220  -0.82897  -0.81265  -0.75409
 Alpha  occ. eigenvalues --   -0.75284  -0.71514  -0.69955  -0.68425  -0.66791
 Alpha  occ. eigenvalues --   -0.66296  -0.64295  -0.63075  -0.62059  -0.61712
 Alpha  occ. eigenvalues --   -0.60234  -0.59665  -0.57627  -0.56713  -0.55986
 Alpha  occ. eigenvalues --   -0.54985  -0.52558  -0.52274  -0.50643  -0.49575
 Alpha  occ. eigenvalues --   -0.49001  -0.47610  -0.45110  -0.43108  -0.41444
 Alpha  occ. eigenvalues --   -0.41064
 Alpha virt. eigenvalues --    0.02860   0.03110   0.03466   0.03720   0.04183
 Alpha virt. eigenvalues --    0.04614   0.04835   0.05041   0.05960   0.06487
 Alpha virt. eigenvalues --    0.07396   0.07819   0.07912   0.08241   0.08674

 Mulliken charges:
               1
     1  C   -0.665246
     2  C   -0.325187
     3  C   -0.323582
     4  C   -0.347034
     5  C   -0.501554
     6  C   -0.148804
     7  C   -0.752986
     8  H    0.400773
     9  H    0.024100
    10  H    0.316427
    11  H    0.131265
    12  H    0.007631
    13  H    0.130822
    14  H    0.174271
    15  H    0.071398
    16  H    0.039687
    17  H    0.202704
    18  H    0.036111
    19  H    0.138697
    20  H    0.112614
    21  H    0.314913
    22  H    0.065207
    23  H    0.051304
    24  H    0.068120
    25  H    0.182058
    26  H    0.166480
    27  N    0.384724
    28  N    0.235231
    29  N    0.566337
    30  N   -0.035736
    31  N    1.905305
    32  O   -1.338928
    33  O   -1.287125
 Sum of Mulliken charges =   0.00000

 Dipole moment (field-independent basis, Debye):
    X=             -2.5345    Y=              0.5296    Z=              4.0956  Tot=              4.8454

 Test job not archived.
 1\1\GINC-SE457\SP\RHF\Aug-CC-pVDZ\C7H19N5O2\OHZDE\08-Apr-2025\0\\#t hf
  aug-cc-pvdz iop(5/13=1,5/36=2,99/5=2) pseudo=read geom=check guess=(r
 ead,tcheck) scf=(maxcycle=1)\\title\\0,1\C,0,2.87816,-1.94658,-0.02458
 02\C,0,1.36437,-1.67085,0.238988\C,0,1.17567,-0.629788,1.35947\C,0,-0.
 26409,-0.205531,1.40895\C,0,-2.20843,0.947945,0.310479\C,0,-3.24811,-0
 .118034,0.375695\C,0,-3.33712,-0.978751,-0.872321\H,0,1.17883,2.67874,
 0.347771\H,0,-1.37427,-1.46958,-0.986055\H,0,-2.30645,-2.57154,-0.2208
 8\H,0,-3.34631,-0.307416,-1.73363\H,0,-4.27996,-1.53004,-0.904073\H,0,

 Normal termination of Gaussian 16 at Tue Apr  8 19:58:31 2025.
