 Gaussian 16, Revision C.01,

 ----------------------------------------------------------------------
 #t hf aug-cc-pvdz symm=none int=(grid=ultrafine) guess=(read,tcheck) s
 table=(opt,rrhf)
 ----------------------------------------------------------------------
 -----
 title
 -----
 Symbolic Z-matrix:
 Charge =  0 Multiplicity = 1

 SCF Done:  E(RHF) =  -259.759815204     A.U. after   13 cycles
 Normal termination of Gaussian 16 at Tue Apr  8 21:10:16 2025.
 Gaussian 16:  ES64L-G16RevC.01  3-Jul-2019

 ----------------------------------------------------------------------
 #t hf aug-cc-pvdz iop(5/13=1,5/36=2,99/5=2) pseudo=read geom=check gue
 ss=(read,tcheck) scf=(maxcycle=1)
 ----------------------------------------------------------------------
 -----
 title
 -----
 Structure from the checkpoint file:  "ANI1ccx_1858_conf3_mol1.chk"
 Charge =  0 Multiplicity = 1

                         Standard orientation:
 ---------------------------------------------------------------------
 Center     Atomic      Atomic             Coordinates (Angstroms)
 Number     Number       Type             X           Y           Z
 ---------------------------------------------------------------------
      1          1           0       -0.530163    0.209624    0.314386
      2          1           0       -2.692210   -0.382590    0.733914
      3          7           0        1.730800   -0.098616   -0.052474
      4          7           0        2.804660   -0.068262    0.042294
      5          8           0       -1.354190    0.668046   -0.031029
      6          8           0       -2.211540   -0.500407   -0.091101
 ---------------------------------------------------------------------

 SCF Done:  E(RHF) =  -260.007812544     A.U. after    2 cycles

 The electronic state is 1-A.
 Alpha  occ. eigenvalues --  -20.61997 -20.61708 -15.63320 -15.63024  -1.57951
 Alpha  occ. eigenvalues --   -1.52950  -1.27102  -0.83495  -0.71691  -0.70607
 Alpha  occ. eigenvalues --   -0.69808  -0.69804  -0.68621  -0.59412  -0.49343
 Alpha  occ. eigenvalues --   -0.48186
 Alpha virt. eigenvalues --    0.04343   0.05519   0.08487   0.08652   0.11202
 Alpha virt. eigenvalues --    0.13935   0.14960   0.16580   0.17549   0.18866
 Alpha virt. eigenvalues --    0.19930   0.21408   0.22658   0.23289   0.23841

 Mulliken charges:
               1
     1  H    0.583978
     2  H    0.426348
     3  N    0.165721
     4  N   -0.193896
     5  O   -0.523735
     6  O   -0.458415
 Sum of Mulliken charges =  -0.00000

 Dipole moment (field-independent basis, Debye):
    X=              0.8736    Y=             -0.5606    Z=              1.9661  Tot=              2.2233

 Test job not archived.
 1\1\GINC-SE015\SP\RHF\Aug-CC-pVDZ\H2N2O2\OHZDE\08-Apr-2025\0\\#t hf au
 g-cc-pvdz iop(5/13=1,5/36=2,99/5=2) pseudo=read geom=check guess=(read
 ,tcheck) scf=(maxcycle=1)\\title\\0,1\H,0,-0.530163,0.209624,0.314386\
 H,0,-2.69221,-0.38259,0.733914\N,0,1.7308,-0.0986159,-0.052474\N,0,2.8
 0466,-0.0682626,0.0422938\O,0,-1.35419,0.668046,-0.0310287\O,0,-2.2115
 4,-0.500407,-0.0911011\\Version=ES64L-G16RevC.01\State=1-A\HF=-260.007
 8125\RMSD=5.198e-02\Dipole=0.3436917,-0.2205603,0.7735406\Quadrupole=0
 .7874049,-1.2527751,0.4653702,0.8338823,-3.3189329,-0.389135\PG=C01 [X

 Normal termination of Gaussian 16 at Tue Apr  8 21:10:18 2025.
