 Gaussian 16, Revision C.01,

 ----------------------------------------------------------------------
 #t hf aug-cc-pvdz symm=none int=(grid=ultrafine) guess=(read,tcheck) s
 table=(opt,rrhf)
 ----------------------------------------------------------------------
 -----
 title
 -----
 Symbolic Z-matrix:
 Charge =  0 Multiplicity = 1

 SCF Done:  E(RHF) =  -276.589964944     A.U. after   14 cycles
 Normal termination of Gaussian 16 at Tue Apr  8 21:18:24 2025.
 Gaussian 16:  ES64L-G16RevC.01  3-Jul-2019

 ----------------------------------------------------------------------
 #t hf aug-cc-pvdz iop(5/13=1,5/36=2,99/5=2) pseudo=read geom=check gue
 ss=(read,tcheck) scf=(maxcycle=1)
 ----------------------------------------------------------------------
 -----
 title
 -----
 Structure from the checkpoint file:  "ANI1ccx_370_conf42_mol1.chk"
 Charge =  0 Multiplicity = 1

                         Standard orientation:
 ---------------------------------------------------------------------
 Center     Atomic      Atomic             Coordinates (Angstroms)
 Number     Number       Type             X           Y           Z
 ---------------------------------------------------------------------
      1          6           0        1.067030   -0.047694    0.024195
      2          1           0        2.084979   -0.279854   -0.001127
      3          7           0        0.476677    1.095358    0.008636
      4          7           0       -0.912247    0.715637   -0.037622
      5          7           0       -1.031342   -0.512683    0.049524
      6          8           0        0.222653   -1.065271   -0.035976
 ---------------------------------------------------------------------

 SCF Done:  E(RHF) =  -276.859070980     A.U. after    2 cycles

 The electronic state is 1-A.
 Alpha  occ. eigenvalues --  -20.68396 -15.65943 -15.62700 -15.57565 -11.38967
 Alpha  occ. eigenvalues --   -1.66688  -1.39536  -1.26653  -0.97141  -0.94787
 Alpha  occ. eigenvalues --   -0.80989  -0.75779  -0.70388  -0.63133  -0.58302
 Alpha  occ. eigenvalues --   -0.55446  -0.54573  -0.50830
 Alpha virt. eigenvalues --    0.03013   0.05482   0.07636   0.07935   0.08482
 Alpha virt. eigenvalues --    0.12717   0.13321   0.14072   0.15120   0.16002
 Alpha virt. eigenvalues --    0.17594   0.19142   0.19995   0.21973   0.23317

 Mulliken charges:
               1
     1  C    0.492261
     2  H    0.009068
     3  N    0.367354
     4  N   -0.770479
     5  N    1.143222
     6  O   -1.241426
 Sum of Mulliken charges =  -0.00000

 Dipole moment (field-independent basis, Debye):
    X=              3.2898    Y=             -1.9256    Z=              0.0262  Tot=              3.8120

 Test job not archived.
 1\1\GINC-SE232\SP\RHF\Aug-CC-pVDZ\C1H1N3O1\OHZDE\08-Apr-2025\0\\#t hf
 aug-cc-pvdz iop(5/13=1,5/36=2,99/5=2) pseudo=read geom=check guess=(re
 ad,tcheck) scf=(maxcycle=1)\\title\\0,1\C,0,1.06703,-0.0476897,0.02419
 48\H,0,2.08498,-0.279845,-0.00112692\N,0,0.476672,1.09536,0.0086361\N,
 0,-0.912251,0.715633,-0.0376224\N,0,-1.03134,-0.512688,0.0495239\O,0,0
 .222657,-1.06527,-0.0359757\\Version=ES64L-G16RevC.01\State=1-A\HF=-27
 6.859071\RMSD=3.927e-02\Dipole=1.2942925,-0.7575912,0.0103102\Quadrupo
 le=2.583852,-3.0734411,0.4895891,-1.2830124,0.0517406,-0.031458\PG=C01

 Normal termination of Gaussian 16 at Tue Apr  8 21:18:26 2025.
