 Gaussian 16, Revision C.01,

 ----------------------------------------------------------------------
 #t hf aug-cc-pvdz symm=none int=(grid=ultrafine) guess=(read,tcheck) s
 table=(opt,rrhf)
 ----------------------------------------------------------------------
 -----
 title
 -----
 Symbolic Z-matrix:
 Charge =  0 Multiplicity = 1

 SCF Done:  E(RHF) =  -256.791434377     A.U. after   15 cycles
 Normal termination of Gaussian 16 at Tue Apr  8 21:31:34 2025.
 Gaussian 16:  ES64L-G16RevC.01  3-Jul-2019

 ----------------------------------------------------------------------
 #t hf aug-cc-pvdz iop(5/13=1,5/36=2,99/5=2) pseudo=read geom=check gue
 ss=(read,tcheck) scf=(maxcycle=1)
 ----------------------------------------------------------------------
 -----
 title
 -----
 Structure from the checkpoint file:  "ANI1ccx_377_conf64_mol1.chk"
 Charge =  0 Multiplicity = 1

                         Standard orientation:
 ---------------------------------------------------------------------
 Center     Atomic      Atomic             Coordinates (Angstroms)
 Number     Number       Type             X           Y           Z
 ---------------------------------------------------------------------
      1          6           0       -1.066070   -0.341726   -0.018014
      2          1           0       -2.137220   -0.626780    0.132383
      3          1           0        1.933980   -0.665131    0.073549
      4          7           0       -0.648885    0.959536   -0.029880
      5          7           0        0.609107    0.948079    0.046372
      6          7           0        1.005180   -0.298728   -0.043477
      7          7           0       -0.022592   -1.131420    0.013007
 ---------------------------------------------------------------------

 SCF Done:  E(RHF) =  -257.052361609     A.U. after    2 cycles

 The electronic state is 1-A.
 Alpha  occ. eigenvalues --  -15.64087 -15.60977 -15.56974 -15.55249 -11.31578
 Alpha  occ. eigenvalues --   -1.51464  -1.29801  -1.21112  -0.97066  -0.94337
 Alpha  occ. eigenvalues --   -0.84425  -0.74201  -0.69164  -0.62978  -0.55625
 Alpha  occ. eigenvalues --   -0.52239  -0.50942  -0.45843
 Alpha virt. eigenvalues --    0.02788   0.05178   0.06813   0.08456   0.09273
 Alpha virt. eigenvalues --    0.10005   0.11808   0.14526   0.15173   0.15915
 Alpha virt. eigenvalues --    0.16364   0.17029   0.17974   0.19847   0.21442

 Mulliken charges:
               1
     1  C   -0.171010
     2  H    0.089032
     3  H    0.101631
     4  N    0.227089
     5  N   -0.414811
     6  N    0.034030
     7  N    0.134039
 Sum of Mulliken charges =  -0.00000

 Dipole moment (field-independent basis, Debye):
    X=              0.6286    Y=             -1.9333    Z=              0.2437  Tot=              2.0475

 Test job not archived.
 1\1\GINC-SE457\SP\RHF\Aug-CC-pVDZ\C1H2N4\OHZDE\08-Apr-2025\0\\#t hf au
 g-cc-pvdz iop(5/13=1,5/36=2,99/5=2) pseudo=read geom=check guess=(read
 ,tcheck) scf=(maxcycle=1)\\title\\0,1\C,0,-1.06607,-0.341725,-0.018013
 6\H,0,-2.13722,-0.626778,0.132383\H,0,1.93398,-0.665133,0.0735492\N,0,
 -0.648884,0.959537,-0.0298801\N,0,0.609108,0.948078,0.0463724\N,0,1.00
 518,-0.298729,-0.0434775\N,0,-0.0225924,-1.13142,0.0130065\\Version=ES
 64L-G16RevC.01\State=1-A\HF=-257.0523616\RMSD=5.531e-02\Dipole=0.24732
 87,-0.7606288,0.0958717\Quadrupole=6.2565429,-5.1010288,-1.1555142,-0.

 Normal termination of Gaussian 16 at Tue Apr  8 21:31:36 2025.
