 Gaussian 16, Revision C.01,

 ----------------------------------------------------------------------
 #t hf aug-cc-pvdz symm=none int=(grid=ultrafine) guess=(read,tcheck) s
 table=(opt,rrhf)
 ----------------------------------------------------------------------
 -----
 title
 -----
 Symbolic Z-matrix:
 Charge =  0 Multiplicity = 1

 SCF Done:  E(RHF) =  -259.755520131     A.U. after   14 cycles
 Normal termination of Gaussian 16 at Tue Apr  8 21:10:16 2025.
 Gaussian 16:  ES64L-G16RevC.01  3-Jul-2019

 ----------------------------------------------------------------------
 #t hf aug-cc-pvdz iop(5/13=1,5/36=2,99/5=2) pseudo=read geom=check gue
 ss=(read,tcheck) scf=(maxcycle=1)
 ----------------------------------------------------------------------
 -----
 title
 -----
 Structure from the checkpoint file:  "ANI1ccx_1858_conf10_mol1.chk"
 Charge =  0 Multiplicity = 1

                         Standard orientation:
 ---------------------------------------------------------------------
 Center     Atomic      Atomic             Coordinates (Angstroms)
 Number     Number       Type             X           Y           Z
 ---------------------------------------------------------------------
      1          1           0        0.465025   -0.738361    0.592075
      2          1           0        1.613418    1.077620   -0.537849
      3          7           0       -1.856902    0.630067   -0.071432
      4          7           0       -1.689533   -0.455325    0.101307
      5          8           0        1.006637   -0.644429   -0.202663
      6          8           0        1.836688    0.449122    0.169745
 ---------------------------------------------------------------------

 SCF Done:  E(RHF) =  -260.003169428     A.U. after    2 cycles

 The electronic state is 1-A.
 Alpha  occ. eigenvalues --  -20.61975 -20.61632 -15.63859 -15.63750  -1.59949
 Alpha  occ. eigenvalues --   -1.49571  -1.27521  -0.83896  -0.72186  -0.71498
 Alpha  occ. eigenvalues --   -0.69388  -0.67652  -0.67143  -0.61105  -0.51272
 Alpha  occ. eigenvalues --   -0.46348
 Alpha virt. eigenvalues --    0.04577   0.05508   0.07728   0.08196   0.11711
 Alpha virt. eigenvalues --    0.12822   0.14401   0.16977   0.17181   0.18794
 Alpha virt. eigenvalues --    0.20024   0.20825   0.22476   0.23537   0.25011

 Mulliken charges:
               1
     1  H    0.549143
     2  H    0.462906
     3  N   -0.067622
     4  N    0.033024
     5  O   -0.465951
     6  O   -0.511500
 Sum of Mulliken charges =  -0.00000

 Dipole moment (field-independent basis, Debye):
    X=             -1.3852    Y=              0.9497    Z=              0.0678  Tot=              1.6809

 Test job not archived.
 1\1\GINC-SE090\SP\RHF\Aug-CC-pVDZ\H2N2O2\OHZDE\08-Apr-2025\0\\#t hf au
 g-cc-pvdz iop(5/13=1,5/36=2,99/5=2) pseudo=read geom=check guess=(read
 ,tcheck) scf=(maxcycle=1)\\title\\0,1\H,0,0.465028,-0.738361,0.592075\
 H,0,1.61342,1.07762,-0.537849\N,0,-1.8569,0.630067,-0.0714323\N,0,-1.6
 8953,-0.455325,0.101307\O,0,1.00664,-0.644429,-0.202663\O,0,1.83669,0.
 449122,0.169745\\Version=ES64L-G16RevC.01\State=1-A\HF=-260.0031694\RM
 SD=3.978e-02\Dipole=-0.5449978,0.3736439,0.0266865\Quadrupole=-2.05566
 85,1.0251068,1.0305618,1.8326302,-1.0510282,-1.9084008\PG=C01 [X(H2N2O

 Normal termination of Gaussian 16 at Tue Apr  8 21:10:18 2025.
