 Gaussian 16, Revision C.01,

 ----------------------------------------------------------------------
 #t hf aug-cc-pvdz symm=none int=(grid=ultrafine) guess=(read,tcheck) s
 table=(opt,rrhf)
 ----------------------------------------------------------------------
 -----
 title
 -----
 Symbolic Z-matrix:
 Charge =  0 Multiplicity = 1

 SCF Done:  E(RHF) =  -207.053833521     A.U. after   12 cycles
 Normal termination of Gaussian 16 at Tue Apr  8 21:12:19 2025.
 Gaussian 16:  ES64L-G16RevC.01  3-Jul-2019

 ----------------------------------------------------------------------
 #t hf aug-cc-pvdz iop(5/13=1,5/36=2,99/5=2) pseudo=read geom=check gue
 ss=(read,tcheck) scf=(maxcycle=1)
 ----------------------------------------------------------------------
 -----
 title
 -----
 Structure from the checkpoint file:  "ANI1ccx_1888_conf25_mol2.chk"
 Charge =  0 Multiplicity = 1

                         Standard orientation:
 ---------------------------------------------------------------------
 Center     Atomic      Atomic             Coordinates (Angstroms)
 Number     Number       Type             X           Y           Z
 ---------------------------------------------------------------------
      1          1           0        1.579578   -0.698843    0.574579
      2          1           0        2.701918    0.090878    0.033360
      3          1           0       -0.080237    0.983947    0.174521
      4          1           0       -1.536693   -0.877405    0.806716
      5          1           0       -1.703963   -0.867157   -0.789502
      6          7           0       -1.010652   -0.665767   -0.032431
      7          8           0        1.776818   -0.022133   -0.085082
      8          8           0       -1.012572    0.775751    0.013500
 ---------------------------------------------------------------------

 SCF Done:  E(RHF) =  -207.268947005     A.U. after    2 cycles

 The electronic state is 1-A.
 Alpha  occ. eigenvalues --  -20.56325 -20.55687 -15.54441  -1.45866  -1.44903
 Alpha  occ. eigenvalues --   -1.08679  -0.71910  -0.70302  -0.66231  -0.62619
 Alpha  occ. eigenvalues --   -0.58857  -0.50917  -0.47104  -0.44675
 Alpha virt. eigenvalues --    0.03377   0.04642   0.06193   0.06811   0.08069
 Alpha virt. eigenvalues --    0.14603   0.16878   0.18565   0.19150   0.20649
 Alpha virt. eigenvalues --    0.21491   0.22253   0.23120   0.24877   0.26085

 Mulliken charges:
               1
     1  H    0.397392
     2  H    0.417612
     3  H    0.375910
     4  H    0.105094
     5  H    0.127184
     6  N    0.394125
     7  O   -0.833005
     8  O   -0.984314
 Sum of Mulliken charges =   0.00000

 Dipole moment (field-independent basis, Debye):
    X=              1.2164    Y=             -1.3553    Z=              1.5383  Tot=              2.3839

 Test job not archived.
 1\1\GINC-SE092\SP\RHF\Aug-CC-pVDZ\H5N1O2\OHZDE\08-Apr-2025\0\\#t hf au
 g-cc-pvdz iop(5/13=1,5/36=2,99/5=2) pseudo=read geom=check guess=(read
 ,tcheck) scf=(maxcycle=1)\\title\\0,1\H,0,1.57958,-0.698843,0.574579\H
 ,0,2.70192,0.0908789,0.0333602\H,0,-0.0802348,0.983947,0.174521\H,0,-1
 .53669,-0.877405,0.806716\H,0,-1.70396,-0.867157,-0.789502\N,0,-1.0106
 5,-0.665767,-0.0324307\O,0,1.77682,-0.0221321,-0.0850824\O,0,-1.01257,
 0.775751,0.0135\\Version=ES64L-G16RevC.01\State=1-A\HF=-207.268947\RMS
 D=8.538e-03\Dipole=0.4785853,-0.5332138,0.6052158\Quadrupole=3.6820107

 Normal termination of Gaussian 16 at Tue Apr  8 21:12:21 2025.
