 Gaussian 16, Revision C.01,

 ----------------------------------------------------------------------
 #t hf aug-cc-pvdz symm=none int=(grid=ultrafine) guess=(read,tcheck) s
 table=(opt,rrhf)
 ----------------------------------------------------------------------
 -----
 title
 -----
 Symbolic Z-matrix:
 Charge =  0 Multiplicity = 1

 SCF Done:  E(RHF) =  -380.188601252     A.U. after   11 cycles
 Normal termination of Gaussian 16 at Tue Apr  8 21:03:25 2025.
 Gaussian 16:  ES64L-G16RevC.01  3-Jul-2019

 ----------------------------------------------------------------------
 #t hf aug-cc-pvdz iop(5/13=1,5/36=2,99/5=2) pseudo=read geom=check gue
 ss=(read,tcheck) scf=(maxcycle=1)
 ----------------------------------------------------------------------
 -----
 title
 -----
 Structure from the checkpoint file:  "ANI1ccx_1843_conf264_mol1.chk"
 Charge =  0 Multiplicity = 1

                         Standard orientation:
 ---------------------------------------------------------------------
 Center     Atomic      Atomic             Coordinates (Angstroms)
 Number     Number       Type             X           Y           Z
 ---------------------------------------------------------------------
      1          1           0        1.888020    0.662151   -0.138595
      2          1           0        1.412171    1.569519   -1.256490
      3          1           0        1.266688   -1.329661   -0.049899
      4          1           0        2.799568   -1.478843    0.401545
      5          1           0       -0.574501   -1.741019    1.579550
      6          1           0       -0.397042   -0.283425    0.889448
      7          1           0       -1.531199    1.326242    0.145240
      8          1           0       -0.026400    1.800490    0.349996
      9          1           0       -3.213301   -0.570122   -0.548041
     10          1           0       -1.787842   -0.941894   -0.296061
     11          8           0        1.435171    1.576348   -0.268002
     12          8           0        2.247988   -1.181033   -0.384029
     13          8           0       -0.503317   -1.288649    0.685325
     14          8           0       -0.796742    1.355091    0.778054
     15          8           0       -2.362621   -0.338438   -0.945937
 ---------------------------------------------------------------------

 SCF Done:  E(RHF) =  -380.581877920     A.U. after    2 cycles

 The electronic state is 1-A.
 Alpha  occ. eigenvalues --  -20.58540 -20.57798 -20.56642 -20.53693 -20.52955
 Alpha  occ. eigenvalues --   -1.45735  -1.44190  -1.42515  -1.40708  -1.39767
 Alpha  occ. eigenvalues --   -0.73199  -0.71654  -0.69758  -0.68361  -0.66600
 Alpha  occ. eigenvalues --   -0.61220  -0.60215  -0.58895  -0.57417  -0.55290
 Alpha  occ. eigenvalues --   -0.50560  -0.50048  -0.49966  -0.47468  -0.46320
 Alpha virt. eigenvalues --    0.02601   0.04173   0.04976   0.06237   0.06575
 Alpha virt. eigenvalues --    0.07910   0.08889   0.09686   0.10361   0.11205
 Alpha virt. eigenvalues --    0.16316   0.17804   0.19469   0.19769   0.20842

 Mulliken charges:
               1
     1  H    0.656674
     2  H    0.427986
     3  H    0.692837
     4  H    0.404054
     5  H    0.416032
     6  H    0.876210
     7  H    0.520393
     8  H    0.643906
     9  H    0.358159
    10  H    0.770562
    11  O   -1.183913
    12  O   -1.042881
    13  O   -1.429179
    14  O   -1.163748
    15  O   -0.947092
 Sum of Mulliken charges =   0.00000

 Dipole moment (field-independent basis, Debye):
    X=              0.4577    Y=             -1.9859    Z=              2.2304  Tot=              3.0213

 Test job not archived.
 1\1\GINC-SE249\SP\RHF\Aug-CC-pVDZ\H10O5\OHZDE\08-Apr-2025\0\\#t hf aug
 -cc-pvdz iop(5/13=1,5/36=2,99/5=2) pseudo=read geom=check guess=(read,
 tcheck) scf=(maxcycle=1)\\title\\0,1\H,0,1.88802,0.662153,-0.138595\H,
 0,1.41217,1.56952,-1.25649\H,0,1.26669,-1.32966,-0.049899\H,0,2.79957,
 -1.47884,0.401545\H,0,-0.574498,-1.74102,1.57955\H,0,-0.397041,-0.2834
 26,0.889448\H,0,-1.5312,1.32624,0.14524\H,0,-0.0264017,1.80049,0.34999
 6\H,0,-3.2133,-0.570126,-0.548041\H,0,-1.78784,-0.941896,-0.296061\O,0
 ,1.43517,1.57635,-0.268002\O,0,2.24799,-1.18103,-0.384029\O,0,-0.50331

 Normal termination of Gaussian 16 at Tue Apr  8 21:03:29 2025.
