 Gaussian 16, Revision C.01,

 ----------------------------------------------------------------------
 #t hf aug-cc-pvdz symm=none int=(grid=ultrafine) guess=(read,tcheck) s
 table=(opt,rrhf)
 ----------------------------------------------------------------------
 -----
 title
 -----
 Symbolic Z-matrix:
 Charge =  0 Multiplicity = 1

 SCF Done:  E(RHF) =  -451.770551557     A.U. after   13 cycles
 Normal termination of Gaussian 16 at Tue Apr  8 21:54:30 2025.
 Gaussian 16:  ES64L-G16RevC.01  3-Jul-2019

 ----------------------------------------------------------------------
 #t hf aug-cc-pvdz iop(5/13=1,5/36=2,99/5=2) pseudo=read geom=check gue
 ss=(read,tcheck) scf=(maxcycle=1)
 ----------------------------------------------------------------------
 -----
 title
 -----
 Structure from the checkpoint file:  "ANI1ccx_764_conf43_mol1.chk"
 Charge =  0 Multiplicity = 1

                         Standard orientation:
 ---------------------------------------------------------------------
 Center     Atomic      Atomic             Coordinates (Angstroms)
 Number     Number       Type             X           Y           Z
 ---------------------------------------------------------------------
      1          6           0       -1.839930   -0.904819    0.470537
      2          6           0       -0.133127    0.862183    0.040824
      3          6           0        2.082480   -0.237337   -0.574350
      4          1           0       -2.766780    0.425822   -0.564307
      5          1           0       -2.010221   -2.054879    0.369314
      6          1           0       -2.023820   -0.339094    1.420830
      7          1           0        0.047195   -1.156700   -0.553924
      8          1           0        1.575311    1.710070   -0.165125
      9          1           0        1.679850   -1.069630   -1.174840
     10          1           0        3.019670    0.353507   -0.868793
     11          1           0        1.920909   -1.481810    0.887392
     12          7           0       -0.481523   -0.504731    0.091502
     13          7           0        1.184850    0.886415   -0.383772
     14          8           0       -2.813300   -0.536950   -0.592600
     15          8           0       -0.641192    1.864421    0.479418
     16          8           0        2.576750   -0.999875    0.497341
 ---------------------------------------------------------------------

 SCF Done:  E(RHF) =  -452.227868486     A.U. after    2 cycles

 The electronic state is 1-A.
 Alpha  occ. eigenvalues --  -20.56158 -20.55861 -20.53601 -15.55034 -15.52377
 Alpha  occ. eigenvalues --  -11.40724 -11.35811 -11.35722  -1.50013  -1.49117
 Alpha  occ. eigenvalues --   -1.44375  -1.28338  -1.21241  -0.98211  -0.94610
 Alpha  occ. eigenvalues --   -0.83504  -0.80546  -0.77294  -0.71561  -0.69263
 Alpha  occ. eigenvalues --   -0.67288  -0.66254  -0.64069  -0.61412  -0.57487
 Alpha  occ. eigenvalues --   -0.55219  -0.55107  -0.48530  -0.48201  -0.46357
 Alpha  occ. eigenvalues --   -0.45901  -0.44927
 Alpha virt. eigenvalues --    0.02819   0.03938   0.04596   0.05237   0.05401
 Alpha virt. eigenvalues --    0.05914   0.06387   0.09231   0.09562   0.11014
 Alpha virt. eigenvalues --    0.12498   0.12862   0.13643   0.14213   0.15057

 Mulliken charges:
               1
     1  C    0.246368
     2  C    0.148279
     3  C    0.434492
     4  H    0.340840
     5  H    0.167553
     6  H    0.160443
     7  H    0.154139
     8  H    0.162205
     9  H    0.156880
    10  H    0.105717
    11  H    0.292370
    12  N    0.334449
    13  N    0.603392
    14  O   -1.053368
    15  O   -1.148639
    16  O   -1.105119
 Sum of Mulliken charges =  -0.00000

 Dipole moment (field-independent basis, Debye):
    X=              1.3277    Y=             -2.1242    Z=             -0.4116  Tot=              2.5386

 Test job not archived.
 1\1\GINC-SE402\SP\RHF\Aug-CC-pVDZ\C3H8N2O3\OHZDE\08-Apr-2025\0\\#t hf
 aug-cc-pvdz iop(5/13=1,5/36=2,99/5=2) pseudo=read geom=check guess=(re
 ad,tcheck) scf=(maxcycle=1)\\title\\0,1\C,0,-1.83993,-0.90482,0.470537
 \C,0,-0.133127,0.862183,0.0408242\C,0,2.08248,-0.237337,-0.57435\H,0,-
 2.76678,0.42582,-0.564307\H,0,-2.01022,-2.05488,0.369314\H,0,-2.02382,
 -0.339095,1.42083\H,0,0.0471954,-1.1567,-0.553924\H,0,1.57531,1.71007,
 -0.165125\H,0,1.67985,-1.06963,-1.17484\H,0,3.01967,0.353508,-0.868793
 \H,0,1.92091,-1.48181,0.887392\N,0,-0.481523,-0.504732,0.0915015\N,0,1

 Normal termination of Gaussian 16 at Tue Apr  8 21:54:36 2025.
