 Gaussian 16, Revision C.01,

 ----------------------------------------------------------------------
 #t hf aug-cc-pvdz symm=none int=(grid=ultrafine) guess=(read,tcheck) s
 table=(opt,rrhf)
 ----------------------------------------------------------------------
 -----
 title
 -----
 Symbolic Z-matrix:
 Charge =  0 Multiplicity = 1

 SCF Done:  E(RHF) =  -380.215308408     A.U. after   11 cycles
 Normal termination of Gaussian 16 at Tue Apr  8 21:06:30 2025.
 Gaussian 16:  ES64L-G16RevC.01  3-Jul-2019

 ----------------------------------------------------------------------
 #t hf aug-cc-pvdz iop(5/13=1,5/36=2,99/5=2) pseudo=read geom=check gue
 ss=(read,tcheck) scf=(maxcycle=1)
 ----------------------------------------------------------------------
 -----
 title
 -----
 Structure from the checkpoint file:  "ANI1ccx_1843_conf91_mol1.chk"
 Charge =  0 Multiplicity = 1

                         Standard orientation:
 ---------------------------------------------------------------------
 Center     Atomic      Atomic             Coordinates (Angstroms)
 Number     Number       Type             X           Y           Z
 ---------------------------------------------------------------------
      1          1           0        0.961626    1.326271    0.014589
      2          1           0        0.144878    2.713610   -0.261326
      3          1           0        1.797092   -0.701566   -0.246620
      4          1           0        2.775402    0.161804    0.695484
      5          1           0        0.233177   -2.697749   -0.302182
      6          1           0       -0.171290   -1.390080    0.557620
      7          1           0       -1.785958   -0.155148    0.632708
      8          1           0       -0.749337    0.528072    1.516309
      9          1           0       -0.928849   -0.559997   -1.323531
     10          1           0       -1.182359    0.891070   -0.879439
     11          8           0        0.063466    1.782110    0.122751
     12          8           0        2.269702    0.145507   -0.148552
     13          8           0        0.396930   -1.703549   -0.216700
     14          8           0       -1.235718   -0.336586    1.431559
     15          8           0       -1.631178    0.097982   -1.239511
 ---------------------------------------------------------------------

 SCF Done:  E(RHF) =  -380.609988562     A.U. after    2 cycles

 The electronic state is 1-A.
 Alpha  occ. eigenvalues --  -20.57277 -20.57176 -20.56246 -20.54906 -20.52810
 Alpha  occ. eigenvalues --   -1.45530  -1.43683  -1.43602  -1.41691  -1.40833
 Alpha  occ. eigenvalues --   -0.73706  -0.71825  -0.71469  -0.69286  -0.68568
 Alpha  occ. eigenvalues --   -0.62399  -0.59776  -0.57938  -0.57520  -0.54292
 Alpha  occ. eigenvalues --   -0.51004  -0.50322  -0.49753  -0.48967  -0.46538
 Alpha virt. eigenvalues --    0.03161   0.03764   0.04799   0.06473   0.07690
 Alpha virt. eigenvalues --    0.08000   0.08431   0.09235   0.09759   0.10733
 Alpha virt. eigenvalues --    0.16355   0.18333   0.19356   0.20964   0.21721

 Mulliken charges:
               1
     1  H    0.767447
     2  H    0.450265
     3  H    0.680816
     4  H    0.398267
     5  H    0.454794
     6  H    0.756354
     7  H    0.619791
     8  H    0.508906
     9  H    0.494196
    10  H    0.692163
    11  O   -1.273158
    12  O   -0.994610
    13  O   -1.337407
    14  O   -1.162826
    15  O   -1.054998
 Sum of Mulliken charges =  -0.00000

 Dipole moment (field-independent basis, Debye):
    X=              2.5886    Y=              0.0918    Z=              0.9700  Tot=              2.7659

 Test job not archived.
 1\1\GINC-SE143\SP\RHF\Aug-CC-pVDZ\H10O5\OHZDE\08-Apr-2025\0\\#t hf aug
 -cc-pvdz iop(5/13=1,5/36=2,99/5=2) pseudo=read geom=check guess=(read,
 tcheck) scf=(maxcycle=1)\\title\\0,1\H,0,0.961625,1.32627,0.0145896\H,
 0,0.144878,2.71361,-0.261325\H,0,1.79709,-0.701568,-0.246619\H,0,2.775
 4,0.161801,0.695485\H,0,0.233173,-2.69775,-0.302181\H,0,-0.171293,-1.3
 9008,0.557621\H,0,-1.78596,-0.155147,0.632709\H,0,-0.749338,0.528072,1
 .51631\H,0,-0.928851,-0.559997,-1.32353\H,0,-1.18236,0.891071,-0.87943
 8\O,0,0.0634656,1.78211,0.122752\O,0,2.2697,0.145505,-0.148551\O,0,0.3

 Normal termination of Gaussian 16 at Tue Apr  8 21:06:34 2025.
