 Gaussian 16, Revision C.01,

 ----------------------------------------------------------------------
 #t hf aug-cc-pvdz symm=none int=(grid=ultrafine) guess=(read,tcheck) s
 table=(opt,rrhf)
 ----------------------------------------------------------------------
 -----
 title
 -----
 Symbolic Z-matrix:
 Charge =  0 Multiplicity = 1

 SCF Done:  E(RHF) =  -480.756537571     A.U. after   14 cycles
 Normal termination of Gaussian 16 at Tue Apr  8 21:47:35 2025.
 Gaussian 16:  ES64L-G16RevC.01  3-Jul-2019

 ----------------------------------------------------------------------
 #t hf aug-cc-pvdz iop(5/13=1,5/36=2,99/5=2) pseudo=read geom=check gue
 ss=(read,tcheck) scf=(maxcycle=1)
 ----------------------------------------------------------------------
 -----
 title
 -----
 Structure from the checkpoint file:  "ANI1ccx_558_conf2_mol1.chk"
 Charge =  0 Multiplicity = 1

                         Standard orientation:
 ---------------------------------------------------------------------
 Center     Atomic      Atomic             Coordinates (Angstroms)
 Number     Number       Type             X           Y           Z
 ---------------------------------------------------------------------
      1          6           0       -1.179850   -0.642122    0.177344
      2          6           0        1.107020   -0.715206   -0.210602
      3          1           0        2.098539    1.775349   -0.281924
      4          1           0        1.809969    1.345989    1.284230
      5          1           0       -1.020322    2.473898    0.103976
      6          1           0       -1.560551    1.671018   -1.254850
      7          1           0       -0.104278   -2.395741   -0.047304
      8          1           0        2.597750   -1.961700   -0.054275
      9          7           0        1.350129    1.612429    0.387313
     10          7           0        0.632646    0.616538   -0.341600
     11          7           0       -0.682468    0.599709    0.106858
     12          7           0       -1.469611    1.608628   -0.202694
     13          7           0       -0.017412   -1.435491   -0.044744
     14          7           0        2.325100   -0.955794   -0.060844
     15          8           0       -2.294100   -1.135872    0.192458
 ---------------------------------------------------------------------

 SCF Done:  E(RHF) =  -481.247059523     A.U. after    2 cycles

 The electronic state is 1-A.
 Alpha  occ. eigenvalues --  -20.53160 -15.60619 -15.59868 -15.55789 -15.55140
 Alpha  occ. eigenvalues --  -15.54820 -15.49165 -11.41159 -11.37748  -1.49481
 Alpha  occ. eigenvalues --   -1.44234  -1.33142  -1.28395  -1.21833  -1.14781
 Alpha  occ. eigenvalues --   -1.06480  -0.93638  -0.88408  -0.83750  -0.79487
 Alpha  occ. eigenvalues --   -0.76538  -0.75188  -0.72339  -0.71212  -0.66967
 Alpha  occ. eigenvalues --   -0.64429  -0.57229  -0.56063  -0.52183  -0.51397
 Alpha  occ. eigenvalues --   -0.49554  -0.45912  -0.44258  -0.41795
 Alpha virt. eigenvalues --    0.02610   0.04355   0.04880   0.05361   0.05651
 Alpha virt. eigenvalues --    0.06229   0.08654   0.08981   0.10840   0.11554
 Alpha virt. eigenvalues --    0.12615   0.12838   0.13262   0.14181   0.15397

 Mulliken charges:
               1
     1  C    0.772150
     2  C   -1.562857
     3  H    0.231641
     4  H    0.229236
     5  H    0.177493
     6  H    0.280231
     7  H    0.021468
     8  H    0.196170
     9  N   -0.006307
    10  N   -0.456149
    11  N   -0.282425
    12  N    0.270858
    13  N    0.525468
    14  N    0.797089
    15  O   -1.194066
 Sum of Mulliken charges =  -0.00000

 Dipole moment (field-independent basis, Debye):
    X=              2.7384    Y=              0.0481    Z=             -0.6552  Tot=              2.8162

 Test job not archived.
 1\1\GINC-SE334\SP\RHF\Aug-CC-pVDZ\C2H6N6O1\OHZDE\08-Apr-2025\0\\#t hf
 aug-cc-pvdz iop(5/13=1,5/36=2,99/5=2) pseudo=read geom=check guess=(re
 ad,tcheck) scf=(maxcycle=1)\\title\\0,1\C,0,-1.17985,-0.64212,0.177344
 \C,0,1.10702,-0.715205,-0.210602\H,0,2.09854,1.77535,-0.281924\H,0,1.8
 0997,1.34599,1.28423\H,0,-1.02032,2.4739,0.103976\H,0,-1.56055,1.67102
 ,-1.25485\H,0,-0.104278,-2.39574,-0.0473036\H,0,2.59775,-1.9617,-0.054
 2747\N,0,1.35013,1.61243,0.387313\N,0,0.632647,0.616539,-0.3416\N,0,-0
 .682467,0.59971,0.106858\N,0,-1.46961,1.60863,-0.202694\N,0,-0.0174122

 Normal termination of Gaussian 16 at Tue Apr  8 21:47:41 2025.
