 Gaussian 16, Revision C.01,

 ----------------------------------------------------------------------
 #t hf aug-cc-pvdz symm=none int=(grid=ultrafine) guess=(read,tcheck) s
 table=(opt,rrhf)
 ----------------------------------------------------------------------
 -----
 title
 -----
 Symbolic Z-matrix:
 Charge =  0 Multiplicity = 1

 SCF Done:  E(RHF) =  -489.684035323     A.U. after   14 cycles
 Normal termination of Gaussian 16 at Tue Apr  8 22:14:05 2025.
 Gaussian 16:  ES64L-G16RevC.01  3-Jul-2019

 ----------------------------------------------------------------------
 #t hf aug-cc-pvdz iop(5/13=1,5/36=2,99/5=2) pseudo=read geom=check gue
 ss=(read,tcheck) scf=(maxcycle=1)
 ----------------------------------------------------------------------
 -----
 title
 -----
 Structure from the checkpoint file:  "ANI1ccx_957_conf60_mol1.chk"
 Charge =  0 Multiplicity = 1

                         Standard orientation:
 ---------------------------------------------------------------------
 Center     Atomic      Atomic             Coordinates (Angstroms)
 Number     Number       Type             X           Y           Z
 ---------------------------------------------------------------------
      1          6           0       -0.752040    0.617670   -0.699813
      2          6           0       -1.083609   -0.797309   -0.238386
      3          6           0        0.712117    0.818317   -0.895907
      4          6           0        1.628770    0.140381    0.132211
      5          1           0       -2.313519   -1.792491    0.912752
      6          1           0        1.920100    0.192020    2.213210
      7          1           0        0.959712    0.356226   -1.841530
      8          1           0        0.994475    1.907590   -0.997865
      9          1           0        0.512852    1.088820    1.619700
     10          1           0       -1.542070    2.374199   -0.523700
     11          1           0       -2.415610    1.408189    0.287485
     12          1           0       -1.035360    0.876949   -1.786180
     13          7           0       -1.447040    1.639809    0.135669
     14          7           0        1.304640    0.479312    1.441660
     15          8           0        2.477221   -0.650609   -0.284011
     16          8           0       -0.314403   -1.725750   -0.525688
     17          8           0       -2.052219   -0.863605    0.720475
 ---------------------------------------------------------------------

 SCF Done:  E(RHF) =  -490.173807299     A.U. after    2 cycles

 The electronic state is 1-A.
 Alpha  occ. eigenvalues --  -20.62380 -20.55054 -20.50301 -15.52503 -15.51498
 Alpha  occ. eigenvalues --  -11.41756 -11.35758 -11.31394 -11.25486  -1.54860
 Alpha  occ. eigenvalues --   -1.45187  -1.43441  -1.22865  -1.20361  -1.06373
 Alpha  occ. eigenvalues --   -0.94377  -0.85211  -0.79857  -0.75457  -0.74004
 Alpha  occ. eigenvalues --   -0.71850  -0.68193  -0.66393  -0.65729  -0.63207
 Alpha  occ. eigenvalues --   -0.60729  -0.58522  -0.56373  -0.55575  -0.53707
 Alpha  occ. eigenvalues --   -0.48654  -0.45954  -0.45569  -0.42422  -0.40407
 Alpha virt. eigenvalues --    0.02348   0.03396   0.04118   0.04488   0.05012
 Alpha virt. eigenvalues --    0.06638   0.07591   0.07803   0.08704   0.11223
 Alpha virt. eigenvalues --    0.11498   0.12497   0.12774   0.14024   0.14101

 Mulliken charges:
               1
     1  C   -1.798873
     2  C    2.588818
     3  C   -0.059991
     4  C    0.555438
     5  H    0.377835
     6  H    0.110845
     7  H    0.057892
     8  H    0.266058
     9  H    0.106468
    10  H    0.342839
    11  H    0.249188
    12  H    0.375101
    13  N    0.220227
    14  N    0.627462
    15  O   -1.363531
    16  O   -1.271925
    17  O   -1.383853
 Sum of Mulliken charges =  -0.00000

 Dipole moment (field-independent basis, Debye):
    X=             -4.8993    Y=              3.0882    Z=              0.5454  Tot=              5.8170

 Test job not archived.
 1\1\GINC-SE339\SP\RHF\Aug-CC-pVDZ\C4H8N2O3\OHZDE\08-Apr-2025\0\\#t hf
 aug-cc-pvdz iop(5/13=1,5/36=2,99/5=2) pseudo=read geom=check guess=(re
 ad,tcheck) scf=(maxcycle=1)\\title\\0,1\C,0,-0.75204,0.61767,-0.699813
 \C,0,-1.08361,-0.797308,-0.238386\C,0,0.712117,0.818317,-0.895907\C,0,
 1.62877,0.140381,0.132211\H,0,-2.31352,-1.79249,0.912752\H,0,1.9201,0.
 19202,2.21321\H,0,0.959712,0.356226,-1.84153\H,0,0.994475,1.90759,-0.9
 97865\H,0,0.512852,1.08882,1.6197\H,0,-1.54207,2.3742,-0.5237\H,0,-2.4
 1561,1.40819,0.287485\H,0,-1.03536,0.876949,-1.78618\N,0,-1.44704,1.63

 Normal termination of Gaussian 16 at Tue Apr  8 22:14:13 2025.
