 Gaussian 16, Revision C.01,

 ----------------------------------------------------------------------
 #t hf aug-cc-pvdz symm=none int=(grid=ultrafine) guess=(read,tcheck) s
 table=(opt,rrhf)
 ----------------------------------------------------------------------
 -----
 title
 -----
 Symbolic Z-matrix:
 Charge =  0 Multiplicity = 1

 SCF Done:  E(RHF) =  -636.080320538     A.U. after   15 cycles
 Normal termination of Gaussian 16 at Tue Apr  8 19:50:19 2025.
 Gaussian 16:  ES64L-G16RevC.01  3-Jul-2019

 ----------------------------------------------------------------------
 #t hf aug-cc-pvdz iop(5/13=1,5/36=2,99/5=2) pseudo=read geom=check gue
 ss=(read,tcheck) scf=(maxcycle=1)
 ----------------------------------------------------------------------
 -----
 title
 -----
 Structure from the checkpoint file:  "ANI1ccx_1499_conf7_mol2.chk"
 Charge =  0 Multiplicity = 1

                         Standard orientation:
 ---------------------------------------------------------------------
 Center     Atomic      Atomic             Coordinates (Angstroms)
 Number     Number       Type             X           Y           Z
 ---------------------------------------------------------------------
      1          6           0        0.730113    1.499988   -0.025325
      2          6           0       -1.968610   -0.029710    1.102430
      3          6           0       -2.191610   -0.116912   -1.026080
      4          6           0        1.315090    0.152552    0.000846
      5          6           0        2.733870    0.025042    0.215338
      6          6           0        3.004148   -1.306625    0.084679
      7          6           0        0.847500   -1.098812   -0.210884
      8          1           0       -0.128262   -1.526921   -0.457002
      9          1           0        3.929868   -1.871786    0.127917
     10          1           0        3.350071    0.886260    0.354864
     11          1           0       -2.046760    0.050543   -2.105220
     12          1           0       -1.601920    0.320029    2.079430
     13          1           0       -1.032997    2.539140   -0.056086
     14          7           0       -0.662548    1.595140   -0.209716
     15          7           0       -1.548500    0.579485   -0.040400
     16          7           0       -2.788131   -1.007498    0.861796
     17          7           0       -2.899981   -1.087658   -0.530231
     18          8           0        1.386933    2.510907   -0.010679
     19          8           0        1.863207   -1.974243   -0.159330
 ---------------------------------------------------------------------

 SCF Done:  E(RHF) =  -636.711068150     A.U. after    2 cycles

 The electronic state is 1-A.
 Alpha  occ. eigenvalues --  -20.64231 -20.55215 -15.62871 -15.60283 -15.54529
 Alpha  occ. eigenvalues --  -15.54103 -11.40539 -11.34058 -11.33336 -11.33194
 Alpha  occ. eigenvalues --  -11.32060 -11.26944 -11.25831  -1.58950  -1.50849
 Alpha  occ. eigenvalues --   -1.43840  -1.33729  -1.17885  -1.14019  -1.13239
 Alpha  occ. eigenvalues --   -1.04562  -0.95544  -0.92008  -0.90544  -0.84501
 Alpha  occ. eigenvalues --   -0.83828  -0.82068  -0.77712  -0.72135  -0.70582
 Alpha  occ. eigenvalues --   -0.67898  -0.67708  -0.66851  -0.64720  -0.63396
 Alpha  occ. eigenvalues --   -0.62256  -0.59732  -0.56867  -0.55249  -0.52235
 Alpha  occ. eigenvalues --   -0.50752  -0.47708  -0.46784  -0.42998  -0.41984
 Alpha  occ. eigenvalues --   -0.35889
 Alpha virt. eigenvalues --    0.02786   0.03258   0.04106   0.04621   0.04850
 Alpha virt. eigenvalues --    0.06174   0.06977   0.07952   0.08211   0.08613
 Alpha virt. eigenvalues --    0.09749   0.10354   0.10668   0.11163   0.11387

 Mulliken charges:
               1
     1  C    0.175388
     2  C   -0.501600
     3  C   -0.520588
     4  C    1.167681
     5  C   -0.131218
     6  C    0.881923
     7  C    0.783313
     8  H   -0.045665
     9  H   -0.112074
    10  H   -0.313919
    11  H   -0.090975
    12  H   -0.126627
    13  H    0.183520
    14  N   -0.316034
    15  N    1.375576
    16  N    0.225305
    17  N    0.210586
    18  O   -1.384802
    19  O   -1.459786
 Sum of Mulliken charges =   0.00000

 Dipole moment (field-independent basis, Debye):
    X=              2.5579    Y=              1.9883    Z=             -0.2734  Tot=              3.2513

 Test job not archived.
 1\1\GINC-SE366\SP\RHF\Aug-CC-pVDZ\C7H6N4O2\OHZDE\08-Apr-2025\0\\#t hf
 aug-cc-pvdz iop(5/13=1,5/36=2,99/5=2) pseudo=read geom=check guess=(re
 ad,tcheck) scf=(maxcycle=1)\\title\\0,1\C,0,0.730111,1.49999,-0.025325
 2\C,0,-1.96861,-0.0297117,1.10243\C,0,-2.19161,-0.116914,-1.02608\C,0,
 1.31509,0.152555,0.00084636\C,0,2.73387,0.025046,0.215338\C,0,3.00415,
 -1.30662,0.0846794\C,0,0.847502,-1.09881,-0.210884\H,0,-0.12826,-1.526
 92,-0.457002\H,0,3.92987,-1.87178,0.127917\H,0,3.35007,0.886265,0.3548
 64\H,0,-2.04676,0.0505415,-2.10522\H,0,-1.60192,0.320028,2.07943\H,0,-

 Normal termination of Gaussian 16 at Tue Apr  8 19:50:31 2025.
