 Gaussian 16, Revision C.01,

 ----------------------------------------------------------------------
 #t hf aug-cc-pvdz symm=none int=(grid=ultrafine) guess=(read,tcheck) s
 table=(opt,rrhf)
 ----------------------------------------------------------------------
 -----
 title
 -----
 Symbolic Z-matrix:
 Charge =  0 Multiplicity = 1

 SCF Done:  E(RHF) =  -336.775799351     A.U. after   13 cycles
 Normal termination of Gaussian 16 at Tue Apr  8 21:44:50 2025.
 Gaussian 16:  ES64L-G16RevC.01  3-Jul-2019

 ----------------------------------------------------------------------
 #t hf aug-cc-pvdz iop(5/13=1,5/36=2,99/5=2) pseudo=read geom=check gue
 ss=(read,tcheck) scf=(maxcycle=1)
 ----------------------------------------------------------------------
 -----
 title
 -----
 Structure from the checkpoint file:  "ANI1ccx_515_conf4_mol1.chk"
 Charge =  0 Multiplicity = 1

                         Standard orientation:
 ---------------------------------------------------------------------
 Center     Atomic      Atomic             Coordinates (Angstroms)
 Number     Number       Type             X           Y           Z
 ---------------------------------------------------------------------
      1          6           0       -0.754545    0.251016    0.019238
      2          6           0        0.706502   -0.217636   -0.003889
      3          1           0       -2.575171   -0.739210   -0.001183
      4          1           0       -1.056683   -1.723306    0.022168
      5          1           0        2.589292    0.633965    0.082355
      6          1           0        1.244594    1.768479    0.147873
      7          7           0       -1.555131   -0.835731   -0.045918
      8          7           0        1.587652    0.800259   -0.078454
      9          8           0       -1.038746    1.432773    0.026682
     10          8           0        1.021068   -1.419261    0.039230
 ---------------------------------------------------------------------

 SCF Done:  E(RHF) =  -337.107218912     A.U. after    2 cycles

 The electronic state is 1-A.
 Alpha  occ. eigenvalues --  -20.54201 -20.53937 -15.55107 -15.54711 -11.38674
 Alpha  occ. eigenvalues --  -11.38644  -1.49118  -1.46794  -1.24408  -1.23720
 Alpha  occ. eigenvalues --   -0.94799  -0.83646  -0.80208  -0.75446  -0.69551
 Alpha  occ. eigenvalues --   -0.67284  -0.64137  -0.61439  -0.57407  -0.51121
 Alpha  occ. eigenvalues --   -0.46485  -0.44724  -0.42566
 Alpha virt. eigenvalues --    0.03060   0.03799   0.06400   0.06537   0.08012
 Alpha virt. eigenvalues --    0.10721   0.11015   0.11492   0.11627   0.11899
 Alpha virt. eigenvalues --    0.13537   0.15889   0.16437   0.16901   0.19251

 Mulliken charges:
               1
     1  C    0.405489
     2  C    0.422099
     3  H    0.103632
     4  H    0.119845
     5  H    0.117314
     6  H    0.150892
     7  N    0.656604
     8  N    0.629399
     9  O   -1.261149
    10  O   -1.344127
 Sum of Mulliken charges =  -0.00000

 Dipole moment (field-independent basis, Debye):
    X=              0.0224    Y=              0.1419    Z=              0.6710  Tot=              0.6862

 Test job not archived.
 1\1\GINC-SE127\SP\RHF\Aug-CC-pVDZ\C2H4N2O2\OHZDE\08-Apr-2025\0\\#t hf
 aug-cc-pvdz iop(5/13=1,5/36=2,99/5=2) pseudo=read geom=check guess=(re
 ad,tcheck) scf=(maxcycle=1)\\title\\0,1\C,0,-0.754546,0.251013,0.01923
 79\C,0,0.706502,-0.217636,-0.00388939\H,0,-2.57517,-0.739217,-0.001183
 19\H,0,-1.05668,-1.72331,0.0221682\H,0,2.58929,0.633969,0.0823553\H,0,
 1.24459,1.76848,0.147873\N,0,-1.55513,-0.835736,-0.0459182\N,0,1.58765
 ,0.800261,-0.0784544\O,0,-1.03875,1.43277,0.0266825\O,0,1.02107,-1.419
 26,0.0392305\\Version=ES64L-G16RevC.01\State=1-A\HF=-337.1072189\RMSD=

 Normal termination of Gaussian 16 at Tue Apr  8 21:44:53 2025.
