 Gaussian 16, Revision C.01,

 ----------------------------------------------------------------------
 #t hf aug-cc-pvdz symm=none int=(grid=ultrafine) guess=(read,tcheck) s
 table=(opt,rrhf)
 ----------------------------------------------------------------------
 -----
 title
 -----
 Symbolic Z-matrix:
 Charge =  0 Multiplicity = 1

 SCF Done:  E(RHF) =  -681.666622212     A.U. after   14 cycles
 Normal termination of Gaussian 16 at Tue Apr  8 19:47:39 2025.
 Gaussian 16:  ES64L-G16RevC.01  3-Jul-2019

 ----------------------------------------------------------------------
 #t hf aug-cc-pvdz iop(5/13=1,5/36=2,99/5=2) pseudo=read geom=check gue
 ss=(read,tcheck) scf=(maxcycle=1)
 ----------------------------------------------------------------------
 -----
 title
 -----
 Structure from the checkpoint file:  "ANI1ccx_1434_conf5_mol1.chk"
 Charge =  0 Multiplicity = 1

                         Standard orientation:
 ---------------------------------------------------------------------
 Center     Atomic      Atomic             Coordinates (Angstroms)
 Number     Number       Type             X           Y           Z
 ---------------------------------------------------------------------
      1          6           0        1.933889    0.684273    0.091162
      2          6           0        0.494400    1.098690    0.026294
      3          6           0        2.214489   -0.664158   -0.645077
      4          6           0        3.736829   -0.868561   -0.687108
      5          6           0       -1.879371    0.550327    0.143538
      6          6           0       -2.680741   -0.731500    0.245238
      7          6           0       -2.393101    1.400590   -1.041480
      8          1           0       -1.569580   -1.747960   -1.044950
      9          1           0       -3.468691    1.388219   -0.964363
     10          1           0       -2.012081    2.458040   -1.027310
     11          1           0       -2.186991    0.928642   -2.022660
     12          1           0       -2.190581    1.140150    1.059090
     13          1           0       -0.296585   -0.729789    0.077270
     14          1           0        3.980990   -1.903179   -0.857701
     15          1           0        4.158219   -0.210570   -1.439770
     16          1           0        4.156749   -0.552687    0.279431
     17          1           0        1.917160   -1.620719    0.914053
     18          1           0        1.806289   -0.572024   -1.715980
     19          1           0        2.499839    1.527591   -0.365507
     20          1           0        3.155259    1.197081    1.614750
     21          1           0        1.813699    0.712923    2.270420
     22          7           0        2.405429    0.578549    1.470750
     23          7           0       -0.501818    0.217564    0.149512
     24          8           0        0.190583    2.272580   -0.185465
     25          8           0        1.509870   -1.632029    0.053553
     26          8           0       -3.773911   -0.787249    0.774275
     27          8           0       -2.132460   -1.904110   -0.256618
 ---------------------------------------------------------------------

 SCF Done:  E(RHF) =  -682.363058688     A.U. after    2 cycles

 The electronic state is 1-A.
 Alpha  occ. eigenvalues --  -20.60841 -20.57346 -20.54532 -20.51123 -15.53259
 Alpha  occ. eigenvalues --  -15.51414 -11.40521 -11.36253 -11.31830 -11.30793
 Alpha  occ. eigenvalues --  -11.29729 -11.24272 -11.24254  -1.53667  -1.50023
 Alpha  occ. eigenvalues --   -1.46358  -1.45032  -1.27582  -1.22173  -1.07609
 Alpha  occ. eigenvalues --   -1.05125  -0.97678  -0.92772  -0.85674  -0.84137
 Alpha  occ. eigenvalues --   -0.83100  -0.79314  -0.74213  -0.73529  -0.70208
 Alpha  occ. eigenvalues --   -0.69226  -0.66028  -0.65621  -0.64697  -0.63121
 Alpha  occ. eigenvalues --   -0.61724  -0.61503  -0.59356  -0.59016  -0.56569
 Alpha  occ. eigenvalues --   -0.55812  -0.54312  -0.53773  -0.52304  -0.50295
 Alpha  occ. eigenvalues --   -0.48717  -0.47615  -0.46279  -0.45025  -0.41988
 Alpha  occ. eigenvalues --   -0.41199
 Alpha virt. eigenvalues --    0.02621   0.02917   0.03516   0.03763   0.04838
 Alpha virt. eigenvalues --    0.05002   0.05457   0.05959   0.06317   0.07374
 Alpha virt. eigenvalues --    0.07923   0.08524   0.09431   0.10100   0.10541

 Mulliken charges:
               1
     1  C   -0.650419
     2  C    0.180981
     3  C    0.769176
     4  C   -0.308296
     5  C   -1.728880
     6  C    2.547896
     7  C   -0.243529
     8  H    0.413890
     9  H    0.088076
    10  H    0.295911
    11  H    0.196975
    12  H    0.141921
    13  H    0.398228
    14  H    0.150010
    15  H    0.198846
    16  H    0.208654
    17  H    0.382011
    18  H    0.184249
    19  H    0.055993
    20  H    0.252245
    21  H    0.090778
    22  N    0.433376
    23  N    1.553699
    24  O   -1.423358
    25  O   -1.479573
    26  O   -1.313572
    27  O   -1.395290
 Sum of Mulliken charges =  -0.00000

 Dipole moment (field-independent basis, Debye):
    X=              5.2741    Y=              0.2442    Z=             -1.0602  Tot=              5.3852

 Test job not archived.
 1\1\GINC-SE099\SP\RHF\Aug-CC-pVDZ\C7H14N2O4\OHZDE\08-Apr-2025\0\\#t hf
  aug-cc-pvdz iop(5/13=1,5/36=2,99/5=2) pseudo=read geom=check guess=(r
 ead,tcheck) scf=(maxcycle=1)\\title\\0,1\C,0,1.93389,0.684272,0.091161
 3\C,0,0.494401,1.09869,0.0262936\C,0,2.21449,-0.664159,-0.645077\C,0,3
 .73683,-0.868562,-0.687108\C,0,-1.87937,0.550327,0.143538\C,0,-2.68074
 ,-0.731499,0.245238\C,0,-2.3931,1.40059,-1.04148\H,0,-1.56958,-1.74796
 ,-1.04495\H,0,-3.46869,1.38822,-0.964363\H,0,-2.01208,2.45804,-1.02731
 \H,0,-2.18699,0.928642,-2.02266\H,0,-2.19058,1.14015,1.05909\H,0,-0.29

 Normal termination of Gaussian 16 at Tue Apr  8 19:48:05 2025.
