 Gaussian 16, Revision C.01,

 ----------------------------------------------------------------------
 #t hf aug-cc-pvdz symm=none int=(grid=ultrafine) guess=(read,tcheck) s
 table=(opt,rrhf)
 ----------------------------------------------------------------------
 -----
 title
 -----
 Symbolic Z-matrix:
 Charge =  0 Multiplicity = 1

 SCF Done:  E(RHF) =  -943.036912335     A.U. after   15 cycles
 Normal termination of Gaussian 16 at Tue Apr  8 20:13:47 2025.
 Gaussian 16:  ES64L-G16RevC.01  3-Jul-2019

 ----------------------------------------------------------------------
 #t hf aug-cc-pvdz iop(5/13=1,5/36=2,99/5=2) pseudo=read geom=check gue
 ss=(read,tcheck) scf=(maxcycle=1)
 ----------------------------------------------------------------------
 -----
 title
 -----
 Structure from the checkpoint file:  "ANI1ccx_1569_conf25_mol1.chk"
 Charge =  0 Multiplicity = 1

                         Standard orientation:
 ---------------------------------------------------------------------
 Center     Atomic      Atomic             Coordinates (Angstroms)
 Number     Number       Type             X           Y           Z
 ---------------------------------------------------------------------
      1          6           0        1.592269   -1.844251    0.306215
      2          6           0        0.158945   -1.330670   -0.026447
      3          6           0        2.671680   -0.898615   -0.166370
      4          6           0        2.344080    0.481533    0.132801
      5          6           0       -1.565720    0.253200    0.569422
      6          6           0       -2.762760   -0.666773    0.252917
      7          6           0       -1.445679    1.302360   -0.523713
      8          6           0       -0.370451    2.300650   -0.291008
      9          1           0       -1.844061   -1.699370   -1.077940
     10          1           0        0.694913    3.626999   -0.952448
     11          1           0       -2.407839    1.884581   -0.482295
     12          1           0       -1.334410    0.849439   -1.534450
     13          1           0       -1.721510    0.754941    1.515260
     14          1           0        0.289869   -0.101109    1.607400
     15          1           0        2.824910   -0.980064   -1.262900
     16          1           0        3.661940   -1.202662    0.287543
     17          1           0        1.726479   -1.903621    1.379420
     18          1           0        1.309299   -3.256491   -1.117600
     19          1           0        1.290109   -3.816441    0.373561
     20          1           0        1.804321    1.729429    1.633760
     21          7           0        1.769319   -3.183941   -0.222288
     22          7           0       -0.348169   -0.458310    0.812119
     23          8           0        0.034203    2.998240   -1.287770
     24          8           0       -0.320512   -1.534910   -1.200870
     25          8           0        2.108511    1.311299   -0.797588
     26          8           0        2.115870    0.786763    1.486930
     27          8           0       -3.761770   -0.457241    0.919934
     28          8           0        0.066207    2.503640    0.836577
     29          8           0       -2.739540   -1.604599   -0.709846
 ---------------------------------------------------------------------

 SCF Done:  E(RHF) =  -943.969717076     A.U. after    2 cycles

 The electronic state is 1-A.
 Alpha  occ. eigenvalues --  -20.62874 -20.62165 -20.57524 -20.56712 -20.55072
 Alpha  occ. eigenvalues --  -20.54598 -20.52802 -15.58080 -15.51396 -11.43582
 Alpha  occ. eigenvalues --  -11.41554 -11.40236 -11.39536 -11.32180 -11.32163
 Alpha  occ. eigenvalues --  -11.28888 -11.28317  -1.59410  -1.54069  -1.52865
 Alpha  occ. eigenvalues --   -1.47797  -1.46574  -1.44984  -1.43742  -1.30750
 Alpha  occ. eigenvalues --   -1.23493  -1.11834  -1.09711  -1.00580  -0.94248
 Alpha  occ. eigenvalues --   -0.88964  -0.85423  -0.84372  -0.81906  -0.78414
 Alpha  occ. eigenvalues --   -0.78084  -0.74410  -0.73853  -0.72237  -0.71866
 Alpha  occ. eigenvalues --   -0.70340  -0.69432  -0.67850  -0.66110  -0.65538
 Alpha  occ. eigenvalues --   -0.64843  -0.63451  -0.62774  -0.60293  -0.59783
 Alpha  occ. eigenvalues --   -0.59540  -0.58119  -0.57761  -0.56240  -0.54978
 Alpha  occ. eigenvalues --   -0.54548  -0.49240  -0.49158  -0.48941  -0.47143
 Alpha  occ. eigenvalues --   -0.47045  -0.46068  -0.45368  -0.44838  -0.42654
 Alpha virt. eigenvalues --    0.02538   0.03271   0.03667   0.03834   0.04790
 Alpha virt. eigenvalues --    0.05108   0.05397   0.05743   0.07120   0.07525
 Alpha virt. eigenvalues --    0.08496   0.08930   0.09261   0.09863   0.10133

 Mulliken charges:
               1
     1  C   -2.188631
     2  C    0.543097
     3  C   -0.243241
     4  C    2.730917
     5  C   -1.082815
     6  C    2.507136
     7  C   -0.944008
     8  C    2.870804
     9  H    0.633139
    10  H    0.292890
    11  H    0.425748
    12  H    0.182282
    13  H   -0.053255
    14  H    0.522087
    15  H    0.225133
    16  H    0.373151
    17  H    0.039094
    18  H    0.271603
    19  H    0.229475
    20  H    0.561113
    21  N    0.875450
    22  N    1.662670
    23  O   -1.373301
    24  O   -1.702122
    25  O   -1.430162
    26  O   -1.650066
    27  O   -1.377798
    28  O   -1.534233
    29  O   -1.366158
 Sum of Mulliken charges =  -0.00000

 Dipole moment (field-independent basis, Debye):
    X=              5.1988    Y=              1.2212    Z=              1.4559  Tot=              5.5352

 Test job not archived.
 1\1\GINC-SE079\SP\RHF\Aug-CC-pVDZ\C8H12N2O7\OHZDE\08-Apr-2025\0\\#t hf
  aug-cc-pvdz iop(5/13=1,5/36=2,99/5=2) pseudo=read geom=check guess=(r
 ead,tcheck) scf=(maxcycle=1)\\title\\0,1\C,0,1.59227,-1.84425,0.306215
 \C,0,0.158945,-1.33067,-0.0264468\C,0,2.67168,-0.898614,-0.16637\C,0,2
 .34408,0.481534,0.132801\C,0,-1.56572,0.2532,0.569422\C,0,-2.76276,-0.
 666774,0.252917\C,0,-1.44568,1.30236,-0.523713\C,0,-0.370452,2.30065,-
 0.291008\H,0,-1.84406,-1.69937,-1.07794\H,0,0.694912,3.627,-0.952448\H
 ,0,-2.40784,1.88458,-0.482295\H,0,-1.33441,0.849439,-1.53445\H,0,-1.72

 Normal termination of Gaussian 16 at Tue Apr  8 20:14:30 2025.
