 Gaussian 16, Revision C.01,

 ----------------------------------------------------------------------
 #t hf aug-cc-pvdz symm=none int=(grid=ultrafine) guess=(read,tcheck) s
 table=(opt,rrhf)
 ----------------------------------------------------------------------
 -----
 title
 -----
 Symbolic Z-matrix:
 Charge =  0 Multiplicity = 1

 SCF Done:  E(RHF) =  -538.506569086     A.U. after   16 cycles
 Normal termination of Gaussian 16 at Tue Apr  8 21:52:53 2025.
 Gaussian 16:  ES64L-G16RevC.01  3-Jul-2019

 ----------------------------------------------------------------------
 #t hf aug-cc-pvdz iop(5/13=1,5/36=2,99/5=2) pseudo=read geom=check gue
 ss=(read,tcheck) scf=(maxcycle=1)
 ----------------------------------------------------------------------
 -----
 title
 -----
 Structure from the checkpoint file:  "ANI1ccx_716_conf3_mol1.chk"
 Charge =  0 Multiplicity = 1

                         Standard orientation:
 ---------------------------------------------------------------------
 Center     Atomic      Atomic             Coordinates (Angstroms)
 Number     Number       Type             X           Y           Z
 ---------------------------------------------------------------------
      1          6           0       -0.742434    0.449828    0.533068
      2          6           0       -1.764461   -0.463995   -0.136404
      3          6           0        0.690865    0.104188    0.297052
      4          1           0       -2.106470    1.921781    0.493360
      5          1           0       -1.040400    2.039480   -0.742877
      6          1           0       -0.956656    0.283824    1.623440
      7          1           0       -0.717308   -1.995130    0.357712
      8          1           0        1.436970    1.991990   -0.275406
      9          7           0       -1.064250    1.856700    0.267074
     10          7           0        1.260969   -1.095730    0.309030
     11          7           0        2.540339   -0.872552   -0.114748
     12          7           0        2.717890    0.343936   -0.409411
     13          7           0        1.549380    1.001700   -0.171004
     14          8           0       -1.581691   -1.763019   -0.010569
     15          8           0       -2.762090    0.085463   -0.587571
 ---------------------------------------------------------------------

 SCF Done:  E(RHF) =  -539.040249894     A.U. after    2 cycles

 The electronic state is 1-A.
 Alpha  occ. eigenvalues --  -20.62669 -20.55786 -15.63320 -15.61620 -15.60715
 Alpha  occ. eigenvalues --  -15.56416 -15.53961 -11.42469 -11.36889 -11.34236
 Alpha  occ. eigenvalues --   -1.57390  -1.50656  -1.47609  -1.29273  -1.25695
 Alpha  occ. eigenvalues --   -1.21795  -1.03974  -0.97089  -0.94614  -0.88083
 Alpha  occ. eigenvalues --   -0.84239  -0.78697  -0.76086  -0.73059  -0.70235
 Alpha  occ. eigenvalues --   -0.67084  -0.66121  -0.63890  -0.62256  -0.58983
 Alpha  occ. eigenvalues --   -0.55494  -0.54748  -0.52970  -0.49951  -0.49601
 Alpha  occ. eigenvalues --   -0.48856  -0.45333
 Alpha virt. eigenvalues --    0.02314   0.03699   0.04356   0.05893   0.06129
 Alpha virt. eigenvalues --    0.07293   0.07749   0.08842   0.09921   0.10261
 Alpha virt. eigenvalues --    0.11668   0.12034   0.12865   0.13354   0.13790

 Mulliken charges:
               1
     1  C   -1.177191
     2  C    2.427319
     3  C   -1.664043
     4  H    0.322463
     5  H    0.182444
     6  H    0.350370
     7  H    0.511710
     8  H    0.126109
     9  N    0.566367
    10  N    0.637084
    11  N   -0.109839
    12  N   -0.185951
    13  N    0.609425
    14  O   -1.350886
    15  O   -1.245380
 Sum of Mulliken charges =   0.00000

 Dipole moment (field-independent basis, Debye):
    X=             -0.8751    Y=              3.1394    Z=              1.3852  Tot=              3.5413

 Test job not archived.
 1\1\GINC-SE044\SP\RHF\Aug-CC-pVDZ\C3H5N5O2\OHZDE\08-Apr-2025\0\\#t hf
 aug-cc-pvdz iop(5/13=1,5/36=2,99/5=2) pseudo=read geom=check guess=(re
 ad,tcheck) scf=(maxcycle=1)\\title\\0,1\C,0,-0.742434,0.449828,0.53306
 8\C,0,-1.76446,-0.463996,-0.136404\C,0,0.690865,0.104188,0.297052\H,0,
 -2.10647,1.92178,0.49336\H,0,-1.0404,2.03948,-0.742877\H,0,-0.956656,0
 .283824,1.62344\H,0,-0.717307,-1.99513,0.357712\H,0,1.43697,1.99199,-0
 .275406\N,0,-1.06425,1.8567,0.267074\N,0,1.26097,-1.09573,0.30903\N,0,
 2.54034,-0.872551,-0.114748\N,0,2.71789,0.343937,-0.409411\N,0,1.54938

 Normal termination of Gaussian 16 at Tue Apr  8 21:53:00 2025.
