 Gaussian 16, Revision C.01,

 ----------------------------------------------------------------------
 #t hf aug-cc-pvdz symm=none int=(grid=ultrafine) guess=(read,tcheck) s
 table=(opt,rrhf)
 ----------------------------------------------------------------------
 -----
 title
 -----
 Symbolic Z-matrix:
 Charge =  0 Multiplicity = 1

 SCF Done:  E(RHF) =  -689.345842286     A.U. after   15 cycles
 Normal termination of Gaussian 16 at Tue Apr  8 21:54:37 2025.
 Gaussian 16:  ES64L-G16RevC.01  3-Jul-2019

 ----------------------------------------------------------------------
 #t hf aug-cc-pvdz iop(5/13=1,5/36=2,99/5=2) pseudo=read geom=check gue
 ss=(read,tcheck) scf=(maxcycle=1)
 ----------------------------------------------------------------------
 -----
 title
 -----
 Structure from the checkpoint file:  "ANI1ccx_756_conf5_mol1.chk"
 Charge =  0 Multiplicity = 1

                         Standard orientation:
 ---------------------------------------------------------------------
 Center     Atomic      Atomic             Coordinates (Angstroms)
 Number     Number       Type             X           Y           Z
 ---------------------------------------------------------------------
      1          6           0       -2.762121   -0.208679   -0.195067
      2          6           0        0.022969    1.413460    0.491742
      3          6           0        1.954229    0.119402    0.079428
      4          1           0        3.738399    0.946024    0.420567
      5          1           0       -0.511646    1.868740    1.351940
      6          1           0       -0.381694    0.339903   -1.163240
      7          1           0        3.828279   -1.525411   -0.550451
      8          1           0       -2.472091   -2.085080    0.610904
      9          1           0       -0.159633   -1.302320    0.636608
     10          1           0       -2.691941    1.652500   -0.882918
     11          7           0       -1.963901   -1.252220    0.290761
     12          7           0       -2.106131    0.999650   -0.358052
     13          7           0       -0.772582    1.074900   -0.580477
     14          7           0        1.294779    1.164410    0.659728
     15          7           0        3.304669    0.027851    0.353723
     16          8           0        1.461909   -0.800278   -0.583597
     17          8           0       -0.925087   -0.989915    1.106090
     18          8           0       -3.918051   -0.349535   -0.473157
     19          8           0        4.013979   -0.602968   -0.704308
 ---------------------------------------------------------------------

 SCF Done:  E(RHF) =  -690.030791790     A.U. after    2 cycles

 The electronic state is 1-A.
 Alpha  occ. eigenvalues --  -20.60835 -20.59903 -20.53517 -20.53446 -15.60006
 Alpha  occ. eigenvalues --  -15.58962 -15.58550 -15.58509 -15.51380 -11.41154
 Alpha  occ. eigenvalues --  -11.40418 -11.39449  -1.56101  -1.52412  -1.50288
 Alpha  occ. eigenvalues --   -1.47117  -1.38673  -1.27261  -1.19641  -1.17206
 Alpha  occ. eigenvalues --   -1.13779  -0.96235  -0.91504  -0.86893  -0.84127
 Alpha  occ. eigenvalues --   -0.81848  -0.78934  -0.75064  -0.72418  -0.71673
 Alpha  occ. eigenvalues --   -0.69701  -0.68154  -0.66624  -0.65755  -0.62781
 Alpha  occ. eigenvalues --   -0.61246  -0.59900  -0.53661  -0.52893  -0.52387
 Alpha  occ. eigenvalues --   -0.48889  -0.47452  -0.45848  -0.45511  -0.44547
 Alpha  occ. eigenvalues --   -0.44054
 Alpha virt. eigenvalues --    0.03233   0.04354   0.04645   0.04969   0.05267
 Alpha virt. eigenvalues --    0.05610   0.06243   0.07653   0.09151   0.09250
 Alpha virt. eigenvalues --    0.10113   0.11566   0.12287   0.13651   0.13687

 Mulliken charges:
               1
     1  C    0.327655
     2  C   -1.067540
     3  C   -0.039119
     4  H    0.209622
     5  H   -0.038313
     6  H    0.209191
     7  H    0.304855
     8  H    0.172764
     9  H    0.418133
    10  H    0.214496
    11  N    1.137698
    12  N    0.145231
    13  N    0.404071
    14  N    1.009941
    15  N    1.198679
    16  O   -1.159722
    17  O   -1.260818
    18  O   -1.157977
    19  O   -1.028847
 Sum of Mulliken charges =  -0.00000

 Dipole moment (field-independent basis, Debye):
    X=              0.4431    Y=              0.9943    Z=              0.2907  Tot=              1.1267

 Test job not archived.
 1\1\GINC-SE453\SP\RHF\Aug-CC-pVDZ\C3H7N5O4\OHZDE\08-Apr-2025\0\\#t hf
 aug-cc-pvdz iop(5/13=1,5/36=2,99/5=2) pseudo=read geom=check guess=(re
 ad,tcheck) scf=(maxcycle=1)\\title\\0,1\C,0,-2.76212,-0.208679,-0.1950
 67\C,0,0.0229693,1.41346,0.491742\C,0,1.95423,0.119403,0.0794285\H,0,3
 .7384,0.946025,0.420567\H,0,-0.511645,1.86874,1.35194\H,0,-0.381693,0.
 339903,-1.16324\H,0,3.82828,-1.52541,-0.550451\H,0,-2.47209,-2.08508,0
 .610904\H,0,-0.159632,-1.30232,0.636608\H,0,-2.69194,1.6525,-0.882918\
 N,0,-1.9639,-1.25222,0.290761\N,0,-2.10613,0.99965,-0.358052\N,0,-0.77

 Normal termination of Gaussian 16 at Tue Apr  8 21:54:49 2025.
