 Gaussian 16, Revision C.01,

 ----------------------------------------------------------------------
 #t hf aug-cc-pvdz symm=none int=(grid=ultrafine) guess=(read,tcheck) s
 table=(opt,rrhf)
 ----------------------------------------------------------------------
 -----
 title
 -----
 Symbolic Z-matrix:
 Charge =  0 Multiplicity = 1

 SCF Done:  E(RHF) =  -369.546574503     A.U. after   16 cycles
 Normal termination of Gaussian 16 at Tue Apr  8 21:42:48 2025.
 Gaussian 16:  ES64L-G16RevC.01  3-Jul-2019

 ----------------------------------------------------------------------
 #t hf aug-cc-pvdz iop(5/13=1,5/36=2,99/5=2) pseudo=read geom=check gue
 ss=(read,tcheck) scf=(maxcycle=1)
 ----------------------------------------------------------------------
 -----
 title
 -----
 Structure from the checkpoint file:  "ANI1ccx_487_conf5_mol2.chk"
 Charge =  0 Multiplicity = 1

                         Standard orientation:
 ---------------------------------------------------------------------
 Center     Atomic      Atomic             Coordinates (Angstroms)
 Number     Number       Type             X           Y           Z
 ---------------------------------------------------------------------
      1          6           0        1.013719    0.088906    0.003214
      2          6           0       -1.027922    1.110969    0.002387
      3          1           0       -1.671573    1.986109    0.040082
      4          1           0        0.693865   -1.977300   -0.008290
      5          7           0        0.249539    1.250890    0.013606
      6          7           0       -1.757861   -0.075997   -0.029946
      7          7           0       -1.107261   -1.160341   -0.001469
      8          7           0        0.228894   -1.084610    0.033512
      9          8           0        2.221219    0.035293   -0.021914
 ---------------------------------------------------------------------

 SCF Done:  E(RHF) =  -369.907366205     A.U. after    2 cycles

 The electronic state is 1-A.
 Alpha  occ. eigenvalues --  -20.54736 -15.68234 -15.62894 -15.59073 -15.55354
 Alpha  occ. eigenvalues --  -11.42750 -11.37734  -1.50988  -1.47029  -1.29777
 Alpha  occ. eigenvalues --   -1.28633  -1.05794  -1.00397  -0.88541  -0.84386
 Alpha  occ. eigenvalues --   -0.75128  -0.73386  -0.66869  -0.64886  -0.59880
 Alpha  occ. eigenvalues --   -0.58723  -0.55618  -0.51718  -0.46872  -0.44879
 Alpha virt. eigenvalues --   -0.01337   0.02495   0.05023   0.07750   0.07966
 Alpha virt. eigenvalues --    0.08893   0.09805   0.10004   0.10769   0.11264
 Alpha virt. eigenvalues --    0.14237   0.14409   0.15926   0.16300   0.17403

 Mulliken charges:
               1
     1  C    0.516292
     2  C   -0.339392
     3  H    0.043276
     4  H    0.126849
     5  N    0.557603
     6  N    0.136324
     7  N   -0.308205
     8  N    0.356858
     9  O   -1.089607
 Sum of Mulliken charges =  -0.00000

 Dipole moment (field-independent basis, Debye):
    X=             -2.1043    Y=             -0.9596    Z=              0.0245  Tot=              2.3129

 Test job not archived.
 1\1\GINC-SE250\SP\RHF\Aug-CC-pVDZ\C2H2N4O1\OHZDE\08-Apr-2025\0\\#t hf
 aug-cc-pvdz iop(5/13=1,5/36=2,99/5=2) pseudo=read geom=check guess=(re
 ad,tcheck) scf=(maxcycle=1)\\title\\0,1\C,0,1.01372,0.088906,0.0032138
 4\C,0,-1.02792,1.11097,0.00238678\H,0,-1.67157,1.98611,0.0400816\H,0,0
 .693865,-1.9773,-0.00828978\N,0,0.249541,1.25089,0.0136058\N,0,-1.7578
 6,-0.075996,-0.029946\N,0,-1.10726,-1.16034,-0.00146934\N,0,0.228895,-
 1.08461,0.0335123\O,0,2.22122,0.0352917,-0.0219144\\Version=ES64L-G16R
 evC.01\State=1-A\HF=-369.9073662\RMSD=3.620e-02\Dipole=-0.8278867,-0.3

 Normal termination of Gaussian 16 at Tue Apr  8 21:42:51 2025.
