 Gaussian 16, Revision C.01,

 ----------------------------------------------------------------------
 #t hf aug-cc-pvdz symm=none int=(grid=ultrafine) guess=(read,tcheck) s
 table=(opt,rrhf)
 ----------------------------------------------------------------------
 -----
 title
 -----
 Symbolic Z-matrix:
 Charge =  0 Multiplicity = 1

 SCF Done:  E(RHF) =  -331.681304752     A.U. after   14 cycles
 Normal termination of Gaussian 16 at Tue Apr  8 21:32:37 2025.
 Gaussian 16:  ES64L-G16RevC.01  3-Jul-2019

 ----------------------------------------------------------------------
 #t hf aug-cc-pvdz iop(5/13=1,5/36=2,99/5=2) pseudo=read geom=check gue
 ss=(read,tcheck) scf=(maxcycle=1)
 ----------------------------------------------------------------------
 -----
 title
 -----
 Structure from the checkpoint file:  "ANI1ccx_378_conf2_mol1.chk"
 Charge =  0 Multiplicity = 1

                         Standard orientation:
 ---------------------------------------------------------------------
 Center     Atomic      Atomic             Coordinates (Angstroms)
 Number     Number       Type             X           Y           Z
 ---------------------------------------------------------------------
      1          6           0        0.795097    0.024737    0.022920
      2          1           0        0.071344   -2.031930    0.091799
      3          1           0        0.131872    2.066540    0.114033
      4          7           0       -0.066619   -1.052080   -0.023368
      5          7           0       -1.394910   -0.639050    0.017169
      6          7           0       -1.426510    0.618362   -0.021531
      7          7           0       -0.119908    1.041450   -0.007432
      8          8           0        2.010230    0.004524   -0.012152
 ---------------------------------------------------------------------

 SCF Done:  E(RHF) =  -332.006865713     A.U. after    2 cycles

 The electronic state is 1-A.
 Alpha  occ. eigenvalues --  -20.53082 -15.63740 -15.63133 -15.60785 -15.60020
 Alpha  occ. eigenvalues --  -11.42019  -1.51574  -1.46976  -1.28100  -1.24631
 Alpha  occ. eigenvalues --   -0.97860  -0.96271  -0.85085  -0.75748  -0.75196
 Alpha  occ. eigenvalues --   -0.67487  -0.63896  -0.58835  -0.57861  -0.55474
 Alpha  occ. eigenvalues --   -0.46262  -0.42811
 Alpha virt. eigenvalues --    0.02420   0.05082   0.06376   0.09440   0.09665
 Alpha virt. eigenvalues --    0.09999   0.10546   0.12883   0.14726   0.14838
 Alpha virt. eigenvalues --    0.15032   0.16413   0.17070   0.18096   0.20010

 Mulliken charges:
               1
     1  C    0.673165
     2  H    0.086687
     3  H    0.170165
     4  N    0.247624
     5  N   -0.195597
     6  N   -0.227623
     7  N    0.267418
     8  O   -1.021839
 Sum of Mulliken charges =  -0.00000

 Dipole moment (field-independent basis, Debye):
    X=             -0.6896    Y=              0.2089    Z=              0.5016  Tot=              0.8779

 Test job not archived.
 1\1\GINC-SE402\SP\RHF\Aug-CC-pVDZ\C1H2N4O1\OHZDE\08-Apr-2025\0\\#t hf
 aug-cc-pvdz iop(5/13=1,5/36=2,99/5=2) pseudo=read geom=check guess=(re
 ad,tcheck) scf=(maxcycle=1)\\title\\0,1\C,0,0.795097,0.0247365,0.02292
 01\H,0,0.0713441,-2.03193,0.0917989\H,0,0.131872,2.06654,0.114033\N,0,
 -0.0666185,-1.05208,-0.0233684\N,0,-1.39491,-0.63905,0.017169\N,0,-1.4
 2651,0.618362,-0.0215312\N,0,-0.119908,1.04145,-0.00743221\O,0,2.01023
 ,0.00452388,-0.0121516\\Version=ES64L-G16RevC.01\State=1-A\HF=-332.006
 8657\RMSD=4.162e-02\Dipole=-0.2712936,0.0821733,0.1973365\Quadrupole=-

 Normal termination of Gaussian 16 at Tue Apr  8 21:32:39 2025.
