 Gaussian 16, Revision C.01,

 ----------------------------------------------------------------------
 #t hf aug-cc-pvdz symm=none int=(grid=ultrafine) guess=(read,tcheck) s
 table=(opt,rrhf)
 ----------------------------------------------------------------------
 -----
 title
 -----
 Symbolic Z-matrix:
 Charge =  0 Multiplicity = 1

 SCF Done:  E(RHF) =  -587.252846053     A.U. after   15 cycles
 Normal termination of Gaussian 16 at Tue Apr  8 20:29:27 2025.
 Gaussian 16:  ES64L-G16RevC.01  3-Jul-2019

 ----------------------------------------------------------------------
 #t hf aug-cc-pvdz iop(5/13=1,5/36=2,99/5=2) pseudo=read geom=check gue
 ss=(read,tcheck) scf=(maxcycle=1)
 ----------------------------------------------------------------------
 -----
 title
 -----
 Structure from the checkpoint file:  "ANI1ccx_1694_conf1_mol1.chk"
 Charge =  0 Multiplicity = 1

                         Standard orientation:
 ---------------------------------------------------------------------
 Center     Atomic      Atomic             Coordinates (Angstroms)
 Number     Number       Type             X           Y           Z
 ---------------------------------------------------------------------
      1          6           0       -0.310817    2.404601   -0.722031
      2          6           0       -1.181120    1.416411    0.122750
      3          6           0       -1.980861   -0.858603    0.033298
      4          6           0       -0.312229    0.408220    0.992544
      5          6           0        1.070169    0.053490    0.510738
      6          6           0        2.386019    0.276287    0.838906
      7          6           0        3.183549   -0.437902   -0.104283
      8          6           0        2.316249   -1.066280   -0.943078
      9          1           0        2.428009   -1.701850   -1.840030
     10          1           0        4.297899   -0.391326   -0.129137
     11          1           0        2.878990    0.734735    1.762370
     12          1           0       -0.075952    0.842423    2.017100
     13          1           0       -0.899315    3.344901   -1.026190
     14          1           0       -1.905720    1.950701    0.808921
     15          1           0        0.665572    2.706091   -0.086763
     16          1           0        0.048596    1.830741   -1.635380
     17          1           0       -2.809211    0.587500   -1.072840
     18          7           0       -1.973481    0.400660   -0.590276
     19          8           0       -1.041021   -0.794257    1.017300
     20          8           0       -2.726921   -1.773238   -0.239034
     21          8           0        1.037909   -0.668241   -0.658166
 ---------------------------------------------------------------------

 SCF Done:  E(RHF) =  -587.839678683     A.U. after    2 cycles

 The electronic state is 1-A.
 Alpha  occ. eigenvalues --  -20.61420 -20.59883 -20.52368 -15.52770 -11.41791
 Alpha  occ. eigenvalues --  -11.34295 -11.31893 -11.31340 -11.31052 -11.27531
 Alpha  occ. eigenvalues --  -11.26074 -11.25071  -1.56167  -1.54246  -1.45602
 Alpha  occ. eigenvalues --   -1.24042  -1.10317  -1.08242  -1.01310  -0.94628
 Alpha  occ. eigenvalues --   -0.86984  -0.84979  -0.81768  -0.78745  -0.75197
 Alpha  occ. eigenvalues --   -0.73750  -0.68001  -0.66734  -0.64390  -0.63879
 Alpha  occ. eigenvalues --   -0.61828  -0.60212  -0.58865  -0.58153  -0.56276
 Alpha  occ. eigenvalues --   -0.55852  -0.55765  -0.53987  -0.50406  -0.46129
 Alpha  occ. eigenvalues --   -0.45244  -0.43076  -0.41026  -0.33496
 Alpha virt. eigenvalues --    0.02679   0.02904   0.03382   0.03999   0.04798
 Alpha virt. eigenvalues --    0.05011   0.06396   0.06584   0.07655   0.08886
 Alpha virt. eigenvalues --    0.10280   0.10548   0.11326   0.11921   0.12452

 Mulliken charges:
               1
     1  C   -0.573861
     2  C   -1.363883
     3  C    1.425090
     4  C    0.610225
     5  C    1.424552
     6  C   -0.012888
     7  C    0.263039
     8  C    0.716724
     9  H   -0.134006
    10  H   -0.080910
    11  H   -0.075732
    12  H    0.205208
    13  H    0.190802
    14  H    0.083179
    15  H    0.466618
    16  H    0.327723
    17  H    0.011853
    18  N    0.843228
    19  O   -1.475101
    20  O   -1.259888
    21  O   -1.591973
 Sum of Mulliken charges =  -0.00000

 Dipole moment (field-independent basis, Debye):
    X=              2.7545    Y=              4.7983    Z=              0.3785  Tot=              5.5457

 Test job not archived.
 1\1\GINC-SE195\SP\RHF\Aug-CC-pVDZ\C8H9N1O3\OHZDE\08-Apr-2025\0\\#t hf
 aug-cc-pvdz iop(5/13=1,5/36=2,99/5=2) pseudo=read geom=check guess=(re
 ad,tcheck) scf=(maxcycle=1)\\title\\0,1\C,0,-0.310817,2.4046,-0.722031
 \C,0,-1.18112,1.41641,0.12275\C,0,-1.98086,-0.858604,0.033298\C,0,-0.3
 12228,0.408219,0.992544\C,0,1.07017,0.0534894,0.510738\C,0,2.38602,0.2
 76287,0.838906\C,0,3.18355,-0.437902,-0.104283\C,0,2.31625,-1.06628,-0
 .943078\H,0,2.42801,-1.70185,-1.84003\H,0,4.2979,-0.391325,-0.129137\H
 ,0,2.87899,0.734735,1.76237\H,0,-0.0759516,0.842422,2.0171\H,0,-0.8993

 Normal termination of Gaussian 16 at Tue Apr  8 20:29:43 2025.
