 Gaussian 16, Revision C.01,

 ----------------------------------------------------------------------
 #t hf aug-cc-pvdz symm=none int=(grid=ultrafine) guess=(read,tcheck) s
 table=(opt,rrhf)
 ----------------------------------------------------------------------
 -----
 title
 -----
 Symbolic Z-matrix:
 Charge =  0 Multiplicity = 1

 SCF Done:  E(RHF) =  -626.317668992     A.U. after   16 cycles
 Normal termination of Gaussian 16 at Tue Apr  8 20:32:26 2025.
 Gaussian 16:  ES64L-G16RevC.01  3-Jul-2019

 ----------------------------------------------------------------------
 #t hf aug-cc-pvdz iop(5/13=1,5/36=2,99/5=2) pseudo=read geom=check gue
 ss=(read,tcheck) scf=(maxcycle=1)
 ----------------------------------------------------------------------
 -----
 title
 -----
 Structure from the checkpoint file:  "ANI1ccx_1715_conf2_mol2.chk"
 Charge =  0 Multiplicity = 1

                         Standard orientation:
 ---------------------------------------------------------------------
 Center     Atomic      Atomic             Coordinates (Angstroms)
 Number     Number       Type             X           Y           Z
 ---------------------------------------------------------------------
      1          6           0       -2.506060   -1.128411    0.353428
      2          6           0        2.202960    0.447203    0.652816
      3          6           0        2.479950   -0.627099   -0.425730
      4          6           0        0.914482    0.007365    1.333080
      5          6           0       -0.385498   -0.009904    0.648236
      6          6           0       -0.874340    1.082009   -0.037086
      7          6           0       -1.241780   -1.139521    0.813309
      8          6           0       -2.207711    1.148929   -0.391829
      9          6           0       -2.990190    0.040519   -0.249757
     10          1           0        1.166320   -0.945474    1.748520
     11          1           0        0.766666    0.627080    2.256050
     12          1           0        3.045220    0.310379    1.315380
     13          1           0        2.652719    2.352550    0.952065
     14          1           0        3.437460   -0.920246   -1.978360
     15          1           0       -2.637071    2.010919   -0.943493
     16          1           0       -4.317631    0.941180   -1.252760
     17          1           0       -0.222345    1.950910   -0.158799
     18          1           0       -3.015050   -2.097191    0.497182
     19          1           0        2.706579    2.071431   -0.659713
     20          1           0       -0.907062   -2.028291    1.306970
     21          7           0        2.193959    1.781670    0.184264
     22          8           0        1.941370   -1.682100   -0.488842
     23          8           0        3.498260   -0.298460   -1.281670
     24          8           0       -4.237680    0.021624   -0.798449
 ---------------------------------------------------------------------

 SCF Done:  E(RHF) =  -626.951468643     A.U. after    2 cycles

 The electronic state is 1-A.
 Alpha  occ. eigenvalues --  -20.59940 -20.57455 -20.54552 -15.50643 -11.39600
 Alpha  occ. eigenvalues --  -11.29594 -11.29293 -11.23297 -11.23017 -11.22991
 Alpha  occ. eigenvalues --  -11.22879 -11.22836 -11.22545  -1.55841  -1.47467
 Alpha  occ. eigenvalues --   -1.46660  -1.21674  -1.15401  -1.05782  -1.02346
 Alpha  occ. eigenvalues --   -0.98717  -0.90914  -0.84583  -0.83025  -0.78658
 Alpha  occ. eigenvalues --   -0.73575  -0.72087  -0.71883  -0.71297  -0.67930
 Alpha  occ. eigenvalues --   -0.64604  -0.63777  -0.62192  -0.60409  -0.60062
 Alpha  occ. eigenvalues --   -0.59632  -0.58235  -0.56546  -0.55251  -0.53213
 Alpha  occ. eigenvalues --   -0.51685  -0.49506  -0.48616  -0.46951  -0.44462
 Alpha  occ. eigenvalues --   -0.43527  -0.35076  -0.30133
 Alpha virt. eigenvalues --    0.02717   0.03316   0.03909   0.04253   0.04676
 Alpha virt. eigenvalues --    0.05307   0.05668   0.06681   0.07409   0.08394
 Alpha virt. eigenvalues --    0.09219   0.10042   0.10550   0.10965   0.12055

 Mulliken charges:
               1
     1  C    0.249649
     2  C   -1.162090
     3  C    2.025408
     4  C   -0.634041
     5  C    1.382673
     6  C    0.060317
     7  C    0.636627
     8  C   -0.908277
     9  C    1.790756
    10  H    0.033841
    11  H    0.229698
    12  H    0.233185
    13  H    0.395268
    14  H    0.332398
    15  H   -0.279868
    16  H    0.414631
    17  H   -0.250925
    18  H   -0.216277
    19  H    0.214613
    20  H   -0.401861
    21  N    0.203427
    22  O   -1.202305
    23  O   -1.369622
    24  O   -1.777226
 Sum of Mulliken charges =  -0.00000

 Dipole moment (field-independent basis, Debye):
    X=              2.7672    Y=              2.5229    Z=             -0.0183  Tot=              3.7447

 Test job not archived.
 1\1\GINC-SE097\SP\RHF\Aug-CC-pVDZ\C9H11N1O3\OHZDE\08-Apr-2025\0\\#t hf
  aug-cc-pvdz iop(5/13=1,5/36=2,99/5=2) pseudo=read geom=check guess=(r
 ead,tcheck) scf=(maxcycle=1)\\title\\0,1\C,0,-2.50606,-1.12841,0.35342
 8\C,0,2.20296,0.447203,0.652816\C,0,2.47995,-0.627099,-0.42573\C,0,0.9
 14482,0.00736515,1.33308\C,0,-0.385498,-0.00990313,0.648236\C,0,-0.874
 339,1.08201,-0.0370863\C,0,-1.24178,-1.13952,0.813309\C,0,-2.20771,1.1
 4893,-0.391829\C,0,-2.99019,0.0405198,-0.249757\H,0,1.16632,-0.945474,
 1.74852\H,0,0.766666,0.62708,2.25605\H,0,3.04522,0.310378,1.31538\H,0,

 Normal termination of Gaussian 16 at Tue Apr  8 20:32:46 2025.
