 Gaussian 16, Revision C.01,

 ----------------------------------------------------------------------
 #t hf aug-cc-pvdz symm=none int=(grid=ultrafine) guess=(read,tcheck) s
 table=(opt,rrhf)
 ----------------------------------------------------------------------
 -----
 title
 -----
 Symbolic Z-matrix:
 Charge =  0 Multiplicity = 1

 SCF Done:  E(RHF) =  -380.225480248     A.U. after   11 cycles
 Normal termination of Gaussian 16 at Tue Apr  8 21:04:26 2025.
 Gaussian 16:  ES64L-G16RevC.01  3-Jul-2019

 ----------------------------------------------------------------------
 #t hf aug-cc-pvdz iop(5/13=1,5/36=2,99/5=2) pseudo=read geom=check gue
 ss=(read,tcheck) scf=(maxcycle=1)
 ----------------------------------------------------------------------
 -----
 title
 -----
 Structure from the checkpoint file:  "ANI1ccx_1843_conf34_mol1.chk"
 Charge =  0 Multiplicity = 1

                         Standard orientation:
 ---------------------------------------------------------------------
 Center     Atomic      Atomic             Coordinates (Angstroms)
 Number     Number       Type             X           Y           Z
 ---------------------------------------------------------------------
      1          1           0       -0.686947    0.693743    1.437219
      2          1           0       -1.840240   -0.067231    0.867122
      3          1           0        1.281241    1.048698   -0.054841
      4          1           0        0.770490    2.537279    0.086385
      5          1           0       -0.323292   -1.417581    0.666434
      6          1           0       -0.477297   -1.256981   -0.831148
      7          1           0       -2.016560    0.433047   -2.094501
      8          1           0       -0.923640    0.861512   -0.989972
      9          1           0        1.535990   -0.845774   -0.229638
     10          1           0        2.674270   -0.371417    0.693736
     11          8           0       -1.232650   -0.074640    1.644319
     12          8           0        0.456408    1.637509    0.040018
     13          8           0        0.068490   -1.742141   -0.178210
     14          8           0       -1.582060    0.173921   -1.242741
     15          8           0        2.290560   -0.196560   -0.207234
 ---------------------------------------------------------------------

 SCF Done:  E(RHF) =  -380.620706021     A.U. after    2 cycles

 The electronic state is 1-A.
 Alpha  occ. eigenvalues --  -20.57734 -20.56386 -20.56381 -20.54834 -20.53822
 Alpha  occ. eigenvalues --   -1.46164  -1.44858  -1.43402  -1.43070  -1.41268
 Alpha  occ. eigenvalues --   -0.74356  -0.72938  -0.70156  -0.69329  -0.68834
 Alpha  occ. eigenvalues --   -0.62106  -0.61039  -0.59047  -0.58298  -0.55127
 Alpha  occ. eigenvalues --   -0.51453  -0.50903  -0.49646  -0.48629  -0.47499
 Alpha virt. eigenvalues --    0.02877   0.03743   0.05053   0.06563   0.07650
 Alpha virt. eigenvalues --    0.08190   0.08529   0.09121   0.09563   0.11012
 Alpha virt. eigenvalues --    0.16703   0.18073   0.19700   0.20169   0.21776

 Mulliken charges:
               1
     1  H    0.579060
     2  H    0.542780
     3  H    0.883537
     4  H    0.481930
     5  H    0.645652
     6  H    0.617609
     7  H    0.448421
     8  H    0.682672
     9  H    0.667837
    10  H    0.374360
    11  O   -1.035338
    12  O   -1.428562
    13  O   -1.332414
    14  O   -1.068095
    15  O   -1.059451
 Sum of Mulliken charges =  -0.00000

 Dipole moment (field-independent basis, Debye):
    X=              0.0903    Y=              3.3219    Z=             -1.2002  Tot=              3.5332

 Test job not archived.
 1\1\GINC-SE044\SP\RHF\Aug-CC-pVDZ\H10O5\OHZDE\08-Apr-2025\0\\#t hf aug
 -cc-pvdz iop(5/13=1,5/36=2,99/5=2) pseudo=read geom=check guess=(read,
 tcheck) scf=(maxcycle=1)\\title\\0,1\H,0,-0.686947,0.693744,1.43722\H,
 0,-1.84024,-0.0672304,0.867123\H,0,1.28124,1.0487,-0.0548397\H,0,0.770
 489,2.53728,0.0863861\H,0,-0.323291,-1.41758,0.666435\H,0,-0.477297,-1
 .25698,-0.831147\H,0,-2.01656,0.433047,-2.0945\H,0,-0.92364,0.861513,-
 0.989971\H,0,1.53599,-0.845772,-0.229637\H,0,2.67427,-0.371415,0.69373
 7\O,0,-1.23265,-0.0746398,1.64432\O,0,0.456407,1.63751,0.0400191\O,0,0

 Normal termination of Gaussian 16 at Tue Apr  8 21:04:30 2025.
