 Gaussian 16, Revision C.01,

 ----------------------------------------------------------------------
 #t hf aug-cc-pvdz symm=none int=(grid=ultrafine) guess=(read,tcheck) s
 table=(opt,rrhf)
 ----------------------------------------------------------------------
 -----
 title
 -----
 Symbolic Z-matrix:
 Charge =  0 Multiplicity = 1

 SCF Done:  E(RHF) =  -380.232323517     A.U. after   11 cycles
 Normal termination of Gaussian 16 at Tue Apr  8 21:00:25 2025.
 Gaussian 16:  ES64L-G16RevC.01  3-Jul-2019

 ----------------------------------------------------------------------
 #t hf aug-cc-pvdz iop(5/13=1,5/36=2,99/5=2) pseudo=read geom=check gue
 ss=(read,tcheck) scf=(maxcycle=1)
 ----------------------------------------------------------------------
 -----
 title
 -----
 Structure from the checkpoint file:  "ANI1ccx_1843_conf11_mol1.chk"
 Charge =  0 Multiplicity = 1

                         Standard orientation:
 ---------------------------------------------------------------------
 Center     Atomic      Atomic             Coordinates (Angstroms)
 Number     Number       Type             X           Y           Z
 ---------------------------------------------------------------------
      1          1           0        1.124000    1.199460   -0.010884
      2          1           0        0.532849    2.643620    0.071796
      3          1           0        1.703341   -0.785715   -0.262549
      4          1           0        2.813501   -0.176201    0.622856
      5          1           0        0.125232   -2.654150   -0.014331
      6          1           0       -0.315925   -1.268341    0.574032
      7          1           0       -1.844650   -0.047902    0.608438
      8          1           0       -0.748151    0.616817    1.390181
      9          1           0       -1.109609   -0.574783   -1.352729
     10          1           0       -1.022840    0.913038   -1.057439
     11          8           0        0.291001    1.711610    0.133164
     12          8           0        2.328980   -0.027350   -0.198528
     13          8           0        0.204819   -1.704420   -0.156077
     14          8           0       -1.311739   -0.178040    1.423971
     15          8           0       -1.670280    0.214970   -1.273699
 ---------------------------------------------------------------------

 SCF Done:  E(RHF) =  -380.628297210     A.U. after    2 cycles

 The electronic state is 1-A.
 Alpha  occ. eigenvalues --  -20.56929 -20.56664 -20.56588 -20.54484 -20.53710
 Alpha  occ. eigenvalues --   -1.46647  -1.45199  -1.44390  -1.42608  -1.41547
 Alpha  occ. eigenvalues --   -0.74282  -0.73038  -0.72023  -0.69521  -0.68858
 Alpha  occ. eigenvalues --   -0.63172  -0.60484  -0.58947  -0.58198  -0.54901
 Alpha  occ. eigenvalues --   -0.51272  -0.51108  -0.50234  -0.49020  -0.47093
 Alpha virt. eigenvalues --    0.03069   0.03696   0.04978   0.06562   0.07685
 Alpha virt. eigenvalues --    0.07853   0.08576   0.09100   0.09836   0.10652
 Alpha virt. eigenvalues --    0.16471   0.18415   0.19462   0.21148   0.21800

 Mulliken charges:
               1
     1  H    0.797972
     2  H    0.466151
     3  H    0.673092
     4  H    0.376574
     5  H    0.427805
     6  H    0.758667
     7  H    0.609488
     8  H    0.533868
     9  H    0.522859
    10  H    0.618924
    11  O   -1.347891
    12  O   -0.996428
    13  O   -1.262647
    14  O   -1.135912
    15  O   -1.042522
 Sum of Mulliken charges =  -0.00000

 Dipole moment (field-independent basis, Debye):
    X=              2.8403    Y=             -0.3383    Z=              1.2549  Tot=              3.1235

 Test job not archived.
 1\1\GINC-SE044\SP\RHF\Aug-CC-pVDZ\H10O5\OHZDE\08-Apr-2025\0\\#t hf aug
 -cc-pvdz iop(5/13=1,5/36=2,99/5=2) pseudo=read geom=check guess=(read,
 tcheck) scf=(maxcycle=1)\\title\\0,1\H,0,1.124,1.19946,-0.0108841\H,0,
 0.53285,2.64362,0.0717958\H,0,1.70334,-0.785715,-0.26255\H,0,2.8135,-0
 .176202,0.622855\H,0,0.125231,-2.65415,-0.0143317\H,0,-0.315926,-1.268
 34,0.574031\H,0,-1.84465,-0.0479004,0.608437\H,0,-0.748151,0.616818,1.
 39018\H,0,-1.10961,-0.574782,-1.35273\H,0,-1.02284,0.913039,-1.05744\O
 ,0,0.291001,1.71161,0.133163\O,0,2.32898,-0.0273499,-0.198529\O,0,0.20

 Normal termination of Gaussian 16 at Tue Apr  8 21:00:29 2025.
