 Gaussian 16, Revision C.01,

 ----------------------------------------------------------------------
 #t hf aug-cc-pvdz symm=none int=(grid=ultrafine) guess=(read,tcheck) s
 table=(opt,rrhf)
 ----------------------------------------------------------------------
 -----
 title
 -----
 Symbolic Z-matrix:
 Charge =  0 Multiplicity = 1

 SCF Done:  E(RHF) =  -491.028158411     A.U. after   15 cycles

 1\1\GINC-SE220\Stability\RHF\Aug-CC-pVDZ\C7H14N4\OHZDE\08-Apr-2025\0\\
 #t hf aug-cc-pvdz symm=none int=(grid=ultrafine) guess=(read,tcheck) s
 table=(opt,rrhf)\\title\\0,1\C,0,1.47649,-0.597576,2.04779\C,0,2.03001
 ,0.172624,0.827036\C,0,1.32268,-0.231064,-0.467912\C,0,1.79381,0.67659
 9,-1.6262\C,0,1.58308,-1.69457,-0.759009\C,0,-0.854385,0.817674,-0.054
 9937\C,0,-2.78378,-0.581002,-0.0170705\H,0,-2.8393,1.35749,-0.431409\H
 ,0,0.480031,2.27663,0.37766\H,0,-1.04886,2.46751,1.05645\H,0,1.1062,-2
 .27658,0.0554665\H,0,1.00563,-1.97221,-1.63287\H,0,2.68311,-1.84739,-0

 Normal termination of Gaussian 16 at Tue Apr  8 19:47:56 2025.
 Gaussian 16:  ES64L-G16RevC.01  3-Jul-2019

 ----------------------------------------------------------------------
 #t hf aug-cc-pvdz iop(5/13=1,5/36=2,99/5=2) pseudo=read geom=check gue
 ss=(read,tcheck) scf=(maxcycle=1)
 ----------------------------------------------------------------------
 -----
 title
 -----
 Structure from the checkpoint file:  "ANI1ccx_1436_conf3_mol1.chk"
 Charge =  0 Multiplicity = 1

                         Standard orientation:
 ---------------------------------------------------------------------
 Center     Atomic      Atomic             Coordinates (Angstroms)
 Number     Number       Type             X           Y           Z
 ---------------------------------------------------------------------
      1          6           0        1.476491   -0.597576    2.047790
      2          6           0        2.030011    0.172624    0.827036
      3          6           0        1.322681   -0.231064   -0.467912
      4          6           0        1.793811    0.676599   -1.626200
      5          6           0        1.583081   -1.694570   -0.759009
      6          6           0       -0.854384    0.817673   -0.054994
      7          6           0       -2.783779   -0.581003   -0.017071
      8          1           0       -2.839299    1.357489   -0.431409
      9          1           0        0.480032    2.276630    0.377660
     10          1           0       -1.048859    2.467509    1.056450
     11          1           0        1.106202   -2.276580    0.055466
     12          1           0        1.005632   -1.972210   -1.632870
     13          1           0        2.683111   -1.847390   -0.840913
     14          1           0        1.358921    1.734820   -1.472630
     15          1           0        2.934621    0.766437   -1.688040
     16          1           0        3.078291    0.026401    0.579794
     17          1           0        1.885241    1.242130    1.051000
     18          1           0        1.892961   -1.639780    2.099780
     19          1           0        0.312286   -0.771510    1.906670
     20          1           0        1.684001   -0.066886    3.082500
     21          1           0        1.388051    0.230771   -2.570300
     22          7           0       -2.273989    0.651076    0.090508
     23          7           0       -0.155306   -0.147699   -0.423799
     24          7           0       -0.537996    2.179539    0.243738
     25          7           0       -3.222519   -1.669191   -0.092018
 ---------------------------------------------------------------------

 SCF Done:  E(RHF) =  -491.538569090     A.U. after    2 cycles

 The electronic state is 1-A.
 Alpha  occ. eigenvalues --  -15.58007 -15.54593 -15.50587 -15.48667 -11.37634
 Alpha  occ. eigenvalues --  -11.31165 -11.28014 -11.25266 -11.24931 -11.24589
 Alpha  occ. eigenvalues --  -11.22185  -1.33706  -1.24570  -1.20236  -1.19281
 Alpha  occ. eigenvalues --   -1.09741  -0.99898  -0.93981  -0.90815  -0.85830
 Alpha  occ. eigenvalues --   -0.83423  -0.78393  -0.75855  -0.70899  -0.67926
 Alpha  occ. eigenvalues --   -0.65952  -0.62502  -0.61810  -0.59791  -0.59105
 Alpha  occ. eigenvalues --   -0.56737  -0.55677  -0.54903  -0.52597  -0.51618
 Alpha  occ. eigenvalues --   -0.50750  -0.48964  -0.48593  -0.47356  -0.45897
 Alpha  occ. eigenvalues --   -0.43961  -0.42322
 Alpha virt. eigenvalues --    0.02277   0.03249   0.03413   0.03865   0.04758
 Alpha virt. eigenvalues --    0.04822   0.05580   0.06333   0.07102   0.08016
 Alpha virt. eigenvalues --    0.08496   0.09122   0.09486   0.10266   0.10954

 Mulliken charges:
               1
     1  C   -0.589833
     2  C    0.280657
     3  C   -3.888576
     4  C   -0.058881
     5  C    0.186038
     6  C   -2.324808
     7  C   -1.536829
     8  H    0.308563
     9  H    0.151287
    10  H    0.174847
    11  H    0.270216
    12  H    0.162199
    13  H    0.353806
    14  H    0.266138
    15  H    0.289807
    16  H    0.149668
    17  H    0.095246
    18  H    0.201611
    19  H    0.391723
    20  H    0.200162
    21  H    0.281190
    22  N    0.628891
    23  N    2.155753
    24  N    0.931486
    25  N    0.919639
 Sum of Mulliken charges =  -0.00000

 Dipole moment (field-independent basis, Debye):
    X=              3.2196    Y=              5.5581    Z=              0.9740  Tot=              6.4967

 Test job not archived.
 1\1\GINC-SE220\SP\RHF\Aug-CC-pVDZ\C7H14N4\OHZDE\08-Apr-2025\0\\#t hf a
 ug-cc-pvdz iop(5/13=1,5/36=2,99/5=2) pseudo=read geom=check guess=(rea
 d,tcheck) scf=(maxcycle=1)\\title\\0,1\C,0,1.47649,-0.597576,2.04779\C
 ,0,2.03001,0.172624,0.827036\C,0,1.32268,-0.231064,-0.467912\C,0,1.793
 81,0.676599,-1.6262\C,0,1.58308,-1.69457,-0.759009\C,0,-0.854385,0.817
 674,-0.0549937\C,0,-2.78378,-0.581002,-0.0170705\H,0,-2.8393,1.35749,-
 0.431409\H,0,0.480031,2.27663,0.37766\H,0,-1.04886,2.46751,1.05645\H,0
 ,1.1062,-2.27658,0.0554665\H,0,1.00563,-1.97221,-1.63287\H,0,2.68311,-

 Normal termination of Gaussian 16 at Tue Apr  8 19:48:16 2025.
