 Gaussian 16, Revision C.01,

 ----------------------------------------------------------------------
 #t hf aug-cc-pvdz symm=none int=(grid=ultrafine) guess=(read,tcheck) s
 table=(opt,rrhf)
 ----------------------------------------------------------------------
 -----
 title
 -----
 Symbolic Z-matrix:
 Charge =  0 Multiplicity = 1

 SCF Done:  E(RHF) =  -281.813344131     A.U. after   13 cycles
 Normal termination of Gaussian 16 at Tue Apr  8 21:12:21 2025.
 Gaussian 16:  ES64L-G16RevC.01  3-Jul-2019

 ----------------------------------------------------------------------
 #t hf aug-cc-pvdz iop(5/13=1,5/36=2,99/5=2) pseudo=read geom=check gue
 ss=(read,tcheck) scf=(maxcycle=1)
 ----------------------------------------------------------------------
 -----
 title
 -----
 Structure from the checkpoint file:  "ANI1ccx_1889_conf21_mol2.chk"
 Charge =  0 Multiplicity = 1

                         Standard orientation:
 ---------------------------------------------------------------------
 Center     Atomic      Atomic             Coordinates (Angstroms)
 Number     Number       Type             X           Y           Z
 ---------------------------------------------------------------------
      1          1           0       -0.537882    1.039751    0.102727
      2          1           0       -2.284800   -0.838444    0.030108
      3          1           0        0.580532   -1.120050    0.169316
      4          1           0        1.836231    0.577519    1.112110
      5          1           0        2.018452    1.075758   -0.519450
      6          7           0        1.399281    0.618648    0.198757
      7          8           0       -1.416278    0.763534   -0.230051
      8          8           0       -1.374160   -0.634407    0.224245
      9          8           0        1.364500   -0.762261   -0.279958
 ---------------------------------------------------------------------

 SCF Done:  E(RHF) =  -282.094789982     A.U. after    2 cycles

 The electronic state is 1-A.
 Alpha  occ. eigenvalues --  -20.61362 -20.60327 -20.57537 -15.56861  -1.56812
 Alpha  occ. eigenvalues --   -1.46395  -1.27646  -1.10521  -0.75347  -0.73241
 Alpha  occ. eigenvalues --   -0.65475  -0.65208  -0.63019  -0.60245  -0.54601
 Alpha  occ. eigenvalues --   -0.51263  -0.44883  -0.43677
 Alpha virt. eigenvalues --    0.03507   0.04672   0.05964   0.06634   0.08238
 Alpha virt. eigenvalues --    0.13662   0.15592   0.16513   0.18899   0.19302
 Alpha virt. eigenvalues --    0.19490   0.21121   0.21732   0.22349   0.22835

 Mulliken charges:
               1
     1  H    0.653935
     2  H    0.521172
     3  H    0.394684
     4  H    0.131980
     5  H    0.121596
     6  N    0.349577
     7  O   -0.590104
     8  O   -0.627873
     9  O   -0.954967
 Sum of Mulliken charges =  -0.00000

 Dipole moment (field-independent basis, Debye):
    X=              0.5718    Y=              0.3495    Z=              1.2432  Tot=              1.4123

 Test job not archived.
 1\1\GINC-SE163\SP\RHF\Aug-CC-pVDZ\H5N1O3\OHZDE\08-Apr-2025\0\\#t hf au
 g-cc-pvdz iop(5/13=1,5/36=2,99/5=2) pseudo=read geom=check guess=(read
 ,tcheck) scf=(maxcycle=1)\\title\\0,1\H,0,-0.537884,1.03975,0.102727\H
 ,0,-2.2848,-0.838446,0.0301081\H,0,0.580532,-1.12005,0.169316\H,0,1.83
 623,0.577521,1.11211\H,0,2.01845,1.07576,-0.51945\N,0,1.39928,0.618649
 ,0.198757\O,0,-1.41628,0.763533,-0.230051\O,0,-1.37416,-0.634408,0.224
 245\O,0,1.3645,-0.76226,-0.279958\\Version=ES64L-G16RevC.01\State=1-A\
 HF=-282.09479\RMSD=7.849e-03\Dipole=0.2249592,0.1375138,0.489106\Quadr

 Normal termination of Gaussian 16 at Tue Apr  8 21:12:23 2025.
