 Gaussian 16, Revision C.01,

 ----------------------------------------------------------------------
 #t hf aug-cc-pvdz symm=none int=(grid=ultrafine) guess=(read,tcheck) s
 table=(opt,rrhf)
 ----------------------------------------------------------------------
 -----
 title
 -----
 Symbolic Z-matrix:
 Charge =  0 Multiplicity = 1

 SCF Done:  E(RHF) =  -603.574787557     A.U. after   15 cycles
 Normal termination of Gaussian 16 at Tue Apr  8 22:19:21 2025.
 Gaussian 16:  ES64L-G16RevC.01  3-Jul-2019

 ----------------------------------------------------------------------
 #t hf aug-cc-pvdz iop(5/13=1,5/36=2,99/5=2) pseudo=read geom=check gue
 ss=(read,tcheck) scf=(maxcycle=1)
 ----------------------------------------------------------------------
 -----
 title
 -----
 Structure from the checkpoint file:  "ANI1ccx_999_conf7_mol1.chk"
 Charge =  0 Multiplicity = 1

                         Standard orientation:
 ---------------------------------------------------------------------
 Center     Atomic      Atomic             Coordinates (Angstroms)
 Number     Number       Type             X           Y           Z
 ---------------------------------------------------------------------
      1          6           0       -1.845812   -1.036167    0.356615
      2          6           0       -1.427211    0.219741   -0.568367
      3          6           0        1.195949    0.316940   -0.387717
      4          6           0        1.671668   -1.092361    0.020659
      5          6           0        1.411400    1.327179    0.726795
      6          1           0        0.672989   -1.651080   -1.469570
      7          1           0        0.188149    2.673460   -0.011154
      8          1           0        0.795139    1.150490    1.623370
      9          1           0        2.465300    1.389448    0.970568
     10          1           0        1.897099    0.551220   -1.227430
     11          1           0       -2.123373   -1.859857   -0.330771
     12          1           0       -1.001033   -1.421368    1.022090
     13          1           0       -3.845742   -0.414510    0.618218
     14          1           0       -2.808801    0.049951    1.812670
     15          1           0       -0.160468    0.810235   -1.888480
     16          7           0       -3.081882   -0.732863    1.198080
     17          7           0       -0.115317    0.241632   -0.992603
     18          8           0        1.093152    2.675609    0.297259
     19          8           0       -2.243390    1.078483   -0.820227
     20          8           0        2.571938   -1.204142    0.815634
     21          8           0        1.111447   -2.081371   -0.723385
 ---------------------------------------------------------------------

 SCF Done:  E(RHF) =  -604.178430360     A.U. after    2 cycles

 The electronic state is 1-A.
 Alpha  occ. eigenvalues --  -20.62188 -20.56736 -20.56345 -20.56216 -15.56563
 Alpha  occ. eigenvalues --  -15.50716 -11.42016 -11.40174 -11.34014 -11.31815
 Alpha  occ. eigenvalues --  -11.31169  -1.56130  -1.50741  -1.48226  -1.46194
 Alpha  occ. eigenvalues --   -1.28119  -1.17709  -1.08101  -0.96730  -0.93016
 Alpha  occ. eigenvalues --   -0.86429  -0.81721  -0.77539  -0.75140  -0.73381
 Alpha  occ. eigenvalues --   -0.70999  -0.69967  -0.68037  -0.66355  -0.65493
 Alpha  occ. eigenvalues --   -0.62087  -0.61113  -0.59873  -0.59323  -0.57774
 Alpha  occ. eigenvalues --   -0.55226  -0.53954  -0.49705  -0.49223  -0.48349
 Alpha  occ. eigenvalues --   -0.47360  -0.44421  -0.44013
 Alpha virt. eigenvalues --    0.01956   0.03521   0.04144   0.04832   0.05252
 Alpha virt. eigenvalues --    0.05427   0.06055   0.06621   0.07506   0.08732
 Alpha virt. eigenvalues --    0.09931   0.10085   0.10936   0.11713   0.12704

 Mulliken charges:
               1
     1  C   -1.025407
     2  C    0.454231
     3  C   -1.823132
     4  C    2.574765
     5  C    1.214229
     6  H    0.513224
     7  H    0.340933
     8  H    0.137923
     9  H    0.122815
    10  H    0.306327
    11  H    0.231745
    12  H    0.238467
    13  H    0.170956
    14  H    0.149090
    15  H    0.497081
    16  N    0.232483
    17  N    0.746275
    18  O   -1.226014
    19  O   -1.268036
    20  O   -1.269561
    21  O   -1.318393
 Sum of Mulliken charges =  -0.00000

 Dipole moment (field-independent basis, Debye):
    X=             -0.6325    Y=              0.5191    Z=             -2.8971  Tot=              3.0105

 Test job not archived.
 1\1\GINC-SE072\SP\RHF\Aug-CC-pVDZ\C5H10N2O4\OHZDE\08-Apr-2025\0\\#t hf
  aug-cc-pvdz iop(5/13=1,5/36=2,99/5=2) pseudo=read geom=check guess=(r
 ead,tcheck) scf=(maxcycle=1)\\title\\0,1\C,0,-1.84581,-1.03617,0.35661
 5\C,0,-1.42721,0.219739,-0.568367\C,0,1.19595,0.316941,-0.387717\C,0,1
 .67167,-1.09236,0.0206595\C,0,1.4114,1.32718,0.726795\H,0,0.672992,-1.
 65108,-1.46957\H,0,0.188147,2.67346,-0.0111536\H,0,0.795139,1.15049,1.
 62337\H,0,2.4653,1.38945,0.970568\H,0,1.8971,0.551221,-1.22743\H,0,-2.
 12337,-1.85986,-0.330771\H,0,-1.00103,-1.42137,1.02209\H,0,-3.84574,-0

 Normal termination of Gaussian 16 at Tue Apr  8 22:19:35 2025.
