 Gaussian 16, Revision C.01,

 ----------------------------------------------------------------------
 #t hf aug-cc-pvdz symm=none int=(grid=ultrafine) guess=(read,tcheck) s
 table=(opt,rrhf)
 ----------------------------------------------------------------------
 -----
 title
 -----
 Symbolic Z-matrix:
 Charge =  0 Multiplicity = 1

 SCF Done:  E(RHF) =  -509.518504456     A.U. after   15 cycles
 Normal termination of Gaussian 16 at Tue Apr  8 22:12:36 2025.
 Gaussian 16:  ES64L-G16RevC.01  3-Jul-2019

 ----------------------------------------------------------------------
 #t hf aug-cc-pvdz iop(5/13=1,5/36=2,99/5=2) pseudo=read geom=check gue
 ss=(read,tcheck) scf=(maxcycle=1)
 ----------------------------------------------------------------------
 -----
 title
 -----
 Structure from the checkpoint file:  "ANI1ccx_939_conf84_mol1.chk"
 Charge =  0 Multiplicity = 1

                         Standard orientation:
 ---------------------------------------------------------------------
 Center     Atomic      Atomic             Coordinates (Angstroms)
 Number     Number       Type             X           Y           Z
 ---------------------------------------------------------------------
      1          6           0       -0.694045    0.606225   -0.872114
      2          6           0       -1.307061   -0.500032    0.024691
      3          6           0        0.694796    0.133679   -1.151500
      4          6           0        1.560319   -0.022675    0.083256
      5          1           0       -1.686769    2.415552   -0.228093
      6          1           0       -0.591938    1.770481    0.961465
      7          1           0       -1.327040    0.694885   -1.769560
      8          1           0        0.445461   -0.844134   -1.631970
      9          1           0        1.136450    0.707836   -1.888900
     10          1           0        1.603179    0.082037    1.978680
     11          1           0       -1.374572   -2.446608    0.090723
     12          7           0       -0.772500    1.892061   -0.051286
     13          8           0       -2.255051   -0.350859    0.732628
     14          8           0        2.724999   -0.414684   -0.031305
     15          8           0        0.998556    0.364593    1.315310
     16          8           0       -0.758670   -1.715009   -0.224050
 ---------------------------------------------------------------------

 SCF Done:  E(RHF) =  -510.020338042     A.U. after    2 cycles

 The electronic state is 1-A.
 Alpha  occ. eigenvalues --  -20.61640 -20.61347 -20.55305 -20.54527 -15.49807
 Alpha  occ. eigenvalues --  -11.42032 -11.39810 -11.30929 -11.26267  -1.55634
 Alpha  occ. eigenvalues --   -1.54255  -1.46459  -1.45321  -1.18024  -1.07143
 Alpha  occ. eigenvalues --   -0.94252  -0.85617  -0.81229  -0.73809  -0.72733
 Alpha  occ. eigenvalues --   -0.71811  -0.68000  -0.67480  -0.65854  -0.63442
 Alpha  occ. eigenvalues --   -0.62079  -0.59137  -0.58610  -0.56706  -0.54118
 Alpha  occ. eigenvalues --   -0.49124  -0.47976  -0.45889  -0.45068  -0.42753
 Alpha virt. eigenvalues --    0.02915   0.03656   0.04075   0.05107   0.05442
 Alpha virt. eigenvalues --    0.06519   0.07649   0.09457   0.10027   0.11680
 Alpha virt. eigenvalues --    0.12664   0.12880   0.13634   0.14034   0.14323

 Mulliken charges:
               1
     1  C   -1.789668
     2  C    2.679140
     3  C   -0.173391
     4  C    2.118034
     5  H    0.209288
     6  H    0.124403
     7  H    0.124130
     8  H    0.516742
     9  H    0.027438
    10  H    0.402142
    11  H    0.423541
    12  N    0.641260
    13  O   -1.332885
    14  O   -1.272212
    15  O   -1.359004
    16  O   -1.338958
 Sum of Mulliken charges =  -0.00000

 Dipole moment (field-independent basis, Debye):
    X=             -1.6981    Y=             -1.0812    Z=             -0.8221  Tot=              2.1745

 Test job not archived.
 1\1\GINC-SE088\SP\RHF\Aug-CC-pVDZ\C4H7N1O4\OHZDE\08-Apr-2025\0\\#t hf
 aug-cc-pvdz iop(5/13=1,5/36=2,99/5=2) pseudo=read geom=check guess=(re
 ad,tcheck) scf=(maxcycle=1)\\title\\0,1\C,0,-0.694045,0.606224,-0.8721
 14\C,0,-1.30706,-0.500034,0.024691\C,0,0.694797,0.133679,-1.1515\C,0,1
 .56032,-0.0226749,0.0832557\H,0,-1.68677,2.41555,-0.228093\H,0,-0.5919
 39,1.77048,0.961465\H,0,-1.32704,0.694883,-1.76956\H,0,0.445462,-0.844
 135,-1.63197\H,0,1.13645,0.707836,-1.8889\H,0,1.60318,0.0820369,1.9786
 8\H,0,-1.37457,-2.44661,0.0907227\N,0,-0.772501,1.89206,-0.0512854\O,0

 Normal termination of Gaussian 16 at Tue Apr  8 22:12:44 2025.
