 Gaussian 16, Revision C.01,

 ----------------------------------------------------------------------
 #t hf aug-cc-pvdz symm=none int=(grid=ultrafine) guess=(read,tcheck) s
 table=(opt,rrhf)
 ----------------------------------------------------------------------
 -----
 title
 -----
 Symbolic Z-matrix:
 Charge =  0 Multiplicity = 1

 SCF Done:  E(RHF) =  -256.787548187     A.U. after   15 cycles
 Normal termination of Gaussian 16 at Tue Apr  8 21:30:29 2025.
 Gaussian 16:  ES64L-G16RevC.01  3-Jul-2019

 ----------------------------------------------------------------------
 #t hf aug-cc-pvdz iop(5/13=1,5/36=2,99/5=2) pseudo=read geom=check gue
 ss=(read,tcheck) scf=(maxcycle=1)
 ----------------------------------------------------------------------
 -----
 title
 -----
 Structure from the checkpoint file:  "ANI1ccx_377_conf47_mol1.chk"
 Charge =  0 Multiplicity = 1

                         Standard orientation:
 ---------------------------------------------------------------------
 Center     Atomic      Atomic             Coordinates (Angstroms)
 Number     Number       Type             X           Y           Z
 ---------------------------------------------------------------------
      1          6           0        1.071753   -0.271731    0.005678
      2          1           0        2.113636   -0.530078    0.053906
      3          1           0       -1.907061   -0.749229    0.242966
      4          7           0        0.602672    1.012639    0.005350
      5          7           0       -0.691610    0.938882    0.000318
      6          7           0       -0.942327   -0.363023   -0.044953
      7          7           0        0.083109   -1.172828   -0.007993
 ---------------------------------------------------------------------

 SCF Done:  E(RHF) =  -257.043970613     A.U. after    2 cycles

 The electronic state is 1-A.
 Alpha  occ. eigenvalues --  -15.64956 -15.61652 -15.57971 -15.55928 -11.31627
 Alpha  occ. eigenvalues --   -1.50545  -1.29785  -1.19844  -0.95429  -0.94028
 Alpha  occ. eigenvalues --   -0.82969  -0.73873  -0.67649  -0.63045  -0.57100
 Alpha  occ. eigenvalues --   -0.53270  -0.51121  -0.45178
 Alpha virt. eigenvalues --    0.02712   0.05160   0.05999   0.08389   0.09257
 Alpha virt. eigenvalues --    0.09862   0.11836   0.14356   0.14896   0.15713
 Alpha virt. eigenvalues --    0.15943   0.17033   0.17928   0.19950   0.21386

 Mulliken charges:
               1
     1  C   -0.059436
     2  H   -0.007757
     3  H    0.178045
     4  N    0.157397
     5  N   -0.275042
     6  N   -0.115760
     7  N    0.122552
 Sum of Mulliken charges =  -0.00000

 Dipole moment (field-independent basis, Debye):
    X=             -0.6254    Y=             -2.0219    Z=              0.4926  Tot=              2.1730

 Test job not archived.
 1\1\GINC-SE404\SP\RHF\Aug-CC-pVDZ\C1H2N4\OHZDE\08-Apr-2025\0\\#t hf au
 g-cc-pvdz iop(5/13=1,5/36=2,99/5=2) pseudo=read geom=check guess=(read
 ,tcheck) scf=(maxcycle=1)\\title\\0,1\C,0,1.07175,-0.271746,0.00567768
 \H,0,2.11363,-0.530107,0.053906\H,0,-1.90707,-0.749206,0.242966\N,0,0.
 602686,1.01263,0.0053503\N,0,-0.691597,0.93889,0.0003184\N,0,-0.942331
 ,-0.363012,-0.0449529\N,0,0.083095,-1.17283,-0.00799261\\Version=ES64L
 -G16RevC.01\State=1-A\HF=-257.0439706\RMSD=5.131e-02\Dipole=-0.2460776
 ,-0.7954634,0.1938152\Quadrupole=5.8564403,-4.7884514,-1.0679889,0.763

 Normal termination of Gaussian 16 at Tue Apr  8 21:30:31 2025.
