 Gaussian 16, Revision C.01,

 ----------------------------------------------------------------------
 #t hf aug-cc-pvdz symm=none int=(grid=ultrafine) guess=(read,tcheck) s
 table=(opt,rrhf)
 ----------------------------------------------------------------------
 -----
 title
 -----
 Symbolic Z-matrix:
 Charge =  0 Multiplicity = 1

 SCF Done:  E(RHF) =  -600.299705997     A.U. after   17 cycles
 Normal termination of Gaussian 16 at Tue Apr  8 20:29:56 2025.
 Gaussian 16:  ES64L-G16RevC.01  3-Jul-2019

 ----------------------------------------------------------------------
 #t hf aug-cc-pvdz iop(5/13=1,5/36=2,99/5=2) pseudo=read geom=check gue
 ss=(read,tcheck) scf=(maxcycle=1)
 ----------------------------------------------------------------------
 -----
 title
 -----
 Structure from the checkpoint file:  "ANI1ccx_1685_conf1_mol1.chk"
 Charge =  0 Multiplicity = 1

                         Standard orientation:
 ---------------------------------------------------------------------
 Center     Atomic      Atomic             Coordinates (Angstroms)
 Number     Number       Type             X           Y           Z
 ---------------------------------------------------------------------
      1          6           0       -1.616959   -0.113108    0.009706
      2          6           0        0.725304   -0.652359    0.088424
      3          6           0        1.807143   -1.570159    0.086784
      4          6           0        3.116162   -1.200698    0.046159
      5          6           0        3.397271    0.206655   -0.075310
      6          6           0        2.393940    1.143242   -0.018675
      7          6           0        1.068960    0.721386    0.016973
      8          6           0       -1.311940    1.338918    0.054474
      9          1           0        0.214700    2.633589   -0.146618
     10          1           0        2.550569    2.264622   -0.155762
     11          1           0        4.399300    0.569759   -0.201657
     12          1           0        3.902853   -1.921747    0.019604
     13          1           0       -0.944335   -1.899262   -0.535895
     14          1           0       -2.483137   -2.223023    0.642253
     15          1           0       -4.008887   -2.035555   -0.077300
     16          1           0        1.595294   -2.642999    0.148961
     17          7           0        0.009078    1.630999   -0.109060
     18          7           0       -3.028687   -1.799194   -0.124006
     19          7           0       -2.880819   -0.444862   -0.078079
     20          7           0       -0.612650   -1.056381    0.023467
     21          8           0       -2.139261    2.212177    0.133618
 ---------------------------------------------------------------------

 SCF Done:  E(RHF) =  -600.903383274     A.U. after    2 cycles

 The electronic state is 1-A.
 Alpha  occ. eigenvalues --  -20.51847 -15.55998 -15.55462 -15.54144 -15.53628
 Alpha  occ. eigenvalues --  -11.37353 -11.32261 -11.31018 -11.30888 -11.26667
 Alpha  occ. eigenvalues --  -11.26370 -11.26220 -11.25745  -1.47602  -1.34887
 Alpha  occ. eigenvalues --   -1.29616  -1.24568  -1.16392  -1.09824  -1.04432
 Alpha  occ. eigenvalues --   -1.02039  -0.94371  -0.89845  -0.86836  -0.80367
 Alpha  occ. eigenvalues --   -0.78920  -0.76670  -0.75218  -0.73062  -0.68277
 Alpha  occ. eigenvalues --   -0.67113  -0.66575  -0.64657  -0.62236  -0.61508
 Alpha  occ. eigenvalues --   -0.60802  -0.57678  -0.56647  -0.53458  -0.52121
 Alpha  occ. eigenvalues --   -0.49769  -0.46467  -0.44238  -0.39145  -0.35894
 Alpha  occ. eigenvalues --   -0.31620
 Alpha virt. eigenvalues --    0.02761   0.02959   0.03165   0.04635   0.05699
 Alpha virt. eigenvalues --    0.05857   0.07037   0.07575   0.08135   0.08666
 Alpha virt. eigenvalues --    0.09121   0.09305   0.10029   0.10688   0.11092

 Mulliken charges:
               1
     1  C   -2.355436
     2  C   -2.025627
     3  C    2.064643
     4  C   -0.044397
     5  C    0.538936
     6  C    0.265205
     7  C   -1.177023
     8  C    1.757720
     9  H    0.143178
    10  H   -0.184636
    11  H   -0.257493
    12  H   -0.255408
    13  H    0.306383
    14  H    0.218995
    15  H    0.074484
    16  H   -0.320396
    17  N    0.909774
    18  N    0.296322
    19  N    0.567620
    20  N    1.101089
    21  O   -1.623934
 Sum of Mulliken charges =  -0.00000

 Dipole moment (field-independent basis, Debye):
    X=              4.4114    Y=             -3.0087    Z=              0.1761  Tot=              5.3426

 Test job not archived.
 1\1\GINC-SE041\SP\RHF\Aug-CC-pVDZ\C8H8N4O1\OHZDE\08-Apr-2025\0\\#t hf
 aug-cc-pvdz iop(5/13=1,5/36=2,99/5=2) pseudo=read geom=check guess=(re
 ad,tcheck) scf=(maxcycle=1)\\title\\0,1\C,0,-1.61696,-0.113106,0.00970
 586\C,0,0.725302,-0.652359,0.0884242\C,0,1.80714,-1.57016,0.0867835\C,
 0,3.11616,-1.2007,0.0461586\C,0,3.39727,0.206652,-0.0753096\C,0,2.3939
 4,1.14324,-0.0186749\C,0,1.06896,0.721386,0.0169734\C,0,-1.31194,1.338
 92,0.054474\H,0,0.214702,2.63359,-0.146618\H,0,2.55057,2.26462,-0.1557
 62\H,0,4.3993,0.569755,-0.201657\H,0,3.90285,-1.92175,0.0196039\H,0,-0

 Normal termination of Gaussian 16 at Tue Apr  8 20:30:13 2025.
