 Gaussian 16, Revision C.01,

 ----------------------------------------------------------------------
 #t hf aug-cc-pvdz symm=none int=(grid=ultrafine) guess=(read,tcheck) s
 table=(opt,rrhf)
 ----------------------------------------------------------------------
 -----
 title
 -----
 Symbolic Z-matrix:
 Charge =  0 Multiplicity = 1

 SCF Done:  E(RHF) =  -281.817221804     A.U. after   14 cycles
 Normal termination of Gaussian 16 at Tue Apr  8 21:12:21 2025.
 Gaussian 16:  ES64L-G16RevC.01  3-Jul-2019

 ----------------------------------------------------------------------
 #t hf aug-cc-pvdz iop(5/13=1,5/36=2,99/5=2) pseudo=read geom=check gue
 ss=(read,tcheck) scf=(maxcycle=1)
 ----------------------------------------------------------------------
 -----
 title
 -----
 Structure from the checkpoint file:  "ANI1ccx_1889_conf2_mol1.chk"
 Charge =  0 Multiplicity = 1

                         Standard orientation:
 ---------------------------------------------------------------------
 Center     Atomic      Atomic             Coordinates (Angstroms)
 Number     Number       Type             X           Y           Z
 ---------------------------------------------------------------------
      1          1           0        0.729647   -0.648781   -0.186316
      2          1           0        2.736230    0.868844   -0.255518
      3          1           0       -1.428500    1.333131   -0.192758
      4          1           0       -1.896671   -0.934909    1.101150
      5          1           0       -1.692091   -1.248649   -0.458057
      6          7           0       -1.476430   -0.581449    0.231760
      7          8           0        1.646220   -0.662430   -0.273970
      8          8           0        1.967200    0.613739    0.276875
      9          8           0       -2.127620    0.636255   -0.206757
 ---------------------------------------------------------------------

 SCF Done:  E(RHF) =  -282.101042453     A.U. after    2 cycles

 The electronic state is 1-A.
 Alpha  occ. eigenvalues --  -20.60813 -20.59660 -20.59400 -15.56524  -1.58852
 Alpha  occ. eigenvalues --   -1.47470  -1.27253  -1.12166  -0.73892  -0.71980
 Alpha  occ. eigenvalues --   -0.69470  -0.68186  -0.65183  -0.60617  -0.52056
 Alpha  occ. eigenvalues --   -0.49797  -0.47193  -0.43812
 Alpha virt. eigenvalues --    0.03540   0.04506   0.05976   0.06105   0.08682
 Alpha virt. eigenvalues --    0.13891   0.15213   0.16171   0.18096   0.19505
 Alpha virt. eigenvalues --    0.20289   0.20746   0.20878   0.21461   0.23129

 Mulliken charges:
               1
     1  H    0.694401
     2  H    0.453518
     3  H    0.335480
     4  H    0.154245
     5  H    0.029188
     6  N    0.405238
     7  O   -0.643862
     8  O   -0.504129
     9  O   -0.924079
 Sum of Mulliken charges =  -0.00000

 Dipole moment (field-independent basis, Debye):
    X=             -0.5600    Y=              0.0164    Z=             -0.3888  Tot=              0.6820

 Test job not archived.
 1\1\GINC-SE186\SP\RHF\Aug-CC-pVDZ\H5N1O3\OHZDE\08-Apr-2025\0\\#t hf au
 g-cc-pvdz iop(5/13=1,5/36=2,99/5=2) pseudo=read geom=check guess=(read
 ,tcheck) scf=(maxcycle=1)\\title\\0,1\H,0,0.729647,-0.648781,-0.186316
 \H,0,2.73623,0.868845,-0.255518\H,0,-1.4285,1.33313,-0.192758\H,0,-1.8
 9667,-0.93491,1.10115\H,0,-1.69209,-1.24865,-0.458057\N,0,-1.47643,-0.
 58145,0.23176\O,0,1.64622,-0.66243,-0.27397\O,0,1.9672,0.61374,0.27687
 5\O,0,-2.12762,0.636254,-0.206757\\Version=ES64L-G16RevC.01\State=1-A\
 HF=-282.1010425\RMSD=8.253e-03\Dipole=-0.2203338,0.0064448,-0.1529794\

 Normal termination of Gaussian 16 at Tue Apr  8 21:12:23 2025.
