 Gaussian 16, Revision C.01,

 ----------------------------------------------------------------------
 #t hf aug-cc-pvdz symm=none int=(grid=ultrafine) guess=(read,tcheck) s
 table=(opt,rrhf)
 ----------------------------------------------------------------------
 -----
 title
 -----
 Symbolic Z-matrix:
 Charge =  0 Multiplicity = 1

 SCF Done:  E(RHF) =  -403.496197771     A.U. after   16 cycles
 Normal termination of Gaussian 16 at Tue Apr  8 21:42:53 2025.
 Gaussian 16:  ES64L-G16RevC.01  3-Jul-2019

 ----------------------------------------------------------------------
 #t hf aug-cc-pvdz iop(5/13=1,5/36=2,99/5=2) pseudo=read geom=check gue
 ss=(read,tcheck) scf=(maxcycle=1)
 ----------------------------------------------------------------------
 -----
 title
 -----
 Structure from the checkpoint file:  "ANI1ccx_490_conf1_mol1.chk"
 Charge =  0 Multiplicity = 1

                         Standard orientation:
 ---------------------------------------------------------------------
 Center     Atomic      Atomic             Coordinates (Angstroms)
 Number     Number       Type             X           Y           Z
 ---------------------------------------------------------------------
      1          6           0       -0.003308   -0.712358    0.095750
      2          6           0        0.012112    0.687104    0.080576
      3          1           0        1.933149   -1.761660    0.056460
      4          1           0       -1.783622    1.863259    0.034646
      5          7           0       -2.075421   -0.141911   -0.092483
      6          7           0       -1.290641   -1.185641    0.052622
      7          7           0        1.335539   -0.971196   -0.078094
      8          7           0        2.039619    0.142461   -0.038966
      9          7           0        1.261128    1.150050    0.016805
     10          7           0       -1.299131    1.013369   -0.024035
 ---------------------------------------------------------------------

 SCF Done:  E(RHF) =  -403.894261480     A.U. after    2 cycles

 The electronic state is 1-A.
 Alpha  occ. eigenvalues --  -15.62646 -15.62289 -15.61541 -15.61412 -15.58175
 Alpha  occ. eigenvalues --  -15.56185 -11.32342 -11.32141  -1.48694  -1.43400
 Alpha  occ. eigenvalues --   -1.27043  -1.23403  -1.14629  -0.99326  -0.94037
 Alpha  occ. eigenvalues --   -0.93508  -0.86255  -0.80707  -0.74474  -0.68077
 Alpha  occ. eigenvalues --   -0.66906  -0.63269  -0.61506  -0.54370  -0.53008
 Alpha  occ. eigenvalues --   -0.50723  -0.45799  -0.39454
 Alpha virt. eigenvalues --    0.02230   0.02470   0.04709   0.08314   0.08682
 Alpha virt. eigenvalues --    0.09881   0.09950   0.11351   0.11737   0.12149
 Alpha virt. eigenvalues --    0.12874   0.14068   0.15098   0.15366   0.17107

 Mulliken charges:
               1
     1  C   -0.606190
     2  C   -0.760497
     3  H    0.037041
     4  H   -0.016755
     5  N   -0.236086
     6  N    0.340906
     7  N    0.461206
     8  N   -0.254706
     9  N    0.383744
    10  N    0.651337
 Sum of Mulliken charges =  -0.00000

 Dipole moment (field-independent basis, Debye):
    X=              0.3079    Y=             -0.0554    Z=              0.4320  Tot=              0.5334

 Test job not archived.
 1\1\GINC-SE334\SP\RHF\Aug-CC-pVDZ\C2H2N6\OHZDE\08-Apr-2025\0\\#t hf au
 g-cc-pvdz iop(5/13=1,5/36=2,99/5=2) pseudo=read geom=check guess=(read
 ,tcheck) scf=(maxcycle=1)\\title\\0,1\C,0,-0.00330682,-0.712358,0.0957
 501\C,0,0.0121129,0.687104,0.0805757\H,0,1.93315,-1.76166,0.0564598\H,
 0,-1.78362,1.86326,0.0346463\N,0,-2.07542,-0.14191,-0.0924829\N,0,-1.2
 9064,-1.18564,0.0526216\N,0,1.33554,-0.971196,-0.0780936\N,0,2.03962,0
 .142461,-0.0389663\N,0,1.26113,1.15005,0.0168051\N,0,-1.29913,1.01337,
 -0.0240355\\Version=ES64L-G16RevC.01\State=1-A\HF=-403.8942615\RMSD=5.

 Normal termination of Gaussian 16 at Tue Apr  8 21:42:57 2025.
