 Gaussian 16, Revision C.01,

 ----------------------------------------------------------------------
 #t hf aug-cc-pvdz symm=none int=(grid=ultrafine) guess=(read,tcheck) s
 table=(opt,rrhf)
 ----------------------------------------------------------------------
 -----
 title
 -----
 Symbolic Z-matrix:
 Charge =  0 Multiplicity = 1

 SCF Done:  E(RHF) =  -436.953970078     A.U. after   13 cycles
 Normal termination of Gaussian 16 at Tue Apr  8 21:56:51 2025.
 Gaussian 16:  ES64L-G16RevC.01  3-Jul-2019

 ----------------------------------------------------------------------
 #t hf aug-cc-pvdz iop(5/13=1,5/36=2,99/5=2) pseudo=read geom=check gue
 ss=(read,tcheck) scf=(maxcycle=1)
 ----------------------------------------------------------------------
 -----
 title
 -----
 Structure from the checkpoint file:  "ANI1ccx_818_conf3_mol2.chk"
 Charge =  0 Multiplicity = 1

                         Standard orientation:
 ---------------------------------------------------------------------
 Center     Atomic      Atomic             Coordinates (Angstroms)
 Number     Number       Type             X           Y           Z
 ---------------------------------------------------------------------
      1          6           0       -0.194055   -0.246805   -0.004645
      2          6           0       -1.606181   -0.622769   -0.537350
      3          6           0        0.897433   -1.230311   -0.497987
      4          6           0        0.102254    1.174160   -0.565807
      5          1           0        1.174990    1.944609    0.890276
      6          1           0       -0.743736    1.838180   -0.322189
      7          1           0        0.257679    1.132859   -1.653800
      8          1           0        2.283260    0.014312   -0.141152
      9          1           0        0.705475   -2.261381   -0.175205
     10          1           0        0.944219   -1.223481   -1.614970
     11          1           0       -2.251800    0.439339    0.892732
     12          1           0       -1.838021   -1.660940   -0.259078
     13          1           0       -1.666820   -0.488415   -1.619270
     14          1           0       -0.513501   -1.111580    1.809320
     15          1           0        0.729422   -0.094326    1.786740
     16          7           0       -0.226290   -0.194302    1.453910
     17          8           0       -2.581660    0.237194    0.007940
     18          8           0        2.170659   -0.924011    0.021872
     19          8           0        1.324270    1.734979   -0.046818
 ---------------------------------------------------------------------

 SCF Done:  E(RHF) =  -437.406919079     A.U. after    2 cycles

 The electronic state is 1-A.
 Alpha  occ. eigenvalues --  -20.57107 -20.54782 -20.54339 -15.51159 -11.30042
 Alpha  occ. eigenvalues --  -11.29656 -11.29226 -11.28466  -1.47001  -1.45689
 Alpha  occ. eigenvalues --   -1.45043  -1.21422  -1.04227  -0.93226  -0.91745
 Alpha  occ. eigenvalues --   -0.81189  -0.74323  -0.73391  -0.69471  -0.66065
 Alpha  occ. eigenvalues --   -0.64826  -0.63964  -0.61416  -0.59885  -0.58664
 Alpha  occ. eigenvalues --   -0.58110  -0.55149  -0.52223  -0.49307  -0.48633
 Alpha  occ. eigenvalues --   -0.45891  -0.43368  -0.42051
 Alpha virt. eigenvalues --    0.03228   0.03745   0.04230   0.04828   0.05619
 Alpha virt. eigenvalues --    0.05947   0.06356   0.06618   0.07550   0.09605
 Alpha virt. eigenvalues --    0.09701   0.12558   0.12877   0.13505   0.13964

 Mulliken charges:
               1
     1  C   -4.006979
     2  C    1.435822
     3  C    1.400455
     4  C    1.368544
     5  H    0.320753
     6  H    0.199876
     7  H    0.136436
     8  H    0.446933
     9  H    0.074978
    10  H    0.222331
    11  H    0.446909
    12  H    0.127388
    13  H    0.184092
    14  H    0.210837
    15  H    0.284192
    16  N    0.875037
    17  O   -1.244150
    18  O   -1.266481
    19  O   -1.216971
 Sum of Mulliken charges =  -0.00000

 Dipole moment (field-independent basis, Debye):
    X=             -0.1657    Y=             -0.4931    Z=              0.5552  Tot=              0.7608

 Test job not archived.
 1\1\GINC-SE364\SP\RHF\Aug-CC-pVDZ\C4H11N1O3\OHZDE\08-Apr-2025\0\\#t hf
  aug-cc-pvdz iop(5/13=1,5/36=2,99/5=2) pseudo=read geom=check guess=(r
 ead,tcheck) scf=(maxcycle=1)\\title\\0,1\C,0,-0.194055,-0.246805,-0.00
 464577\C,0,-1.60618,-0.622769,-0.53735\C,0,0.897434,-1.23031,-0.497987
 \C,0,0.102254,1.17416,-0.565807\H,0,1.17499,1.94461,0.890276\H,0,-0.74
 3736,1.83818,-0.322189\H,0,0.257679,1.13286,-1.6538\H,0,2.28326,0.0143
 132,-0.141152\H,0,0.705476,-2.26138,-0.175205\H,0,0.94422,-1.22348,-1.
 61497\H,0,-2.2518,0.439339,0.892732\H,0,-1.83802,-1.66094,-0.259078\H,

 Normal termination of Gaussian 16 at Tue Apr  8 21:57:00 2025.
