 Gaussian 16, Revision C.01,

 ----------------------------------------------------------------------
 #t hf aug-cc-pvdz symm=none int=(grid=ultrafine) guess=(read,tcheck) s
 table=(opt,rrhf)
 ----------------------------------------------------------------------
 -----
 title
 -----
 Symbolic Z-matrix:
 Charge =  0 Multiplicity = 1

 SCF Done:  E(RHF) =  -489.698096873     A.U. after   14 cycles
 Normal termination of Gaussian 16 at Tue Apr  8 22:14:06 2025.
 Gaussian 16:  ES64L-G16RevC.01  3-Jul-2019

 ----------------------------------------------------------------------
 #t hf aug-cc-pvdz iop(5/13=1,5/36=2,99/5=2) pseudo=read geom=check gue
 ss=(read,tcheck) scf=(maxcycle=1)
 ----------------------------------------------------------------------
 -----
 title
 -----
 Structure from the checkpoint file:  "ANI1ccx_957_conf21_mol1.chk"
 Charge =  0 Multiplicity = 1

                         Standard orientation:
 ---------------------------------------------------------------------
 Center     Atomic      Atomic             Coordinates (Angstroms)
 Number     Number       Type             X           Y           Z
 ---------------------------------------------------------------------
      1          6           0       -0.728431    0.633414   -0.330734
      2          6           0       -1.195381   -0.781122   -0.208816
      3          6           0        0.502138    0.971275    0.531586
      4          6           0        1.788239    0.133928    0.284207
      5          1           0       -2.562031   -0.026603    0.767127
      6          1           0        3.148669   -0.291682   -1.136470
      7          1           0        0.245607    0.707842    1.597360
      8          1           0        0.764681    2.064350    0.420376
      9          1           0        2.126189    0.985131   -1.595200
     10          1           0       -2.540091    1.529220   -0.584508
     11          1           0       -1.807222    1.938020    0.786216
     12          1           0       -0.355487    0.727044   -1.342080
     13          7           0       -1.671621    1.704520   -0.160805
     14          7           0        2.294969    0.204822   -0.960354
     15          8           0        2.204989   -0.676741    1.120740
     16          8           0       -0.603918   -1.695580   -0.738757
     17          8           0       -2.298961   -0.970638    0.527743
 ---------------------------------------------------------------------

 SCF Done:  E(RHF) =  -490.192560535     A.U. after    2 cycles

 The electronic state is 1-A.
 Alpha  occ. eigenvalues --  -20.61864 -20.53617 -20.51318 -15.53622 -15.53203
 Alpha  occ. eigenvalues --  -11.39655 -11.37054 -11.30863 -11.28392  -1.55300
 Alpha  occ. eigenvalues --   -1.45455  -1.44778  -1.25650  -1.23340  -1.06554
 Alpha  occ. eigenvalues --   -0.95298  -0.85051  -0.82482  -0.78650  -0.77468
 Alpha  occ. eigenvalues --   -0.74589  -0.69851  -0.66559  -0.65733  -0.63952
 Alpha  occ. eigenvalues --   -0.61179  -0.59358  -0.58389  -0.55223  -0.54098
 Alpha  occ. eigenvalues --   -0.50769  -0.46787  -0.43767  -0.43549  -0.42502
 Alpha virt. eigenvalues --    0.01922   0.02834   0.04065   0.04714   0.05811
 Alpha virt. eigenvalues --    0.05957   0.06441   0.07991   0.09938   0.10306
 Alpha virt. eigenvalues --    0.10981   0.11701   0.12687   0.13377   0.14049

 Mulliken charges:
               1
     1  C   -1.425627
     2  C    2.598407
     3  C   -0.589682
     4  C    0.474662
     5  H    0.417715
     6  H    0.067695
     7  H    0.224199
     8  H    0.295634
     9  H    0.061327
    10  H    0.102405
    11  H    0.269898
    12  H    0.166572
    13  N    0.629100
    14  N    0.789336
    15  O   -1.351772
    16  O   -1.335308
    17  O   -1.394560
 Sum of Mulliken charges =  -0.00000

 Dipole moment (field-independent basis, Debye):
    X=             -1.8072    Y=              6.0531    Z=             -1.4010  Tot=              6.4706

 Test job not archived.
 1\1\GINC-SE016\SP\RHF\Aug-CC-pVDZ\C4H8N2O3\OHZDE\08-Apr-2025\0\\#t hf
 aug-cc-pvdz iop(5/13=1,5/36=2,99/5=2) pseudo=read geom=check guess=(re
 ad,tcheck) scf=(maxcycle=1)\\title\\0,1\C,0,-0.72843,0.633414,-0.33073
 4\C,0,-1.19538,-0.781122,-0.208816\C,0,0.502139,0.971275,0.531586\C,0,
 1.78824,0.133928,0.284207\H,0,-2.56203,-0.026603,0.767127\H,0,3.14867,
 -0.291682,-1.13647\H,0,0.245608,0.707842,1.59736\H,0,0.764683,2.06435,
 0.420376\H,0,2.12619,0.985131,-1.5952\H,0,-2.54009,1.52922,-0.584508\H
 ,0,-1.80722,1.93802,0.786216\H,0,-0.355486,0.727044,-1.34208\N,0,-1.67

 Normal termination of Gaussian 16 at Tue Apr  8 22:14:14 2025.
