 Gaussian 16, Revision C.01,

 ----------------------------------------------------------------------
 #t hf aug-cc-pvdz symm=none int=(grid=ultrafine) guess=(read,tcheck) s
 table=(opt,rrhf)
 ----------------------------------------------------------------------
 -----
 title
 -----
 Symbolic Z-matrix:
 Charge =  0 Multiplicity = 1

 SCF Done:  E(RHF) =  -301.624565551     A.U. after   14 cycles
 Normal termination of Gaussian 16 at Tue Apr  8 21:11:18 2025.
 Gaussian 16:  ES64L-G16RevC.01  3-Jul-2019

 ----------------------------------------------------------------------
 #t hf aug-cc-pvdz iop(5/13=1,5/36=2,99/5=2) pseudo=read geom=check gue
 ss=(read,tcheck) scf=(maxcycle=1)
 ----------------------------------------------------------------------
 -----
 title
 -----
 Structure from the checkpoint file:  "ANI1ccx_1884_conf2_mol2.chk"
 Charge =  0 Multiplicity = 1

                         Standard orientation:
 ---------------------------------------------------------------------
 Center     Atomic      Atomic             Coordinates (Angstroms)
 Number     Number       Type             X           Y           Z
 ---------------------------------------------------------------------
      1          1           0       -1.991610   -0.543937    0.402104
      2          1           0       -2.855340    0.680259    0.292470
      3          1           0       -0.054585    1.212990   -0.380707
      4          1           0        1.425030   -1.241100    0.906367
      5          8           0       -2.714740   -0.178890   -0.120528
      6          8           0        0.654722    1.130870    0.254239
      7          8           0        1.495210    0.152444   -0.337115
      8          8           0        0.999371   -1.117950    0.050875
 ---------------------------------------------------------------------

 SCF Done:  E(RHF) =  -301.921064582     A.U. after    2 cycles

 The electronic state is 1-A.
 Alpha  occ. eigenvalues --  -20.69693 -20.64351 -20.64121 -20.56581  -1.68503
 Alpha  occ. eigenvalues --   -1.47283  -1.44436  -1.21007  -0.78677  -0.71004
 Alpha  occ. eigenvalues --   -0.70507  -0.68504  -0.65584  -0.58763  -0.51683
 Alpha  occ. eigenvalues --   -0.51459  -0.50505  -0.49814
 Alpha virt. eigenvalues --    0.03556   0.04300   0.06479   0.07665   0.12265
 Alpha virt. eigenvalues --    0.13566   0.17178   0.18459   0.18961   0.20400
 Alpha virt. eigenvalues --    0.21962   0.22974   0.23785   0.24741   0.24780

 Mulliken charges:
               1
     1  H    0.395974
     2  H    0.351887
     3  H    0.453856
     4  H    0.446520
     5  O   -0.748707
     6  O   -0.466423
     7  O    0.014322
     8  O   -0.447428
 Sum of Mulliken charges =   0.00000

 Dipole moment (field-independent basis, Debye):
    X=              0.3098    Y=              0.6217    Z=              2.0250  Tot=              2.1408

 Test job not archived.
 1\1\GINC-SE393\SP\RHF\Aug-CC-pVDZ\H4O4\OHZDE\08-Apr-2025\0\\#t hf aug-
 cc-pvdz iop(5/13=1,5/36=2,99/5=2) pseudo=read geom=check guess=(read,t
 check) scf=(maxcycle=1)\\title\\0,1\H,0,-1.99161,-0.543938,0.402104\H,
 0,-2.85534,0.680258,0.29247\H,0,-0.0545855,1.21299,-0.380707\H,0,1.425
 03,-1.2411,0.906367\O,0,-2.71474,-0.178891,-0.120528\O,0,0.654722,1.13
 087,0.254239\O,0,1.49521,0.152444,-0.337115\O,0,0.999371,-1.11795,0.05
 08749\\Version=ES64L-G16RevC.01\State=1-A\HF=-301.9210646\RMSD=7.678e-
 03\Dipole=0.1218904,0.2445967,0.7966774\Quadrupole=-2.8885697,1.645501

 Normal termination of Gaussian 16 at Tue Apr  8 21:11:20 2025.
