 Gaussian 16, Revision C.01,

 ----------------------------------------------------------------------
 #t hf aug-cc-pvdz symm=none int=(grid=ultrafine) guess=(read,tcheck) s
 table=(opt,rrhf)
 ----------------------------------------------------------------------
 -----
 title
 -----
 Symbolic Z-matrix:
 Charge =  0 Multiplicity = 1

 SCF Done:  E(RHF) =  -228.122020056     A.U. after   11 cycles
 Normal termination of Gaussian 16 at Tue Apr  8 21:13:20 2025.
 Gaussian 16:  ES64L-G16RevC.01  3-Jul-2019

 ----------------------------------------------------------------------
 #t hf aug-cc-pvdz iop(5/13=1,5/36=2,99/5=2) pseudo=read geom=check gue
 ss=(read,tcheck) scf=(maxcycle=1)
 ----------------------------------------------------------------------
 -----
 title
 -----
 Structure from the checkpoint file:  "ANI1ccx_1900_conf26_mol1.chk"
 Charge =  0 Multiplicity = 1

                         Standard orientation:
 ---------------------------------------------------------------------
 Center     Atomic      Atomic             Coordinates (Angstroms)
 Number     Number       Type             X           Y           Z
 ---------------------------------------------------------------------
      1          1           0        1.158276    0.370864   -0.291392
      2          1           0        1.929343   -0.382860    0.782660
      3          1           0       -0.863878    0.741388    0.186672
      4          1           0       -0.294435    2.152156    0.609121
      5          1           0       -0.267823   -1.142254    0.168203
      6          1           0       -1.532700   -1.163745   -0.806058
      7          8           0        1.535715   -0.585247   -0.089756
      8          8           0       -0.285911    1.515596   -0.106178
      9          8           0       -1.265902   -1.002293    0.114784
 ---------------------------------------------------------------------

 SCF Done:  E(RHF) =  -228.358664670     A.U. after    2 cycles

 The electronic state is 1-A.
 Alpha  occ. eigenvalues --  -20.56384 -20.56111 -20.56012  -1.44774  -1.42545
 Alpha  occ. eigenvalues --   -1.41938  -0.72772  -0.70379  -0.67672  -0.60145
 Alpha  occ. eigenvalues --   -0.58940  -0.56656  -0.50510  -0.49510  -0.48648
 Alpha virt. eigenvalues --    0.03228   0.05019   0.05386   0.06901   0.08499
 Alpha virt. eigenvalues --    0.09538   0.17048   0.18220   0.18625   0.21125
 Alpha virt. eigenvalues --    0.22051   0.22835   0.24586   0.25785   0.26701

 Mulliken charges:
               1
     1  H    0.607696
     2  H    0.381284
     3  H    0.590584
     4  H    0.405730
     5  H    0.591231
     6  H    0.365818
     7  O   -0.985802
     8  O   -0.955696
     9  O   -1.000843
 Sum of Mulliken charges =   0.00000

 Dipole moment (field-independent basis, Debye):
    X=              0.1556    Y=              1.0821    Z=              1.2472  Tot=              1.6586

 Test job not archived.
 1\1\GINC-SE116\SP\RHF\Aug-CC-pVDZ\H6O3\OHZDE\08-Apr-2025\0\\#t hf aug-
 cc-pvdz iop(5/13=1,5/36=2,99/5=2) pseudo=read geom=check guess=(read,t
 check) scf=(maxcycle=1)\\title\\0,1\H,0,1.15828,0.370855,-0.291392\H,0
 ,1.92934,-0.382875,0.78266\H,0,-0.863871,0.741397,0.186672\H,0,-0.2944
 16,2.15216,0.609121\H,0,-0.267833,-1.14225,0.168203\H,0,-1.53271,-1.16
 373,-0.806058\O,0,1.53571,-0.585259,-0.0897564\O,0,-0.285897,1.5156,-0
 .106178\O,0,-1.26591,-1.00228,0.114784\\Version=ES64L-G16RevC.01\State
 =1-A\HF=-228.3586647\RMSD=5.712e-03\Dipole=0.0612051,0.4257487,0.49070

 Normal termination of Gaussian 16 at Tue Apr  8 21:13:23 2025.
