 Gaussian 16, Revision C.01,

 ----------------------------------------------------------------------
 #t hf aug-cc-pvdz symm=none int=(grid=ultrafine) guess=(read,tcheck) s
 table=(opt,rrhf)
 ----------------------------------------------------------------------
 -----
 title
 -----
 Symbolic Z-matrix:
 Charge =  0 Multiplicity = 1

 SCF Done:  E(RHF) =  -451.163203964     A.U. after   14 cycles
 Normal termination of Gaussian 16 at Tue Apr  8 21:11:24 2025.
 Gaussian 16:  ES64L-G16RevC.01  3-Jul-2019

 ----------------------------------------------------------------------
 #t hf aug-cc-pvdz iop(5/13=1,5/36=2,99/5=2) pseudo=read geom=check gue
 ss=(read,tcheck) scf=(maxcycle=1)
 ----------------------------------------------------------------------
 -----
 title
 -----
 Structure from the checkpoint file:  "ANI1ccx_1886_conf2_mol1.chk"
 Charge =  0 Multiplicity = 1

                         Standard orientation:
 ---------------------------------------------------------------------
 Center     Atomic      Atomic             Coordinates (Angstroms)
 Number     Number       Type             X           Y           Z
 ---------------------------------------------------------------------
      1          1           0       -1.833320    1.470570    0.496076
      2          1           0       -3.173391   -1.214719    0.563734
      3          1           0        1.016489   -0.552860   -0.835429
      4          1           0        3.216169   -0.305309    1.195820
      5          8           0       -1.388630    0.603917    0.503356
      6          8           0       -2.125541   -0.087512   -0.479485
      7          8           0       -3.361351   -0.415389    0.051042
      8          8           0        1.174379    0.140317   -0.181579
      9          8           0        2.529350    0.429633   -0.350300
     10          8           0        3.268549   -0.595676    0.279440
 ---------------------------------------------------------------------

 SCF Done:  E(RHF) =  -451.600601789     A.U. after    2 cycles

 The electronic state is 1-A.
 Alpha  occ. eigenvalues --  -20.68572 -20.67670 -20.63648 -20.63196 -20.62749
 Alpha  occ. eigenvalues --  -20.62349  -1.69559  -1.68127  -1.46801  -1.45803
 Alpha  occ. eigenvalues --   -1.19415  -1.18795  -0.78838  -0.77694  -0.69231
 Alpha  occ. eigenvalues --   -0.68745  -0.68333  -0.67638  -0.66050  -0.64461
 Alpha  occ. eigenvalues --   -0.51645  -0.50503  -0.49792  -0.49546  -0.48392
 Alpha  occ. eigenvalues --   -0.47628
 Alpha virt. eigenvalues --    0.04064   0.04855   0.05331   0.06301   0.13356
 Alpha virt. eigenvalues --    0.13903   0.14550   0.16526   0.19241   0.19419
 Alpha virt. eigenvalues --    0.20098   0.20803   0.21079   0.21637   0.22429

 Mulliken charges:
               1
     1  H    0.495707
     2  H    0.440541
     3  H    0.486661
     4  H    0.461640
     5  O   -0.519569
     6  O    0.053384
     7  O   -0.446278
     8  O   -0.677247
     9  O    0.191378
    10  O   -0.486216
 Sum of Mulliken charges =  -0.00000

 Dipole moment (field-independent basis, Debye):
    X=             -1.1280    Y=             -0.6512    Z=              1.7486  Tot=              2.1804

 Test job not archived.
 1\1\GINC-SE454\SP\RHF\Aug-CC-pVDZ\H4O6\OHZDE\08-Apr-2025\0\\#t hf aug-
 cc-pvdz iop(5/13=1,5/36=2,99/5=2) pseudo=read geom=check guess=(read,t
 check) scf=(maxcycle=1)\\title\\0,1\H,0,-1.83332,1.47057,0.496076\H,0,
 -3.17339,-1.21472,0.563734\H,0,1.01649,-0.55286,-0.835429\H,0,3.21617,
 -0.305308,1.19582\O,0,-1.38863,0.603917,0.503356\O,0,-2.12554,-0.08751
 29,-0.479485\O,0,-3.36135,-0.41539,0.0510422\O,0,1.17438,0.140317,-0.1
 81579\O,0,2.52935,0.429633,-0.3503\O,0,3.26855,-0.595675,0.27944\\Vers
 ion=ES64L-G16RevC.01\State=1-A\HF=-451.6006018\RMSD=8.414e-03\Dipole=-

 Normal termination of Gaussian 16 at Tue Apr  8 21:11:27 2025.
