 Gaussian 16, Revision C.01,

 ----------------------------------------------------------------------
 #t hf aug-cc-pvdz symm=none int=(grid=ultrafine) guess=(read,tcheck) s
 table=(opt,rrhf)
 ----------------------------------------------------------------------
 -----
 title
 -----
 Symbolic Z-matrix:
 Charge =  0 Multiplicity = 1

 SCF Done:  E(RHF) =  -448.368008881     A.U. after   15 cycles
 Normal termination of Gaussian 16 at Tue Apr  8 21:49:00 2025.
 Gaussian 16:  ES64L-G16RevC.01  3-Jul-2019

 ----------------------------------------------------------------------
 #t hf aug-cc-pvdz iop(5/13=1,5/36=2,99/5=2) pseudo=read geom=check gue
 ss=(read,tcheck) scf=(maxcycle=1)
 ----------------------------------------------------------------------
 -----
 title
 -----
 Structure from the checkpoint file:  "ANI1ccx_656_conf2_mol2.chk"
 Charge =  0 Multiplicity = 1

                         Standard orientation:
 ---------------------------------------------------------------------
 Center     Atomic      Atomic             Coordinates (Angstroms)
 Number     Number       Type             X           Y           Z
 ---------------------------------------------------------------------
      1          6           0        1.357650    0.013755   -0.026732
      2          6           0       -0.796962    0.768144    0.039257
      3          6           0       -0.823128   -0.791529   -0.002663
      4          1           0        0.883949    2.078922    0.165932
      5          1           0        0.859097   -2.062288    0.058653
      6          7           0        0.546039    1.116441    0.018405
      7          7           0        0.538634   -1.136549   -0.047961
      8          8           0        2.531610   -0.025503    0.005583
      9          8           0       -1.718203    1.547016   -0.046038
     10          8           0       -1.783546   -1.498774    0.030847
 ---------------------------------------------------------------------

 SCF Done:  E(RHF) =  -448.800196611     A.U. after    2 cycles

 The electronic state is 1-A.
 Alpha  occ. eigenvalues --  -20.58686 -20.58416 -20.56785 -15.59958 -15.59176
 Alpha  occ. eigenvalues --  -11.44579 -11.42715 -11.42513  -1.55175  -1.53384
 Alpha  occ. eigenvalues --   -1.51652  -1.36879  -1.26462  -1.00574  -0.95463
 Alpha  occ. eigenvalues --   -0.89605  -0.79182  -0.78365  -0.73320  -0.71251
 Alpha  occ. eigenvalues --   -0.70227  -0.67679  -0.61428  -0.60384  -0.55222
 Alpha  occ. eigenvalues --   -0.49554  -0.49019  -0.48430  -0.46404
 Alpha virt. eigenvalues --    0.02615   0.03968   0.04038   0.08216   0.08374
 Alpha virt. eigenvalues --    0.08541   0.09085   0.10167   0.10353   0.10835
 Alpha virt. eigenvalues --    0.12674   0.13637   0.13866   0.15404   0.16647

 Mulliken charges:
               1
     1  C    0.492416
     2  C    0.835512
     3  C    0.837666
     4  H    0.150550
     5  H    0.059071
     6  N    0.550420
     7  N    0.545218
     8  O   -1.110020
     9  O   -1.205727
    10  O   -1.155106
 Sum of Mulliken charges =  -0.00000

 Dipole moment (field-independent basis, Debye):
    X=              2.0261    Y=              0.1040    Z=              0.4652  Tot=              2.0814

 Test job not archived.
 1\1\GINC-SE074\SP\RHF\Aug-CC-pVDZ\C3H2N2O3\OHZDE\08-Apr-2025\0\\#t hf
 aug-cc-pvdz iop(5/13=1,5/36=2,99/5=2) pseudo=read geom=check guess=(re
 ad,tcheck) scf=(maxcycle=1)\\title\\0,1\C,0,1.35765,0.0137522,-0.02673
 23\C,0,-0.79696,0.768146,0.0392566\C,0,-0.82313,-0.791527,-0.00266265\
 H,0,0.883954,2.07892,0.165932\H,0,0.859092,-2.06229,0.0586531\N,0,0.54
 6041,1.11644,0.0184045\N,0,0.538631,-1.13655,-0.0479612\O,0,2.53161,-0
 .0255089,0.00558307\O,0,-1.7182,1.54702,-0.0460376\O,0,-1.78355,-1.498
 77,0.0308472\\Version=ES64L-G16RevC.01\State=1-A\HF=-448.8001966\RMSD=

 Normal termination of Gaussian 16 at Tue Apr  8 21:49:05 2025.
