 Gaussian 16, Revision C.01,

 ----------------------------------------------------------------------
 #t hf aug-cc-pvdz symm=none int=(grid=ultrafine) guess=(read,tcheck) s
 table=(opt,rrhf)
 ----------------------------------------------------------------------
 -----
 title
 -----
 Symbolic Z-matrix:
 Charge =  0 Multiplicity = 1

 SCF Done:  E(RHF) =  -220.153915903     A.U. after   12 cycles
 Normal termination of Gaussian 16 at Tue Apr  8 21:11:18 2025.
 Gaussian 16:  ES64L-G16RevC.01  3-Jul-2019

 ----------------------------------------------------------------------
 #t hf aug-cc-pvdz iop(5/13=1,5/36=2,99/5=2) pseudo=read geom=check gue
 ss=(read,tcheck) scf=(maxcycle=1)
 ----------------------------------------------------------------------
 -----
 title
 -----
 Structure from the checkpoint file:  "ANI1ccx_1880_conf4_mol1.chk"
 Charge =  0 Multiplicity = 1

                         Standard orientation:
 ---------------------------------------------------------------------
 Center     Atomic      Atomic             Coordinates (Angstroms)
 Number     Number       Type             X           Y           Z
 ---------------------------------------------------------------------
      1          1           0        0.743223    0.049744   -0.784531
      2          1           0        0.802779    0.521545    0.728477
      3          1           0        2.851051   -0.195741    0.968916
      4          1           0        3.172791   -0.031739   -0.575154
      5          7           0       -2.058509   -0.500610   -0.074658
      6          7           0       -2.820949    0.283652    0.092363
      7          7           0        1.342651    0.551292   -0.120971
      8          7           0        2.455401   -0.383449    0.055022
 ---------------------------------------------------------------------

 SCF Done:  E(RHF) =  -220.375973432     A.U. after    2 cycles

 The electronic state is 1-A.
 Alpha  occ. eigenvalues --  -15.63341 -15.63203 -15.51612 -15.51240  -1.49622
 Alpha  occ. eigenvalues --   -1.24963  -1.03474  -0.83123  -0.73460  -0.69478
 Alpha  occ. eigenvalues --   -0.67611  -0.67528  -0.64766  -0.63071  -0.55886
 Alpha  occ. eigenvalues --   -0.41471
 Alpha virt. eigenvalues --    0.03734   0.06155   0.06426   0.07256   0.08514
 Alpha virt. eigenvalues --    0.08622   0.11825   0.13659   0.15153   0.15773
 Alpha virt. eigenvalues --    0.17010   0.17634   0.17894   0.18690   0.19859

 Mulliken charges:
               1
     1  H    0.144368
     2  H    0.108052
     3  H    0.115103
     4  H    0.119056
     5  N    0.030817
     6  N   -0.053698
     7  N   -0.178862
     8  N   -0.284837
 Sum of Mulliken charges =  -0.00000

 Dipole moment (field-independent basis, Debye):
    X=             -0.1114    Y=              0.0189    Z=              0.7392  Tot=              0.7478

 Test job not archived.
 1\1\GINC-SE249\SP\RHF\Aug-CC-pVDZ\H4N4\OHZDE\08-Apr-2025\0\\#t hf aug-
 cc-pvdz iop(5/13=1,5/36=2,99/5=2) pseudo=read geom=check guess=(read,t
 check) scf=(maxcycle=1)\\title\\0,1\H,0,0.743222,0.0497442,-0.784531\H
 ,0,0.802778,0.521545,0.728477\H,0,2.85105,-0.195741,0.968916\H,0,3.172
 79,-0.0317397,-0.575154\N,0,-2.05851,-0.50061,-0.074658\N,0,-2.82095,0
 .283652,0.0923628\N,0,1.34265,0.551292,-0.120971\N,0,2.4554,-0.383449,
 0.0550223\\Version=ES64L-G16RevC.01\State=1-A\HF=-220.3759734\RMSD=3.5
 78e-02\Dipole=-0.0438431,0.0074463,0.2908366\Quadrupole=2.3359001,-3.9

 Normal termination of Gaussian 16 at Tue Apr  8 21:11:21 2025.
