 Gaussian 16, Revision C.01,

 ----------------------------------------------------------------------
 #t hf aug-cc-pvdz symm=none int=(grid=ultrafine) guess=(read,tcheck) s
 table=(opt,rrhf)
 ----------------------------------------------------------------------
 -----
 title
 -----
 Symbolic Z-matrix:
 Charge =  0 Multiplicity = 1

 SCF Done:  E(RHF) =  -380.216595491     A.U. after   11 cycles
 Normal termination of Gaussian 16 at Tue Apr  8 21:05:24 2025.
 Gaussian 16:  ES64L-G16RevC.01  3-Jul-2019

 ----------------------------------------------------------------------
 #t hf aug-cc-pvdz iop(5/13=1,5/36=2,99/5=2) pseudo=read geom=check gue
 ss=(read,tcheck) scf=(maxcycle=1)
 ----------------------------------------------------------------------
 -----
 title
 -----
 Structure from the checkpoint file:  "ANI1ccx_1843_conf75_mol1.chk"
 Charge =  0 Multiplicity = 1

                         Standard orientation:
 ---------------------------------------------------------------------
 Center     Atomic      Atomic             Coordinates (Angstroms)
 Number     Number       Type             X           Y           Z
 ---------------------------------------------------------------------
      1          1           0       -0.083021    1.618178    0.322963
      2          1           0        0.905376    2.086197    1.504091
      3          1           0       -1.578969    0.485073   -0.403356
      4          1           0       -1.161848    1.672499   -1.396859
      5          1           0       -2.762590   -1.270360    0.305000
      6          1           0       -1.186220   -1.369261    0.283774
      7          1           0        0.901827   -1.289883    0.080480
      8          1           0        0.388841   -0.437104    1.235061
      9          1           0        2.957740   -0.862168   -0.649026
     10          1           0        1.969951    0.311380   -0.430053
     11          8           0        0.797341    1.432728    0.763166
     12          8           0       -1.386028    1.454379   -0.457754
     13          8           0       -1.993580   -1.157310   -0.294594
     14          8           0        0.396432   -1.381042    0.919014
     15          8           0        2.141950   -0.466824   -1.036339
 ---------------------------------------------------------------------

 SCF Done:  E(RHF) =  -380.610883794     A.U. after    2 cycles

 The electronic state is 1-A.
 Alpha  occ. eigenvalues --  -20.56624 -20.56277 -20.55507 -20.55365 -20.54557
 Alpha  occ. eigenvalues --   -1.45801  -1.43984  -1.43017  -1.42048  -1.40952
 Alpha  occ. eigenvalues --   -0.72717  -0.72518  -0.70310  -0.69973  -0.68874
 Alpha  occ. eigenvalues --   -0.62242  -0.59156  -0.58704  -0.57646  -0.55155
 Alpha  occ. eigenvalues --   -0.49939  -0.49780  -0.49436  -0.48848  -0.47974
 Alpha virt. eigenvalues --    0.03338   0.04466   0.04967   0.05164   0.08027
 Alpha virt. eigenvalues --    0.08243   0.08423   0.08967   0.10605   0.11618
 Alpha virt. eigenvalues --    0.17260   0.17600   0.19337   0.20321   0.20929

 Mulliken charges:
               1
     1  H    0.899334
     2  H    0.449513
     3  H    0.736930
     4  H    0.349025
     5  H    0.387006
     6  H    0.679754
     7  H    0.605032
     8  H    0.612053
     9  H    0.398025
    10  H    0.593346
    11  O   -1.332671
    12  O   -1.143152
    13  O   -1.022966
    14  O   -1.295890
    15  O   -0.915338
 Sum of Mulliken charges =  -0.00000

 Dipole moment (field-independent basis, Debye):
    X=              0.4882    Y=              1.8820    Z=              1.3705  Tot=              2.3787

 Test job not archived.
 1\1\GINC-SE364\SP\RHF\Aug-CC-pVDZ\H10O5\OHZDE\08-Apr-2025\0\\#t hf aug
 -cc-pvdz iop(5/13=1,5/36=2,99/5=2) pseudo=read geom=check guess=(read,
 tcheck) scf=(maxcycle=1)\\title\\0,1\H,0,-0.0830226,1.61818,0.322962\H
 ,0,0.905374,2.0862,1.50409\H,0,-1.57897,0.485073,-0.403357\H,0,-1.1618
 5,1.6725,-1.39686\H,0,-2.76259,-1.27036,0.304999\H,0,-1.18622,-1.36926
 ,0.283773\H,0,0.901827,-1.28988,0.080479\H,0,0.388841,-0.437102,1.2350
 6\H,0,2.95774,-0.862164,-0.649027\H,0,1.96995,0.311383,-0.430054\O,0,0
 .797339,1.43273,0.763165\O,0,-1.38603,1.45438,-0.457755\O,0,-1.99358,-

 Normal termination of Gaussian 16 at Tue Apr  8 21:05:28 2025.
