 Gaussian 16, Revision C.01,

 ----------------------------------------------------------------------
 #t hf aug-cc-pvdz symm=none int=(grid=ultrafine) guess=(read,tcheck) s
 table=(opt,rrhf)
 ----------------------------------------------------------------------
 -----
 title
 -----
 Symbolic Z-matrix:
 Charge =  0 Multiplicity = 1

 SCF Done:  E(RHF) =  -809.787087047     A.U. after   14 cycles
 Normal termination of Gaussian 16 at Tue Apr  8 20:41:52 2025.
 Gaussian 16:  ES64L-G16RevC.01  3-Jul-2019

 ----------------------------------------------------------------------
 #t hf aug-cc-pvdz iop(5/13=1,5/36=2,99/5=2) pseudo=read geom=check gue
 ss=(read,tcheck) scf=(maxcycle=1)
 ----------------------------------------------------------------------
 -----
 title
 -----
 Structure from the checkpoint file:  "ANI1ccx_1634_conf13_mol1.chk"
 Charge =  0 Multiplicity = 1

                         Standard orientation:
 ---------------------------------------------------------------------
 Center     Atomic      Atomic             Coordinates (Angstroms)
 Number     Number       Type             X           Y           Z
 ---------------------------------------------------------------------
      1          6           0        2.856563    1.167382   -0.428060
      2          6           0        2.340480   -0.238485   -0.282707
      3          6           0        0.343884   -1.602261   -0.464110
      4          6           0       -1.006264   -1.478747   -1.146920
      5          6           0        0.154099   -2.047000    0.979373
      6          6           0       -0.215674   -1.047559    2.093520
      7          6           0       -1.274650    0.006869    1.952060
      8          6           0       -1.418675    1.725184    0.124413
      9          1           0       -2.046731   -0.558208   -2.380660
     10          1           0       -3.216094    2.072619   -0.729463
     11          1           0       -3.279335    1.692139    0.902703
     12          1           0       -1.255743    2.656443   -1.522080
     13          1           0        0.196523    1.178519    1.268530
     14          1           0       -1.483279    0.234651    3.031330
     15          1           0       -2.218301   -0.371224    1.566350
     16          1           0       -0.497401   -1.667239    3.046390
     17          1           0        0.690642   -0.462612    2.335560
     18          1           0       -0.639636   -2.788308    1.002890
     19          1           0        1.114063   -2.469103    1.352090
     20          1           0        0.851931   -2.387892   -1.000460
     21          1           0        0.494276    0.353561   -0.931389
     22          1           0        3.116794    1.387332   -1.472470
     23          1           0        3.716173    1.189720    0.161457
     24          1           0        1.112596    2.266127   -0.506951
     25          1           0        2.372179    3.119044    0.069649
     26          7           0        1.943746    2.170295    0.113168
     27          7           0        1.099729   -0.438357   -0.763926
     28          7           0       -0.806634    1.191042    1.259930
     29          7           0       -0.683689    2.264552   -0.764569
     30          7           0       -2.797786    1.508008    0.035962
     31          8           0        2.968817   -1.174588    0.175706
     32          8           0       -1.907216   -2.304135   -0.971911
     33          8           0       -1.185951   -0.424606   -1.994150
 ---------------------------------------------------------------------

 SCF Done:  E(RHF) =  -810.615259075     A.U. after    2 cycles

 The electronic state is 1-A.
 Alpha  occ. eigenvalues --  -20.61234 -20.54342 -20.50423 -15.54563 -15.51616
 Alpha  occ. eigenvalues --  -15.51455 -15.47565 -15.47310 -11.40747 -11.36931
 Alpha  occ. eigenvalues --  -11.34600 -11.29343 -11.27178 -11.25602 -11.24715
 Alpha  occ. eigenvalues --  -11.23474  -1.55532  -1.45760  -1.44663  -1.31289
 Alpha  occ. eigenvalues --   -1.26092  -1.20604  -1.17660  -1.16870  -1.08195
 Alpha  occ. eigenvalues --   -1.02791  -0.95799  -0.93299  -0.86068  -0.85166
 Alpha  occ. eigenvalues --   -0.82486  -0.80135  -0.76956  -0.75236  -0.73629
 Alpha  occ. eigenvalues --   -0.71148  -0.69188  -0.68646  -0.68203  -0.66680
 Alpha  occ. eigenvalues --   -0.65912  -0.64896  -0.64025  -0.62649  -0.61675
 Alpha  occ. eigenvalues --   -0.60953  -0.59039  -0.57870  -0.57123  -0.55449
 Alpha  occ. eigenvalues --   -0.54329  -0.51479  -0.49935  -0.49114  -0.48153
 Alpha  occ. eigenvalues --   -0.47034  -0.46477  -0.44902  -0.44414  -0.41428
 Alpha  occ. eigenvalues --   -0.41112  -0.40259
 Alpha virt. eigenvalues --    0.02066   0.03454   0.03904   0.04151   0.04363
 Alpha virt. eigenvalues --    0.04786   0.05038   0.05450   0.05755   0.07618
 Alpha virt. eigenvalues --    0.07743   0.08262   0.08807   0.09044   0.09515

 Mulliken charges:
               1
     1  C   -0.446896
     2  C    0.807478
     3  C   -2.171809
     4  C    3.281887
     5  C   -0.098189
     6  C   -0.644508
     7  C   -0.437969
     8  C   -3.428547
     9  H    0.372284
    10  H    0.215179
    11  H    0.197039
    12  H    0.082359
    13  H    0.184477
    14  H    0.109982
    15  H    0.011243
    16  H    0.213126
    17  H    0.065648
    18  H    0.153610
    19  H    0.349208
    20  H    0.091603
    21  H    0.279719
    22  H    0.187432
    23  H    0.018568
    24  H   -0.100260
    25  H    0.308464
    26  N    0.079603
    27  N    2.000204
    28  N    1.206954
    29  N    1.171936
    30  N    0.521734
    31  O   -1.569571
    32  O   -1.542051
    33  O   -1.469938
 Sum of Mulliken charges =  -0.00000

 Dipole moment (field-independent basis, Debye):
    X=             -4.3094    Y=              3.7277    Z=             -0.8606  Tot=              5.7626

 Test job not archived.
 1\1\GINC-SE143\SP\RHF\Aug-CC-pVDZ\C8H17N5O3\OHZDE\08-Apr-2025\0\\#t hf
  aug-cc-pvdz iop(5/13=1,5/36=2,99/5=2) pseudo=read geom=check guess=(r
 ead,tcheck) scf=(maxcycle=1)\\title\\0,1\C,0,2.85656,1.16739,-0.42806\
 C,0,2.34048,-0.238479,-0.282707\C,0,0.343888,-1.60226,-0.46411\C,0,-1.
 00626,-1.47875,-1.14692\C,0,0.154104,-2.047,0.979373\C,0,-0.215671,-1.
 04756,2.09352\C,0,-1.27465,0.00686542,1.95206\C,0,-1.41868,1.72518,0.1
 24413\H,0,-2.04673,-0.558213,-2.38066\H,0,-3.2161,2.07261,-0.729463\H,
 0,-3.27934,1.69213,0.902703\H,0,-1.25575,2.65644,-1.52208\H,0,0.19652,

 Normal termination of Gaussian 16 at Tue Apr  8 20:42:45 2025.
