 Gaussian 16, Revision C.01,

 ----------------------------------------------------------------------
 #t hf aug-cc-pvdz symm=none int=(grid=ultrafine) guess=(read,tcheck) s
 table=(opt,rrhf)
 ----------------------------------------------------------------------
 -----
 title
 -----
 Symbolic Z-matrix:
 Charge =  0 Multiplicity = 1

 SCF Done:  E(RHF) =  -584.364692024     A.U. after   15 cycles
 Normal termination of Gaussian 16 at Tue Apr  8 22:13:26 2025.
 Gaussian 16:  ES64L-G16RevC.01  3-Jul-2019

 ----------------------------------------------------------------------
 #t hf aug-cc-pvdz iop(5/13=1,5/36=2,99/5=2) pseudo=read geom=check gue
 ss=(read,tcheck) scf=(maxcycle=1)
 ----------------------------------------------------------------------
 -----
 title
 -----
 Structure from the checkpoint file:  "ANI1ccx_940_conf15_mol1.chk"
 Charge =  0 Multiplicity = 1

                         Standard orientation:
 ---------------------------------------------------------------------
 Center     Atomic      Atomic             Coordinates (Angstroms)
 Number     Number       Type             X           Y           Z
 ---------------------------------------------------------------------
      1          6           0       -0.462889    0.312133    0.333485
      2          6           0        0.508041   -0.643128   -0.350002
      3          6           0        2.121671   -0.342400   -0.219684
      4          6           0       -1.846959   -0.193549   -0.139144
      5          1           0       -2.916570   -1.787179   -0.277063
      6          1           0        1.663021    1.436429   -0.067734
      7          1           0        0.208305   -0.565923   -1.366970
      8          1           0        0.215808   -1.481130    0.191925
      9          1           0       -0.683263    1.342660    2.070230
     10          1           0        0.611643    0.497305    1.991110
     11          1           0       -1.127078    1.825780   -0.879475
     12          7           0       -0.320043    0.396066    1.727280
     13          8           0       -2.267570   -1.308179    0.367858
     14          8           0       -0.454087    1.613260   -0.178752
     15          8           0        2.547101    0.914023   -0.391737
     16          8           0        2.847240   -1.327411   -0.086764
     17          8           0       -2.379029    0.253466   -1.148220
 ---------------------------------------------------------------------

 SCF Done:  E(RHF) =  -584.942957352     A.U. after    2 cycles

 The electronic state is 1-A.
 Alpha  occ. eigenvalues --  -20.63517 -20.62841 -20.57923 -20.56486 -20.54681
 Alpha  occ. eigenvalues --  -15.52942 -11.42085 -11.42018 -11.37688 -11.28375
 Alpha  occ. eigenvalues --   -1.59162  -1.54314  -1.50762  -1.46504  -1.44910
 Alpha  occ. eigenvalues --   -1.24337  -1.08293  -0.95543  -0.85231  -0.82124
 Alpha  occ. eigenvalues --   -0.79220  -0.76270  -0.74364  -0.72030  -0.71769
 Alpha  occ. eigenvalues --   -0.67464  -0.66568  -0.65006  -0.63058  -0.61164
 Alpha  occ. eigenvalues --   -0.59398  -0.56809  -0.53673  -0.52851  -0.49863
 Alpha  occ. eigenvalues --   -0.49760  -0.47597  -0.46347  -0.43354
 Alpha virt. eigenvalues --    0.02611   0.03247   0.04538   0.05374   0.05953
 Alpha virt. eigenvalues --    0.06673   0.07153   0.09026   0.09871   0.10667
 Alpha virt. eigenvalues --    0.11621   0.12808   0.13551   0.13664   0.14095

 Mulliken charges:
               1
     1  C    0.026816
     2  C   -0.379269
     3  C    2.081817
     4  C    2.187293
     5  H    0.380035
     6  H    0.519855
     7  H    0.212095
     8  H    0.278149
     9  H    0.391542
    10  H    0.163319
    11  H    0.351512
    12  N    0.679473
    13  O   -1.424428
    14  O   -1.713017
    15  O   -1.275370
    16  O   -1.195819
    17  O   -1.284003
 Sum of Mulliken charges =  -0.00000

 Dipole moment (field-independent basis, Debye):
    X=             -3.8689    Y=              1.3439    Z=              0.4796  Tot=              4.1237

 Test job not archived.
 1\1\GINC-SE083\SP\RHF\Aug-CC-pVDZ\C4H7N1O5\OHZDE\08-Apr-2025\0\\#t hf
 aug-cc-pvdz iop(5/13=1,5/36=2,99/5=2) pseudo=read geom=check guess=(re
 ad,tcheck) scf=(maxcycle=1)\\title\\0,1\C,0,-0.46289,0.312133,0.333485
 \C,0,0.50804,-0.643128,-0.350002\C,0,2.12167,-0.342399,-0.219684\C,0,-
 1.84696,-0.193549,-0.139144\H,0,-2.91657,-1.78718,-0.277063\H,0,1.6630
 2,1.43643,-0.0677336\H,0,0.208304,-0.565923,-1.36697\H,0,0.215808,-1.4
 8113,0.191925\H,0,-0.683264,1.34266,2.07023\H,0,0.611642,0.497305,1.99
 111\H,0,-1.12708,1.82578,-0.879475\N,0,-0.320044,0.396066,1.72728\O,0,

 Normal termination of Gaussian 16 at Tue Apr  8 22:13:35 2025.
