 Gaussian 16, Revision C.01,

 ----------------------------------------------------------------------
 #t hf aug-cc-pvdz symm=none int=(grid=ultrafine) guess=(read,tcheck) s
 table=(opt,rrhf)
 ----------------------------------------------------------------------
 -----
 title
 -----
 Symbolic Z-matrix:
 Charge =  0 Multiplicity = 1

 SCF Done:  E(RHF) =  -617.813549374     A.U. after   14 cycles
 Normal termination of Gaussian 16 at Tue Apr  8 19:20:48 2025.
 Gaussian 16:  ES64L-G16RevC.01  3-Jul-2019

 ----------------------------------------------------------------------
 #t hf aug-cc-pvdz iop(5/13=1,5/36=2,99/5=2) pseudo=read geom=check gue
 ss=(read,tcheck) scf=(maxcycle=1)
 ----------------------------------------------------------------------
 -----
 title
 -----
 Structure from the checkpoint file:  "ANI1ccx_1023_conf3_mol1.chk"
 Charge =  0 Multiplicity = 1

                         Standard orientation:
 ---------------------------------------------------------------------
 Center     Atomic      Atomic             Coordinates (Angstroms)
 Number     Number       Type             X           Y           Z
 ---------------------------------------------------------------------
      1          6           0       -0.621960    1.469099    0.358363
      2          6           0       -2.050259   -0.395458   -0.063267
      3          6           0        0.142188   -1.508670    0.411287
      4          6           0        0.961909   -0.927551   -0.783401
      5          6           0        2.197941   -0.310754   -0.363627
      6          1           0        3.750781   -0.623611    0.621869
      7          1           0        0.303909   -0.216264   -1.278340
      8          1           0        1.110682   -1.702819   -1.544390
      9          1           0        0.428498   -2.542540    0.644910
     10          1           0       -1.831617   -2.240022    0.601963
     11          1           0        0.452391   -0.952713    1.313990
     12          1           0       -3.535178   -1.523284   -0.874146
     13          1           0        0.602414    1.894430    1.753520
     14          1           0       -0.617105    2.374339   -1.402800
     15          1           0        0.915399    2.410101   -0.558668
     16          1           0       -3.950900    0.081642   -0.433141
     17          7           0       -0.104459    2.416879   -0.502434
     18          7           0       -0.098561    1.206949    1.509540
     19          7           0       -1.757221    0.873779   -0.140952
     20          7           0       -3.364419   -0.734828   -0.259645
     21          7           0       -1.295048   -1.490922    0.137538
     22          8           0        3.020472   -1.183947    0.307882
     23          8           0        2.595749    0.831165   -0.484035
 ---------------------------------------------------------------------

 SCF Done:  E(RHF) =  -618.439008471     A.U. after    2 cycles

 The electronic state is 1-A.
 Alpha  occ. eigenvalues --  -20.59944 -20.54722 -15.54486 -15.52605 -15.49203
 Alpha  occ. eigenvalues --  -15.46901 -15.43497 -11.40532 -11.37443 -11.32531
 Alpha  occ. eigenvalues --  -11.29002 -11.26397  -1.54989  -1.44734  -1.33006
 Alpha  occ. eigenvalues --   -1.25803  -1.20796  -1.15385  -1.11781  -1.08467
 Alpha  occ. eigenvalues --   -0.95322  -0.89474  -0.82825  -0.79208  -0.77761
 Alpha  occ. eigenvalues --   -0.74029  -0.72445  -0.71643  -0.71056  -0.70208
 Alpha  occ. eigenvalues --   -0.66453  -0.65190  -0.64121  -0.62485  -0.59894
 Alpha  occ. eigenvalues --   -0.59495  -0.56805  -0.54563  -0.53281  -0.48144
 Alpha  occ. eigenvalues --   -0.47519  -0.46246  -0.45660  -0.44066  -0.41570
 Alpha  occ. eigenvalues --   -0.38332
 Alpha virt. eigenvalues --    0.02436   0.03600   0.03624   0.03985   0.04915
 Alpha virt. eigenvalues --    0.05701   0.06349   0.07178   0.07378   0.08778
 Alpha virt. eigenvalues --    0.09285   0.10477   0.11534   0.12062   0.12286

 Mulliken charges:
               1
     1  C   -4.523328
     2  C   -1.920432
     3  C   -0.650527
     4  C   -0.421759
     5  C    2.726452
     6  H    0.376648
     7  H    0.394472
     8  H    0.189130
     9  H   -0.017738
    10  H    0.296207
    11  H    0.233970
    12  H    0.113014
    13  H    0.123470
    14  H    0.195420
    15  H    0.142190
    16  H    0.217073
    17  N    1.187485
    18  N    1.376642
    19  N    1.344789
    20  N    0.720090
    21  N    0.662596
    22  O   -1.358981
    23  O   -1.406882
 Sum of Mulliken charges =   0.00000

 Dipole moment (field-independent basis, Debye):
    X=             -0.8010    Y=             -4.5775    Z=             -2.7473  Tot=              5.3984

 Test job not archived.
 1\1\GINC-SE195\SP\RHF\Aug-CC-pVDZ\C5H11N5O2\OHZDE\08-Apr-2025\0\\#t hf
  aug-cc-pvdz iop(5/13=1,5/36=2,99/5=2) pseudo=read geom=check guess=(r
 ead,tcheck) scf=(maxcycle=1)\\title\\0,1\C,0,-0.621959,1.4691,0.358363
 \C,0,-2.05026,-0.395455,-0.0632667\C,0,0.142186,-1.50867,0.411287\C,0,
 0.961908,-0.927552,-0.783401\C,0,2.19794,-0.310756,-0.363627\H,0,3.750
 78,-0.623615,0.621869\H,0,0.303908,-0.216264,-1.27834\H,0,1.11068,-1.7
 0282,-1.54439\H,0,0.428495,-2.54254,0.64491\H,0,-1.83162,-2.24002,0.60
 1963\H,0,0.45239,-0.952713,1.31399\H,0,-3.53518,-1.52328,-0.874146\H,0

 Normal termination of Gaussian 16 at Tue Apr  8 19:21:06 2025.
