 Gaussian 16, Revision C.01,

 ----------------------------------------------------------------------
 #t hf aug-cc-pvdz symm=none int=(grid=ultrafine) guess=(read,tcheck) s
 table=(opt,rrhf)
 ----------------------------------------------------------------------
 -----
 title
 -----
 Symbolic Z-matrix:
 Charge =  0 Multiplicity = 1

 SCF Done:  E(RHF) =  -794.440659683     A.U. after   14 cycles
 Normal termination of Gaussian 16 at Tue Apr  8 20:14:02 2025.
 Gaussian 16:  ES64L-G16RevC.01  3-Jul-2019

 ----------------------------------------------------------------------
 #t hf aug-cc-pvdz iop(5/13=1,5/36=2,99/5=2) pseudo=read geom=check gue
 ss=(read,tcheck) scf=(maxcycle=1)
 ----------------------------------------------------------------------
 -----
 title
 -----
 Structure from the checkpoint file:  "ANI1ccx_1592_conf13_mol1.chk"
 Charge =  0 Multiplicity = 1

                         Standard orientation:
 ---------------------------------------------------------------------
 Center     Atomic      Atomic             Coordinates (Angstroms)
 Number     Number       Type             X           Y           Z
 ---------------------------------------------------------------------
      1          6           0        0.235712    1.090619   -0.298364
      2          6           0       -1.113689    1.666880    0.135220
      3          6           0        1.224111    1.112178    0.918618
      4          6           0        2.655980    0.708089    0.483138
      5          6           0        2.865289   -0.750080    0.208379
      6          6           0       -1.598681   -0.734153    0.727547
      7          6           0       -1.857861   -1.257689   -0.730147
      8          6           0       -2.616292   -1.350478    1.683840
      9          1           0       -0.209360   -2.169611   -0.448832
     10          1           0       -3.692581   -1.200447    1.470200
     11          1           0       -2.415621   -0.871971    2.673830
     12          1           0       -2.534493   -2.465528    1.807780
     13          1           0       -0.592497   -1.098310    0.962585
     14          1           0       -2.689509    1.014432    1.167340
     15          1           0        4.067388   -2.050135   -0.209206
     16          1           0        2.960871    1.311086   -0.382034
     17          1           0        3.363421    1.053796    1.288360
     18          1           0        1.290112    2.112858    1.334780
     19          1           0        0.864501    0.507030    1.772060
     20          1           0       -0.018910    0.136864   -0.719149
     21          1           0        0.263077    1.751999   -2.287240
     22          1           0        0.782444    2.899798   -1.283040
     23          7           0        0.800401    1.902008   -1.444290
     24          7           0       -1.862340    0.712933    0.716697
     25          8           0       -1.441337    2.841921   -0.014626
     26          8           0        1.970268   -1.412293   -0.293039
     27          8           0        4.128899   -1.171155    0.222883
     28          8           0       -2.846721   -0.967284   -1.345970
     29          8           0       -0.907694   -2.059770   -1.172210
 ---------------------------------------------------------------------

 SCF Done:  E(RHF) =  -795.237025360     A.U. after    2 cycles

 The electronic state is 1-A.
 Alpha  occ. eigenvalues --  -20.63055 -20.61296 -20.56068 -20.53578 -20.51319
 Alpha  occ. eigenvalues --  -15.53944 -15.48933 -11.42050 -11.39445 -11.35654
 Alpha  occ. eigenvalues --  -11.32726 -11.28851 -11.27292 -11.27241 -11.27231
 Alpha  occ. eigenvalues --   -1.57973  -1.55527  -1.47287  -1.45980  -1.45211
 Alpha  occ. eigenvalues --   -1.26999  -1.18104  -1.08500  -1.07491  -0.99671
 Alpha  occ. eigenvalues --   -0.92879  -0.91153  -0.84198  -0.82794  -0.81102
 Alpha  occ. eigenvalues --   -0.75983  -0.73981  -0.73302  -0.72142  -0.71314
 Alpha  occ. eigenvalues --   -0.68976  -0.66658  -0.66228  -0.64753  -0.64083
 Alpha  occ. eigenvalues --   -0.62114  -0.61239  -0.59902  -0.58966  -0.58198
 Alpha  occ. eigenvalues --   -0.57541  -0.55353  -0.54876  -0.54222  -0.53750
 Alpha  occ. eigenvalues --   -0.51894  -0.49598  -0.47453  -0.46748  -0.45550
 Alpha  occ. eigenvalues --   -0.44927  -0.41724  -0.41220
 Alpha virt. eigenvalues --    0.02242   0.02769   0.03145   0.04110   0.04470
 Alpha virt. eigenvalues --    0.05069   0.05643   0.06556   0.06916   0.07338
 Alpha virt. eigenvalues --    0.07912   0.08556   0.09328   0.10250   0.10585

 Mulliken charges:
               1
     1  C   -2.156449
     2  C    1.004455
     3  C   -0.021636
     4  C   -0.552791
     5  C    2.283612
     6  C   -0.654244
     7  C    2.679565
     8  C   -0.290485
     9  H    0.606612
    10  H    0.165854
    11  H    0.229035
    12  H    0.173971
    13  H   -0.058250
    14  H    0.283758
    15  H    0.345700
    16  H    0.328748
    17  H    0.235742
    18  H    0.124784
    19  H    0.154503
    20  H    0.203859
    21  H    0.166337
    22  H    0.198611
    23  N    0.779326
    24  N    0.673824
    25  O   -1.499320
    26  O   -1.229184
    27  O   -1.307487
    28  O   -1.425847
    29  O   -1.442603
 Sum of Mulliken charges =  -0.00000

 Dipole moment (field-independent basis, Debye):
    X=              3.8335    Y=             -2.7405    Z=              4.8312  Tot=              6.7488

 Test job not archived.
 1\1\GINC-SE095\SP\RHF\Aug-CC-pVDZ\C8H14N2O5\OHZDE\08-Apr-2025\0\\#t hf
  aug-cc-pvdz iop(5/13=1,5/36=2,99/5=2) pseudo=read geom=check guess=(r
 ead,tcheck) scf=(maxcycle=1)\\title\\0,1\C,0,0.235711,1.09062,-0.29836
 4\C,0,-1.11369,1.66688,0.13522\C,0,1.22411,1.11218,0.918618\C,0,2.6559
 8,0.708092,0.483138\C,0,2.86529,-0.750076,0.208379\C,0,-1.59868,-0.734
 154,0.727547\C,0,-1.85786,-1.25769,-0.730147\C,0,-2.61629,-1.35048,1.6
 8384\H,0,-0.209358,-2.16961,-0.448832\H,0,-3.69258,-1.20045,1.4702\H,0
 ,-2.41562,-0.871973,2.67383\H,0,-2.53449,-2.46553,1.80778\H,0,-0.59249

 Normal termination of Gaussian 16 at Tue Apr  8 20:14:37 2025.
