 Gaussian 16, Revision C.01,

 ----------------------------------------------------------------------
 #t hf aug-cc-pvdz symm=none int=(grid=ultrafine) guess=(read,tcheck) s
 table=(opt,rrhf)
 ----------------------------------------------------------------------
 -----
 title
 -----
 Symbolic Z-matrix:
 Charge =  0 Multiplicity = 1

 SCF Done:  E(RHF) =  -532.289428428     A.U. after   11 cycles
 Normal termination of Gaussian 16 at Tue Apr  8 21:10:10 2025.
 Gaussian 16:  ES64L-G16RevC.01  3-Jul-2019

 ----------------------------------------------------------------------
 #t hf aug-cc-pvdz iop(5/13=1,5/36=2,99/5=2) pseudo=read geom=check gue
 ss=(read,tcheck) scf=(maxcycle=1)
 ----------------------------------------------------------------------
 -----
 title
 -----
 Structure from the checkpoint file:  "ANI1ccx_1845_conf207_mol1.chk"
 Charge =  0 Multiplicity = 1

                         Standard orientation:
 ---------------------------------------------------------------------
 Center     Atomic      Atomic             Coordinates (Angstroms)
 Number     Number       Type             X           Y           Z
 ---------------------------------------------------------------------
      1          1           0        3.782450   -1.295541   -0.739737
      2          1           0        1.125240    1.341469    0.098631
      3          1           0        0.233569    0.226332   -0.706888
      4          1           0        3.146330    0.670817    0.139326
      5          1           0        2.932050    1.979929    1.167130
      6          1           0        2.159860   -1.238781   -0.508549
      7          1           0        0.030387   -2.284871   -1.477600
      8          1           0       -0.395288   -0.059664    1.451630
      9          1           0       -0.148082   -1.452701   -0.067477
     10          1           0       -2.266040    1.936869   -1.535670
     11          1           0       -1.489000    1.766929   -0.181592
     12          1           0       -3.144350    0.139095   -0.256143
     13          1           0       -4.039950   -0.751843    0.488590
     14          1           0       -1.766240   -0.626212    1.112560
     15          8           0        3.047860   -1.010061   -0.111647
     16          8           0       -0.868733   -0.929204    1.404810
     17          8           0        2.816240    1.585439    0.263047
     18          8           0       -2.452260    1.683349   -0.548639
     19          8           0        0.212292    1.020199   -0.046381
     20          8           0        0.396876   -1.602771   -0.883061
     21          8           0       -3.172390   -0.790931    0.048844
 ---------------------------------------------------------------------

 SCF Done:  E(RHF) =  -532.840815090     A.U. after    2 cycles

 The electronic state is 1-A.
 Alpha  occ. eigenvalues --  -20.56733 -20.56517 -20.56251 -20.54675 -20.54645
 Alpha  occ. eigenvalues --  -20.53834 -20.52717  -1.45069  -1.43840  -1.43456
 Alpha  occ. eigenvalues --   -1.42203  -1.41309  -1.40666  -1.39507  -0.74713
 Alpha  occ. eigenvalues --   -0.72751  -0.71498  -0.69992  -0.69715  -0.67806
 Alpha  occ. eigenvalues --   -0.67066  -0.61309  -0.60158  -0.58024  -0.57632
 Alpha  occ. eigenvalues --   -0.56734  -0.55305  -0.53054  -0.50529  -0.49694
 Alpha  occ. eigenvalues --   -0.49453  -0.49021  -0.48428  -0.47768  -0.45918
 Alpha virt. eigenvalues --    0.03303   0.03851   0.04304   0.05160   0.05738
 Alpha virt. eigenvalues --    0.07399   0.08436   0.08807   0.08996   0.09479
 Alpha virt. eigenvalues --    0.10583   0.11129   0.11847   0.12673   0.17820

 Mulliken charges:
               1
     1  H    0.397455
     2  H    0.765066
     3  H    0.792952
     4  H    0.680933
     5  H    0.378602
     6  H    0.678243
     7  H    0.435086
     8  H    0.596283
     9  H    0.851443
    10  H    0.430186
    11  H    0.741456
    12  H    0.702481
    13  H    0.341188
    14  H    0.613348
    15  O   -1.060574
    16  O   -1.182605
    17  O   -1.042596
    18  O   -1.206512
    19  O   -1.618574
    20  O   -1.304413
    21  O   -0.989449
 Sum of Mulliken charges =  -0.00000

 Dipole moment (field-independent basis, Debye):
    X=              0.6305    Y=              0.2612    Z=             -2.1847  Tot=              2.2888

 Test job not archived.
 1\1\GINC-SE186\SP\RHF\Aug-CC-pVDZ\H14O7\OHZDE\08-Apr-2025\0\\#t hf aug
 -cc-pvdz iop(5/13=1,5/36=2,99/5=2) pseudo=read geom=check guess=(read,
 tcheck) scf=(maxcycle=1)\\title\\0,1\H,0,3.78245,-1.29554,-0.739737\H,
 0,1.12524,1.34147,0.0986307\H,0,0.233569,0.226333,-0.706888\H,0,3.1463
 3,0.670818,0.139326\H,0,2.93205,1.97993,1.16713\H,0,2.15986,-1.23878,-
 0.508549\H,0,0.030387,-2.28487,-1.4776\H,0,-0.395288,-0.0596636,1.4516
 3\H,0,-0.148082,-1.4527,-0.0674773\H,0,-2.26604,1.93687,-1.53567\H,0,-
 1.489,1.76693,-0.181592\H,0,-3.14435,0.139096,-0.256143\H,0,-4.03995,-

 Normal termination of Gaussian 16 at Tue Apr  8 21:10:18 2025.
