 Gaussian 16, Revision C.01,

 ----------------------------------------------------------------------
 #t hf aug-cc-pvdz symm=none int=(grid=ultrafine) guess=(read,tcheck) s
 table=(opt,rrhf)
 ----------------------------------------------------------------------
 -----
 title
 -----
 Symbolic Z-matrix:
 Charge =  0 Multiplicity = 1

 SCF Done:  E(RHF) =  -396.772056922     A.U. after   14 cycles
 Normal termination of Gaussian 16 at Tue Apr  8 21:52:15 2025.
 Gaussian 16:  ES64L-G16RevC.01  3-Jul-2019

 ----------------------------------------------------------------------
 #t hf aug-cc-pvdz iop(5/13=1,5/36=2,99/5=2) pseudo=read geom=check gue
 ss=(read,tcheck) scf=(maxcycle=1)
 ----------------------------------------------------------------------
 -----
 title
 -----
 Structure from the checkpoint file:  "ANI1ccx_744_conf12_mol2.chk"
 Charge =  0 Multiplicity = 1

                         Standard orientation:
 ---------------------------------------------------------------------
 Center     Atomic      Atomic             Coordinates (Angstroms)
 Number     Number       Type             X           Y           Z
 ---------------------------------------------------------------------
      1          6           0       -0.009862    0.612247    0.384516
      2          6           0        0.655931   -0.693897    0.057504
      3          6           0       -1.344637    0.700164   -0.305190
      4          1           0        0.852881    2.427738    0.674804
      5          1           0        0.548111    2.098918   -0.816063
      6          1           0       -0.126556    0.622337    1.513990
      7          1           0       -1.068397    0.803885   -1.363420
      8          1           0       -1.828865    1.637145    0.020660
      9          1           0       -1.640002   -1.145996   -0.121054
     10          1           0        2.194402    0.345700   -0.072360
     11          7           0        0.954636    1.664317    0.009858
     12          8           0        0.070114   -1.774280    0.056467
     13          8           0       -2.193180   -0.357623    0.056379
     14          8           0        1.945239   -0.636975   -0.203664
 ---------------------------------------------------------------------

 SCF Done:  E(RHF) =  -397.175064342     A.U. after    2 cycles

 The electronic state is 1-A.
 Alpha  occ. eigenvalues --  -20.59975 -20.54752 -20.53631 -15.55006 -11.39768
 Alpha  occ. eigenvalues --  -11.31113 -11.30960  -1.55032  -1.46312  -1.44049
 Alpha  occ. eigenvalues --   -1.25121  -1.04173  -0.92020  -0.82349  -0.77530
 Alpha  occ. eigenvalues --   -0.72902  -0.71930  -0.68846  -0.64720  -0.63363
 Alpha  occ. eigenvalues --   -0.60923  -0.57950  -0.55587  -0.54383  -0.52423
 Alpha  occ. eigenvalues --   -0.46992  -0.45096  -0.43046
 Alpha virt. eigenvalues --    0.01768   0.03835   0.04436   0.05032   0.06177
 Alpha virt. eigenvalues --    0.06514   0.07718   0.09897   0.10321   0.11568
 Alpha virt. eigenvalues --    0.13486   0.13745   0.14665   0.15205   0.15486

 Mulliken charges:
               1
     1  C   -2.077826
     2  C    2.482111
     3  C    1.102788
     4  H    0.327710
     5  H    0.349193
     6  H    0.325858
     7  H    0.227980
     8  H    0.118186
     9  H    0.418126
    10  H    0.488875
    11  N    0.179782
    12  O   -1.357996
    13  O   -1.235747
    14  O   -1.349041
 Sum of Mulliken charges =  -0.00000

 Dipole moment (field-independent basis, Debye):
    X=              1.1380    Y=              5.5963    Z=              0.2215  Tot=              5.7151

 Test job not archived.
 1\1\GINC-SE074\SP\RHF\Aug-CC-pVDZ\C3H7N1O3\OHZDE\08-Apr-2025\0\\#t hf
 aug-cc-pvdz iop(5/13=1,5/36=2,99/5=2) pseudo=read geom=check guess=(re
 ad,tcheck) scf=(maxcycle=1)\\title\\0,1\C,0,-0.00986445,0.612247,0.384
 516\C,0,0.655932,-0.693895,0.0575038\C,0,-1.34464,0.70016,-0.30519\H,0
 ,0.852874,2.42774,0.674804\H,0,0.548105,2.09892,-0.816063\H,0,-0.12655
 8,0.622337,1.51399\H,0,-1.0684,0.803882,-1.36342\H,0,-1.82887,1.63714,
 0.0206603\H,0,-1.64,-1.146,-0.121054\H,0,2.1944,0.345706,-0.07236\N,0,
 0.954631,1.66432,0.00985818\O,0,0.0701184,-1.77428,0.0564668\O,0,-2.19

 Normal termination of Gaussian 16 at Tue Apr  8 21:52:20 2025.
