 Gaussian 16, Revision C.01,

 ----------------------------------------------------------------------
 #t hf aug-cc-pvdz symm=none int=(grid=ultrafine) guess=(read,tcheck) s
 table=(opt,rrhf)
 ----------------------------------------------------------------------
 -----
 title
 -----
 Symbolic Z-matrix:
 Charge =  0 Multiplicity = 1

 SCF Done:  E(RHF) =  -509.534435966     A.U. after   14 cycles
 Normal termination of Gaussian 16 at Tue Apr  8 22:11:56 2025.
 Gaussian 16:  ES64L-G16RevC.01  3-Jul-2019

 ----------------------------------------------------------------------
 #t hf aug-cc-pvdz iop(5/13=1,5/36=2,99/5=2) pseudo=read geom=check gue
 ss=(read,tcheck) scf=(maxcycle=1)
 ----------------------------------------------------------------------
 -----
 title
 -----
 Structure from the checkpoint file:  "ANI1ccx_939_conf57_mol1.chk"
 Charge =  0 Multiplicity = 1

                         Standard orientation:
 ---------------------------------------------------------------------
 Center     Atomic      Atomic             Coordinates (Angstroms)
 Number     Number       Type             X           Y           Z
 ---------------------------------------------------------------------
      1          6           0       -0.740514    0.769213   -0.565954
      2          6           0       -1.173759   -0.636146   -0.203371
      3          6           0        0.741689    1.063180   -0.637020
      4          6           0        1.583030    0.084850    0.129209
      5          1           0       -2.309781    2.035409   -0.080723
      6          1           0       -1.795290    0.983760    1.094449
      7          1           0       -1.129720    0.989026   -1.568671
      8          1           0        1.133600    1.022591   -1.704461
      9          1           0        0.987539    2.064481   -0.272628
     10          1           0        1.831151   -0.814379    1.645299
     11          1           0       -0.967804   -2.412341   -0.606049
     12          7           0       -1.415641    1.659049    0.383042
     13          8           0       -1.901289   -0.785984    0.739303
     14          8           0        2.744570   -0.208600   -0.242345
     15          8           0        1.091481   -0.343364    1.270359
     16          8           0       -0.722622   -1.558110   -0.958032
 ---------------------------------------------------------------------

 SCF Done:  E(RHF) =  -510.039747439     A.U. after    2 cycles

 The electronic state is 1-A.
 Alpha  occ. eigenvalues --  -20.63326 -20.62169 -20.54777 -20.53533 -15.49162
 Alpha  occ. eigenvalues --  -11.40540 -11.40481 -11.29450 -11.27011  -1.60824
 Alpha  occ. eigenvalues --   -1.57839  -1.48671  -1.43286  -1.19893  -1.06450
 Alpha  occ. eigenvalues --   -0.96460  -0.87166  -0.82566  -0.76000  -0.74395
 Alpha  occ. eigenvalues --   -0.72862  -0.69672  -0.68613  -0.65642  -0.63969
 Alpha  occ. eigenvalues --   -0.62685  -0.59639  -0.58393  -0.55937  -0.52423
 Alpha  occ. eigenvalues --   -0.49722  -0.47114  -0.46222  -0.46057  -0.43509
 Alpha virt. eigenvalues --    0.02971   0.03520   0.04315   0.05051   0.05660
 Alpha virt. eigenvalues --    0.06788   0.07517   0.09120   0.09883   0.12149
 Alpha virt. eigenvalues --    0.12837   0.13160   0.13336   0.13797   0.14506

 Mulliken charges:
               1
     1  C   -1.552956
     2  C    2.810265
     3  C   -0.667333
     4  C    2.289063
     5  H    0.267337
     6  H    0.211972
     7  H    0.168628
     8  H    0.291807
     9  H    0.266884
    10  H    0.338069
    11  H    0.310706
    12  N    0.479855
    13  O   -1.331348
    14  O   -1.350916
    15  O   -1.239380
    16  O   -1.292652
 Sum of Mulliken charges =  -0.00000

 Dipole moment (field-independent basis, Debye):
    X=             -1.7779    Y=             -1.1559    Z=             -1.1865  Tot=              2.4300

 Test job not archived.
 1\1\GINC-SE455\SP\RHF\Aug-CC-pVDZ\C4H7N1O4\OHZDE\08-Apr-2025\0\\#t hf
 aug-cc-pvdz iop(5/13=1,5/36=2,99/5=2) pseudo=read geom=check guess=(re
 ad,tcheck) scf=(maxcycle=1)\\title\\0,1\C,0,-0.740514,0.769213,-0.5659
 53\C,0,-1.17376,-0.636145,-0.20337\C,0,0.741689,1.06318,-0.637019\C,0,
 1.58303,0.0848489,0.12921\H,0,-2.30978,2.03541,-0.0807223\H,0,-1.79529
 ,0.983761,1.09445\H,0,-1.12972,0.989027,-1.56867\H,0,1.1336,1.02259,-1
 .70446\H,0,0.98754,2.06448,-0.272627\H,0,1.83115,-0.81438,1.6453\H,0,-
 0.967806,-2.41234,-0.606048\N,0,-1.41564,1.65905,0.383043\O,0,-1.90129

 Normal termination of Gaussian 16 at Tue Apr  8 22:12:03 2025.
