 Gaussian 16, Revision C.01,

 ----------------------------------------------------------------------
 #t hf aug-cc-pvdz symm=none int=(grid=ultrafine) guess=(read,tcheck) s
 table=(opt,rrhf)
 ----------------------------------------------------------------------
 -----
 title
 -----
 Symbolic Z-matrix:
 Charge =  0 Multiplicity = 1

 SCF Done:  E(RHF) =  -853.809304489     A.U. after   15 cycles
 Normal termination of Gaussian 16 at Tue Apr  8 22:36:44 2025.
 Gaussian 16:  ES64L-G16RevC.01  3-Jul-2019

 ----------------------------------------------------------------------
 #t hf aug-cc-pvdz iop(5/13=1,5/36=2,99/5=2) pseudo=read geom=check gue
 ss=(read,tcheck) scf=(maxcycle=1)
 ----------------------------------------------------------------------
 -----
 title
 -----
 Structure from the checkpoint file:  "ANI1ccx_97_conf10_mol2.chk"
 Charge =  0 Multiplicity = 1

                         Standard orientation:
 ---------------------------------------------------------------------
 Center     Atomic      Atomic             Coordinates (Angstroms)
 Number     Number       Type             X           Y           Z
 ---------------------------------------------------------------------
      1          6           0        0.835591   -1.051130    0.515846
      2          6           0       -1.881180    1.449539   -0.681859
      3          6           0       -3.503720   -0.243932    0.358881
      4          6           0       -1.985250    0.107961    0.093791
      5          6           0        3.778620    1.366790    0.713561
      6          6           0       -2.364701    2.659169    0.087637
      7          6           0        3.006280   -0.522805   -0.899356
      8          6           0        2.294090   -1.369790    0.194087
      9          6           0       -0.126839   -1.437701   -0.669855
     10          6           0        3.036330    0.984679   -0.584358
     11          1           0        5.102010   -0.140488    0.814518
     12          1           0       -3.069740    0.322460    2.079660
     13          1           0       -1.840061    2.735609    1.045260
     14          1           0       -2.135731    3.555099   -0.484685
     15          1           0       -3.455301    2.684859    0.276161
     16          1           0       -0.261745    1.139729   -1.771760
     17          1           0       -2.511560    1.294099   -1.562170
     18          1           0       -1.367690    0.345306    0.960420
     19          1           0       -2.038770   -1.375001   -1.302700
     20          1           0        5.632710    1.113470   -0.081695
     21          1           0        2.009320    1.351650   -0.592546
     22          1           0        3.792779    2.457510    0.794455
     23          1           0        0.882735   -1.391410    2.571600
     24          1           0        3.346020    1.006410    1.663080
     25          1           0        0.793294    0.040689    0.637164
     26          1           0        2.736250   -1.222520    1.195640
     27          1           0       -0.551546   -1.726941    1.921950
     28          1           0        4.034720   -0.877196   -0.957476
     29          1           0        2.604670   -0.679183   -1.891570
     30          1           0        3.588820    1.497930   -1.369180
     31          1           0        2.347050   -2.442610   -0.038209
     32          7           0        0.441004   -1.778800    1.745560
     33          7           0        5.144930    0.887525    0.777990
     34          7           0       -1.414020   -0.951945   -0.591254
     35          8           0       -0.524431    1.723859   -1.042940
     36          8           0        0.228784   -2.149391   -1.592480
     37          8           0       -4.222990   -0.699425   -0.505063
     38          8           0       -3.903480    0.069505    1.614950
 ---------------------------------------------------------------------

 SCF Done:  E(RHF) =  -854.687339616     A.U. after    2 cycles

 The electronic state is 1-A.
 Alpha  occ. eigenvalues --  -20.63947 -20.58227 -20.57283 -20.52942 -15.54612
 Alpha  occ. eigenvalues --  -15.51312 -15.48456 -11.43349 -11.37834 -11.32883
 Alpha  occ. eigenvalues --  -11.32481 -11.29211 -11.25675 -11.25656 -11.23713
 Alpha  occ. eigenvalues --  -11.23234 -11.22927  -1.57026  -1.48681  -1.48033
 Alpha  occ. eigenvalues --   -1.47334  -1.28193  -1.20614  -1.18782  -1.09133
 Alpha  occ. eigenvalues --   -1.07125  -1.00994  -0.99487  -0.93093  -0.88313
 Alpha  occ. eigenvalues --   -0.87408  -0.85299  -0.82352  -0.79616  -0.78228
 Alpha  occ. eigenvalues --   -0.74686  -0.73608  -0.70635  -0.70022  -0.69506
 Alpha  occ. eigenvalues --   -0.68806  -0.68492  -0.65280  -0.64317  -0.64136
 Alpha  occ. eigenvalues --   -0.62330  -0.61475  -0.60940  -0.59962  -0.59431
 Alpha  occ. eigenvalues --   -0.57870  -0.57536  -0.55750  -0.55036  -0.54277
 Alpha  occ. eigenvalues --   -0.53197  -0.52636  -0.50290  -0.49925  -0.49362
 Alpha  occ. eigenvalues --   -0.48439  -0.47915  -0.47020  -0.44863  -0.42927
 Alpha  occ. eigenvalues --   -0.42469  -0.41744
 Alpha virt. eigenvalues --    0.01441   0.02848   0.03371   0.03430   0.03981
 Alpha virt. eigenvalues --    0.04329   0.05341   0.05713   0.06015   0.06575
 Alpha virt. eigenvalues --    0.06849   0.07212   0.07459   0.07967   0.08440

 Mulliken charges:
               1
     1  C   -2.104910
     2  C    1.106172
     3  C    2.642683
     4  C   -1.743979
     5  C   -0.944713
     6  C   -0.249529
     7  C   -0.129375
     8  C    0.433598
     9  C    0.593510
    10  C   -0.046875
    11  H    0.192501
    12  H    0.491055
    13  H    0.217837
    14  H    0.111867
    15  H    0.231674
    16  H    0.444957
    17  H    0.147999
    18  H   -0.131179
    19  H    0.347064
    20  H    0.139754
    21  H   -0.023877
    22  H    0.048580
    23  H    0.223103
    24  H    0.133753
    25  H    0.307111
    26  H    0.254652
    27  H    0.054250
    28  H    0.179969
    29  H    0.093708
    30  H    0.092640
    31  H    0.161178
    32  N    0.759211
    33  N    0.455020
    34  N    1.190158
    35  O   -1.472840
    36  O   -1.479977
    37  O   -1.398679
    38  O   -1.328068
 Sum of Mulliken charges =  -0.00000

 Dipole moment (field-independent basis, Debye):
    X=              0.0913    Y=              3.5702    Z=              1.7415  Tot=              3.9733

 Test job not archived.
 1\1\GINC-SE232\SP\RHF\Aug-CC-pVDZ\C10H21N3O4\OHZDE\08-Apr-2025\0\\#t h
 f aug-cc-pvdz iop(5/13=1,5/36=2,99/5=2) pseudo=read geom=check guess=(
 read,tcheck) scf=(maxcycle=1)\\title\\0,1\C,0,0.835591,-1.05113,0.5158
 46\C,0,-1.88118,1.44954,-0.681859\C,0,-3.50372,-0.243931,0.358881\C,0,
 -1.98525,0.107962,0.0937903\C,0,3.77862,1.36679,0.713561\C,0,-2.3647,2
 .65917,0.0876368\C,0,3.00628,-0.522805,-0.899356\C,0,2.29409,-1.36979,
 0.194087\C,0,-0.126839,-1.4377,-0.669855\C,0,3.03633,0.984679,-0.58435
 8\H,0,5.10201,-0.140488,0.814518\H,0,-3.06974,0.322461,2.07966\H,0,-1.

 Normal termination of Gaussian 16 at Tue Apr  8 22:37:50 2025.
