 Gaussian 16, Revision C.01,

 ----------------------------------------------------------------------
 #t hf aug-cc-pvdz symm=none int=(grid=ultrafine) guess=(read,tcheck) s
 table=(opt,rrhf)
 ----------------------------------------------------------------------
 -----
 title
 -----
 Symbolic Z-matrix:
 Charge =  0 Multiplicity = 1

 SCF Done:  E(RHF) =  -298.815135234     A.U. after   14 cycles
 Normal termination of Gaussian 16 at Tue Apr  8 21:36:33 2025.
 Gaussian 16:  ES64L-G16RevC.01  3-Jul-2019

 ----------------------------------------------------------------------
 #t hf aug-cc-pvdz iop(5/13=1,5/36=2,99/5=2) pseudo=read geom=check gue
 ss=(read,tcheck) scf=(maxcycle=1)
 ----------------------------------------------------------------------
 -----
 title
 -----
 Structure from the checkpoint file:  "ANI1ccx_398_conf43_mol1.chk"
 Charge =  0 Multiplicity = 1

                         Standard orientation:
 ---------------------------------------------------------------------
 Center     Atomic      Atomic             Coordinates (Angstroms)
 Number     Number       Type             X           Y           Z
 ---------------------------------------------------------------------
      1          6           0       -0.449114    0.087133    0.064718
      2          1           0       -1.738970   -1.230420   -0.716905
      3          1           0       -2.504660    0.216252    0.041924
      4          1           0        0.709661   -1.344340    0.877563
      5          1           0        1.499200    0.804093    0.222441
      6          7           0       -1.723390   -0.442358   -0.002533
      7          7           0        0.613941   -0.780321    0.027725
      8          8           0       -0.272010    1.257500    0.015327
      9          8           0        1.833960   -0.058703   -0.139036
 ---------------------------------------------------------------------

 SCF Done:  E(RHF) =  -299.113376969     A.U. after    2 cycles

 The electronic state is 1-A.
 Alpha  occ. eigenvalues --  -20.59138 -20.53522 -15.58216 -15.54328 -11.39785
 Alpha  occ. eigenvalues --   -1.53992  -1.47529  -1.24175  -1.15463  -0.86513
 Alpha  occ. eigenvalues --   -0.79698  -0.74950  -0.73706  -0.66642  -0.61913
 Alpha  occ. eigenvalues --   -0.60361  -0.53675  -0.48728  -0.46405  -0.45206
 Alpha virt. eigenvalues --    0.02633   0.04818   0.05670   0.06616   0.10381
 Alpha virt. eigenvalues --    0.11521   0.12057   0.13788   0.14808   0.15963
 Alpha virt. eigenvalues --    0.16336   0.17475   0.17986   0.19121   0.20507

 Mulliken charges:
               1
     1  C   -0.280209
     2  H    0.237836
     3  H    0.159577
     4  H    0.262822
     5  H    0.382960
     6  N    0.405101
     7  N    0.985068
     8  O   -1.068333
     9  O   -1.084822
 Sum of Mulliken charges =   0.00000

 Dipole moment (field-independent basis, Debye):
    X=             -2.3216    Y=             -1.5442    Z=              0.9203  Tot=              2.9362

 Test job not archived.
 1\1\GINC-SE088\SP\RHF\Aug-CC-pVDZ\C1H4N2O2\OHZDE\08-Apr-2025\0\\#t hf
 aug-cc-pvdz iop(5/13=1,5/36=2,99/5=2) pseudo=read geom=check guess=(re
 ad,tcheck) scf=(maxcycle=1)\\title\\0,1\C,0,-0.449114,0.0871327,0.0647
 176\H,0,-1.73897,-1.23042,-0.716905\H,0,-2.50466,0.216253,0.0419238\H,
 0,0.709661,-1.34434,0.877563\H,0,1.4992,0.804093,0.222441\N,0,-1.72339
 ,-0.442358,-0.00253284\N,0,0.613941,-0.780321,0.0277251\O,0,-0.27201,1
 .2575,0.0153266\O,0,1.83396,-0.0587033,-0.139036\\Version=ES64L-G16Rev
 C.01\State=1-A\HF=-299.113377\RMSD=1.737e-02\Dipole=-0.9133983,-0.6075

 Normal termination of Gaussian 16 at Tue Apr  8 21:36:35 2025.
