 Gaussian 16, Revision C.01,

 ----------------------------------------------------------------------
 #t hf aug-cc-pvdz symm=none int=(grid=ultrafine) guess=(read,tcheck) s
 table=(opt,rrhf)
 ----------------------------------------------------------------------
 -----
 title
 -----
 Symbolic Z-matrix:
 Charge =  0 Multiplicity = 1

 SCF Done:  E(RHF) =  -604.212043377     A.U. after   14 cycles
 Normal termination of Gaussian 16 at Tue Apr  8 22:10:41 2025.
 Gaussian 16:  ES64L-G16RevC.01  3-Jul-2019

 ----------------------------------------------------------------------
 #t hf aug-cc-pvdz iop(5/13=1,5/36=2,99/5=2) pseudo=read geom=check gue
 ss=(read,tcheck) scf=(maxcycle=1)
 ----------------------------------------------------------------------
 -----
 title
 -----
 Structure from the checkpoint file:  "ANI1ccx_934_conf6_mol1.chk"
 Charge =  0 Multiplicity = 1

                         Standard orientation:
 ---------------------------------------------------------------------
 Center     Atomic      Atomic             Coordinates (Angstroms)
 Number     Number       Type             X           Y           Z
 ---------------------------------------------------------------------
      1          6           0        0.624644   -0.978082   -0.023203
      2          6           0       -0.630320   -0.433335   -0.900198
      3          6           0       -1.195399    0.908722   -0.220158
      4          6           0        1.661790    0.098660    0.199284
      5          1           0       -0.668135   -1.944679    0.950149
      6          1           0        1.070149   -1.800780   -0.592968
      7          1           0       -0.426482   -0.336423   -1.934680
      8          1           0       -2.067291   -1.129488   -0.057966
      9          1           0       -2.404159    1.411012    1.040830
     10          1           0        2.542690   -0.571804   -1.205990
     11          8           0        0.114370   -1.464509    1.230510
     12          8           0       -1.556241   -1.490258   -0.758273
     13          8           0       -2.041720    0.604908    0.670382
     14          8           0       -0.786973    2.019341   -0.490317
     15          8           0        2.696350    0.207624   -0.715608
     16          8           0        1.472831    0.972441    0.996593
 ---------------------------------------------------------------------

 SCF Done:  E(RHF) =  -604.805024834     A.U. after    2 cycles

 The electronic state is 1-A.
 Alpha  occ. eigenvalues --  -20.65038 -20.61525 -20.59740 -20.58283 -20.55545
 Alpha  occ. eigenvalues --  -20.54474 -11.42480 -11.40397 -11.35647 -11.35191
 Alpha  occ. eigenvalues --   -1.62810  -1.55542  -1.52646  -1.47971  -1.47550
 Alpha  occ. eigenvalues --   -1.46347  -1.06878  -0.97427  -0.89887  -0.82274
 Alpha  occ. eigenvalues --   -0.79413  -0.76620  -0.73533  -0.72452  -0.71713
 Alpha  occ. eigenvalues --   -0.67729  -0.65840  -0.65286  -0.63407  -0.61208
 Alpha  occ. eigenvalues --   -0.59843  -0.59274  -0.56207  -0.52233  -0.51024
 Alpha  occ. eigenvalues --   -0.47741  -0.47422  -0.45044  -0.44350
 Alpha virt. eigenvalues --    0.02685   0.02856   0.04069   0.04798   0.06301
 Alpha virt. eigenvalues --    0.06727   0.08437   0.10189   0.11115   0.11535
 Alpha virt. eigenvalues --    0.12453   0.12635   0.13511   0.13916   0.14353

 Mulliken charges:
               1
     1  C    0.795808
     2  C    0.574401
     3  C    2.567798
     4  C    2.369930
     5  H    0.322800
     6  H    0.069112
     7  H   -0.055094
     8  H    0.356840
     9  H    0.381391
    10  H    0.373609
    11  O   -1.329926
    12  O   -1.316228
    13  O   -1.276275
    14  O   -1.321302
    15  O   -1.281180
    16  O   -1.231683
 Sum of Mulliken charges =  -0.00000

 Dipole moment (field-independent basis, Debye):
    X=             -3.1405    Y=             -3.3194    Z=             -1.6813  Tot=              4.8691

 Test job not archived.
 1\1\GINC-SE110\SP\RHF\Aug-CC-pVDZ\C4H6O6\OHZDE\08-Apr-2025\0\\#t hf au
 g-cc-pvdz iop(5/13=1,5/36=2,99/5=2) pseudo=read geom=check guess=(read
 ,tcheck) scf=(maxcycle=1)\\title\\0,1\C,0,0.624644,-0.978082,-0.023202
 5\C,0,-0.63032,-0.433336,-0.900198\C,0,-1.1954,0.908721,-0.220158\C,0,
 1.66179,0.09866,0.199284\H,0,-0.668134,-1.94468,0.950149\H,0,1.07015,-
 1.80078,-0.592968\H,0,-0.426482,-0.336424,-1.93468\H,0,-2.06729,-1.129
 49,-0.0579657\H,0,-2.40416,1.41101,1.04083\H,0,2.54269,-0.571803,-1.20
 599\O,0,0.114371,-1.46451,1.23051\O,0,-1.55624,-1.49026,-0.758273\O,0,

 Normal termination of Gaussian 16 at Tue Apr  8 22:10:49 2025.
