 Gaussian 16, Revision C.01,

 ----------------------------------------------------------------------
 #t hf aug-cc-pvdz symm=none int=(grid=ultrafine) guess=(read,tcheck) s
 table=(opt,rrhf)
 ----------------------------------------------------------------------
 -----
 title
 -----
 Symbolic Z-matrix:
 Charge =  0 Multiplicity = 1

 SCF Done:  E(RHF) =  -430.221810712     A.U. after   15 cycles
 Normal termination of Gaussian 16 at Tue Apr  8 21:40:46 2025.
 Gaussian 16:  ES64L-G16RevC.01  3-Jul-2019

 ----------------------------------------------------------------------
 #t hf aug-cc-pvdz iop(5/13=1,5/36=2,99/5=2) pseudo=read geom=check gue
 ss=(read,tcheck) scf=(maxcycle=1)
 ----------------------------------------------------------------------
 -----
 title
 -----
 Structure from the checkpoint file:  "ANI1ccx_470_conf3_mol1.chk"
 Charge =  0 Multiplicity = 1

                         Standard orientation:
 ---------------------------------------------------------------------
 Center     Atomic      Atomic             Coordinates (Angstroms)
 Number     Number       Type             X           Y           Z
 ---------------------------------------------------------------------
      1          6           0        1.165819   -0.151325   -0.014800
      2          6           0       -1.128821   -0.146959   -0.080434
      3          1           0        0.979482    1.983161   -0.157124
      4          7           0        0.580920    1.131951    0.221819
      5          8           0        2.340359   -0.516192   -0.031265
      6          8           0       -0.769704    1.044490   -0.156483
      7          8           0       -2.223781   -0.537978    0.088122
      8          8           0       -0.005363   -1.004959   -0.003400
 ---------------------------------------------------------------------

 SCF Done:  E(RHF) =  -430.631799905     A.U. after    2 cycles

 The electronic state is 1-A.
 Alpha  occ. eigenvalues --  -20.70089 -20.66794 -20.60472 -20.57278 -15.66831
 Alpha  occ. eigenvalues --  -11.50077 -11.48599  -1.71806  -1.56385  -1.53783
 Alpha  occ. eigenvalues --   -1.50051  -1.26117  -0.97807  -0.91300  -0.85499
 Alpha  occ. eigenvalues --   -0.80239  -0.74510  -0.70861  -0.69708  -0.64413
 Alpha  occ. eigenvalues --   -0.64151  -0.62395  -0.53437  -0.51733  -0.49921
 Alpha  occ. eigenvalues --   -0.48630
 Alpha virt. eigenvalues --    0.02007   0.07298   0.08028   0.08505   0.09634
 Alpha virt. eigenvalues --    0.10606   0.10650   0.11205   0.11832   0.13677
 Alpha virt. eigenvalues --    0.14398   0.15476   0.17721   0.18610   0.22205

 Mulliken charges:
               1
     1  C    1.283335
     2  C    2.034144
     3  H    0.158526
     4  N    0.767826
     5  O   -1.006994
     6  O   -1.034588
     7  O   -1.046325
     8  O   -1.155925
 Sum of Mulliken charges =  -0.00000

 Dipole moment (field-independent basis, Debye):
    X=              1.2021    Y=              3.4495    Z=             -1.0251  Tot=              3.7940

 Test job not archived.
 1\1\GINC-SE094\SP\RHF\Aug-CC-pVDZ\C2H1N1O4\OHZDE\08-Apr-2025\0\\#t hf
 aug-cc-pvdz iop(5/13=1,5/36=2,99/5=2) pseudo=read geom=check guess=(re
 ad,tcheck) scf=(maxcycle=1)\\title\\0,1\C,0,1.16582,-0.151326,-0.01479
 96\C,0,-1.12882,-0.146959,-0.0804338\H,0,0.979484,1.98316,-0.157124\N,
 0,0.580922,1.13195,0.221819\O,0,2.34036,-0.516194,-0.0312645\O,0,-0.76
 9703,1.04449,-0.156483\O,0,-2.22378,-0.537977,0.088122\O,0,-0.00536286
 ,-1.00496,-0.00340043\\Version=ES64L-G16RevC.01\State=1-A\HF=-430.6317
 999\RMSD=1.088e-02\Dipole=0.4729332,1.3571193,-0.4033172\Quadrupole=-6

 Normal termination of Gaussian 16 at Tue Apr  8 21:40:49 2025.
