 Gaussian 16, Revision C.01,

 ----------------------------------------------------------------------
 #t hf aug-cc-pvdz symm=none int=(grid=ultrafine) guess=(read,tcheck) s
 table=(opt,rrhf)
 ----------------------------------------------------------------------
 -----
 title
 -----
 Symbolic Z-matrix:
 Charge =  0 Multiplicity = 1

 SCF Done:  E(RHF) =  -539.052989626     A.U. after   16 cycles
 Normal termination of Gaussian 16 at Tue Apr  8 21:42:19 2025.
 Gaussian 16:  ES64L-G16RevC.01  3-Jul-2019

 ----------------------------------------------------------------------
 #t hf aug-cc-pvdz iop(5/13=1,5/36=2,99/5=2) pseudo=read geom=check gue
 ss=(read,tcheck) scf=(maxcycle=1)
 ----------------------------------------------------------------------
 -----
 title
 -----
 Structure from the checkpoint file:  "ANI1ccx_475_conf2_mol1.chk"
 Charge =  0 Multiplicity = 1

                         Standard orientation:
 ---------------------------------------------------------------------
 Center     Atomic      Atomic             Coordinates (Angstroms)
 Number     Number       Type             X           Y           Z
 ---------------------------------------------------------------------
      1          6           0        1.655370   -0.285534    0.033343
      2          6           0       -1.895260   -0.124941    0.103946
      3          1           0        3.405700    0.590359    0.161507
      4          7           0        0.309426    0.080032   -0.062306
      5          7           0       -0.167249    1.329011   -0.233634
      6          7           0       -1.456000    1.229271   -0.161810
      7          8           0        2.432870    0.861177    0.311068
      8          8           0        2.136230   -1.403989   -0.252606
      9          8           0       -2.960970   -0.660191    0.110270
     10          8           0       -0.704330   -0.871460    0.108645
 ---------------------------------------------------------------------

 SCF Done:  E(RHF) =  -539.563251793     A.U. after    2 cycles

 The electronic state is 1-A.
 Alpha  occ. eigenvalues --  -20.70782 -20.65900 -20.59807 -20.59764 -15.72423
 Alpha  occ. eigenvalues --  -15.70891 -15.62478 -11.50747 -11.47896  -1.66208
 Alpha  occ. eigenvalues --   -1.56610  -1.53713  -1.48387  -1.45303  -1.29286
 Alpha  occ. eigenvalues --   -1.07311  -0.98181  -0.92852  -0.81432  -0.79378
 Alpha  occ. eigenvalues --   -0.76217  -0.73622  -0.71335  -0.67248  -0.66239
 Alpha  occ. eigenvalues --   -0.65206  -0.62456  -0.59894  -0.59573  -0.52598
 Alpha  occ. eigenvalues --   -0.51387  -0.50898  -0.46588
 Alpha virt. eigenvalues --   -0.02902   0.02596   0.05813   0.07929   0.09067
 Alpha virt. eigenvalues --    0.09100   0.09483   0.09961   0.11623   0.12260
 Alpha virt. eigenvalues --    0.12822   0.14210   0.16189   0.16439   0.16964

 Mulliken charges:
               1
     1  C    1.592120
     2  C    1.409103
     3  H    0.421526
     4  N    1.307730
     5  N   -0.440052
     6  N    0.232469
     7  O   -1.152299
     8  O   -1.008787
     9  O   -0.949651
    10  O   -1.412160
 Sum of Mulliken charges =  -0.00000

 Dipole moment (field-independent basis, Debye):
    X=              3.3406    Y=              1.0769    Z=              0.5240  Tot=              3.5488

 Test job not archived.
 1\1\GINC-SE402\SP\RHF\Aug-CC-pVDZ\C2H1N3O4\OHZDE\08-Apr-2025\0\\#t hf
 aug-cc-pvdz iop(5/13=1,5/36=2,99/5=2) pseudo=read geom=check guess=(re
 ad,tcheck) scf=(maxcycle=1)\\title\\0,1\C,0,1.65537,-0.285535,0.033343
 1\C,0,-1.89526,-0.124942,0.103946\H,0,3.4057,0.590357,0.161507\N,0,0.3
 09426,0.0800306,-0.0623064\N,0,-0.167249,1.32901,-0.233634\N,0,-1.456,
 1.22927,-0.16181\O,0,2.43287,0.861176,0.311068\O,0,2.13623,-1.40399,-0
 .252606\O,0,-2.96097,-0.660192,0.11027\O,0,-0.70433,-0.871461,0.108645
 \\Version=ES64L-G16RevC.01\State=1-A\HF=-539.5632518\RMSD=3.011e-02\Di

 Normal termination of Gaussian 16 at Tue Apr  8 21:42:23 2025.
