 Gaussian 16, Revision C.01,

 ----------------------------------------------------------------------
 #t hf aug-cc-pvdz symm=none int=(grid=ultrafine) guess=(read,tcheck) s
 table=(opt,rrhf)
 ----------------------------------------------------------------------
 -----
 title
 -----
 Symbolic Z-matrix:
 Charge =  0 Multiplicity = 1

 SCF Done:  E(RHF) =  -912.039205824     A.U. after   14 cycles
 Normal termination of Gaussian 16 at Tue Apr  8 21:44:14 2025.
 Gaussian 16:  ES64L-G16RevC.01  3-Jul-2019

 ----------------------------------------------------------------------
 #t hf aug-cc-pvdz iop(5/13=1,5/36=2,99/5=2) pseudo=read geom=check gue
 ss=(read,tcheck) scf=(maxcycle=1)
 ----------------------------------------------------------------------
 -----
 title
 -----
 Structure from the checkpoint file:  "ANI1ccx_293_conf8_mol2.chk"
 Charge =  0 Multiplicity = 1

                         Standard orientation:
 ---------------------------------------------------------------------
 Center     Atomic      Atomic             Coordinates (Angstroms)
 Number     Number       Type             X           Y           Z
 ---------------------------------------------------------------------
      1          6           0        0.809424   -0.126652    1.168219
      2          6           0       -3.334670    3.176889    0.599690
      3          6           0       -3.085920    1.694719    0.732091
      4          6           0       -3.176790    0.963643   -0.624166
      5          6           0       -1.739799   -2.680261   -0.142922
      6          6           0       -1.725799   -1.142291   -0.086154
      7          6           0       -3.087219   -0.577377   -0.512397
      8          6           0        4.673591    0.373459    0.604571
      9          6           0        3.359211   -0.438938    0.857893
     10          6           0        2.223731    0.399654    1.327479
     11          6           0        0.467053   -0.097563   -0.355575
     12          6           0        4.548470    1.361891   -0.554208
     13          1           0       -2.405430    1.227289   -1.319341
     14          1           0       -3.856099   -1.022171    0.119153
     15          1           0       -3.275189   -0.983087   -1.532751
     16          1           0       -4.102920    1.212979   -1.151621
     17          1           0       -3.819590    1.168079    1.366359
     18          1           0       -0.994612   -4.154120   -1.001071
     19          1           0       -4.357690    3.359289    0.223500
     20          1           0       -3.337200    3.756739    1.531899
     21          1           0       -1.514100    4.146090    0.112958
     22          1           0       -2.354930    3.471709   -1.181101
     23          1           0       -1.538099   -0.857851    0.940281
     24          1           0       -2.099430    1.552479    1.140699
     25          1           0       -0.508696   -0.882793   -1.802631
     26          1           0        5.560330    1.762581   -0.678466
     27          1           0        4.522180    0.989971   -2.600271
     28          1           0        1.378591   -1.750500    2.244119
     29          1           0        0.538658   -2.085060    0.856126
     30          1           0        3.017680    0.737795   -1.739341
     31          1           0        2.170200    1.453170    0.996220
     32          1           0        2.399080    0.557719    2.384429
     33          1           0        0.139092    0.563863    1.697899
     34          1           0        3.538711   -1.175469    1.681349
     35          1           0        5.067550    0.981932    1.470539
     36          1           0        5.472291   -0.409235    0.374209
     37          1           0        3.872520    2.163731   -0.260844
     38          1           0        3.107411   -0.992790   -0.018677
     39          7           0        0.567646   -1.460030    1.706539
     40          7           0        4.036780    0.664531   -1.735351
     41          7           0       -0.674097   -0.581736   -0.877138
     42          7           0       -2.437590    3.871659   -0.268409
     43          8           0       -2.403509   -3.384171    0.543955
     44          8           0        1.262231    0.361127   -1.125971
     45          8           0       -0.940869   -3.189000   -1.133021
 ---------------------------------------------------------------------

 SCF Done:  E(RHF) =  -912.990634047     A.U. after    2 cycles

 The electronic state is 1-A.
 Alpha  occ. eigenvalues --  -20.61873 -20.55689 -20.51818 -15.53289 -15.51226
 Alpha  occ. eigenvalues --  -15.47906 -15.45252 -11.40821 -11.36301 -11.30521
 Alpha  occ. eigenvalues --  -11.28745 -11.25717 -11.25435 -11.23983 -11.23731
 Alpha  occ. eigenvalues --  -11.23435 -11.22686 -11.22477 -11.22058  -1.56727
 Alpha  occ. eigenvalues --   -1.49348  -1.47461  -1.27772  -1.21132  -1.18635
 Alpha  occ. eigenvalues --   -1.14971  -1.09664  -1.06605  -1.03497  -0.98953
 Alpha  occ. eigenvalues --   -0.95833  -0.93177  -0.87408  -0.86769  -0.84703
 Alpha  occ. eigenvalues --   -0.81585  -0.80762  -0.76771  -0.74925  -0.73698
 Alpha  occ. eigenvalues --   -0.71898  -0.71438  -0.70643  -0.68728  -0.67218
 Alpha  occ. eigenvalues --   -0.66541  -0.64904  -0.64639  -0.63797  -0.63280
 Alpha  occ. eigenvalues --   -0.62376  -0.62330  -0.60246  -0.59587  -0.59322
 Alpha  occ. eigenvalues --   -0.57893  -0.56827  -0.55334  -0.54966  -0.53967
 Alpha  occ. eigenvalues --   -0.52382  -0.51885  -0.50744  -0.49477  -0.49284
 Alpha  occ. eigenvalues --   -0.48519  -0.48050  -0.47645  -0.46538  -0.45878
 Alpha  occ. eigenvalues --   -0.44391  -0.42450  -0.42263  -0.41254  -0.39037
 Alpha virt. eigenvalues --    0.02765   0.03117   0.03250   0.03546   0.03733
 Alpha virt. eigenvalues --    0.04244   0.04289   0.04823   0.05283   0.06190
 Alpha virt. eigenvalues --    0.06349   0.06468   0.07016   0.07381   0.08104

 Mulliken charges:
               1
     1  C   -1.126206
     2  C   -0.781251
     3  C    0.086728
     4  C   -0.254515
     5  C    3.418519
     6  C   -1.862365
     7  C   -0.623047
     8  C   -0.615769
     9  C   -0.229693
    10  C   -0.234497
    11  C    0.654138
    12  C   -0.476983
    13  H    0.157835
    14  H    0.152854
    15  H    0.316284
    16  H    0.027985
    17  H    0.213205
    18  H    0.412700
    19  H    0.130694
    20  H    0.051984
    21  H    0.209742
    22  H    0.079170
    23  H    0.379583
    24  H    0.002861
    25  H    0.305371
    26  H    0.017582
    27  H    0.203045
    28  H    0.237189
    29  H    0.237535
    30  H    0.117614
    31  H    0.129671
    32  H    0.087652
    33  H    0.038875
    34  H    0.171053
    35  H    0.203948
    36  H    0.235338
    37  H    0.185277
    38  H    0.094926
    39  N    0.584089
    40  N    0.364055
    41  N    1.287795
    42  N    0.386704
    43  O   -1.483054
    44  O   -1.994145
    45  O   -1.500476
 Sum of Mulliken charges =   0.00000

 Dipole moment (field-independent basis, Debye):
    X=             -0.4376    Y=             -0.4421    Z=              0.2938  Tot=              0.6879

 Test job not archived.
 1\1\GINC-SE329\SP\RHF\Aug-CC-pVDZ\C12H26N4O3\OHZDE\08-Apr-2025\0\\#t h
 f aug-cc-pvdz iop(5/13=1,5/36=2,99/5=2) pseudo=read geom=check guess=(
 read,tcheck) scf=(maxcycle=1)\\title\\0,1\C,0,0.809423,-0.126652,1.168
 22\C,0,-3.33467,3.17689,0.599691\C,0,-3.08592,1.69472,0.732092\C,0,-3.
 17679,0.963644,-0.624165\C,0,-1.7398,-2.68026,-0.142921\C,0,-1.7258,-1
 .14229,-0.0861531\C,0,-3.08722,-0.577376,-0.512396\C,0,4.67359,0.37345
 8,0.604572\C,0,3.35921,-0.438939,0.857894\C,0,2.22373,0.399654,1.32748
 \C,0,0.467052,-0.0975626,-0.355574\C,0,4.54847,1.36189,-0.554207\H,0,-

 Normal termination of Gaussian 16 at Tue Apr  8 21:45:55 2025.
