 Gaussian 16, Revision C.01,

 ----------------------------------------------------------------------
 #t hf aug-cc-pvdz symm=none int=(grid=ultrafine) guess=(read,tcheck) s
 table=(opt,rrhf)
 ----------------------------------------------------------------------
 -----
 title
 -----
 Symbolic Z-matrix:
 Charge =  0 Multiplicity = 1

 SCF Done:  E(RHF) =  -555.305299479     A.U. after   16 cycles
 Normal termination of Gaussian 16 at Tue Apr  8 22:03:13 2025.
 Gaussian 16:  ES64L-G16RevC.01  3-Jul-2019

 ----------------------------------------------------------------------
 #t hf aug-cc-pvdz iop(5/13=1,5/36=2,99/5=2) pseudo=read geom=check gue
 ss=(read,tcheck) scf=(maxcycle=1)
 ----------------------------------------------------------------------
 -----
 title
 -----
 Structure from the checkpoint file:  "ANI1ccx_886_conf18_mol1.chk"
 Charge =  0 Multiplicity = 1

                         Standard orientation:
 ---------------------------------------------------------------------
 Center     Atomic      Atomic             Coordinates (Angstroms)
 Number     Number       Type             X           Y           Z
 ---------------------------------------------------------------------
      1          6           0        1.314821   -0.703076   -0.061687
      2          6           0       -0.925582   -0.680124    0.005957
      3          6           0       -0.966052    0.714953   -0.101993
      4          6           0        1.295891    0.698394    0.038784
      5          1           0        3.050671   -1.046992    0.728292
      6          1           0        2.379920   -2.343932    0.014062
      7          1           0        3.083572    1.013438   -0.690718
      8          1           0        2.480512    2.354658    0.132718
      9          7           0        2.533450   -1.327722   -0.107688
     10          7           0        0.230931   -1.425771    0.038113
     11          7           0       -2.143580   -1.132029   -0.010050
     12          7           0       -2.192288    1.119741   -0.057131
     13          7           0        0.176761    1.444129   -0.014259
     14          7           0        2.519292    1.342378    0.121509
     15          8           0       -2.897639   -0.037891    0.091978
 ---------------------------------------------------------------------

 SCF Done:  E(RHF) =  -555.855350103     A.U. after    2 cycles

 The electronic state is 1-A.
 Alpha  occ. eigenvalues --  -20.66930 -15.59107 -15.58553 -15.56021 -15.55801
 Alpha  occ. eigenvalues --  -15.55236 -15.54830 -11.37861 -11.37058 -11.31767
 Alpha  occ. eigenvalues --  -11.31647  -1.63715  -1.36648  -1.29498  -1.27239
 Alpha  occ. eigenvalues --   -1.24282  -1.18941  -1.17265  -0.99562  -0.92628
 Alpha  occ. eigenvalues --   -0.90309  -0.84200  -0.81746  -0.76503  -0.74258
 Alpha  occ. eigenvalues --   -0.73256  -0.71799  -0.71422  -0.64223  -0.63285
 Alpha  occ. eigenvalues --   -0.59718  -0.57968  -0.57411  -0.54336  -0.53454
 Alpha  occ. eigenvalues --   -0.52064  -0.48491  -0.41981  -0.39929
 Alpha virt. eigenvalues --   -0.01651   0.01865   0.03456   0.05097   0.05441
 Alpha virt. eigenvalues --    0.07533   0.08408   0.09201   0.09592   0.09841
 Alpha virt. eigenvalues --    0.10600   0.12234   0.12331   0.12480   0.12724

 Mulliken charges:
               1
     1  C   -1.729211
     2  C   -1.180185
     3  C   -1.295124
     4  C   -1.858935
     5  H    0.343645
     6  H    0.140750
     7  H    0.369250
     8  H    0.055429
     9  N    0.863394
    10  N    1.028601
    11  N    1.417277
    12  N    1.439003
    13  N    1.063566
    14  N    0.847199
    15  O   -1.504658
 Sum of Mulliken charges =  -0.00000

 Dipole moment (field-independent basis, Debye):
    X=              7.4179    Y=             -0.0670    Z=              0.0826  Tot=              7.4186

 Test job not archived.
 1\1\GINC-SE073\SP\RHF\Aug-CC-pVDZ\C4H4N6O1\OHZDE\08-Apr-2025\0\\#t hf
 aug-cc-pvdz iop(5/13=1,5/36=2,99/5=2) pseudo=read geom=check guess=(re
 ad,tcheck) scf=(maxcycle=1)\\title\\0,1\C,0,1.31482,-0.703075,-0.06168
 68\C,0,-0.925583,-0.680124,0.00595655\C,0,-0.966053,0.714953,-0.101993
 \C,0,1.29589,0.698395,0.0387836\H,0,3.05067,-1.04699,0.728292\H,0,2.37
 992,-2.34393,0.0140619\H,0,3.08357,1.01344,-0.690718\H,0,2.48051,2.354
 66,0.132718\N,0,2.53345,-1.32772,-0.107688\N,0,0.230931,-1.42577,0.038
 1132\N,0,-2.14358,-1.13203,-0.0100502\N,0,-2.19229,1.11974,-0.0571311\

 Normal termination of Gaussian 16 at Tue Apr  8 22:03:20 2025.
