 Gaussian 16, Revision C.01,

 ----------------------------------------------------------------------
 #t hf aug-cc-pvdz symm=none int=(grid=ultrafine) guess=(read,tcheck) s
 table=(opt,rrhf)
 ----------------------------------------------------------------------
 -----
 title
 -----
 Symbolic Z-matrix:
 Charge =  0 Multiplicity = 1

 SCF Done:  E(RHF) =  -814.783663452     A.U. after   14 cycles
 Normal termination of Gaussian 16 at Tue Apr  8 21:07:17 2025.
 Gaussian 16:  ES64L-G16RevC.01  3-Jul-2019

 ----------------------------------------------------------------------
 #t hf aug-cc-pvdz iop(5/13=1,5/36=2,99/5=2) pseudo=read geom=check gue
 ss=(read,tcheck) scf=(maxcycle=1)
 ----------------------------------------------------------------------
 -----
 title
 -----
 Structure from the checkpoint file:  "ANI1ccx_1785_conf2_mol1.chk"
 Charge =  0 Multiplicity = 1

                         Standard orientation:
 ---------------------------------------------------------------------
 Center     Atomic      Atomic             Coordinates (Angstroms)
 Number     Number       Type             X           Y           Z
 ---------------------------------------------------------------------
      1          6           0        1.488398   -1.973252   -0.297391
      2          6           0        0.779418    2.203479    0.903055
      3          6           0       -0.745244    2.388561    0.757822
      4          6           0       -1.573048    1.311532   -0.017033
      5          6           0        1.424333    2.441728   -0.479644
      6          6           0       -1.559930   -0.038617    0.697744
      7          6           0        2.596009   -1.377723    0.569640
      8          6           0        0.359451   -1.018240   -0.522373
      9          6           0       -2.624851   -0.969314    0.186959
     10          1           0       -0.854660    3.440111    0.344315
     11          1           0       -4.313831   -1.031225   -0.568197
     12          1           0        1.354486    4.485798   -0.357119
     13          1           0        1.502485    3.930258   -1.889100
     14          1           0        1.142152    1.676719   -1.186140
     15          1           0        2.504963    2.416797   -0.311575
     16          1           0        1.150472    1.266909    1.283150
     17          1           0        1.163024    3.032479    1.537260
     18          1           0       -1.135127    2.362611    1.785810
     19          1           0       -1.229118    1.253692   -1.076520
     20          1           0       -1.791690    0.063018    1.796280
     21          1           0        0.148845   -1.051430    1.440550
     22          1           0        2.882179   -0.862604    2.463840
     23          1           0        3.464208   -1.982954    0.396942
     24          1           0        2.663200   -0.343736    0.148280
     25          1           0        1.084387   -2.866721    0.232208
     26          1           0        2.159108   -1.517863   -2.116550
     27          1           0        1.464697   -2.967402   -2.123230
     28          1           0       -2.619928    1.675063   -0.087025
     29          7           0        2.072127   -2.356113   -1.569780
     30          7           0       -0.270257   -0.655104    0.612287
     31          7           0        1.017735    3.750799   -1.006650
     32          8           0       -2.584732   -2.138317    0.211441
     33          8           0        0.097465   -0.631214   -1.648560
     34          8           0        2.271879   -1.415623    1.956020
     35          8           0       -3.702650   -0.310537   -0.363509
 ---------------------------------------------------------------------

 SCF Done:  E(RHF) =  -815.619821292     A.U. after    2 cycles

 The electronic state is 1-A.
 Alpha  occ. eigenvalues --  -20.59501 -20.57485 -20.54479 -20.51310 -15.52650
 Alpha  occ. eigenvalues --  -15.48463 -15.48348 -11.39115 -11.35093 -11.30364
 Alpha  occ. eigenvalues --  -11.30208 -11.27498 -11.24699 -11.23164 -11.22765
 Alpha  occ. eigenvalues --  -11.22637  -1.55730  -1.47232  -1.46568  -1.46308
 Alpha  occ. eigenvalues --   -1.26547  -1.19645  -1.17727  -1.08485  -1.03429
 Alpha  occ. eigenvalues --   -1.00460  -0.94243  -0.89610  -0.86075  -0.83786
 Alpha  occ. eigenvalues --   -0.79917  -0.77464  -0.75272  -0.73613  -0.71693
 Alpha  occ. eigenvalues --   -0.70561  -0.69121  -0.68755  -0.67608  -0.65993
 Alpha  occ. eigenvalues --   -0.64744  -0.63836  -0.62009  -0.61602  -0.60652
 Alpha  occ. eigenvalues --   -0.59479  -0.58403  -0.57310  -0.56063  -0.54869
 Alpha  occ. eigenvalues --   -0.54234  -0.52319  -0.50299  -0.48775  -0.48500
 Alpha  occ. eigenvalues --   -0.47989  -0.47388  -0.45806  -0.45302  -0.44536
 Alpha  occ. eigenvalues --   -0.42267  -0.41833  -0.40973
 Alpha virt. eigenvalues --    0.02450   0.03123   0.03456   0.03989   0.04576
 Alpha virt. eigenvalues --    0.04980   0.05209   0.05320   0.05878   0.07010
 Alpha virt. eigenvalues --    0.07611   0.07977   0.08129   0.08870   0.09358

 Mulliken charges:
               1
     1  C   -2.979283
     2  C   -0.060179
     3  C   -0.518455
     4  C    0.022326
     5  C   -0.777954
     6  C   -1.878011
     7  C    1.362583
     8  C    1.178339
     9  C    3.044502
    10  H    0.305157
    11  H    0.414017
    12  H    0.175093
    13  H    0.102977
    14  H   -0.067566
    15  H    0.050220
    16  H    0.014710
    17  H    0.157424
    18  H    0.171990
    19  H    0.327697
    20  H    0.312586
    21  H    0.367692
    22  H    0.407663
    23  H    0.027680
    24  H    0.344114
    25  H    0.166088
    26  H    0.243829
    27  H    0.205244
    28  H    0.141860
    29  N    1.026308
    30  N    1.249051
    31  N    0.444727
    32  O   -1.425896
    33  O   -1.675943
    34  O   -1.389733
    35  O   -1.490856
 Sum of Mulliken charges =  -0.00000

 Dipole moment (field-independent basis, Debye):
    X=              1.7569    Y=              1.7687    Z=              2.6956  Tot=              3.6717

 Test job not archived.
 1\1\GINC-SE340\SP\RHF\Aug-CC-pVDZ\C9H19N3O4\OHZDE\08-Apr-2025\0\\#t hf
  aug-cc-pvdz iop(5/13=1,5/36=2,99/5=2) pseudo=read geom=check guess=(r
 ead,tcheck) scf=(maxcycle=1)\\title\\0,1\C,0,1.4884,-1.97325,-0.297391
 \C,0,0.779415,2.20348,0.903055\C,0,-0.745247,2.38856,0.757822\C,0,-1.5
 7305,1.31153,-0.0170335\C,0,1.42433,2.44173,-0.479644\C,0,-1.55993,-0.
 038619,0.697744\C,0,2.59601,-1.37772,0.56964\C,0,0.359452,-1.01824,-0.
 522373\C,0,-2.62485,-0.969317,0.186959\H,0,-0.854665,3.44011,0.344315\
 H,0,-4.31383,-1.03123,-0.568197\H,0,1.35448,4.4858,-0.357119\H,0,1.502

 Normal termination of Gaussian 16 at Tue Apr  8 21:08:02 2025.
