 Gaussian 16, Revision C.01,

 ----------------------------------------------------------------------
 #t hf aug-cc-pvdz symm=none int=(grid=ultrafine) guess=(read,tcheck) s
 table=(opt,rrhf)
 ----------------------------------------------------------------------
 -----
 title
 -----
 Symbolic Z-matrix:
 Charge =  0 Multiplicity = 1

 SCF Done:  E(RHF) =  -456.232094658     A.U. after   11 cycles
 Normal termination of Gaussian 16 at Tue Apr  8 21:08:48 2025.
 Gaussian 16:  ES64L-G16RevC.01  3-Jul-2019

 ----------------------------------------------------------------------
 #t hf aug-cc-pvdz iop(5/13=1,5/36=2,99/5=2) pseudo=read geom=check gue
 ss=(read,tcheck) scf=(maxcycle=1)
 ----------------------------------------------------------------------
 -----
 title
 -----
 Structure from the checkpoint file:  "ANI1ccx_1844_conf483_mol1.chk"
 Charge =  0 Multiplicity = 1

                         Standard orientation:
 ---------------------------------------------------------------------
 Center     Atomic      Atomic             Coordinates (Angstroms)
 Number     Number       Type             X           Y           Z
 ---------------------------------------------------------------------
      1          1           0        1.118399   -0.804996   -0.815906
      2          1           0       -3.351421    0.280488   -0.538253
      3          1           0       -2.137571   -0.650472    0.305550
      4          1           0        2.555469    0.650683   -0.092838
      5          1           0       -0.812703   -0.831891    1.843421
      6          1           0       -0.270513   -1.311510    0.522363
      7          1           0        2.606069   -0.539223    0.692974
      8          1           0        0.558718    1.499580    0.543825
      9          1           0       -1.298601    1.213770   -0.608568
     10          1           0        0.057120    0.978916   -1.432519
     11          1           0        0.687367   -2.031710   -1.632159
     12          1           0        1.211019    1.476380    2.134651
     13          8           0        2.628499   -0.293090   -0.193893
     14          8           0        0.394503   -1.113050   -1.376779
     15          8           0       -0.512024    1.695610   -0.968885
     16          8           0        0.876232    1.005590    1.376331
     17          8           0       -1.059791   -1.456300    1.142551
     18          8           0       -2.442841    0.169988   -0.094641
 ---------------------------------------------------------------------

 SCF Done:  E(RHF) =  -456.706236691     A.U. after    2 cycles

 The electronic state is 1-A.
 Alpha  occ. eigenvalues --  -20.57629 -20.56191 -20.55649 -20.55569 -20.52992
 Alpha  occ. eigenvalues --  -20.52385  -1.48822  -1.44824  -1.43330  -1.43025
 Alpha  occ. eigenvalues --   -1.40748  -1.38191  -0.74574  -0.73372  -0.73228
 Alpha  occ. eigenvalues --   -0.71756  -0.69043  -0.67585  -0.63550  -0.60119
 Alpha  occ. eigenvalues --   -0.59439  -0.56345  -0.55142  -0.51997  -0.50893
 Alpha  occ. eigenvalues --   -0.49678  -0.49602  -0.49096  -0.47314  -0.46216
 Alpha virt. eigenvalues --    0.02759   0.04144   0.04765   0.05435   0.06471
 Alpha virt. eigenvalues --    0.07589   0.08352   0.09051   0.09336   0.10400
 Alpha virt. eigenvalues --    0.10799   0.12283   0.15771   0.18941   0.19665

 Mulliken charges:
               1
     1  H    0.941558
     2  H    0.467325
     3  H    0.695987
     4  H    0.489167
     5  H    0.441857
     6  H    0.676993
     7  H    0.435316
     8  H    0.708012
     9  H    0.822638
    10  H    0.478435
    11  H    0.264830
    12  H    0.409595
    13  O   -1.019458
    14  O   -1.022895
    15  O   -1.285262
    16  O   -1.076756
    17  O   -1.336741
    18  O   -1.090601
 Sum of Mulliken charges =  -0.00000

 Dipole moment (field-independent basis, Debye):
    X=              1.8872    Y=             -0.6843    Z=              2.1240  Tot=              2.9226

 Test job not archived.
 1\1\GINC-SE043\SP\RHF\Aug-CC-pVDZ\H12O6\OHZDE\08-Apr-2025\0\\#t hf aug
 -cc-pvdz iop(5/13=1,5/36=2,99/5=2) pseudo=read geom=check guess=(read,
 tcheck) scf=(maxcycle=1)\\title\\0,1\H,0,1.1184,-0.804996,-0.815907\H,
 0,-3.35142,0.280488,-0.538254\H,0,-2.13757,-0.650472,0.305549\H,0,2.55
 547,0.650683,-0.092839\H,0,-0.812702,-0.831891,1.84342\H,0,-0.270512,-
 1.31151,0.522362\H,0,2.60607,-0.539223,0.692973\H,0,0.558719,1.49958,0
 .543824\H,0,-1.2986,1.21377,-0.608569\H,0,0.0571205,0.978916,-1.43252\
 H,0,0.687368,-2.03171,-1.63216\H,0,1.21102,1.47638,2.13465\O,0,2.6285,

 Normal termination of Gaussian 16 at Tue Apr  8 21:08:54 2025.
