 Gaussian 16, Revision C.01,

 ----------------------------------------------------------------------
 #t hf aug-cc-pvdz symm=none int=(grid=ultrafine) guess=(read,tcheck) s
 table=(opt,rrhf)
 ----------------------------------------------------------------------
 -----
 title
 -----
 Symbolic Z-matrix:
 Charge =  0 Multiplicity = 1

 SCF Done:  E(RHF) =  -756.569805665     A.U. after   14 cycles
 Normal termination of Gaussian 16 at Tue Apr  8 19:48:26 2025.
 Gaussian 16:  ES64L-G16RevC.01  3-Jul-2019

 ----------------------------------------------------------------------
 #t hf aug-cc-pvdz iop(5/13=1,5/36=2,99/5=2) pseudo=read geom=check gue
 ss=(read,tcheck) scf=(maxcycle=1)
 ----------------------------------------------------------------------
 -----
 title
 -----
 Structure from the checkpoint file:  "ANI1ccx_1435_conf17_mol2.chk"
 Charge =  0 Multiplicity = 1

                         Standard orientation:
 ---------------------------------------------------------------------
 Center     Atomic      Atomic             Coordinates (Angstroms)
 Number     Number       Type             X           Y           Z
 ---------------------------------------------------------------------
      1          6           0       -1.729711   -0.650062    0.380153
      2          6           0       -0.369370   -0.534093   -0.161425
      3          6           0       -2.795681   -0.147493   -0.640030
      4          6           0       -4.150031   -0.363396   -0.108598
      5          6           0        1.960959   -0.182382    0.503495
      6          6           0        1.899259    1.298731    0.225126
      7          6           0        2.773539   -0.962538   -0.492608
      8          1           0        2.868628    2.784221   -0.285810
      9          1           0        2.001300   -2.641509    0.075601
     10          1           0        2.308269   -0.770934   -1.459330
     11          1           0        3.865209   -0.638853   -0.554533
     12          1           0        2.388239   -0.283377    1.518920
     13          1           0        0.264202   -0.783261    1.678890
     14          1           0       -4.396610   -1.403441    0.063915
     15          1           0       -4.354681    0.237658    0.745899
     16          1           0       -4.859311   -0.036307   -0.890707
     17          1           0       -1.736811    1.278460   -1.406010
     18          1           0       -2.655931   -0.716494   -1.580140
     19          1           0       -1.950090   -1.717750    0.520112
     20          1           0       -2.686971   -0.282941    2.153750
     21          1           0       -1.803131    0.915678    1.574600
     22          7           0       -1.816931   -0.082787    1.701170
     23          7           0        0.628622   -0.762018    0.726180
     24          8           0       -0.112040   -0.321928   -1.337530
     25          8           0       -2.585011    1.228009   -0.912283
     26          8           0        1.019129    2.032081    0.598972
     27          8           0        2.865600   -2.352889   -0.186189
     28          8           0        3.003829    1.817211   -0.335878
 ---------------------------------------------------------------------

 SCF Done:  E(RHF) =  -757.336663150     A.U. after    2 cycles

 The electronic state is 1-A.
 Alpha  occ. eigenvalues --  -20.61588 -20.55146 -20.55043 -20.54477 -20.52889
 Alpha  occ. eigenvalues --  -15.53892 -15.50685 -11.41062 -11.36616 -11.31523
 Alpha  occ. eigenvalues --  -11.29598 -11.29181 -11.28135 -11.22876  -1.56962
 Alpha  occ. eigenvalues --   -1.48296  -1.46378  -1.45396  -1.44520  -1.27102
 Alpha  occ. eigenvalues --   -1.21828  -1.07763  -1.05206  -0.98069  -0.90877
 Alpha  occ. eigenvalues --   -0.87474  -0.81801  -0.80552  -0.76567  -0.73554
 Alpha  occ. eigenvalues --   -0.72708  -0.72660  -0.70776  -0.70000  -0.68054
 Alpha  occ. eigenvalues --   -0.65997  -0.63862  -0.63259  -0.62387  -0.61499
 Alpha  occ. eigenvalues --   -0.58491  -0.57552  -0.56924  -0.56262  -0.54721
 Alpha  occ. eigenvalues --   -0.53305  -0.52077  -0.50676  -0.48831  -0.48392
 Alpha  occ. eigenvalues --   -0.46748  -0.46244  -0.44328  -0.43568  -0.41604
 Alpha virt. eigenvalues --    0.02871   0.03547   0.03926   0.03953   0.04337
 Alpha virt. eigenvalues --    0.05137   0.05393   0.05772   0.06782   0.07784
 Alpha virt. eigenvalues --    0.07876   0.08316   0.08857   0.09734   0.11577

 Mulliken charges:
               1
     1  C   -1.400290
     2  C    0.359769
     3  C    1.050314
     4  C   -0.257947
     5  C   -1.974538
     6  C    2.897909
     7  C    1.194682
     8  H    0.347357
     9  H    0.358926
    10  H    0.169542
    11  H    0.238961
    12  H    0.187596
    13  H    0.438327
    14  H    0.195155
    15  H    0.120577
    16  H    0.166296
    17  H    0.358854
    18  H    0.120990
    19  H    0.190549
    20  H    0.254445
    21  H    0.348585
    22  N    0.485283
    23  N    1.038265
    24  O   -1.520265
    25  O   -1.418232
    26  O   -1.309966
    27  O   -1.300524
    28  O   -1.340622
 Sum of Mulliken charges =  -0.00000

 Dipole moment (field-independent basis, Debye):
    X=             -1.1144    Y=             -0.3439    Z=              2.1993  Tot=              2.4894

 Test job not archived.
 1\1\GINC-SE186\SP\RHF\Aug-CC-pVDZ\C7H14N2O5\OHZDE\08-Apr-2025\0\\#t hf
  aug-cc-pvdz iop(5/13=1,5/36=2,99/5=2) pseudo=read geom=check guess=(r
 ead,tcheck) scf=(maxcycle=1)\\title\\0,1\C,0,-1.72971,-0.650062,0.3801
 53\C,0,-0.369369,-0.534093,-0.161425\C,0,-2.79568,-0.147492,-0.64003\C
 ,0,-4.15003,-0.363395,-0.108598\C,0,1.96096,-0.182383,0.503495\C,0,1.8
 9926,1.29873,0.225126\C,0,2.77354,-0.962539,-0.492608\H,0,2.86863,2.78
 422,-0.28581\H,0,2.0013,-2.64151,0.075601\H,0,2.30827,-0.770935,-1.459
 33\H,0,3.86521,-0.638854,-0.554533\H,0,2.38824,-0.283378,1.51892\H,0,0

 Normal termination of Gaussian 16 at Tue Apr  8 19:48:56 2025.
