 Gaussian 16, Revision C.01,

 ----------------------------------------------------------------------
 #t hf aug-cc-pvdz symm=none int=(grid=ultrafine) guess=(read,tcheck) s
 table=(opt,rrhf)
 ----------------------------------------------------------------------
 -----
 title
 -----
 Symbolic Z-matrix:
 Charge =  0 Multiplicity = 1

 SCF Done:  E(RHF) =  -432.546686973     A.U. after   13 cycles
 Normal termination of Gaussian 16 at Tue Apr  8 21:45:57 2025.
 Gaussian 16:  ES64L-G16RevC.01  3-Jul-2019

 ----------------------------------------------------------------------
 #t hf aug-cc-pvdz iop(5/13=1,5/36=2,99/5=2) pseudo=read geom=check gue
 ss=(read,tcheck) scf=(maxcycle=1)
 ----------------------------------------------------------------------
 -----
 title
 -----
 Structure from the checkpoint file:  "ANI1ccx_535_conf1_mol2.chk"
 Charge =  0 Multiplicity = 1

                         Standard orientation:
 ---------------------------------------------------------------------
 Center     Atomic      Atomic             Coordinates (Angstroms)
 Number     Number       Type             X           Y           Z
 ---------------------------------------------------------------------
      1          6           0        0.147806    0.637235   -0.259444
      2          6           0        1.267141   -1.230890   -0.100000
      3          1           0       -3.624990    0.264756   -0.071387
      4          1           0       -2.432330   -0.523192    0.541155
      5          1           0        1.363920    1.469690    1.198970
      6          1           0        1.861311   -1.706270   -0.859705
      7          1           0        0.930268   -1.945050    0.637918
      8          7           0        1.383090    0.930370    0.333714
      9          8           0       -3.434669   -0.583741    0.386091
     10          8           0       -0.804384    1.380630   -0.370183
     11          8           0        2.095340   -0.248325    0.416051
     12          8           0        0.110027   -0.612389   -0.635243
 ---------------------------------------------------------------------

 SCF Done:  E(RHF) =  -432.973949556     A.U. after    2 cycles

 The electronic state is 1-A.
 Alpha  occ. eigenvalues --  -20.64421 -20.63622 -20.55015 -20.54481 -15.61617
 Alpha  occ. eigenvalues --  -11.44903 -11.39390  -1.65570  -1.55388  -1.48228
 Alpha  occ. eigenvalues --   -1.40097  -1.21502  -0.99505  -0.92284  -0.81587
 Alpha  occ. eigenvalues --   -0.78633  -0.71288  -0.70937  -0.66660  -0.65380
 Alpha  occ. eigenvalues --   -0.63876  -0.61873  -0.61053  -0.55607  -0.48507
 Alpha  occ. eigenvalues --   -0.48107  -0.47559  -0.44475
 Alpha virt. eigenvalues --    0.02621   0.03990   0.04454   0.06170   0.07415
 Alpha virt. eigenvalues --    0.08645   0.09554   0.11026   0.12268   0.12920
 Alpha virt. eigenvalues --    0.14239   0.14550   0.15604   0.16842   0.17183

 Mulliken charges:
               1
     1  C    1.097153
     2  C    1.098451
     3  H    0.397835
     4  H    0.480882
     5  H    0.202339
     6  H    0.048059
     7  H    0.106918
     8  N    0.910736
     9  O   -0.910008
    10  O   -1.147370
    11  O   -1.244132
    12  O   -1.040863
 Sum of Mulliken charges =  -0.00000

 Dipole moment (field-independent basis, Debye):
    X=              4.0387    Y=             -1.0711    Z=              1.0772  Tot=              4.3150

 Test job not archived.
 1\1\GINC-SE110\SP\RHF\Aug-CC-pVDZ\C2H5N1O4\OHZDE\08-Apr-2025\0\\#t hf
 aug-cc-pvdz iop(5/13=1,5/36=2,99/5=2) pseudo=read geom=check guess=(re
 ad,tcheck) scf=(maxcycle=1)\\title\\0,1\C,0,0.147806,0.637235,-0.25944
 4\C,0,1.26714,-1.23089,-0.1\H,0,-3.62499,0.264757,-0.0713871\H,0,-2.43
 233,-0.523191,0.541155\H,0,1.36392,1.46969,1.19897\H,0,1.86131,-1.7062
 7,-0.859705\H,0,0.930267,-1.94505,0.637918\N,0,1.38309,0.93037,0.33371
 4\O,0,-3.43467,-0.58374,0.386091\O,0,-0.804384,1.38063,-0.370183\O,0,2
 .09534,-0.248325,0.416051\O,0,0.110026,-0.612389,-0.635243\\Version=ES

 Normal termination of Gaussian 16 at Tue Apr  8 21:46:02 2025.
