 Gaussian 16, Revision C.01,

 ----------------------------------------------------------------------
 #t hf aug-cc-pvdz symm=none int=(grid=ultrafine) guess=(read,tcheck) s
 table=(opt,rrhf)
 ----------------------------------------------------------------------
 -----
 title
 -----
 Symbolic Z-matrix:
 Charge =  0 Multiplicity = 1

 SCF Done:  E(RHF) =  -263.686263448     A.U. after   13 cycles
 Normal termination of Gaussian 16 at Tue Apr  8 21:33:34 2025.
 Gaussian 16:  ES64L-G16RevC.01  3-Jul-2019

 ----------------------------------------------------------------------
 #t hf aug-cc-pvdz iop(5/13=1,5/36=2,99/5=2) pseudo=read geom=check gue
 ss=(read,tcheck) scf=(maxcycle=1)
 ----------------------------------------------------------------------
 -----
 title
 -----
 Structure from the checkpoint file:  "ANI1ccx_383_conf102_mol1.chk"
 Charge =  0 Multiplicity = 1

                         Standard orientation:
 ---------------------------------------------------------------------
 Center     Atomic      Atomic             Coordinates (Angstroms)
 Number     Number       Type             X           Y           Z
 ---------------------------------------------------------------------
      1          6           0        0.001243    0.101122   -0.014838
      2          1           0       -1.405342   -1.253906    0.244549
      3          1           0        1.778560   -0.393483   -0.160770
      4          8           0       -1.240020   -0.297251   -0.044241
      5          8           0        0.949847   -0.855627    0.018331
      6          8           0        0.242588    1.282960    0.026565
 ---------------------------------------------------------------------

 SCF Done:  E(RHF) =  -263.942599434     A.U. after    2 cycles

 The electronic state is 1-A.
 Alpha  occ. eigenvalues --  -20.62671 -20.62663 -20.53417 -11.45595  -1.60905
 Alpha  occ. eigenvalues --   -1.51486  -1.45745  -0.89422  -0.81545  -0.72478
 Alpha  occ. eigenvalues --   -0.69467  -0.62617  -0.60631  -0.55374  -0.47468
 Alpha  occ. eigenvalues --   -0.46722
 Alpha virt. eigenvalues --    0.02897   0.04212   0.08996   0.10128   0.12399
 Alpha virt. eigenvalues --    0.13126   0.17356   0.18229   0.19838   0.20733
 Alpha virt. eigenvalues --    0.21058   0.22351   0.25289   0.27376   0.28882

 Mulliken charges:
               1
     1  C    2.324838
     2  H    0.381323
     3  H    0.355469
     4  O   -1.081685
     5  O   -0.993977
     6  O   -0.985968
 Sum of Mulliken charges =  -0.00000

 Dipole moment (field-independent basis, Debye):
    X=              0.5343    Y=             -3.3563    Z=              0.1256  Tot=              3.4008

 Test job not archived.
 1\1\GINC-SE364\SP\RHF\Aug-CC-pVDZ\C1H2O3\OHZDE\08-Apr-2025\0\\#t hf au
 g-cc-pvdz iop(5/13=1,5/36=2,99/5=2) pseudo=read geom=check guess=(read
 ,tcheck) scf=(maxcycle=1)\\title\\0,1\C,0,0.00124173,0.101121,-0.01483
 78\H,0,-1.40534,-1.25391,0.244549\H,0,1.77856,-0.393479,-0.16077\O,0,-
 1.24002,-0.297255,-0.0442406\O,0,0.949848,-0.855625,0.0183314\O,0,0.24
 2584,1.28296,0.0265652\\Version=ES64L-G16RevC.01\State=1-A\HF=-263.942
 5994\RMSD=9.347e-03\Dipole=0.2102169,-1.3204507,0.0494339\Quadrupole=2
 .7701061,-2.5547124,-0.2153937,1.9643331,-1.1641315,-0.5700591\PG=C01

 Normal termination of Gaussian 16 at Tue Apr  8 21:33:35 2025.
