 Gaussian 16, Revision C.01,

 ----------------------------------------------------------------------
 #t hf aug-cc-pvdz symm=none int=(grid=ultrafine) guess=(read,tcheck) s
 table=(opt,rrhf)
 ----------------------------------------------------------------------
 -----
 title
 -----
 Symbolic Z-matrix:
 Charge =  0 Multiplicity = 1

 SCF Done:  E(RHF) =  -447.802503817     A.U. after   14 cycles
 Normal termination of Gaussian 16 at Tue Apr  8 21:48:31 2025.
 Gaussian 16:  ES64L-G16RevC.01  3-Jul-2019

 ----------------------------------------------------------------------
 #t hf aug-cc-pvdz iop(5/13=1,5/36=2,99/5=2) pseudo=read geom=check gue
 ss=(read,tcheck) scf=(maxcycle=1)
 ----------------------------------------------------------------------
 -----
 title
 -----
 Structure from the checkpoint file:  "ANI1ccx_586_conf3_mol2.chk"
 Charge =  0 Multiplicity = 1

                         Standard orientation:
 ---------------------------------------------------------------------
 Center     Atomic      Atomic             Coordinates (Angstroms)
 Number     Number       Type             X           Y           Z
 ---------------------------------------------------------------------
      1          6           0       -1.005589    1.693891    0.557818
      2          6           0       -0.063822   -0.491694   -0.116408
      3          1           0       -1.753599    2.038502   -0.148288
      4          1           0       -0.528956    2.511741    1.083240
      5          1           0       -1.571849    1.086732    1.277640
      6          1           0        1.886951    1.274749   -0.260898
      7          1           0        1.038271    1.405680   -1.626060
      8          1           0        1.161118   -2.112070   -0.439496
      9          1           0        1.799999   -0.956274    1.434070
     10          1           0       -2.857032   -1.472347   -0.133367
     11          7           0       -0.021976    0.859664   -0.058486
     12          7           0        1.013151    1.603740   -0.622807
     13          7           0        1.201389   -1.078490   -0.355866
     14          7           0       -1.043252   -1.319399   -0.022266
     15          8           0        2.171369   -0.705302    0.583577
     16          8           0       -2.271821   -0.725759   -0.135993
 ---------------------------------------------------------------------

 SCF Done:  E(RHF) =  -448.260712221     A.U. after    2 cycles

 The electronic state is 1-A.
 Alpha  occ. eigenvalues --  -20.60559 -20.57534 -15.57353 -15.54102 -15.53226
 Alpha  occ. eigenvalues --  -15.52144 -11.34846 -11.25404  -1.52317  -1.50972
 Alpha  occ. eigenvalues --   -1.32923  -1.21508  -1.10921  -1.08296  -0.96834
 Alpha  occ. eigenvalues --   -0.82494  -0.79435  -0.76157  -0.72977  -0.71148
 Alpha  occ. eigenvalues --   -0.68599  -0.67260  -0.64276  -0.60757  -0.59638
 Alpha  occ. eigenvalues --   -0.55413  -0.52035  -0.51038  -0.49142  -0.46162
 Alpha  occ. eigenvalues --   -0.44784  -0.36390
 Alpha virt. eigenvalues --    0.03412   0.04743   0.05140   0.05289   0.05697
 Alpha virt. eigenvalues --    0.05989   0.06216   0.07740   0.10984   0.11419
 Alpha virt. eigenvalues --    0.13318   0.13668   0.15058   0.15658   0.15971

 Mulliken charges:
               1
     1  C   -0.217611
     2  C   -1.863770
     3  H    0.164264
     4  H    0.033987
     5  H    0.184828
     6  H    0.164626
     7  H    0.217460
     8  H    0.216142
     9  H    0.327144
    10  H    0.304477
    11  N    0.268705
    12  N   -0.098584
    13  N    1.232103
    14  N    1.455868
    15  O   -1.179138
    16  O   -1.210503
 Sum of Mulliken charges =   0.00000

 Dipole moment (field-independent basis, Debye):
    X=             -0.0133    Y=             -0.8250    Z=              0.9651  Tot=              1.2697

 Test job not archived.
 1\1\GINC-SE127\SP\RHF\Aug-CC-pVDZ\C2H8N4O2\OHZDE\08-Apr-2025\0\\#t hf
 aug-cc-pvdz iop(5/13=1,5/36=2,99/5=2) pseudo=read geom=check guess=(re
 ad,tcheck) scf=(maxcycle=1)\\title\\0,1\C,0,-1.00559,1.69389,0.557818\
 C,0,-0.0638216,-0.491695,-0.116408\H,0,-1.7536,2.0385,-0.148288\H,0,-0
 .528958,2.51174,1.08324\H,0,-1.57185,1.08673,1.27764\H,0,1.88695,1.274
 75,-0.260898\H,0,1.03827,1.40568,-1.62606\H,0,1.16112,-2.11207,-0.4394
 96\H,0,1.8,-0.956273,1.43407\H,0,-2.85703,-1.47235,-0.133367\N,0,-0.02
 19768,0.859663,-0.0584857\N,0,1.01315,1.60374,-0.622807\N,0,1.20139,-1

 Normal termination of Gaussian 16 at Tue Apr  8 21:48:38 2025.
