 Gaussian 16, Revision C.01,

 ----------------------------------------------------------------------
 #t hf aug-cc-pvdz symm=none int=(grid=ultrafine) guess=(read,tcheck) s
 table=(opt,rrhf)
 ----------------------------------------------------------------------
 -----
 title
 -----
 Symbolic Z-matrix:
 Charge =  0 Multiplicity = 1

 SCF Done:  E(RHF) =  -636.066952274     A.U. after   15 cycles
 Normal termination of Gaussian 16 at Tue Apr  8 19:51:05 2025.
 Gaussian 16:  ES64L-G16RevC.01  3-Jul-2019

 ----------------------------------------------------------------------
 #t hf aug-cc-pvdz iop(5/13=1,5/36=2,99/5=2) pseudo=read geom=check gue
 ss=(read,tcheck) scf=(maxcycle=1)
 ----------------------------------------------------------------------
 -----
 title
 -----
 Structure from the checkpoint file:  "ANI1ccx_1499_conf8_mol1.chk"
 Charge =  0 Multiplicity = 1

                         Standard orientation:
 ---------------------------------------------------------------------
 Center     Atomic      Atomic             Coordinates (Angstroms)
 Number     Number       Type             X           Y           Z
 ---------------------------------------------------------------------
      1          6           0        0.645355    1.491290   -0.034602
      2          6           0       -2.027011    0.013352    1.122630
      3          6           0       -2.107981   -0.239190   -1.051940
      4          6           0        1.319499    0.144585    0.033475
      5          6           0        2.772639    0.120818    0.173113
      6          6           0        3.069718   -1.188971    0.073684
      7          6           0        0.914012   -1.154450   -0.107510
      8          1           0       -0.027954   -1.618910   -0.000235
      9          1           0        3.997428   -1.727571    0.092770
     10          1           0        3.536719    0.908497    0.175619
     11          1           0       -1.944151   -0.059210   -2.120060
     12          1           0       -1.857881    0.431232    2.102710
     13          1           0       -1.199010    2.525981   -0.292458
     14          7           0       -0.689336    1.581920   -0.289012
     15          7           0       -1.603461    0.576852   -0.044658
     16          7           0       -2.858731   -0.966193    0.815067
     17          7           0       -2.858031   -1.154759   -0.549864
     18          8           0        1.310860    2.484970    0.029549
     19          8           0        1.944688   -1.966141   -0.121070
 ---------------------------------------------------------------------

 SCF Done:  E(RHF) =  -636.696236780     A.U. after    2 cycles

 The electronic state is 1-A.
 Alpha  occ. eigenvalues --  -20.63920 -20.54026 -15.62787 -15.60645 -15.54418
 Alpha  occ. eigenvalues --  -15.53964 -11.39811 -11.33640 -11.33391 -11.32965
 Alpha  occ. eigenvalues --  -11.31364 -11.27368 -11.26298  -1.58614  -1.50695
 Alpha  occ. eigenvalues --   -1.43271  -1.33555  -1.17855  -1.13813  -1.12428
 Alpha  occ. eigenvalues --   -1.04392  -0.95454  -0.91083  -0.89532  -0.84883
 Alpha  occ. eigenvalues --   -0.82702  -0.81677  -0.77760  -0.72385  -0.69650
 Alpha  occ. eigenvalues --   -0.68552  -0.67631  -0.66783  -0.64141  -0.62948
 Alpha  occ. eigenvalues --   -0.61806  -0.60048  -0.56957  -0.55520  -0.51546
 Alpha  occ. eigenvalues --   -0.50575  -0.47019  -0.46078  -0.42541  -0.41705
 Alpha  occ. eigenvalues --   -0.35716
 Alpha virt. eigenvalues --    0.02694   0.03301   0.04005   0.04696   0.04710
 Alpha virt. eigenvalues --    0.06556   0.06752   0.07922   0.08263   0.09061
 Alpha virt. eigenvalues --    0.09636   0.10130   0.10826   0.11153   0.11281

 Mulliken charges:
               1
     1  C    0.015370
     2  C   -0.391445
     3  C   -0.548781
     4  C    0.887163
     5  C   -0.153461
     6  C    0.954852
     7  C    1.002641
     8  H   -0.118182
     9  H   -0.164996
    10  H   -0.221347
    11  H   -0.104664
    12  H   -0.150542
    13  H    0.204219
    14  N   -0.184121
    15  N    1.415010
    16  N    0.134168
    17  N    0.237636
    18  O   -1.359897
    19  O   -1.453621
 Sum of Mulliken charges =  -0.00000

 Dipole moment (field-independent basis, Debye):
    X=              2.3143    Y=              2.1031    Z=             -0.3208  Tot=              3.1435

 Test job not archived.
 1\1\GINC-SE099\SP\RHF\Aug-CC-pVDZ\C7H6N4O2\OHZDE\08-Apr-2025\0\\#t hf
 aug-cc-pvdz iop(5/13=1,5/36=2,99/5=2) pseudo=read geom=check guess=(re
 ad,tcheck) scf=(maxcycle=1)\\title\\0,1\C,0,0.645355,1.49129,-0.034602
 4\C,0,-2.02701,0.013351,1.12263\C,0,-2.10798,-0.239191,-1.05194\C,0,1.
 3195,0.144585,0.0334754\C,0,2.77264,0.120819,0.173113\C,0,3.06972,-1.1
 8897,0.0736837\C,0,0.914013,-1.15445,-0.10751\H,0,-0.0279524,-1.61891,
 -0.00023477\H,0,3.99743,-1.72757,0.0927703\H,0,3.53672,0.908498,0.1756
 19\H,0,-1.94415,-0.0592107,-2.12006\H,0,-1.85788,0.431231,2.10271\H,0,

 Normal termination of Gaussian 16 at Tue Apr  8 19:51:20 2025.
