 Gaussian 16, Revision C.01,

 ----------------------------------------------------------------------
 #t hf aug-cc-pvdz symm=none int=(grid=ultrafine) guess=(read,tcheck) s
 table=(opt,rrhf)
 ----------------------------------------------------------------------
 -----
 title
 -----
 Symbolic Z-matrix:
 Charge =  0 Multiplicity = 1

 SCF Done:  E(RHF) =  -396.764863656     A.U. after   14 cycles
 Normal termination of Gaussian 16 at Tue Apr  8 21:52:59 2025.
 Gaussian 16:  ES64L-G16RevC.01  3-Jul-2019

 ----------------------------------------------------------------------
 #t hf aug-cc-pvdz iop(5/13=1,5/36=2,99/5=2) pseudo=read geom=check gue
 ss=(read,tcheck) scf=(maxcycle=1)
 ----------------------------------------------------------------------
 -----
 title
 -----
 Structure from the checkpoint file:  "ANI1ccx_744_conf23_mol1.chk"
 Charge =  0 Multiplicity = 1

                         Standard orientation:
 ---------------------------------------------------------------------
 Center     Atomic      Atomic             Coordinates (Angstroms)
 Number     Number       Type             X           Y           Z
 ---------------------------------------------------------------------
      1          6           0       -0.181345    0.140206    0.353783
      2          6           0        1.281860   -0.301263    0.026505
      3          6           0       -1.261981   -0.779125   -0.104002
      4          1           0       -0.595814    1.552621   -1.121950
      5          1           0       -0.897736    2.206021    0.309017
      6          1           0       -0.244680    0.220696    1.454760
      7          1           0       -1.237202   -1.766509    0.251059
      8          1           0       -1.055461   -0.918235   -1.178150
      9          1           0       -3.121281   -0.757168   -0.256806
     10          1           0        1.469492    1.531188    0.027743
     11          7           0       -0.344486    1.460760   -0.130390
     12          8           0        1.582248   -1.460302   -0.061205
     13          8           0       -2.521490   -0.091071    0.067841
     14          8           0        2.072101    0.719768   -0.035468
 ---------------------------------------------------------------------

 SCF Done:  E(RHF) =  -397.165889329     A.U. after    2 cycles

 The electronic state is 1-A.
 Alpha  occ. eigenvalues --  -20.58906 -20.57018 -20.52404 -15.52127 -11.38361
 Alpha  occ. eigenvalues --  -11.29768 -11.29569  -1.55000  -1.46714  -1.45229
 Alpha  occ. eigenvalues --   -1.22866  -1.02868  -0.90285  -0.82078  -0.77475
 Alpha  occ. eigenvalues --   -0.74158  -0.70482  -0.67465  -0.65382  -0.63496
 Alpha  occ. eigenvalues --   -0.62637  -0.57206  -0.55059  -0.53692  -0.48793
 Alpha  occ. eigenvalues --   -0.46248  -0.45486  -0.42042
 Alpha virt. eigenvalues --    0.02709   0.03565   0.04371   0.05320   0.06276
 Alpha virt. eigenvalues --    0.06599   0.06809   0.10358   0.11437   0.12598
 Alpha virt. eigenvalues --    0.12892   0.14089   0.15362   0.15700   0.16101

 Mulliken charges:
               1
     1  C   -1.857694
     2  C    2.301388
     3  C    1.321756
     4  H    0.246100
     5  H    0.298110
     6  H    0.210545
     7  H    0.028174
     8  H    0.118047
     9  H    0.333777
    10  H    0.600830
    11  N    0.169561
    12  O   -1.255473
    13  O   -1.207610
    14  O   -1.307511
 Sum of Mulliken charges =  -0.00000

 Dipole moment (field-independent basis, Debye):
    X=             -3.8847    Y=              2.2526    Z=             -0.3648  Tot=              4.5053

 Test job not archived.
 1\1\GINC-SE126\SP\RHF\Aug-CC-pVDZ\C3H7N1O3\OHZDE\08-Apr-2025\0\\#t hf
 aug-cc-pvdz iop(5/13=1,5/36=2,99/5=2) pseudo=read geom=check guess=(re
 ad,tcheck) scf=(maxcycle=1)\\title\\0,1\C,0,-0.181345,0.140206,0.35378
 3\C,0,1.28186,-0.301261,0.0265048\C,0,-1.26198,-0.779126,-0.104002\H,0
 ,-0.595816,1.55262,-1.12195\H,0,-0.897739,2.20602,0.309017\H,0,-0.2446
 8,0.220696,1.45476\H,0,-1.2372,-1.76651,0.251059\H,0,-1.05546,-0.91823
 6,-1.17815\H,0,-3.12128,-0.757172,-0.256806\H,0,1.46949,1.53119,0.0277
 431\N,0,-0.344488,1.46076,-0.13039\O,0,1.58225,-1.4603,-0.0612045\O,0,

 Normal termination of Gaussian 16 at Tue Apr  8 21:53:04 2025.
