 Gaussian 16, Revision C.01,

 ----------------------------------------------------------------------
 #t hf aug-cc-pvdz symm=none int=(grid=ultrafine) guess=(read,tcheck) s
 table=(opt,rrhf)
 ----------------------------------------------------------------------
 -----
 title
 -----
 Symbolic Z-matrix:
 Charge =  0 Multiplicity = 1

 SCF Done:  E(RHF) =  -984.952672164     A.U. after   16 cycles
 Normal termination of Gaussian 16 at Tue Apr  8 21:37:14 2025.
 Gaussian 16:  ES64L-G16RevC.01  3-Jul-2019

 ----------------------------------------------------------------------
 #t hf aug-cc-pvdz iop(5/13=1,5/36=2,99/5=2) pseudo=read geom=check gue
 ss=(read,tcheck) scf=(maxcycle=1)
 ----------------------------------------------------------------------
 -----
 title
 -----
 Structure from the checkpoint file:  "ANI1ccx_319_conf8_mol2.chk"
 Charge =  0 Multiplicity = 1

                         Standard orientation:
 ---------------------------------------------------------------------
 Center     Atomic      Atomic             Coordinates (Angstroms)
 Number     Number       Type             X           Y           Z
 ---------------------------------------------------------------------
      1          6           0        0.325261   -2.074780   -0.108006
      2          6           0       -3.283450   -0.325926   -0.533781
      3          6           0       -1.974020    0.257381   -1.139190
      4          6           0       -0.997042    0.851755   -0.073325
      5          6           0        4.508689    1.154122    0.037622
      6          6           0        3.721069    1.517292   -1.081990
      7          6           0       -1.548771    2.171059    0.535136
      8          6           0        2.641770    0.714973   -1.292410
      9          6           0        3.031141   -0.743334    0.516736
     10          6           0        2.254920   -0.383400   -0.562223
     11          6           0        1.150891   -1.303830   -1.185330
     12          6           0       -0.027754   -1.227680    1.116190
     13          6           0        4.179000    0.026119    0.854515
     14          1           0        5.383529    1.785633    0.282920
     15          1           0       -1.967142    3.862229    0.035262
     16          1           0       -2.229369   -1.879841   -0.470692
     17          1           0       -1.496130   -0.590609   -1.643970
     18          1           0       -2.191191    1.086479   -1.827850
     19          1           0       -0.096755    1.037940   -0.601287
     20          1           0       -0.835573    0.329284    1.961100
     21          1           0        3.885329    2.404292   -1.687720
     22          1           0        0.508802   -0.892148   -1.994110
     23          1           0        2.019860    0.841921   -2.131480
     24          1           0        2.759541   -1.574229    1.177640
     25          1           0        1.696931   -2.038009   -1.741880
     26          1           0        0.978304   -2.777150    0.372016
     27          1           0       -0.716934   -3.136771   -1.544060
     28          1           0       -1.265018   -3.423571   -0.035564
     29          1           0        4.798980   -0.139909    1.713180
     30          7           0       -0.896120   -2.689931   -0.630342
     31          7           0       -0.777435   -0.113889    1.028600
     32          8           0       -3.148699   -1.565892   -0.284332
     33          8           0        0.353669   -1.648220    2.190630
     34          8           0       -1.720761    2.398579    1.682440
     35          8           0       -4.229060    0.345609   -0.272631
     36          8           0       -1.681212    3.086009   -0.460484
 ---------------------------------------------------------------------

 SCF Done:  E(RHF) =  -985.937810344     A.U. after    2 cycles

 The electronic state is 1-A.
 Alpha  occ. eigenvalues --  -20.61961 -20.56793 -20.56347 -20.52107 -20.50968
 Alpha  occ. eigenvalues --  -15.55447 -15.53847 -11.42046 -11.37123 -11.36775
 Alpha  occ. eigenvalues --  -11.32870 -11.30985 -11.28537 -11.26923 -11.26717
 Alpha  occ. eigenvalues --  -11.26639 -11.26506 -11.26225 -11.26023 -11.24783
 Alpha  occ. eigenvalues --   -1.57628  -1.54906  -1.48858  -1.47719  -1.44642
 Alpha  occ. eigenvalues --   -1.26433  -1.24451  -1.17827  -1.08683  -1.08077
 Alpha  occ. eigenvalues --   -1.03392  -1.01259  -0.96415  -0.93068  -0.86171
 Alpha  occ. eigenvalues --   -0.85430  -0.85137  -0.83165  -0.80735  -0.76398
 Alpha  occ. eigenvalues --   -0.75398  -0.72846  -0.72384  -0.71975  -0.71530
 Alpha  occ. eigenvalues --   -0.69866  -0.67917  -0.67077  -0.66260  -0.66206
 Alpha  occ. eigenvalues --   -0.65025  -0.64020  -0.63054  -0.61823  -0.61586
 Alpha  occ. eigenvalues --   -0.60303  -0.59530  -0.58678  -0.58225  -0.57229
 Alpha  occ. eigenvalues --   -0.54146  -0.53612  -0.51966  -0.51606  -0.50864
 Alpha  occ. eigenvalues --   -0.50282  -0.48101  -0.46951  -0.45234  -0.43753
 Alpha  occ. eigenvalues --   -0.42870  -0.41456  -0.36369  -0.35490
 Alpha virt. eigenvalues --    0.01404   0.02249   0.02885   0.03329   0.03820
 Alpha virt. eigenvalues --    0.04031   0.04773   0.05941   0.06319   0.06912
 Alpha virt. eigenvalues --    0.06953   0.07751   0.08326   0.08483   0.08663

 Mulliken charges:
               1
     1  C   -0.331881
     2  C    2.447893
     3  C   -0.415006
     4  C   -1.704621
     5  C    0.139595
     6  C   -0.327810
     7  C    3.045794
     8  C    1.220986
     9  C    0.348982
    10  C    1.092804
    11  C   -0.469155
    12  C    0.488496
    13  C   -0.193663
    14  H   -0.196415
    15  H    0.455088
    16  H    0.882340
    17  H    0.258980
    18  H    0.134381
    19  H    0.126905
    20  H    0.353197
    21  H   -0.259439
    22  H    0.020887
    23  H   -0.489568
    24  H   -0.324620
    25  H    0.025203
    26  H   -0.009196
    27  H    0.381096
    28  H    0.351133
    29  H   -0.295058
    30  N   -0.215155
    31  N    0.846009
    32  O   -1.587029
    33  O   -1.618248
    34  O   -1.340878
    35  O   -1.386923
    36  O   -1.455104
 Sum of Mulliken charges =  -0.00000

 Dipole moment (field-independent basis, Debye):
    X=              6.0882    Y=             -0.9960    Z=             -5.2389  Tot=              8.0934

 Test job not archived.
 1\1\GINC-SE092\SP\RHF\Aug-CC-pVDZ\C13H16N2O5\OHZDE\08-Apr-2025\0\\#t h
 f aug-cc-pvdz iop(5/13=1,5/36=2,99/5=2) pseudo=read geom=check guess=(
 read,tcheck) scf=(maxcycle=1)\\title\\0,1\C,0,0.32526,-2.07478,-0.1080
 06\C,0,-3.28345,-0.325924,-0.533781\C,0,-1.97402,0.257382,-1.13919\C,0
 ,-0.997042,0.851756,-0.0733255\C,0,4.50869,1.15412,0.0376217\C,0,3.721
 07,1.51729,-1.08199\C,0,-1.54877,2.17106,0.535136\C,0,2.64177,0.714972
 ,-1.29241\C,0,3.03114,-0.743335,0.516736\C,0,2.25492,-0.383401,-0.5622
 23\C,0,1.15089,-1.30383,-1.18533\C,0,-0.0277545,-1.22768,1.11619\C,0,4

 Normal termination of Gaussian 16 at Tue Apr  8 21:38:32 2025.
