 Gaussian 16, Revision C.01,

 ----------------------------------------------------------------------
 #t hf aug-cc-pvdz symm=none int=(grid=ultrafine) guess=(read,tcheck) s
 table=(opt,rrhf)
 ----------------------------------------------------------------------
 -----
 title
 -----
 Symbolic Z-matrix:
 Charge =  0 Multiplicity = 1

 SCF Done:  E(RHF) =  -724.124415716     A.U. after   15 cycles
 Normal termination of Gaussian 16 at Tue Apr  8 20:25:49 2025.
 Gaussian 16:  ES64L-G16RevC.01  3-Jul-2019

 ----------------------------------------------------------------------
 #t hf aug-cc-pvdz iop(5/13=1,5/36=2,99/5=2) pseudo=read geom=check gue
 ss=(read,tcheck) scf=(maxcycle=1)
 ----------------------------------------------------------------------
 -----
 title
 -----
 Structure from the checkpoint file:  "ANI1ccx_161_conf1_mol2.chk"
 Charge =  0 Multiplicity = 1

                         Standard orientation:
 ---------------------------------------------------------------------
 Center     Atomic      Atomic             Coordinates (Angstroms)
 Number     Number       Type             X           Y           Z
 ---------------------------------------------------------------------
      1          6           0        5.110991   -0.008325    1.003410
      2          6           0       -0.469210    1.387240   -0.251914
      3          6           0       -1.802149    1.581091    0.078381
      4          6           0       -4.057919    0.352920    0.628141
      5          6           0       -4.354650   -1.099758    0.342339
      6          6           0       -2.589489    0.492744    0.239911
      7          6           0       -0.844888   -1.019800   -0.454146
      8          6           0        0.008586    0.130107   -0.444299
      9          6           0        2.274050   -0.253060    0.264057
     10          6           0        3.505400   -0.593550   -0.600389
     11          6           0       -2.170800   -0.717074   -0.089470
     12          1           0       -4.799560   -1.703618    1.214950
     13          1           0       -0.068220    3.245570   -0.258261
     14          1           0       -2.179729    2.614891    0.298687
     15          1           0       -4.231489    0.563292    1.706570
     16          1           0       -4.674449    1.036142    0.133957
     17          1           0       -5.026700   -1.131758   -0.552295
     18          1           0       -0.587645   -1.955140   -0.858429
     19          1           0        3.793001    0.329077   -1.106630
     20          1           0        1.756500   -1.048701    0.832746
     21          1           0        3.308730   -1.371791   -1.341340
     22          1           0        5.922830   -0.474282    1.542970
     23          1           0        5.363001    0.829643    0.521038
     24          1           0        4.486941    0.265175    1.758420
     25          1           0        2.514101    0.613147    0.862760
     26          8           0       -3.131810   -1.635919   -0.136496
     27          8           0        4.630590   -1.072722    0.157119
     28          8           0        1.367681   -0.133196   -0.801737
     29          8           0        0.478933    2.425980   -0.350295
 ---------------------------------------------------------------------

 SCF Done:  E(RHF) =  -724.863794383     A.U. after    2 cycles

 The electronic state is 1-A.
 Alpha  occ. eigenvalues --  -20.58111 -20.56577 -20.55060 -20.53505 -11.30802
 Alpha  occ. eigenvalues --  -11.30114 -11.29997 -11.28976 -11.27992 -11.27239
 Alpha  occ. eigenvalues --  -11.25963 -11.25398 -11.25064 -11.24560 -11.23683
 Alpha  occ. eigenvalues --   -1.52145  -1.48026  -1.46094  -1.43366  -1.17279
 Alpha  occ. eigenvalues --   -1.08382  -1.02846  -1.01642  -0.97929  -0.94331
 Alpha  occ. eigenvalues --   -0.88796  -0.85370  -0.83376  -0.80256  -0.74260
 Alpha  occ. eigenvalues --   -0.71750  -0.70145  -0.69242  -0.67655  -0.65691
 Alpha  occ. eigenvalues --   -0.65312  -0.63146  -0.61928  -0.61447  -0.59819
 Alpha  occ. eigenvalues --   -0.59342  -0.57285  -0.56947  -0.56330  -0.55357
 Alpha  occ. eigenvalues --   -0.53472  -0.52711  -0.51655  -0.50873  -0.49714
 Alpha  occ. eigenvalues --   -0.47060  -0.44343  -0.43359  -0.40773  -0.34919
 Alpha  occ. eigenvalues --   -0.30490
 Alpha virt. eigenvalues --    0.02531   0.03204   0.03736   0.04191   0.04552
 Alpha virt. eigenvalues --    0.04720   0.05180   0.05976   0.06692   0.07097
 Alpha virt. eigenvalues --    0.07582   0.07683   0.08107   0.09157   0.09572

 Mulliken charges:
               1
     1  C    0.624176
     2  C    1.524727
     3  C    0.240961
     4  C   -0.884046
     5  C    0.307318
     6  C    0.318107
     7  C    0.172390
     8  C    1.901851
     9  C    0.057478
    10  C    0.421829
    11  C    1.627150
    12  H    0.210217
    13  H    0.450494
    14  H   -0.233607
    15  H    0.294723
    16  H    0.066426
    17  H    0.190831
    18  H   -0.371692
    19  H    0.205178
    20  H    0.171587
    21  H    0.000661
    22  H    0.001946
    23  H   -0.040860
    24  H   -0.052883
    25  H    0.064893
    26  O   -1.931743
    27  O   -1.338567
    28  O   -2.074153
    29  O   -1.925392
 Sum of Mulliken charges =  -0.00000

 Dipole moment (field-independent basis, Debye):
    X=             -3.7485    Y=              3.0938    Z=              1.9160  Tot=              5.2244

 Test job not archived.
 1\1\GINC-SE150\SP\RHF\Aug-CC-pVDZ\C11H14O4\OHZDE\08-Apr-2025\0\\#t hf
 aug-cc-pvdz iop(5/13=1,5/36=2,99/5=2) pseudo=read geom=check guess=(re
 ad,tcheck) scf=(maxcycle=1)\\title\\0,1\C,0,5.11099,-0.00832287,1.0034
 1\C,0,-0.469211,1.38724,-0.251914\C,0,-1.80215,1.58109,0.0783814\C,0,-
 4.05792,0.352919,0.628141\C,0,-4.35465,-1.09976,0.342339\C,0,-2.58949,
 0.492743,0.239911\C,0,-0.844888,-1.0198,-0.454146\C,0,0.00858544,0.130
 107,-0.444299\C,0,2.27405,-0.253059,0.264057\C,0,3.5054,-0.593549,-0.6
 00389\C,0,-2.1708,-0.717075,-0.0894703\H,0,-4.79956,-1.70362,1.21495\H

 Normal termination of Gaussian 16 at Tue Apr  8 20:26:21 2025.
