 Gaussian 16, Revision C.01,

 ----------------------------------------------------------------------
 #t hf aug-cc-pvdz symm=none int=(grid=ultrafine) guess=(read,tcheck) s
 table=(opt,rrhf)
 ----------------------------------------------------------------------
 -----
 title
 -----
 Symbolic Z-matrix:
 Charge =  0 Multiplicity = 1

 SCF Done:  E(RHF) =  -355.482262333     A.U. after   16 cycles
 Normal termination of Gaussian 16 at Tue Apr  8 21:11:20 2025.
 Gaussian 16:  ES64L-G16RevC.01  3-Jul-2019

 ----------------------------------------------------------------------
 #t hf aug-cc-pvdz iop(5/13=1,5/36=2,99/5=2) pseudo=read geom=check gue
 ss=(read,tcheck) scf=(maxcycle=1)
 ----------------------------------------------------------------------
 -----
 title
 -----
 Structure from the checkpoint file:  "ANI1ccx_1871_conf1_mol1.chk"
 Charge =  0 Multiplicity = 1

                         Standard orientation:
 ---------------------------------------------------------------------
 Center     Atomic      Atomic             Coordinates (Angstroms)
 Number     Number       Type             X           Y           Z
 ---------------------------------------------------------------------
      1          1           0       -1.705999    0.097538    1.175080
      2          1           0       -2.072949   -0.332885   -1.133750
      3          1           0        2.892820    1.183831   -0.019993
      4          7           0        1.933361   -0.350017    0.380463
      5          8           0       -1.993940    0.669920    0.436379
      6          8           0       -2.671889   -0.284876   -0.391780
      7          8           0        2.128950    0.734750   -0.420151
      8          8           0        0.955954   -0.932091    0.039979
 ---------------------------------------------------------------------

 SCF Done:  E(RHF) =  -355.823010791     A.U. after    2 cycles

 The electronic state is 1-A.
 Alpha  occ. eigenvalues --  -20.64647 -20.64272 -20.61180 -20.60934 -15.73855
 Alpha  occ. eigenvalues --   -1.68671  -1.58326  -1.52408  -1.26906  -0.98950
 Alpha  occ. eigenvalues --   -0.82227  -0.76086  -0.71470  -0.70497  -0.69778
 Alpha  occ. eigenvalues --   -0.62601  -0.59637  -0.52722  -0.49626  -0.47899
 Alpha  occ. eigenvalues --   -0.46529
 Alpha virt. eigenvalues --    0.03001   0.05344   0.05802   0.06168   0.12197
 Alpha virt. eigenvalues --    0.13256   0.14269   0.16111   0.17236   0.18437
 Alpha virt. eigenvalues --    0.19189   0.19947   0.20573   0.21843   0.23102

 Mulliken charges:
               1
     1  H    0.462012
     2  H    0.447727
     3  H    0.349173
     4  N    1.605281
     5  O   -0.434652
     6  O   -0.476324
     7  O   -1.055058
     8  O   -0.898159
 Sum of Mulliken charges =  -0.00000

 Dipole moment (field-independent basis, Debye):
    X=              3.4046    Y=              0.4292    Z=              0.3666  Tot=              3.4511

 Test job not archived.
 1\1\GINC-SE092\SP\RHF\Aug-CC-pVDZ\H3N1O4\OHZDE\08-Apr-2025\0\\#t hf au
 g-cc-pvdz iop(5/13=1,5/36=2,99/5=2) pseudo=read geom=check guess=(read
 ,tcheck) scf=(maxcycle=1)\\title\\0,1\H,0,-1.706,0.0975383,1.17508\H,0
 ,-2.07295,-0.332884,-1.13375\H,0,2.89282,1.18383,-0.0199929\N,0,1.9333
 6,-0.350017,0.380463\O,0,-1.99394,0.669921,0.436379\O,0,-2.67189,-0.28
 4875,-0.39178\O,0,2.12895,0.73475,-0.420151\O,0,0.955953,-0.932091,0.0
 399783\\Version=ES64L-G16RevC.01\State=1-A\HF=-355.8230108\RMSD=1.004e
 -02\Dipole=1.3394742,0.168862,0.1442159\Quadrupole=-0.6993618,-1.08620

 Normal termination of Gaussian 16 at Tue Apr  8 21:11:23 2025.
