 Gaussian 16, Revision C.01,

 ----------------------------------------------------------------------
 #t hf aug-cc-pvdz symm=none int=(grid=ultrafine) guess=(read,tcheck) s
 table=(opt,rrhf)
 ----------------------------------------------------------------------
 -----
 title
 -----
 Symbolic Z-matrix:
 Charge =  0 Multiplicity = 1

 SCF Done:  E(RHF) =  -903.319524281     A.U. after   16 cycles
 Normal termination of Gaussian 16 at Tue Apr  8 20:21:53 2025.
 Gaussian 16:  ES64L-G16RevC.01  3-Jul-2019

 ----------------------------------------------------------------------
 #t hf aug-cc-pvdz iop(5/13=1,5/36=2,99/5=2) pseudo=read geom=check gue
 ss=(read,tcheck) scf=(maxcycle=1)
 ----------------------------------------------------------------------
 -----
 title
 -----
 Structure from the checkpoint file:  "ANI1ccx_1597_conf30_mol1.chk"
 Charge =  0 Multiplicity = 1

                         Standard orientation:
 ---------------------------------------------------------------------
 Center     Atomic      Atomic             Coordinates (Angstroms)
 Number     Number       Type             X           Y           Z
 ---------------------------------------------------------------------
      1          6           0        1.663000    0.458205    1.041880
      2          6           0        0.858961   -0.850759    0.741726
      3          6           0        3.087290    0.114200    0.602742
      4          6           0        3.371650    0.346084   -0.925320
      5          6           0       -1.642310   -0.446412    0.585911
      6          6           0       -2.158250   -1.573658   -0.144462
      7          6           0       -1.468559    0.760932   -0.365742
      8          6           0       -2.460199    1.824982   -0.361123
      9          1           0       -0.570708   -2.741189    0.073099
     10          1           0       -3.938980    0.437819   -0.480017
     11          1           0       -4.493389    2.023582   -0.012305
     12          1           0       -0.553051    1.172111   -0.078766
     13          1           0       -1.128810    0.624449   -1.437380
     14          1           0       -2.446780   -0.216800    1.331020
     15          1           0       -0.310485   -0.300916    2.206290
     16          1           0        1.780120   -0.856764   -1.810250
     17          1           0        3.800060    0.698356    1.143700
     18          1           0        3.207440   -0.995225    0.737749
     19          1           0        1.204011    1.343621    0.523609
     20          1           0        1.552651    1.843800    2.494890
     21          1           0        2.006440    0.209865    3.057100
     22          1           0        2.893530   -0.070401   -2.771030
     23          7           0        1.515391    0.847264    2.412700
     24          7           0        2.462200   -0.086688   -1.875680
     25          7           0       -0.369584   -0.795525    1.294740
     26          7           0       -3.804149    1.468892   -0.513579
     27          8           0       -2.074499    2.973001   -0.369689
     28          8           0        1.206080   -1.734179   -0.009084
     29          8           0        4.370631    0.880136   -1.270790
     30          8           0       -3.334040   -1.684188   -0.443201
     31          8           0       -1.310490   -2.561189   -0.564574
 ---------------------------------------------------------------------

 SCF Done:  E(RHF) =  -904.222123119     A.U. after    2 cycles

 The electronic state is 1-A.
 Alpha  occ. eigenvalues --  -20.59798 -20.58056 -20.55417 -20.52842 -20.51829
 Alpha  occ. eigenvalues --  -15.55079 -15.53838 -15.53376 -15.51806 -11.41219
 Alpha  occ. eigenvalues --  -11.40377 -11.37539 -11.36658 -11.34947 -11.32373
 Alpha  occ. eigenvalues --  -11.27984 -11.26532  -1.54596  -1.53072  -1.48948
 Alpha  occ. eigenvalues --   -1.48057  -1.45541  -1.29548  -1.24159  -1.22001
 Alpha  occ. eigenvalues --   -1.20882  -1.11789  -1.05964  -1.01316  -0.93253
 Alpha  occ. eigenvalues --   -0.86814  -0.83959  -0.82549  -0.82246  -0.80626
 Alpha  occ. eigenvalues --   -0.76943  -0.76020  -0.74969  -0.73890  -0.72693
 Alpha  occ. eigenvalues --   -0.71295  -0.68411  -0.68319  -0.67507  -0.66023
 Alpha  occ. eigenvalues --   -0.64477  -0.62955  -0.62544  -0.61440  -0.60831
 Alpha  occ. eigenvalues --   -0.59525  -0.57997  -0.56339  -0.55486  -0.54710
 Alpha  occ. eigenvalues --   -0.54128  -0.50931  -0.49502  -0.47911  -0.47415
 Alpha  occ. eigenvalues --   -0.46004  -0.45176  -0.44235  -0.43196  -0.41824
 Alpha virt. eigenvalues --    0.01544   0.02708   0.03574   0.03912   0.04300
 Alpha virt. eigenvalues --    0.04837   0.05211   0.05816   0.06202   0.06988
 Alpha virt. eigenvalues --    0.07385   0.07794   0.08383   0.08917   0.09588

 Mulliken charges:
               1
     1  C   -1.732164
     2  C    0.463247
     3  C   -0.244728
     4  C    0.504565
     5  C   -1.572739
     6  C    2.936987
     7  C    0.174661
     8  C    0.263292
     9  H    0.563174
    10  H   -0.000026
    11  H    0.193946
    12  H   -0.309857
    13  H    0.419053
    14  H    0.161850
    15  H    0.522595
    16  H    0.019021
    17  H    0.027749
    18  H    0.419313
    19  H    0.274541
    20  H    0.368142
    21  H    0.329778
    22  H    0.123928
    23  N    0.518553
    24  N    0.747099
    25  N    1.110537
    26  N    0.839220
    27  O   -1.419551
    28  O   -1.474547
    29  O   -1.301732
    30  O   -1.464101
    31  O   -1.461805
 Sum of Mulliken charges =  -0.00000

 Dipole moment (field-independent basis, Debye):
    X=              0.2363    Y=             -0.9853    Z=              5.7768  Tot=              5.8650

 Test job not archived.
 1\1\GINC-SE366\SP\RHF\Aug-CC-pVDZ\C8H14N4O5\OHZDE\08-Apr-2025\0\\#t hf
  aug-cc-pvdz iop(5/13=1,5/36=2,99/5=2) pseudo=read geom=check guess=(r
 ead,tcheck) scf=(maxcycle=1)\\title\\0,1\C,0,1.663,0.458205,1.04188\C,
 0,0.858961,-0.85076,0.741726\C,0,3.08729,0.1142,0.602742\C,0,3.37165,0
 .346084,-0.92532\C,0,-1.64231,-0.446413,0.585911\C,0,-2.15825,-1.57366
 ,-0.144462\C,0,-1.46856,0.760931,-0.365742\C,0,-2.4602,1.82498,-0.3611
 23\H,0,-0.570707,-2.74119,0.0730985\H,0,-3.93898,0.437817,-0.480017\H,
 0,-4.49339,2.02358,-0.0123058\H,0,-0.553052,1.17211,-0.0787666\H,0,-1.

 Normal termination of Gaussian 16 at Tue Apr  8 20:22:30 2025.
