 Gaussian 16, Revision C.01,

 ----------------------------------------------------------------------
 #t hf aug-cc-pvdz symm=none int=(grid=ultrafine) guess=(read,tcheck) s
 table=(opt,rrhf)
 ----------------------------------------------------------------------
 -----
 title
 -----
 Symbolic Z-matrix:
 Charge =  0 Multiplicity = 1

 SCF Done:  E(RHF) =  -445.616804798     A.U. after   16 cycles
 Normal termination of Gaussian 16 at Tue Apr  8 21:45:02 2025.
 Gaussian 16:  ES64L-G16RevC.01  3-Jul-2019

 ----------------------------------------------------------------------
 #t hf aug-cc-pvdz iop(5/13=1,5/36=2,99/5=2) pseudo=read geom=check gue
 ss=(read,tcheck) scf=(maxcycle=1)
 ----------------------------------------------------------------------
 -----
 title
 -----
 Structure from the checkpoint file:  "ANI1ccx_521_conf7_mol1.chk"
 Charge =  0 Multiplicity = 1

                         Standard orientation:
 ---------------------------------------------------------------------
 Center     Atomic      Atomic             Coordinates (Angstroms)
 Number     Number       Type             X           Y           Z
 ---------------------------------------------------------------------
      1          6           0       -1.312252    0.358053    0.027882
      2          6           0        1.345449   -0.369577   -0.060072
      3          1           0       -2.892481   -0.371403   -1.066349
      4          1           0       -2.432601   -1.382272    0.247239
      5          1           0        2.666268    0.796086   -1.088319
      6          1           0        2.553608    1.090561    0.649386
      7          7           0       -2.201741   -0.620774   -0.373532
      8          7           0       -0.596358   -0.085483    1.205781
      9          7           0        0.622267   -0.330637    1.204641
     10          7           0        2.202068    0.710816   -0.193815
     11          8           0       -1.124342    1.434079   -0.505796
     12          8           0        1.089639   -1.156740   -0.925494
 ---------------------------------------------------------------------

 SCF Done:  E(RHF) =  -446.047600786     A.U. after    2 cycles

 The electronic state is 1-A.
 Alpha  occ. eigenvalues --  -20.54866 -20.54615 -15.61838 -15.61250 -15.54951
 Alpha  occ. eigenvalues --  -15.54800 -11.41741 -11.41377  -1.51290  -1.49439
 Alpha  occ. eigenvalues --   -1.39941  -1.24903  -1.23941  -1.06526  -0.94651
 Alpha  occ. eigenvalues --   -0.82707  -0.81047  -0.76743  -0.75256  -0.71154
 Alpha  occ. eigenvalues --   -0.69012  -0.66682  -0.61448  -0.59231  -0.58676
 Alpha  occ. eigenvalues --   -0.52839  -0.48897  -0.46958  -0.46344  -0.43031
 Alpha virt. eigenvalues --    0.02006   0.03109   0.04050   0.05797   0.05816
 Alpha virt. eigenvalues --    0.08843   0.09809   0.10692   0.10996   0.11851
 Alpha virt. eigenvalues --    0.12716   0.13445   0.14504   0.15284   0.15721

 Mulliken charges:
               1
     1  C   -0.005230
     2  C   -0.013814
     3  H    0.081009
     4  H    0.111008
     5  H    0.111887
     6  H    0.129497
     7  N    0.645614
     8  N    0.175735
     9  N    0.266538
    10  N    0.611386
    11  O   -1.071396
    12  O   -1.042232
 Sum of Mulliken charges =  -0.00000

 Dipole moment (field-independent basis, Debye):
    X=              0.0864    Y=             -0.2974    Z=              0.1687  Tot=              0.3527

 Test job not archived.
 1\1\GINC-SE074\SP\RHF\Aug-CC-pVDZ\C2H4N4O2\OHZDE\08-Apr-2025\0\\#t hf
 aug-cc-pvdz iop(5/13=1,5/36=2,99/5=2) pseudo=read geom=check guess=(re
 ad,tcheck) scf=(maxcycle=1)\\title\\0,1\C,0,-1.31225,0.358054,0.027881
 5\C,0,1.34545,-0.369578,-0.0600725\H,0,-2.89248,-0.371401,-1.06635\H,0
 ,-2.4326,-1.38227,0.247238\H,0,2.66627,0.796085,-1.08832\H,0,2.55361,1
 .09056,0.649385\N,0,-2.20174,-0.620772,-0.373533\N,0,-0.596356,-0.0854
 829,1.20578\N,0,0.622268,-0.330637,1.20464\N,0,2.20207,0.710815,-0.193
 816\O,0,-1.12434,1.43408,-0.505797\O,0,1.08964,-1.15674,-0.925495\\Ver

 Normal termination of Gaussian 16 at Tue Apr  8 21:45:07 2025.
