 Gaussian 16, Revision C.01,

 ----------------------------------------------------------------------
 #t hf aug-cc-pvdz symm=none int=(grid=ultrafine) guess=(read,tcheck) s
 table=(opt,rrhf)
 ----------------------------------------------------------------------
 -----
 title
 -----
 Symbolic Z-matrix:
 Charge =  0 Multiplicity = 1

 SCF Done:  E(RHF) =  -337.198606159     A.U. after   13 cycles

 1\1\GINC-SE460\Stability\RHF\Aug-CC-pVDZ\C3H10N4\OHZDE\08-Apr-2025\0\\
 #t hf aug-cc-pvdz symm=none int=(grid=ultrafine) guess=(read,tcheck) s
 table=(opt,rrhf)\\title\\0,1\C,0,2.5845,0.0365174,0.312689\C,0,0.14026
 5,-0.253239,-0.10506\C,0,-1.367,1.70181,-0.308715\H,0,-2.11963,0.94793
 1,-0.601589\H,0,-0.936062,2.18819,-1.20288\H,0,-1.78957,2.43609,0.3794
 35\H,0,0.507877,1.58492,0.724082\H,0,1.51306,-1.26477,-0.954756\H,0,3.
 49032,-0.354026,-0.198631\H,0,2.59854,-0.365495,1.34676\H,0,2.75395,1.
 15378,0.271105\H,0,-1.92194,-0.762244,1.17949\H,0,-2.29229,-2.06185,0.

 Normal termination of Gaussian 16 at Tue Apr  8 21:48:21 2025.
 Gaussian 16:  ES64L-G16RevC.01  3-Jul-2019

 ----------------------------------------------------------------------
 #t hf aug-cc-pvdz iop(5/13=1,5/36=2,99/5=2) pseudo=read geom=check gue
 ss=(read,tcheck) scf=(maxcycle=1)
 ----------------------------------------------------------------------
 -----
 title
 -----
 Structure from the checkpoint file:  "ANI1ccx_616_conf2_mol1.chk"
 Charge =  0 Multiplicity = 1

                         Standard orientation:
 ---------------------------------------------------------------------
 Center     Atomic      Atomic             Coordinates (Angstroms)
 Number     Number       Type             X           Y           Z
 ---------------------------------------------------------------------
      1          6           0        2.584500    0.036517    0.312689
      2          6           0        0.140266   -0.253240   -0.105060
      3          6           0       -1.367000    1.701809   -0.308715
      4          1           0       -2.119630    0.947930   -0.601589
      5          1           0       -0.936062    2.188189   -1.202880
      6          1           0       -1.789570    2.436089    0.379435
      7          1           0        0.507877    1.584919    0.724082
      8          1           0        1.513061   -1.264770   -0.954756
      9          1           0        3.490321   -0.354026   -0.198631
     10          1           0        2.598541   -0.365495    1.346760
     11          1           0        2.753950    1.153780    0.271105
     12          1           0       -1.921939   -0.762245    1.179490
     13          1           0       -2.292289   -2.061852    0.348561
     14          7           0       -1.973999   -1.142021    0.214526
     15          7           0       -0.630896   -1.265191   -0.220359
     16          7           0       -0.283496    0.973640    0.447966
     17          7           0        1.466841   -0.339718   -0.539998
 ---------------------------------------------------------------------

 SCF Done:  E(RHF) =  -337.554892060     A.U. after    2 cycles

 The electronic state is 1-A.
 Alpha  occ. eigenvalues --  -15.50706 -15.50592 -15.50514 -15.48830 -11.32520
 Alpha  occ. eigenvalues --  -11.28240 -11.26294  -1.30410  -1.22378  -1.17672
 Alpha  occ. eigenvalues --   -1.07209  -0.94312  -0.92752  -0.78951  -0.74203
 Alpha  occ. eigenvalues --   -0.72670  -0.68326  -0.64630  -0.63651  -0.61469
 Alpha  occ. eigenvalues --   -0.59593  -0.57457  -0.55088  -0.53695  -0.48682
 Alpha  occ. eigenvalues --   -0.45563  -0.43104  -0.35949
 Alpha virt. eigenvalues --    0.03419   0.04248   0.04744   0.04951   0.05341
 Alpha virt. eigenvalues --    0.05417   0.06254   0.07129   0.08359   0.09561
 Alpha virt. eigenvalues --    0.11456   0.12991   0.13632   0.13723   0.14868

 Mulliken charges:
               1
     1  C   -0.383482
     2  C   -2.254315
     3  C   -0.286441
     4  H    0.198948
     5  H    0.197224
     6  H    0.110082
     7  H    0.152809
     8  H    0.265581
     9  H    0.067640
    10  H    0.139808
    11  H    0.204118
    12  H    0.262342
    13  H    0.106293
    14  N   -0.072307
    15  N    0.359392
    16  N    0.379834
    17  N    0.552474
 Sum of Mulliken charges =  -0.00000

 Dipole moment (field-independent basis, Debye):
    X=              1.9134    Y=              1.5958    Z=              1.5943  Tot=              2.9579

 Test job not archived.
 1\1\GINC-SE460\SP\RHF\Aug-CC-pVDZ\C3H10N4\OHZDE\08-Apr-2025\0\\#t hf a
 ug-cc-pvdz iop(5/13=1,5/36=2,99/5=2) pseudo=read geom=check guess=(rea
 d,tcheck) scf=(maxcycle=1)\\title\\0,1\C,0,2.5845,0.0365174,0.312689\C
 ,0,0.140265,-0.253239,-0.10506\C,0,-1.367,1.70181,-0.308715\H,0,-2.119
 63,0.947931,-0.601589\H,0,-0.936062,2.18819,-1.20288\H,0,-1.78957,2.43
 609,0.379435\H,0,0.507877,1.58492,0.724082\H,0,1.51306,-1.26477,-0.954
 756\H,0,3.49032,-0.354026,-0.198631\H,0,2.59854,-0.365495,1.34676\H,0,
 2.75395,1.15378,0.271105\H,0,-1.92194,-0.762244,1.17949\H,0,-2.29229,-

 Normal termination of Gaussian 16 at Tue Apr  8 21:48:27 2025.
