 Gaussian 16, Revision C.01,

 ----------------------------------------------------------------------
 #t hf aug-cc-pvdz symm=none int=(grid=ultrafine) guess=(read,tcheck) s
 table=(opt,rrhf)
 ----------------------------------------------------------------------
 -----
 title
 -----
 Symbolic Z-matrix:
 Charge =  0 Multiplicity = 1

 SCF Done:  E(RHF) =  -447.769638778     A.U. after   14 cycles
 Normal termination of Gaussian 16 at Tue Apr  8 21:48:33 2025.
 Gaussian 16:  ES64L-G16RevC.01  3-Jul-2019

 ----------------------------------------------------------------------
 #t hf aug-cc-pvdz iop(5/13=1,5/36=2,99/5=2) pseudo=read geom=check gue
 ss=(read,tcheck) scf=(maxcycle=1)
 ----------------------------------------------------------------------
 -----
 title
 -----
 Structure from the checkpoint file:  "ANI1ccx_586_conf6_mol1.chk"
 Charge =  0 Multiplicity = 1

                         Standard orientation:
 ---------------------------------------------------------------------
 Center     Atomic      Atomic             Coordinates (Angstroms)
 Number     Number       Type             X           Y           Z
 ---------------------------------------------------------------------
      1          6           0       -1.195058    1.467442   -0.800761
      2          6           0        0.160266   -0.487506   -0.172904
      3          1           0       -1.557749    0.881222   -1.626740
      4          1           0       -1.906528    1.593923    0.038600
      5          1           0       -0.892071    2.465582   -1.119990
      6          1           0        0.683294    2.452960    0.756427
      7          1           0       -0.026045    1.125891    1.653350
      8          1           0       -0.700193   -2.196439   -0.289506
      9          1           0       -2.675801   -0.626097    0.355740
     10          1           0        2.071951    0.540199   -0.206762
     11          7           0        0.027652    0.890228   -0.212472
     12          7           0        0.624155    1.417710    0.938551
     13          7           0       -0.980024   -1.216438   -0.377175
     14          7           0        1.288719   -1.175021   -0.140969
     15          8           0       -1.852241   -1.035677    0.742916
     16          8           0        2.413290   -0.405848   -0.139751
 ---------------------------------------------------------------------

 SCF Done:  E(RHF) =  -448.225026232     A.U. after    2 cycles

 The electronic state is 1-A.
 Alpha  occ. eigenvalues --  -20.60582 -20.56392 -15.57441 -15.55735 -15.55084
 Alpha  occ. eigenvalues --  -15.54506 -11.33329 -11.29343  -1.50610  -1.48933
 Alpha  occ. eigenvalues --   -1.34313  -1.22295  -1.10540  -1.08020  -0.97540
 Alpha  occ. eigenvalues --   -0.83694  -0.78792  -0.76492  -0.73161  -0.71905
 Alpha  occ. eigenvalues --   -0.69543  -0.66199  -0.63004  -0.60724  -0.59285
 Alpha  occ. eigenvalues --   -0.57672  -0.53459  -0.51597  -0.49969  -0.48075
 Alpha  occ. eigenvalues --   -0.44261  -0.35690
 Alpha virt. eigenvalues --    0.02593   0.03484   0.04028   0.04603   0.05543
 Alpha virt. eigenvalues --    0.06545   0.06681   0.07875   0.10058   0.11662
 Alpha virt. eigenvalues --    0.13103   0.13993   0.14353   0.14589   0.15346

 Mulliken charges:
               1
     1  C   -0.305739
     2  C   -2.261294
     3  H    0.149246
     4  H    0.245811
     5  H    0.037763
     6  H    0.256111
     7  H    0.277484
     8  H    0.305712
     9  H    0.371625
    10  H    0.531210
    11  N    0.012152
    12  N    0.173090
    13  N    1.192098
    14  N    1.565169
    15  O   -1.219379
    16  O   -1.331059
 Sum of Mulliken charges =  -0.00000

 Dipole moment (field-independent basis, Debye):
    X=             -5.0543    Y=              4.4261    Z=             -0.2084  Tot=              6.7216

 Test job not archived.
 1\1\GINC-SE179\SP\RHF\Aug-CC-pVDZ\C2H8N4O2\OHZDE\08-Apr-2025\0\\#t hf
 aug-cc-pvdz iop(5/13=1,5/36=2,99/5=2) pseudo=read geom=check guess=(re
 ad,tcheck) scf=(maxcycle=1)\\title\\0,1\C,0,-1.19506,1.46744,-0.800761
 \C,0,0.160267,-0.487506,-0.172904\H,0,-1.55775,0.88122,-1.62674\H,0,-1
 .90653,1.59392,0.0386001\H,0,-0.892074,2.46558,-1.11999\H,0,0.683291,2
 .45296,0.756427\H,0,-0.0260462,1.12589,1.65335\H,0,-0.70019,-2.19644,-
 0.289506\H,0,-2.6758,-0.626101,0.35574\H,0,2.07195,0.540201,-0.206762\
 N,0,0.0276505,0.890227,-0.212472\N,0,0.624153,1.41771,0.938551\N,0,-0.

 Normal termination of Gaussian 16 at Tue Apr  8 21:48:40 2025.
