 Gaussian 16, Revision C.01,

 ----------------------------------------------------------------------
 #t hf aug-cc-pvdz symm=none int=(grid=ultrafine) guess=(read,tcheck) s
 table=(opt,rrhf)
 ----------------------------------------------------------------------
 -----
 title
 -----
 Symbolic Z-matrix:
 Charge =  0 Multiplicity = 1

 SCF Done:  E(RHF) =  -1036.51048935     A.U. after   14 cycles
 Normal termination of Gaussian 16 at Tue Apr  8 22:19:45 2025.
 Gaussian 16:  ES64L-G16RevC.01  3-Jul-2019

 ----------------------------------------------------------------------
 #t hf aug-cc-pvdz iop(5/13=1,5/36=2,99/5=2) pseudo=read geom=check gue
 ss=(read,tcheck) scf=(maxcycle=1)
 ----------------------------------------------------------------------
 -----
 title
 -----
 Structure from the checkpoint file:  "ANI1ccx_81_conf4_mol2.chk"
 Charge =  0 Multiplicity = 1

                         Standard orientation:
 ---------------------------------------------------------------------
 Center     Atomic      Atomic             Coordinates (Angstroms)
 Number     Number       Type             X           Y           Z
 ---------------------------------------------------------------------
      1          6           0       -1.386641   -1.874329    1.179280
      2          6           0        1.384761    2.323330    0.036357
      3          6           0        2.326911    1.791249   -1.042330
      4          6           0        2.001610    0.439918   -1.664090
      5          6           0        2.902190   -0.849120    0.341240
      6          6           0       -1.033768    2.746411    0.404472
      7          6           0       -2.769641   -1.147958   -0.917334
      8          6           0       -2.500761   -2.161508    0.169713
      9          6           0       -0.053867   -1.971150    0.383674
     10          6           0        1.794580   -0.795645   -0.704004
     11          1           0        3.343411    1.795099   -0.582716
     12          1           0        4.728049   -1.106072    0.528154
     13          1           0       -2.401839    2.139092   -0.957216
     14          1           0       -2.992688    3.230532    0.177743
     15          1           0       -1.795358    3.346291    2.004060
     16          1           0       -0.106913    2.522480   -1.350070
     17          1           0        1.410961    1.735310    0.958290
     18          1           0        1.667932    3.344889    0.351794
     19          1           0        2.315971    2.549389   -1.844870
     20          1           0        1.095450    0.496389   -2.285870
     21          1           0        2.847790    0.167298   -2.309550
     22          1           0        1.977099   -1.726941   -1.240380
     23          1           0        0.148146    0.078444    0.232848
     24          1           0       -2.256950    0.184639    0.399314
     25          1           0       -2.324002   -3.137388   -0.289019
     26          1           0       -3.442051   -2.239778    0.721339
     27          1           0       -1.295341   -2.624239    1.968190
     28          1           0       -0.719080   -0.196097    2.238860
     29          1           0       -2.276980   -0.555738    2.489000
     30          7           0       -2.169758    2.918521   -0.326350
     31          7           0       -0.902571    2.994631    1.654980
     32          7           0       -1.548980   -0.529808    1.771640
     33          7           0        0.459224   -0.800814   -0.125574
     34          7           0       -0.004481    2.230930   -0.391716
     35          8           0        2.764680   -0.598909    1.496450
     36          8           0        0.490076   -3.034320    0.215341
     37          8           0       -3.054811   -1.487828   -2.037910
     38          8           0       -2.650870    0.127083   -0.523860
     39          8           0        4.107189   -1.094152   -0.201601
 ---------------------------------------------------------------------

 SCF Done:  E(RHF) =  -1037.55728161     A.U. after    2 cycles

 The electronic state is 1-A.
 Alpha  occ. eigenvalues --  -20.61016 -20.58312 -20.54707 -20.53022 -20.52640
 Alpha  occ. eigenvalues --  -15.54195 -15.53418 -15.52151 -15.51568 -15.46384
 Alpha  occ. eigenvalues --  -11.39791 -11.39278 -11.37219 -11.35083 -11.31581
 Alpha  occ. eigenvalues --  -11.30350 -11.27213 -11.27025 -11.26258 -11.25689
 Alpha  occ. eigenvalues --   -1.56804  -1.53432  -1.48338  -1.46975  -1.44891
 Alpha  occ. eigenvalues --   -1.30817  -1.26458  -1.23131  -1.20068  -1.15105
 Alpha  occ. eigenvalues --   -1.09442  -1.07497  -1.02257  -0.94680  -0.93194
 Alpha  occ. eigenvalues --   -0.87040  -0.84407  -0.83155  -0.82491  -0.81918
 Alpha  occ. eigenvalues --   -0.76683  -0.76443  -0.74921  -0.73114  -0.72506
 Alpha  occ. eigenvalues --   -0.71872  -0.70716  -0.68687  -0.67552  -0.67497
 Alpha  occ. eigenvalues --   -0.66634  -0.66301  -0.65302  -0.64044  -0.62415
 Alpha  occ. eigenvalues --   -0.61857  -0.61493  -0.60319  -0.60160  -0.59041
 Alpha  occ. eigenvalues --   -0.57057  -0.56591  -0.55370  -0.54671  -0.52460
 Alpha  occ. eigenvalues --   -0.51166  -0.50280  -0.48762  -0.48486  -0.47822
 Alpha  occ. eigenvalues --   -0.46543  -0.46028  -0.45014  -0.44002  -0.43678
 Alpha  occ. eigenvalues --   -0.42298  -0.41032
 Alpha virt. eigenvalues --    0.02124   0.03134   0.03296   0.03488   0.03933
 Alpha virt. eigenvalues --    0.04481   0.04785   0.05219   0.05862   0.06485
 Alpha virt. eigenvalues --    0.06814   0.07487   0.08075   0.08359   0.09138

 Mulliken charges:
               1
     1  C   -0.910098
     2  C   -0.079860
     3  C   -0.601715
     4  C   -0.047699
     5  C    3.273292
     6  C   -3.110319
     7  C    2.382516
     8  C   -0.464952
     9  C    0.768996
    10  C   -2.580706
    11  H    0.216804
    12  H    0.339931
    13  H    0.085429
    14  H    0.170037
    15  H    0.196017
    16  H    0.392755
    17  H    0.151237
    18  H   -0.064510
    19  H    0.163868
    20  H    0.224588
    21  H    0.150498
    22  H    0.132769
    23  H   -0.152221
    24  H    1.146268
    25  H    0.163758
    26  H    0.257163
    27  H    0.062747
    28  H    0.260574
    29  H    0.231312
    30  N    1.137416
    31  N    1.030178
    32  N    0.221221
    33  N    2.154451
    34  N    0.247287
    35  O   -1.389843
    36  O   -1.511254
    37  O   -1.417661
    38  O   -1.820575
    39  O   -1.409700
 Sum of Mulliken charges =   0.00000

 Dipole moment (field-independent basis, Debye):
    X=              0.0898    Y=              1.8163    Z=              2.0545  Tot=              2.7437

 Test job not archived.
 1\1\GINC-SE080\SP\RHF\Aug-CC-pVDZ\C10H19N5O5\OHZDE\08-Apr-2025\0\\#t h
 f aug-cc-pvdz iop(5/13=1,5/36=2,99/5=2) pseudo=read geom=check guess=(
 read,tcheck) scf=(maxcycle=1)\\title\\0,1\C,0,-1.38664,-1.87433,1.1792
 8\C,0,1.38476,2.32333,0.0363574\C,0,2.32691,1.79125,-1.04233\C,0,2.001
 61,0.439919,-1.66409\C,0,2.90219,-0.849119,0.34124\C,0,-1.03377,2.7464
 1,0.404472\C,0,-2.76964,-1.14796,-0.917334\C,0,-2.50076,-2.16151,0.169
 713\C,0,-0.0538659,-1.97115,0.383674\C,0,1.79458,-0.795644,-0.704004\H
 ,0,3.34341,1.7951,-0.582716\H,0,4.72805,-1.10607,0.528154\H,0,-2.40184

 Normal termination of Gaussian 16 at Tue Apr  8 22:21:14 2025.
