 Gaussian 16, Revision C.01,

 ----------------------------------------------------------------------
 #t hf aug-cc-pvdz symm=none int=(grid=ultrafine) guess=(read,tcheck) s
 table=(opt,rrhf)
 ----------------------------------------------------------------------
 -----
 title
 -----
 Symbolic Z-matrix:
 Charge =  0 Multiplicity = 1

 SCF Done:  E(RHF) =  -794.460267833     A.U. after   15 cycles
 Normal termination of Gaussian 16 at Tue Apr  8 20:14:08 2025.
 Gaussian 16:  ES64L-G16RevC.01  3-Jul-2019

 ----------------------------------------------------------------------
 #t hf aug-cc-pvdz iop(5/13=1,5/36=2,99/5=2) pseudo=read geom=check gue
 ss=(read,tcheck) scf=(maxcycle=1)
 ----------------------------------------------------------------------
 -----
 title
 -----
 Structure from the checkpoint file:  "ANI1ccx_1592_conf1_mol1.chk"
 Charge =  0 Multiplicity = 1

                         Standard orientation:
 ---------------------------------------------------------------------
 Center     Atomic      Atomic             Coordinates (Angstroms)
 Number     Number       Type             X           Y           Z
 ---------------------------------------------------------------------
      1          6           0        0.443992    1.386450   -0.295717
      2          6           0       -0.961838    1.761900    0.012270
      3          6           0        1.284841    1.194830    0.916462
      4          6           0        2.663391    0.463080    0.612151
      5          6           0        2.554490   -0.947896    0.064265
      6          6           0       -1.546980   -0.647589    0.648118
      7          6           0       -1.818990   -1.303400   -0.673675
      8          6           0       -2.464980   -1.246140    1.711050
      9          1           0        0.008332   -1.929730   -0.679891
     10          1           0       -3.495580   -0.964157    1.473270
     11          1           0       -2.251900   -0.798976    2.687570
     12          1           0       -2.412010   -2.352890    1.810440
     13          1           0       -0.519905   -0.880700    0.920329
     14          1           0       -2.738059    1.079880    0.709076
     15          1           0        3.546410   -2.454171   -0.217707
     16          1           0        3.168081    1.105579   -0.088065
     17          1           0        3.226601    0.445754    1.548920
     18          1           0        1.556131    2.154480    1.390080
     19          1           0        0.678910    0.670948    1.693870
     20          1           0        0.329010    0.437331   -0.802184
     21          1           0        0.429930    2.446830   -2.016300
     22          1           0        1.000081    3.256080   -0.747124
     23          7           0        1.071591    2.349050   -1.222770
     24          7           0       -1.746819    0.743877    0.568930
     25          8           0       -1.413169    2.886750   -0.094492
     26          8           0        1.529080   -1.521950   -0.022100
     27          8           0        3.747760   -1.530991   -0.088106
     28          8           0       -2.860940   -1.188320   -1.312860
     29          8           0       -0.843105   -2.124760   -1.116810
 ---------------------------------------------------------------------

 SCF Done:  E(RHF) =  -795.257573335     A.U. after    2 cycles

 The electronic state is 1-A.
 Alpha  occ. eigenvalues --  -20.63804 -20.58641 -20.58310 -20.52591 -20.52584
 Alpha  occ. eigenvalues --  -15.53471 -15.50549 -11.43765 -11.38477 -11.36774
 Alpha  occ. eigenvalues --  -11.30246 -11.28749 -11.28299 -11.27654 -11.25752
 Alpha  occ. eigenvalues --   -1.60834  -1.52932  -1.51553  -1.47383  -1.43043
 Alpha  occ. eigenvalues --   -1.26006  -1.21094  -1.09557  -1.06845  -1.01167
 Alpha  occ. eigenvalues --   -0.92613  -0.91995  -0.84717  -0.84091  -0.80619
 Alpha  occ. eigenvalues --   -0.77972  -0.75024  -0.74722  -0.72791  -0.71539
 Alpha  occ. eigenvalues --   -0.69912  -0.68499  -0.65471  -0.64590  -0.64106
 Alpha  occ. eigenvalues --   -0.62079  -0.61308  -0.60663  -0.59727  -0.57703
 Alpha  occ. eigenvalues --   -0.57263  -0.55615  -0.54473  -0.54412  -0.53417
 Alpha  occ. eigenvalues --   -0.52668  -0.52221  -0.48813  -0.47741  -0.45740
 Alpha  occ. eigenvalues --   -0.45093  -0.43083  -0.41292
 Alpha virt. eigenvalues --    0.02086   0.02625   0.03305   0.04026   0.05002
 Alpha virt. eigenvalues --    0.05243   0.05433   0.06514   0.06815   0.07390
 Alpha virt. eigenvalues --    0.08426   0.08712   0.09334   0.09676   0.10639

 Mulliken charges:
               1
     1  C   -2.235504
     2  C    0.929417
     3  C   -0.036324
     4  C   -0.545509
     5  C    2.361828
     6  C   -1.104854
     7  C    2.447282
     8  C   -0.016529
     9  H    0.837676
    10  H    0.188494
    11  H    0.188863
    12  H    0.196725
    13  H    0.048712
    14  H    0.359631
    15  H    0.350175
    16  H    0.296164
    17  H    0.217729
    18  H    0.118926
    19  H    0.260780
    20  H    0.321251
    21  H    0.185766
    22  H    0.335805
    23  N    0.793205
    24  N    0.657343
    25  O   -1.467612
    26  O   -1.382210
    27  O   -1.383598
    28  O   -1.425961
    29  O   -1.497671
 Sum of Mulliken charges =  -0.00000

 Dipole moment (field-independent basis, Debye):
    X=              5.2211    Y=             -1.3881    Z=              4.5845  Tot=              7.0855

 Test job not archived.
 1\1\GINC-SE343\SP\RHF\Aug-CC-pVDZ\C8H14N2O5\OHZDE\08-Apr-2025\0\\#t hf
  aug-cc-pvdz iop(5/13=1,5/36=2,99/5=2) pseudo=read geom=check guess=(r
 ead,tcheck) scf=(maxcycle=1)\\title\\0,1\C,0,0.443991,1.38645,-0.29571
 7\C,0,-0.961839,1.7619,0.0122701\C,0,1.28484,1.19483,0.916462\C,0,2.66
 339,0.463081,0.612151\C,0,2.55449,-0.947895,0.0642647\C,0,-1.54698,-0.
 647589,0.648118\C,0,-1.81899,-1.3034,-0.673675\C,0,-2.46498,-1.24614,1
 .71105\H,0,0.00833231,-1.92973,-0.679891\H,0,-3.49558,-0.964157,1.4732
 7\H,0,-2.2519,-0.798976,2.68757\H,0,-2.41201,-2.35289,1.81044\H,0,-0.5

 Normal termination of Gaussian 16 at Tue Apr  8 20:14:43 2025.
