 Gaussian 16, Revision C.01,

 ----------------------------------------------------------------------
 #t hf aug-cc-pvdz symm=none int=(grid=ultrafine) guess=(read,tcheck) s
 table=(opt,rrhf)
 ----------------------------------------------------------------------
 -----
 title
 -----
 Symbolic Z-matrix:
 Charge =  0 Multiplicity = 1

 SCF Done:  E(RHF) =  -304.170615564     A.U. after   11 cycles
 Normal termination of Gaussian 16 at Tue Apr  8 21:13:23 2025.
 Gaussian 16:  ES64L-G16RevC.01  3-Jul-2019

 ----------------------------------------------------------------------
 #t hf aug-cc-pvdz iop(5/13=1,5/36=2,99/5=2) pseudo=read geom=check gue
 ss=(read,tcheck) scf=(maxcycle=1)
 ----------------------------------------------------------------------
 -----
 title
 -----
 Structure from the checkpoint file:  "ANI1ccx_1904_conf30_mol1.chk"
 Charge =  0 Multiplicity = 1

                         Standard orientation:
 ---------------------------------------------------------------------
 Center     Atomic      Atomic             Coordinates (Angstroms)
 Number     Number       Type             X           Y           Z
 ---------------------------------------------------------------------
      1          1           0       -1.007827    0.782916   -0.239843
      2          1           0       -2.524628    0.681910   -0.513931
      3          1           0        0.175265   -0.740936   -1.488449
      4          1           0        0.923545   -1.112475   -0.218571
      5          1           0        1.134813    0.794018   -0.242286
      6          1           0        1.124469    2.279815    0.166568
      7          1           0        0.165869   -0.043414    1.585791
      8          1           0       -0.809862   -0.948674    0.776680
      9          8           0       -1.673250    0.142069   -0.568171
     10          8           0        1.095046   -0.791470   -1.139989
     11          8           0        0.705572    1.431146    0.360174
     12          8           0       -0.025072   -0.993390    1.369741
 ---------------------------------------------------------------------

 SCF Done:  E(RHF) =  -304.487024812     A.U. after    2 cycles

 The electronic state is 1-A.
 Alpha  occ. eigenvalues --  -20.58159 -20.57643 -20.54965 -20.54721  -1.46971
 Alpha  occ. eigenvalues --   -1.44861  -1.42844  -1.41539  -0.74671  -0.72156
 Alpha  occ. eigenvalues --   -0.69594  -0.68096  -0.61645  -0.61293  -0.58710
 Alpha  occ. eigenvalues --   -0.55942  -0.52238  -0.51143  -0.49290  -0.47700
 Alpha virt. eigenvalues --    0.02693   0.04075   0.06384   0.06587   0.08216
 Alpha virt. eigenvalues --    0.08334   0.09192   0.09831   0.17154   0.18794
 Alpha virt. eigenvalues --    0.18906   0.20338   0.22309   0.23130   0.24432

 Mulliken charges:
               1
     1  H    0.618267
     2  H    0.419753
     3  H    0.436372
     4  H    0.615649
     5  H    0.594232
     6  H    0.459949
     7  H    0.538302
     8  H    0.578393
     9  O   -0.976477
    10  O   -1.087595
    11  O   -1.093986
    12  O   -1.102860
 Sum of Mulliken charges =  -0.00000

 Dipole moment (field-independent basis, Debye):
    X=             -1.6814    Y=              3.6840    Z=             -0.4002  Tot=              4.0693

 Test job not archived.
 1\1\GINC-SE329\SP\RHF\Aug-CC-pVDZ\H8O4\OHZDE\08-Apr-2025\0\\#t hf aug-
 cc-pvdz iop(5/13=1,5/36=2,99/5=2) pseudo=read geom=check guess=(read,t
 check) scf=(maxcycle=1)\\title\\0,1\H,0,-1.00783,0.782912,-0.239844\H,
 0,-2.52463,0.681899,-0.513932\H,0,0.175269,-0.740935,-1.48845\H,0,0.92
 3551,-1.11247,-0.218572\H,0,1.13481,0.794023,-0.242287\H,0,1.12446,2.2
 7982,0.166567\H,0,0.16587,-0.0434124,1.58579\H,0,-0.809857,-0.948677,0
 .776679\O,0,-1.67325,0.142062,-0.568172\O,0,1.09505,-0.791465,-1.13999
 \O,0,0.705566,1.43115,0.360173\O,0,-0.025067,-0.99339,1.36974\\Version

 Normal termination of Gaussian 16 at Tue Apr  8 21:13:26 2025.
