 Gaussian 16, Revision C.01,

 ----------------------------------------------------------------------
 #t hf aug-cc-pvdz symm=none int=(grid=ultrafine) guess=(read,tcheck) s
 table=(opt,rrhf)
 ----------------------------------------------------------------------
 -----
 title
 -----
 Symbolic Z-matrix:
 Charge =  0 Multiplicity = 1

 SCF Done:  E(RHF) =  -506.622178039     A.U. after   17 cycles
 Normal termination of Gaussian 16 at Tue Apr  8 21:56:01 2025.
 Gaussian 16:  ES64L-G16RevC.01  3-Jul-2019

 ----------------------------------------------------------------------
 #t hf aug-cc-pvdz iop(5/13=1,5/36=2,99/5=2) pseudo=read geom=check gue
 ss=(read,tcheck) scf=(maxcycle=1)
 ----------------------------------------------------------------------
 -----
 title
 -----
 Structure from the checkpoint file:  "ANI1ccx_787_conf10_mol1.chk"
 Charge =  0 Multiplicity = 1

                         Standard orientation:
 ---------------------------------------------------------------------
 Center     Atomic      Atomic             Coordinates (Angstroms)
 Number     Number       Type             X           Y           Z
 ---------------------------------------------------------------------
      1          6           0        0.553507    1.643260   -0.532532
      2          6           0        1.126610   -0.052324    1.162660
      3          6           0        1.886060   -0.993461    0.260707
      4          1           0       -1.761600   -0.944507   -1.195980
      5          1           0        3.428960   -0.854378   -0.977160
      6          1           0        2.464320   -1.672690    0.948281
      7          1           0        0.696583   -0.632812    1.977020
      8          1           0        1.248220   -1.619920   -0.333177
      9          1           0       -0.217634    2.392560   -0.803906
     10          1           0        1.319040    2.177990    0.020087
     11          1           0        1.062850    1.067670   -1.306570
     12          1           0        1.914090    0.705139    1.460940
     13          7           0        0.047143    0.737917    0.592360
     14          7           0       -1.004500   -0.018187    0.116395
     15          7           0       -2.227620    0.098112    0.588863
     16          8           0       -0.827632   -0.551561   -1.129880
     17          8           0        2.755560   -0.221696   -0.564091
     18          8           0       -3.085060   -0.467840   -0.083262
 ---------------------------------------------------------------------

 SCF Done:  E(RHF) =  -507.131009170     A.U. after    2 cycles

 The electronic state is 1-A.
 Alpha  occ. eigenvalues --  -20.61579 -20.57999 -20.56860 -15.68140 -15.65480
 Alpha  occ. eigenvalues --  -15.55936 -11.29612 -11.28109 -11.26782  -1.61362
 Alpha  occ. eigenvalues --   -1.53145  -1.45496  -1.32519  -1.20502  -1.03452
 Alpha  occ. eigenvalues --   -0.97465  -0.90713  -0.83512  -0.80259  -0.75123
 Alpha  occ. eigenvalues --   -0.74871  -0.71941  -0.67511  -0.66383  -0.62698
 Alpha  occ. eigenvalues --   -0.61230  -0.60456  -0.57997  -0.56434  -0.56240
 Alpha  occ. eigenvalues --   -0.54842  -0.52716  -0.46050  -0.45565  -0.44262
 Alpha  occ. eigenvalues --   -0.41010
 Alpha virt. eigenvalues --    0.02933   0.03806   0.04330   0.04428   0.05679
 Alpha virt. eigenvalues --    0.05782   0.07077   0.07690   0.08142   0.08921
 Alpha virt. eigenvalues --    0.11269   0.11837   0.12891   0.13955   0.14053

 Mulliken charges:
               1
     1  C   -0.354912
     2  C   -0.732284
     3  C    0.872452
     4  H    0.444866
     5  H    0.362673
     6  H    0.162964
     7  H    0.043639
     8  H    0.055259
     9  H    0.137834
    10  H    0.132076
    11  H    0.314941
    12  H    0.273132
    13  N    0.551114
    14  N   -0.129453
    15  N    1.756270
    16  O   -1.484938
    17  O   -1.237221
    18  O   -1.168413
 Sum of Mulliken charges =   0.00000

 Dipole moment (field-independent basis, Debye):
    X=              3.7828    Y=             -1.5056    Z=             -0.8770  Tot=              4.1648

 Test job not archived.
 1\1\GINC-SE252\SP\RHF\Aug-CC-pVDZ\C3H9N3O3\OHZDE\08-Apr-2025\0\\#t hf
 aug-cc-pvdz iop(5/13=1,5/36=2,99/5=2) pseudo=read geom=check guess=(re
 ad,tcheck) scf=(maxcycle=1)\\title\\0,1\C,0,0.553507,1.64326,-0.532532
 \C,0,1.12661,-0.0523238,1.16266\C,0,1.88606,-0.993461,0.260707\H,0,-1.
 7616,-0.944507,-1.19598\H,0,3.42896,-0.854378,-0.97716\H,0,2.46432,-1.
 67269,0.948281\H,0,0.696583,-0.632812,1.97702\H,0,1.24822,-1.61992,-0.
 333177\H,0,-0.217634,2.39256,-0.803906\H,0,1.31904,2.17799,0.0200869\H
 ,0,1.06285,1.06767,-1.30657\H,0,1.91409,0.705139,1.46094\N,0,0.0471433

 Normal termination of Gaussian 16 at Tue Apr  8 21:56:09 2025.
