 Gaussian 16, Revision C.01,

 ----------------------------------------------------------------------
 #t hf aug-cc-pvdz symm=none int=(grid=ultrafine) guess=(read,tcheck) s
 table=(opt,rrhf)
 ----------------------------------------------------------------------
 -----
 title
 -----
 Symbolic Z-matrix:
 Charge =  0 Multiplicity = 1

 SCF Done:  E(RHF) =  -373.429807294     A.U. after   16 cycles
 Normal termination of Gaussian 16 at Tue Apr  8 21:48:55 2025.
 Gaussian 16:  ES64L-G16RevC.01  3-Jul-2019

 ----------------------------------------------------------------------
 #t hf aug-cc-pvdz iop(5/13=1,5/36=2,99/5=2) pseudo=read geom=check gue
 ss=(read,tcheck) scf=(maxcycle=1)
 ----------------------------------------------------------------------
 -----
 title
 -----
 Structure from the checkpoint file:  "ANI1ccx_655_conf5_mol1.chk"
 Charge =  0 Multiplicity = 1

                         Standard orientation:
 ---------------------------------------------------------------------
 Center     Atomic      Atomic             Coordinates (Angstroms)
 Number     Number       Type             X           Y           Z
 ---------------------------------------------------------------------
      1          6           0        1.433661    0.405774    0.078067
      2          6           0       -0.733525   -0.647014   -0.002520
      3          6           0       -1.293449    0.766415   -0.042478
      4          1           0        0.957358    1.360630    0.285745
      5          1           0        1.071469   -1.639900    0.254521
      6          7           0        0.647698   -0.742837    0.078177
      7          7           0       -1.793718    1.799333    0.006638
      8          8           0        2.619661    0.351922   -0.115229
      9          8           0       -1.425511   -1.635328   -0.051319
 ---------------------------------------------------------------------

 SCF Done:  E(RHF) =  -373.788461978     A.U. after    2 cycles

 The electronic state is 1-A.
 Alpha  occ. eigenvalues --  -20.59965 -20.57544 -15.60830 -15.58226 -11.47045
 Alpha  occ. eigenvalues --  -11.41285 -11.33951  -1.54722  -1.52090  -1.32047
 Alpha  occ. eigenvalues --   -1.29229  -0.99829  -0.95375  -0.84292  -0.77122
 Alpha  occ. eigenvalues --   -0.72299  -0.69623  -0.67040  -0.66620  -0.59662
 Alpha  occ. eigenvalues --   -0.57875  -0.55373  -0.52430  -0.48485  -0.47856
 Alpha virt. eigenvalues --    0.03029   0.03234   0.04472   0.06953   0.07645
 Alpha virt. eigenvalues --    0.08803   0.09520   0.09849   0.10717   0.11292
 Alpha virt. eigenvalues --    0.12120   0.12940   0.13691   0.14681   0.15664

 Mulliken charges:
               1
     1  C    0.684774
     2  C    1.198410
     3  C   -1.500350
     4  H    0.114500
     5  H    0.123921
     6  N    0.620349
     7  N    0.916442
     8  O   -1.025594
     9  O   -1.132452
 Sum of Mulliken charges =  -0.00000

 Dipole moment (field-independent basis, Debye):
    X=              0.8882    Y=             -1.4459    Z=              0.7588  Tot=              1.8588

 Test job not archived.
 1\1\GINC-SE339\SP\RHF\Aug-CC-pVDZ\C3H2N2O2\OHZDE\08-Apr-2025\0\\#t hf
 aug-cc-pvdz iop(5/13=1,5/36=2,99/5=2) pseudo=read geom=check guess=(re
 ad,tcheck) scf=(maxcycle=1)\\title\\0,1\C,0,1.43366,0.405774,0.0780668
 \C,0,-0.733525,-0.647016,-0.00251998\C,0,-1.29345,0.766413,-0.0424776\
 H,0,0.957357,1.36063,0.285745\H,0,1.07147,-1.6399,0.254521\N,0,0.64769
 8,-0.742838,0.0781766\N,0,-1.79372,1.79933,0.00663843\O,0,2.61966,0.35
 1923,-0.115229\O,0,-1.42551,-1.63533,-0.0513192\\Version=ES64L-G16RevC
 .01\State=1-A\HF=-373.788462\RMSD=2.613e-02\Dipole=0.3494306,-0.568852

 Normal termination of Gaussian 16 at Tue Apr  8 21:48:58 2025.
