 Gaussian 16, Revision C.01,

 ----------------------------------------------------------------------
 #t hf aug-cc-pvdz symm=none int=(grid=ultrafine) guess=(read,tcheck) s
 table=(opt,rrhf)
 ----------------------------------------------------------------------
 -----
 title
 -----
 Symbolic Z-matrix:
 Charge =  0 Multiplicity = 1

 SCF Done:  E(RHF) =  -852.701621193     A.U. after   14 cycles
 Normal termination of Gaussian 16 at Tue Apr  8 22:09:22 2025.
 Gaussian 16:  ES64L-G16RevC.01  3-Jul-2019

 ----------------------------------------------------------------------
 #t hf aug-cc-pvdz iop(5/13=1,5/36=2,99/5=2) pseudo=read geom=check gue
 ss=(read,tcheck) scf=(maxcycle=1)
 ----------------------------------------------------------------------
 -----
 title
 -----
 Structure from the checkpoint file:  "ANI1ccx_78_conf9_mol2.chk"
 Charge =  0 Multiplicity = 1

                         Standard orientation:
 ---------------------------------------------------------------------
 Center     Atomic      Atomic             Coordinates (Angstroms)
 Number     Number       Type             X           Y           Z
 ---------------------------------------------------------------------
      1          6           0       -1.342851   -0.893055    0.671402
      2          6           0        2.403260    2.686969    0.218981
      3          6           0        2.962509    1.257359    0.033761
      4          6           0        2.661799   -1.057331   -0.661004
      5          6           0        1.969829    0.243018   -0.481060
      6          6           0        3.676829    0.741036    1.268319
      7          6           0       -3.001771    1.029770    0.443091
      8          6           0       -2.157901    0.254239    1.358379
      9          6           0       -0.380847   -0.299483   -0.359994
     10          6           0       -4.038641    0.238306   -0.290190
     11          1           0        3.693519    1.324319   -0.819949
     12          1           0        3.982199   -1.742571   -1.849581
     13          1           0        4.078919   -0.293370    1.213209
     14          1           0        4.573429    1.327249    1.488439
     15          1           0        3.028379    0.772171    2.161449
     16          1           0        1.553380    2.712930    0.911469
     17          1           0        2.013860    3.058400   -0.738715
     18          1           0        3.144750    3.431419    0.592437
     19          1           0        1.624649    0.605358   -1.469321
     20          1           0       -4.108660    1.661270   -1.797221
     21          1           0       -5.337821    0.426485   -1.843281
     22          1           0       -3.497030    1.907350    0.965097
     23          1           0       -2.347070    1.464880   -0.353472
     24          1           0       -2.721111   -0.300072    2.124239
     25          1           0       -1.459801    0.929297    1.853789
     26          1           0       -2.055941   -1.603000    0.166737
     27          1           0       -0.932670   -1.287980    2.679339
     28          1           0       -0.629062   -2.566710    1.637929
     29          1           0        0.828614   -0.380511    1.135169
     30          7           0       -0.619974   -1.600920    1.732789
     31          7           0       -4.655821    0.962666   -1.297411
     32          7           0        0.752176    0.136154    0.293463
     33          8           0        2.449119   -2.083501   -0.086500
     34          8           0       -0.559732   -0.291605   -1.562601
     35          8           0       -4.307721   -0.905650   -0.052263
     36          8           0        3.633269   -0.861394   -1.594861
 ---------------------------------------------------------------------

 SCF Done:  E(RHF) =  -853.571996152     A.U. after    2 cycles

 The electronic state is 1-A.
 Alpha  occ. eigenvalues --  -20.60271 -20.54651 -20.51884 -20.51807 -15.52205
 Alpha  occ. eigenvalues --  -15.50626 -15.49563 -11.39328 -11.35855 -11.35016
 Alpha  occ. eigenvalues --  -11.27791 -11.27617 -11.25578 -11.24918 -11.24823
 Alpha  occ. eigenvalues --  -11.23398 -11.23051  -1.54864  -1.47715  -1.46419
 Alpha  occ. eigenvalues --   -1.46254  -1.25618  -1.21254  -1.19473  -1.10369
 Alpha  occ. eigenvalues --   -1.08561  -0.99924  -0.95959  -0.93996  -0.88907
 Alpha  occ. eigenvalues --   -0.83956  -0.81202  -0.79739  -0.79608  -0.74597
 Alpha  occ. eigenvalues --   -0.72707  -0.71229  -0.70947  -0.70178  -0.68783
 Alpha  occ. eigenvalues --   -0.66597  -0.65880  -0.65225  -0.63618  -0.62598
 Alpha  occ. eigenvalues --   -0.61116  -0.60082  -0.59001  -0.58330  -0.56187
 Alpha  occ. eigenvalues --   -0.55950  -0.55633  -0.54395  -0.54285  -0.52380
 Alpha  occ. eigenvalues --   -0.50245  -0.49827  -0.49001  -0.48526  -0.47120
 Alpha  occ. eigenvalues --   -0.46357  -0.45477  -0.44599  -0.42560  -0.42350
 Alpha  occ. eigenvalues --   -0.40456
 Alpha virt. eigenvalues --    0.02881   0.03173   0.03449   0.03633   0.04092
 Alpha virt. eigenvalues --    0.04281   0.04955   0.05635   0.05668   0.07072
 Alpha virt. eigenvalues --    0.07190   0.07578   0.07985   0.08813   0.09025

 Mulliken charges:
               1
     1  C   -1.412095
     2  C   -0.142883
     3  C   -0.853985
     4  C    3.174356
     5  C   -2.360343
     6  C   -0.066867
     7  C   -0.635724
     8  C    0.071954
     9  C    0.918834
    10  C    0.316075
    11  H    0.317039
    12  H    0.409557
    13  H    0.162170
    14  H    0.061080
    15  H    0.204250
    16  H    0.209112
    17  H    0.206608
    18  H    0.160163
    19  H    0.094258
    20  H    0.095626
    21  H    0.114169
    22  H    0.244683
    23  H    0.416503
    24  H    0.100367
    25  H    0.220768
    26  H    0.123207
    27  H    0.273906
    28  H    0.179275
    29  H    0.452319
    30  N    0.558403
    31  N    0.696909
    32  N    1.460167
    33  O   -1.401861
    34  O   -1.530291
    35  O   -1.344320
    36  O   -1.493388
 Sum of Mulliken charges =  -0.00000

 Dipole moment (field-independent basis, Debye):
    X=              1.1138    Y=              2.7697    Z=              0.9562  Tot=              3.1347

 Test job not archived.
 1\1\GINC-SE455\SP\RHF\Aug-CC-pVDZ\C10H19N3O4\OHZDE\08-Apr-2025\0\\#t h
 f aug-cc-pvdz iop(5/13=1,5/36=2,99/5=2) pseudo=read geom=check guess=(
 read,tcheck) scf=(maxcycle=1)\\title\\0,1\C,0,-1.34285,-0.893055,0.671
 403\C,0,2.40326,2.68697,0.218982\C,0,2.96251,1.25736,0.0337613\C,0,2.6
 618,-1.05733,-0.661003\C,0,1.96983,0.243018,-0.481059\C,0,3.67683,0.74
 1037,1.26832\C,0,-3.00177,1.02977,0.443092\C,0,-2.1579,0.254239,1.3583
 8\C,0,-0.380846,-0.299483,-0.359993\C,0,-4.03864,0.238306,-0.290189\H,
 0,3.69352,1.32432,-0.819948\H,0,3.9822,-1.74257,-1.84958\H,0,4.07892,-

 Normal termination of Gaussian 16 at Tue Apr  8 22:10:16 2025.
