 Gaussian 16, Revision C.01,

 ----------------------------------------------------------------------
 #t hf aug-cc-pvdz symm=none int=(grid=ultrafine) guess=(read,tcheck) s
 table=(opt,rrhf)
 ----------------------------------------------------------------------
 -----
 title
 -----
 Symbolic Z-matrix:
 Charge =  0 Multiplicity = 1

 SCF Done:  E(RHF) =  -603.931398585     A.U. after   16 cycles
 Normal termination of Gaussian 16 at Tue Apr  8 19:26:10 2025.
 Gaussian 16:  ES64L-G16RevC.01  3-Jul-2019

 ----------------------------------------------------------------------
 #t hf aug-cc-pvdz iop(5/13=1,5/36=2,99/5=2) pseudo=read geom=check gue
 ss=(read,tcheck) scf=(maxcycle=1)
 ----------------------------------------------------------------------
 -----
 title
 -----
 Structure from the checkpoint file:  "ANI1ccx_1299_conf1_mol2.chk"
 Charge =  0 Multiplicity = 1

                         Standard orientation:
 ---------------------------------------------------------------------
 Center     Atomic      Atomic             Coordinates (Angstroms)
 Number     Number       Type             X           Y           Z
 ---------------------------------------------------------------------
      1          6           0       -1.585750   -0.878443   -0.007166
      2          6           0       -0.758125    0.321438   -0.043233
      3          6           0       -1.206738    1.570720   -0.093661
      4          6           0        0.923665    1.750949   -0.003731
      5          6           0        0.689287    0.433388    0.022721
      6          6           0        1.867030   -0.562855    0.053379
      7          1           0       -3.076799    0.249428    0.338435
      8          1           0       -2.238988    1.946601   -0.153093
      9          1           0        1.884902    2.252219    0.030088
     10          1           0        0.565539   -1.941050   -0.228178
     11          8           0       -2.881060   -0.731587    0.263490
     12          8           0       -1.068620   -1.966770   -0.208415
     13          8           0       -0.211169    2.473780   -0.094874
     14          8           0        1.553350   -1.846131   -0.084420
     15          8           0        3.018641   -0.219091    0.179581
 ---------------------------------------------------------------------

 SCF Done:  E(RHF) =  -604.518730307     A.U. after    2 cycles

 The electronic state is 1-A.
 Alpha  occ. eigenvalues --  -20.67541 -20.65605 -20.58080 -20.57962 -20.52817
 Alpha  occ. eigenvalues --  -11.45067 -11.40636 -11.36942 -11.34868 -11.30344
 Alpha  occ. eigenvalues --  -11.29079  -1.62047  -1.59305  -1.53525  -1.50094
 Alpha  occ. eigenvalues --   -1.44166  -1.17834  -1.08700  -0.95428  -0.90488
 Alpha  occ. eigenvalues --   -0.86527  -0.84126  -0.81533  -0.75413  -0.71489
 Alpha  occ. eigenvalues --   -0.70917  -0.68702  -0.67435  -0.67169  -0.65535
 Alpha  occ. eigenvalues --   -0.63492  -0.62071  -0.59551  -0.56586  -0.52612
 Alpha  occ. eigenvalues --   -0.49180  -0.47155  -0.45110  -0.44642  -0.39252
 Alpha virt. eigenvalues --    0.01237   0.03664   0.04309   0.04999   0.06334
 Alpha virt. eigenvalues --    0.07255   0.08202   0.08318   0.08606   0.09930
 Alpha virt. eigenvalues --    0.10479   0.11428   0.11566   0.12320   0.13054

 Mulliken charges:
               1
     1  C    1.897374
     2  C    1.141275
     3  C    0.353036
     4  C    0.498909
     5  C    0.567225
     6  C    1.755452
     7  H    0.447644
     8  H   -0.129289
     9  H   -0.158492
    10  H    0.683966
    11  O   -1.396412
    12  O   -1.429704
    13  O   -1.485997
    14  O   -1.411320
    15  O   -1.333666
 Sum of Mulliken charges =  -0.00000

 Dipole moment (field-independent basis, Debye):
    X=             -5.7313    Y=              5.1904    Z=             -0.0348  Tot=              7.7324

 Test job not archived.
 1\1\GINC-SE458\SP\RHF\Aug-CC-pVDZ\C6H4O5\OHZDE\08-Apr-2025\0\\#t hf au
 g-cc-pvdz iop(5/13=1,5/36=2,99/5=2) pseudo=read geom=check guess=(read
 ,tcheck) scf=(maxcycle=1)\\title\\0,1\C,0,-1.58575,-0.878444,-0.007166
 21\C,0,-0.758126,0.321438,-0.0432326\C,0,-1.20674,1.57072,-0.093661\C,
 0,0.923663,1.75095,-0.00373079\C,0,0.689286,0.433389,0.0227206\C,0,1.8
 6703,-0.562854,0.0533792\H,0,-3.0768,0.249427,0.338435\H,0,-2.23899,1.
 9466,-0.153093\H,0,1.8849,2.25222,0.030088\H,0,0.565539,-1.94105,-0.22
 8178\O,0,-2.88106,-0.731588,0.26349\O,0,-1.06862,-1.96677,-0.208415\O,

 Normal termination of Gaussian 16 at Tue Apr  8 19:26:18 2025.
