 Gaussian 16, Revision C.01,

 ----------------------------------------------------------------------
 #t hf aug-cc-pvdz symm=none int=(grid=ultrafine) guess=(read,tcheck) s
 table=(opt,rrhf)
 ----------------------------------------------------------------------
 -----
 title
 -----
 Symbolic Z-matrix:
 Charge =  0 Multiplicity = 1

 SCF Done:  E(RHF) =  -981.398242970     A.U. after   15 cycles
 Normal termination of Gaussian 16 at Tue Apr  8 22:27:04 2025.
 Gaussian 16:  ES64L-G16RevC.01  3-Jul-2019

 ----------------------------------------------------------------------
 #t hf aug-cc-pvdz iop(5/13=1,5/36=2,99/5=2) pseudo=read geom=check gue
 ss=(read,tcheck) scf=(maxcycle=1)
 ----------------------------------------------------------------------
 -----
 title
 -----
 Structure from the checkpoint file:  "ANI1ccx_69_conf10_mol1.chk"
 Charge =  0 Multiplicity = 1

                         Standard orientation:
 ---------------------------------------------------------------------
 Center     Atomic      Atomic             Coordinates (Angstroms)
 Number     Number       Type             X           Y           Z
 ---------------------------------------------------------------------
      1          6           0        2.675510   -0.758653    0.324490
      2          6           0       -2.426810    0.801727    1.198410
      3          6           0       -2.109430   -0.595038    1.645900
      4          6           0       -1.343130   -1.283230   -0.692040
      5          6           0       -0.988980   -1.308730    0.866873
      6          6           0       -3.237099    0.968973   -0.135095
      7          6           0        1.845951    1.193569   -1.149990
      8          6           0        3.006030    0.156333   -0.875354
      9          6           0        1.295369   -1.425251    0.370790
     10          6           0        1.858131    2.126359    0.024062
     11          1           0       -0.842205   -2.303330    1.251660
     12          1           0       -0.701076   -0.619132   -2.225780
     13          1           0       -5.070890    0.554590    0.891086
     14          1           0       -5.200730    0.878647   -0.814623
     15          1           0       -2.936489    1.281901    2.042360
     16          1           0       -1.391199    1.374580    0.967699
     17          1           0       -1.678130   -0.511656    2.649700
     18          1           0       -3.000860   -1.255369    1.758200
     19          1           0        0.365942    0.291820    0.983043
     20          1           0        3.005162    3.694508    0.755882
     21          1           0        3.260662    3.357568   -0.912362
     22          1           0        0.921621    0.659794   -1.237000
     23          1           0        1.946921    1.847739   -2.006500
     24          1           0        3.132600   -0.560593   -1.645850
     25          1           0        3.857160    0.685308   -0.630843
     26          1           0        2.777420   -0.120389    1.172350
     27          1           0        3.866289   -2.361792    1.351260
     28          1           0        3.483279   -2.469572   -0.290887
     29          7           0       -4.624070    0.835428    0.043880
     30          7           0        0.266535   -0.727348    0.990450
     31          7           0        3.783969   -1.862902    0.420285
     32          7           0        3.002331    2.978218    0.057968
     33          8           0       -2.870759    1.283771   -1.241190
     34          8           0        1.063659   -2.537241   -0.079043
     35          8           0        1.069351    2.114339    1.012670
     36          8           0       -2.026101   -1.945460   -1.430480
     37          8           0       -0.517410   -0.446002   -1.276420
 ---------------------------------------------------------------------

 SCF Done:  E(RHF) =  -982.379880617     A.U. after    2 cycles

 The electronic state is 1-A.
 Alpha  occ. eigenvalues --  -20.58368 -20.54558 -20.52327 -20.51901 -20.51627
 Alpha  occ. eigenvalues --  -15.54979 -15.51921 -15.51591 -15.49420 -11.39379
 Alpha  occ. eigenvalues --  -11.37974 -11.36931 -11.36034 -11.29414 -11.28789
 Alpha  occ. eigenvalues --  -11.27367 -11.26414 -11.25696 -11.25478  -1.56540
 Alpha  occ. eigenvalues --   -1.46997  -1.46914  -1.46132  -1.43382  -1.25921
 Alpha  occ. eigenvalues --   -1.22204  -1.19715  -1.17144  -1.09386  -1.08245
 Alpha  occ. eigenvalues --   -1.00315  -0.97010  -0.90127  -0.88461  -0.83087
 Alpha  occ. eigenvalues --   -0.82420  -0.81233  -0.79974  -0.75153  -0.74047
 Alpha  occ. eigenvalues --   -0.73494  -0.72818  -0.70967  -0.69153  -0.68469
 Alpha  occ. eigenvalues --   -0.67312  -0.66150  -0.65516  -0.64547  -0.63430
 Alpha  occ. eigenvalues --   -0.62649  -0.61756  -0.61073  -0.59838  -0.58736
 Alpha  occ. eigenvalues --   -0.58365  -0.57526  -0.55819  -0.54582  -0.53385
 Alpha  occ. eigenvalues --   -0.52327  -0.51450  -0.51172  -0.50216  -0.46610
 Alpha  occ. eigenvalues --   -0.46525  -0.45788  -0.44729  -0.44291  -0.43319
 Alpha  occ. eigenvalues --   -0.42533  -0.42320  -0.40204
 Alpha virt. eigenvalues --    0.02102   0.02780   0.03476   0.03800   0.04367
 Alpha virt. eigenvalues --    0.04547   0.05124   0.05710   0.06095   0.06535
 Alpha virt. eigenvalues --    0.07055   0.07634   0.08174   0.08261   0.08845

 Mulliken charges:
               1
     1  C   -1.873167
     2  C   -0.557369
     3  C   -0.094136
     4  C    3.489684
     5  C   -1.928249
     6  C    0.213387
     7  C    0.314567
     8  C    0.299375
     9  C    1.082071
    10  C    0.272006
    11  H   -0.183675
    12  H    0.450268
    13  H   -0.034044
    14  H    0.086981
    15  H    0.093365
    16  H    0.400010
    17  H    0.242939
    18  H    0.170559
    19  H   -0.033183
    20  H    0.026362
    21  H    0.221023
    22  H   -0.020801
    23  H    0.073083
    24  H    0.133891
    25  H    0.229997
    26  H   -0.019070
    27  H    0.134427
    28  H    0.207923
    29  N    0.980713
    30  N    2.418602
    31  N    0.613062
    32  N    0.833452
    33  O   -1.429262
    34  O   -1.658484
    35  O   -1.641679
    36  O   -1.800756
    37  O   -1.713872
 Sum of Mulliken charges =  -0.00000

 Dipole moment (field-independent basis, Debye):
    X=              0.5873    Y=              4.1063    Z=              1.8672  Tot=              4.5489

 Test job not archived.
 1\1\GINC-SE328\SP\RHF\Aug-CC-pVDZ\C10H18N4O5\OHZDE\08-Apr-2025\0\\#t h
 f aug-cc-pvdz iop(5/13=1,5/36=2,99/5=2) pseudo=read geom=check guess=(
 read,tcheck) scf=(maxcycle=1)\\title\\0,1\C,0,2.67551,-0.758651,0.3244
 9\C,0,-2.42681,0.801726,1.19841\C,0,-2.10943,-0.595038,1.6459\C,0,-1.3
 4313,-1.28323,-0.69204\C,0,-0.98898,-1.30873,0.866873\C,0,-3.2371,0.96
 8972,-0.135095\C,0,1.84595,1.19357,-1.14999\C,0,3.00603,0.156335,-0.87
 5354\C,0,1.29537,-1.42525,0.37079\C,0,1.85813,2.12636,0.0240627\H,0,-0
 .842204,-2.30333,1.25166\H,0,-0.701076,-0.619132,-2.22578\H,0,-5.07089

 Normal termination of Gaussian 16 at Tue Apr  8 22:28:18 2025.
