 Gaussian 16, Revision C.01,

 ----------------------------------------------------------------------
 #t hf aug-cc-pvdz symm=none int=(grid=ultrafine) guess=(read,tcheck) s
 table=(opt,rrhf)
 ----------------------------------------------------------------------
 -----
 title
 -----
 Symbolic Z-matrix:
 Charge =  0 Multiplicity = 1

 SCF Done:  E(RHF) =  -504.964370929     A.U. after   16 cycles
 Normal termination of Gaussian 16 at Tue Apr  8 21:40:50 2025.
 Gaussian 16:  ES64L-G16RevC.01  3-Jul-2019

 ----------------------------------------------------------------------
 #t hf aug-cc-pvdz iop(5/13=1,5/36=2,99/5=2) pseudo=read geom=check gue
 ss=(read,tcheck) scf=(maxcycle=1)
 ----------------------------------------------------------------------
 -----
 title
 -----
 Structure from the checkpoint file:  "ANI1ccx_471_conf48_mol1.chk"
 Charge =  0 Multiplicity = 1

                         Standard orientation:
 ---------------------------------------------------------------------
 Center     Atomic      Atomic             Coordinates (Angstroms)
 Number     Number       Type             X           Y           Z
 ---------------------------------------------------------------------
      1          6           0        1.395980   -0.172904   -0.062465
      2          6           0       -0.659526    0.777614   -0.006294
      3          1           0       -2.262390   -1.873808    0.136256
      4          7           0       -0.872725   -0.562819    0.306622
      5          8           0       -1.891210   -1.211588   -0.268968
      6          8           0        0.543432   -1.154548    0.195445
      7          8           0        2.588820   -0.118318   -0.296614
      8          8           0        0.785131    1.067322    0.300753
      9          8           0       -1.532080    1.690292   -0.164372
 ---------------------------------------------------------------------

 SCF Done:  E(RHF) =  -505.443899230     A.U. after    2 cycles

 The electronic state is 1-A.
 Alpha  occ. eigenvalues --  -20.70855 -20.68528 -20.67394 -20.60704 -20.59094
 Alpha  occ. eigenvalues --  -15.74331 -11.50729 -11.50478  -1.67803  -1.62789
 Alpha  occ. eigenvalues --   -1.53508  -1.51231  -1.47274  -1.24787  -0.95852
 Alpha  occ. eigenvalues --   -0.92430  -0.85904  -0.80531  -0.75679  -0.73671
 Alpha  occ. eigenvalues --   -0.69970  -0.69068  -0.65390  -0.62039  -0.60564
 Alpha  occ. eigenvalues --   -0.57362  -0.53722  -0.50627  -0.50057  -0.48330
 Alpha virt. eigenvalues --    0.01780   0.04753   0.07659   0.08114   0.08513
 Alpha virt. eigenvalues --    0.09674   0.10507   0.10984   0.11489   0.12935
 Alpha virt. eigenvalues --    0.13966   0.14678   0.15005   0.17584   0.19066

 Mulliken charges:
               1
     1  C    2.127950
     2  C    1.309866
     3  H    0.180489
     4  N    1.630714
     5  O   -0.975607
     6  O   -1.055140
     7  O   -1.033853
     8  O   -1.131372
     9  O   -1.053048
 Sum of Mulliken charges =  -0.00000

 Dipole moment (field-independent basis, Debye):
    X=             -2.7605    Y=             -3.6607    Z=              0.6965  Tot=              4.6375

 Test job not archived.
 1\1\GINC-SE453\SP\RHF\Aug-CC-pVDZ\C2H1N1O5\OHZDE\08-Apr-2025\0\\#t hf
 aug-cc-pvdz iop(5/13=1,5/36=2,99/5=2) pseudo=read geom=check guess=(re
 ad,tcheck) scf=(maxcycle=1)\\title\\0,1\C,0,1.39598,-0.172905,-0.06246
 48\C,0,-0.659526,0.777612,-0.00629381\H,0,-2.26239,-1.87381,0.136256\N
 ,0,-0.872725,-0.562821,0.306622\O,0,-1.89121,-1.21159,-0.268968\O,0,0.
 543432,-1.15455,0.195445\O,0,2.58882,-0.118319,-0.296614\O,0,0.785131,
 1.06732,0.300753\O,0,-1.53208,1.69029,-0.164372\\Version=ES64L-G16RevC
 .01\State=1-A\HF=-505.4438992\RMSD=1.079e-02\Dipole=-1.086071,-1.44022

 Normal termination of Gaussian 16 at Tue Apr  8 21:40:54 2025.
