 Gaussian 16, Revision C.01,

 ----------------------------------------------------------------------
 #t hf aug-cc-pvdz symm=none int=(grid=ultrafine) guess=(read,tcheck) s
 table=(opt,rrhf)
 ----------------------------------------------------------------------
 -----
 title
 -----
 Symbolic Z-matrix:
 Charge =  0 Multiplicity = 1

 SCF Done:  E(RHF) =  -445.280902921     A.U. after   15 cycles
 Normal termination of Gaussian 16 at Tue Apr  8 21:57:10 2025.
 Gaussian 16:  ES64L-G16RevC.01  3-Jul-2019

 ----------------------------------------------------------------------
 #t hf aug-cc-pvdz iop(5/13=1,5/36=2,99/5=2) pseudo=read geom=check gue
 ss=(read,tcheck) scf=(maxcycle=1)
 ----------------------------------------------------------------------
 -----
 title
 -----
 Structure from the checkpoint file:  "ANI1ccx_856_conf2_mol1.chk"
 Charge =  0 Multiplicity = 1

                         Standard orientation:
 ---------------------------------------------------------------------
 Center     Atomic      Atomic             Coordinates (Angstroms)
 Number     Number       Type             X           Y           Z
 ---------------------------------------------------------------------
      1          6           0        1.381240   -0.449176    0.003045
      2          6           0        1.491049    1.071741    0.018809
      3          6           0       -0.565583    0.783711   -0.018308
      4          6           0       -1.142520   -1.281070    0.001072
      5          1           0        2.475619    1.509541    0.034431
      6          1           0       -1.144190   -2.358680    0.185726
      7          7           0        0.438035    1.766611   -0.001543
      8          7           0       -1.860080    0.771771    0.023928
      9          7           0       -2.242460   -0.559723   -0.020258
     10          7           0       -0.055743   -0.496445   -0.028897
     11          8           0        2.215650   -1.284699   -0.007560
 ---------------------------------------------------------------------

 SCF Done:  E(RHF) =  -445.717472512     A.U. after    2 cycles

 The electronic state is 1-A.
 Alpha  occ. eigenvalues --  -20.62155 -15.60608 -15.58847 -15.55772 -15.55139
 Alpha  occ. eigenvalues --  -11.45080 -11.36566 -11.35558 -11.34921  -1.56958
 Alpha  occ. eigenvalues --   -1.45142  -1.34995  -1.26609  -1.13952  -1.04173
 Alpha  occ. eigenvalues --   -0.94471  -0.89699  -0.87273  -0.76540  -0.75201
 Alpha  occ. eigenvalues --   -0.74131  -0.71039  -0.67687  -0.62191  -0.60203
 Alpha  occ. eigenvalues --   -0.57974  -0.57210  -0.51707  -0.50287  -0.49510
 Alpha  occ. eigenvalues --   -0.40938
 Alpha virt. eigenvalues --   -0.02088   0.02743   0.03800   0.06762   0.06836
 Alpha virt. eigenvalues --    0.07211   0.09077   0.09184   0.10718   0.11576
 Alpha virt. eigenvalues --    0.12169   0.12252   0.12914   0.13292   0.14261

 Mulliken charges:
               1
     1  C    0.980288
     2  C   -0.351709
     3  C   -1.278481
     4  C   -0.357254
     5  H   -0.006869
     6  H   -0.044420
     7  N    0.957769
     8  N    0.408408
     9  N    0.179973
    10  N    0.663638
    11  O   -1.151343
 Sum of Mulliken charges =  -0.00000

 Dipole moment (field-independent basis, Debye):
    X=              4.9309    Y=             -1.6660    Z=              0.1903  Tot=              5.2082

 Test job not archived.
 1\1\GINC-SE454\SP\RHF\Aug-CC-pVDZ\C4H2N4O1\OHZDE\08-Apr-2025\0\\#t hf
 aug-cc-pvdz iop(5/13=1,5/36=2,99/5=2) pseudo=read geom=check guess=(re
 ad,tcheck) scf=(maxcycle=1)\\title\\0,1\C,0,1.38124,-0.449177,0.003045
 34\C,0,1.49105,1.07174,0.0188086\C,0,-0.565583,0.783711,-0.0183076\C,0
 ,-1.14252,-1.28107,0.00107202\H,0,2.47562,1.50954,0.0344314\H,0,-1.144
 19,-2.35868,0.185726\N,0,0.438036,1.76661,-0.0015426\N,0,-1.86008,0.77
 1771,0.0239278\N,0,-2.24246,-0.559723,-0.0202578\N,0,-0.0557424,-0.496
 446,-0.0288972\O,0,2.21565,-1.2847,-0.00755985\\Version=ES64L-G16RevC.

 Normal termination of Gaussian 16 at Tue Apr  8 21:57:15 2025.
