 Gaussian 16, Revision C.01,

 ----------------------------------------------------------------------
 #t hf aug-cc-pvdz symm=none int=(grid=ultrafine) guess=(read,tcheck) s
 table=(opt,rrhf)
 ----------------------------------------------------------------------
 -----
 title
 -----
 Symbolic Z-matrix:
 Charge =  0 Multiplicity = 1

 SCF Done:  E(RHF) =  -456.277054403     A.U. after   11 cycles
 Normal termination of Gaussian 16 at Tue Apr  8 21:09:47 2025.
 Gaussian 16:  ES64L-G16RevC.01  3-Jul-2019

 ----------------------------------------------------------------------
 #t hf aug-cc-pvdz iop(5/13=1,5/36=2,99/5=2) pseudo=read geom=check gue
 ss=(read,tcheck) scf=(maxcycle=1)
 ----------------------------------------------------------------------
 -----
 title
 -----
 Structure from the checkpoint file:  "ANI1ccx_1844_conf87_mol1.chk"
 Charge =  0 Multiplicity = 1

                         Standard orientation:
 ---------------------------------------------------------------------
 Center     Atomic      Atomic             Coordinates (Angstroms)
 Number     Number       Type             X           Y           Z
 ---------------------------------------------------------------------
      1          1           0       -1.166877   -1.828783    1.587010
      2          1           0       -2.104182    0.796559   -0.182402
      3          1           0       -3.367871    0.122548   -0.815127
      4          1           0        1.824417    1.199113    0.375221
      5          1           0        1.193426    2.125552    1.447440
      6          1           0       -0.186997    2.038569   -0.227310
      7          1           0       -1.958388   -1.393474    0.348713
      8          1           0       -1.399666    2.940737   -0.264392
      9          1           0        1.368245   -2.902678   -0.729540
     10          1           0        0.109784   -2.123680   -0.292949
     11          1           0        2.234831   -0.849417   -0.085342
     12          1           0        3.224730    0.032565   -0.793579
     13          8           0        1.322776    2.066392    0.503292
     14          8           0        1.022664   -1.994749   -0.737087
     15          8           0       -2.805801    0.123020   -0.006610
     16          8           0       -1.089994    2.084617   -0.602443
     17          8           0       -1.368056   -2.102793    0.669839
     18          8           0        2.946980   -0.196189    0.127040
 ---------------------------------------------------------------------

 SCF Done:  E(RHF) =  -456.750104901     A.U. after    2 cycles

 The electronic state is 1-A.
 Alpha  occ. eigenvalues --  -20.56196 -20.55826 -20.55525 -20.55335 -20.55087
 Alpha  occ. eigenvalues --  -20.54654  -1.45348  -1.44133  -1.43893  -1.42777
 Alpha  occ. eigenvalues --   -1.41986  -1.41337  -0.71401  -0.71213  -0.70597
 Alpha  occ. eigenvalues --   -0.70430  -0.69663  -0.69190  -0.62496  -0.61093
 Alpha  occ. eigenvalues --   -0.60250  -0.57231  -0.56140  -0.54555  -0.50165
 Alpha  occ. eigenvalues --   -0.49762  -0.49419  -0.49092  -0.48923  -0.48426
 Alpha virt. eigenvalues --    0.03252   0.04159   0.04536   0.05009   0.06363
 Alpha virt. eigenvalues --    0.07111   0.08182   0.09158   0.09840   0.10154
 Alpha virt. eigenvalues --    0.10805   0.11216   0.17505   0.18472   0.18994

 Mulliken charges:
               1
     1  H    0.407412
     2  H    0.806090
     3  H    0.335298
     4  H    0.724236
     5  H    0.345754
     6  H    0.752061
     7  H    0.686793
     8  H    0.329263
     9  H    0.370195
    10  H    0.718251
    11  H    0.721112
    12  H    0.369677
    13  O   -1.117896
    14  O   -1.079573
    15  O   -1.053089
    16  O   -1.106755
    17  O   -1.149230
    18  O   -1.059599
 Sum of Mulliken charges =  -0.00000

 Dipole moment (field-independent basis, Debye):
    X=             -0.2783    Y=              0.4652    Z=              0.7729  Tot=              0.9440

 Test job not archived.
 1\1\GINC-SE083\SP\RHF\Aug-CC-pVDZ\H12O6\OHZDE\08-Apr-2025\0\\#t hf aug
 -cc-pvdz iop(5/13=1,5/36=2,99/5=2) pseudo=read geom=check guess=(read,
 tcheck) scf=(maxcycle=1)\\title\\0,1\H,0,-1.16688,-1.82878,1.58701\H,0
 ,-2.10418,0.796564,-0.182402\H,0,-3.36787,0.122555,-0.815127\H,0,1.824
 42,1.19911,0.375221\H,0,1.19343,2.12555,1.44744\H,0,-0.186993,2.03857,
 -0.22731\H,0,-1.95839,-1.39347,0.348713\H,0,-1.39966,2.94074,-0.264392
 \H,0,1.36824,-2.90268,-0.72954\H,0,0.10978,-2.12368,-0.292949\H,0,2.23
 483,-0.849421,-0.0853423\H,0,3.22473,0.0325589,-0.793579\O,0,1.32278,2

 Normal termination of Gaussian 16 at Tue Apr  8 21:09:53 2025.
