 Gaussian 16, Revision C.01,

 ----------------------------------------------------------------------
 #t hf aug-cc-pvdz symm=none int=(grid=ultrafine) guess=(read,tcheck) s
 table=(opt,rrhf)
 ----------------------------------------------------------------------
 -----
 title
 -----
 Symbolic Z-matrix:
 Charge =  0 Multiplicity = 1

 SCF Done:  E(RHF) =  -485.198254445     A.U. after   15 cycles
 Normal termination of Gaussian 16 at Tue Apr  8 21:42:55 2025.
 Gaussian 16:  ES64L-G16RevC.01  3-Jul-2019

 ----------------------------------------------------------------------
 #t hf aug-cc-pvdz iop(5/13=1,5/36=2,99/5=2) pseudo=read geom=check gue
 ss=(read,tcheck) scf=(maxcycle=1)
 ----------------------------------------------------------------------
 -----
 title
 -----
 Structure from the checkpoint file:  "ANI1ccx_484_conf8_mol1.chk"
 Charge =  0 Multiplicity = 1

                         Standard orientation:
 ---------------------------------------------------------------------
 Center     Atomic      Atomic             Coordinates (Angstroms)
 Number     Number       Type             X           Y           Z
 ---------------------------------------------------------------------
      1          6           0        1.395380    0.078241   -0.034763
      2          6           0       -0.735864    0.737923   -0.077687
      3          1           0       -1.772819   -0.784280    1.165820
      4          1           0       -2.549878   -1.435212   -0.203241
      5          7           0       -1.720368   -1.340002    0.298451
      6          7           0       -0.598892   -0.588626   -0.402221
      7          8           0        0.571567   -1.080959   -0.186010
      8          8           0        2.606661   -0.130218    0.162586
      9          8           0        0.610046    1.170151    0.104211
     10          8           0       -1.713221    1.393888   -0.025974
 ---------------------------------------------------------------------

 SCF Done:  E(RHF) =  -485.665926735     A.U. after    2 cycles

 The electronic state is 1-A.
 Alpha  occ. eigenvalues --  -20.69809 -20.68315 -20.60480 -20.59140 -15.66236
 Alpha  occ. eigenvalues --  -15.58603 -11.51401 -11.48526  -1.71068  -1.60286
 Alpha  occ. eigenvalues --   -1.55655  -1.49673  -1.29385  -1.14206  -0.97272
 Alpha  occ. eigenvalues --   -0.93957  -0.83620  -0.80323  -0.75192  -0.73388
 Alpha  occ. eigenvalues --   -0.71953  -0.69270  -0.66385  -0.64895  -0.62645
 Alpha  occ. eigenvalues --   -0.54670  -0.53665  -0.51990  -0.50248  -0.45591
 Alpha virt. eigenvalues --    0.02466   0.05360   0.07359   0.08193   0.08361
 Alpha virt. eigenvalues --    0.09125   0.09872   0.10886   0.11200   0.11733
 Alpha virt. eigenvalues --    0.12619   0.15413   0.16727   0.17023   0.18215

 Mulliken charges:
               1
     1  C    2.061429
     2  C    1.255222
     3  H    0.156895
     4  H    0.121771
     5  N    0.141592
     6  N    0.904568
     7  O   -1.376188
     8  O   -1.116497
     9  O   -1.096077
    10  O   -1.052713
 Sum of Mulliken charges =  -0.00000

 Dipole moment (field-independent basis, Debye):
    X=             -3.0399    Y=             -0.2609    Z=              0.2715  Tot=              3.0631

 Test job not archived.
 1\1\GINC-SE186\SP\RHF\Aug-CC-pVDZ\C2H2N2O4\OHZDE\08-Apr-2025\0\\#t hf
 aug-cc-pvdz iop(5/13=1,5/36=2,99/5=2) pseudo=read geom=check guess=(re
 ad,tcheck) scf=(maxcycle=1)\\title\\0,1\C,0,1.39538,0.0782394,-0.03476
 27\C,0,-0.735864,0.737923,-0.0776869\H,0,-1.77282,-0.784278,1.16582\H,
 0,-2.54988,-1.43521,-0.203241\N,0,-1.72037,-1.34,0.298451\N,0,-0.59889
 3,-0.588626,-0.402221\O,0,0.571565,-1.08096,-0.18601\O,0,2.60666,-0.13
 0221,0.162586\O,0,0.610047,1.17015,0.104211\O,0,-1.71322,1.39389,-0.02
 59739\\Version=ES64L-G16RevC.01\State=1-A\HF=-485.6659267\RMSD=1.340e-

 Normal termination of Gaussian 16 at Tue Apr  8 21:43:00 2025.
