 Gaussian 16, Revision C.01,

 ----------------------------------------------------------------------
 #t hf aug-cc-pvdz symm=none int=(grid=ultrafine) guess=(read,tcheck) s
 table=(opt,rrhf)
 ----------------------------------------------------------------------
 -----
 title
 -----
 Symbolic Z-matrix:
 Charge =  0 Multiplicity = 1

 SCF Done:  E(RHF) =  -465.441696044     A.U. after   14 cycles
 Normal termination of Gaussian 16 at Tue Apr  8 21:43:56 2025.
 Gaussian 16:  ES64L-G16RevC.01  3-Jul-2019

 ----------------------------------------------------------------------
 #t hf aug-cc-pvdz iop(5/13=1,5/36=2,99/5=2) pseudo=read geom=check gue
 ss=(read,tcheck) scf=(maxcycle=1)
 ----------------------------------------------------------------------
 -----
 title
 -----
 Structure from the checkpoint file:  "ANI1ccx_503_conf1_mol1.chk"
 Charge =  0 Multiplicity = 1

                         Standard orientation:
 ---------------------------------------------------------------------
 Center     Atomic      Atomic             Coordinates (Angstroms)
 Number     Number       Type             X           Y           Z
 ---------------------------------------------------------------------
      1          6           0        1.408810    0.022505   -0.044752
      2          6           0       -0.743408    0.773557    0.116304
      3          1           0       -2.333070   -1.627958    0.204655
      4          1           0        0.876808   -1.841670    0.568336
      5          1           0        0.843202    2.075900   -0.324013
      6          7           0       -0.754157   -0.656998    0.388092
      7          7           0        0.537026   -1.064139    0.076838
      8          7           0        0.576056    1.121541   -0.124595
      9          8           0       -1.680150   -1.320008   -0.397457
     10          8           0        2.616050   -0.098637   -0.060219
     11          8           0       -1.672379    1.520462    0.050097
 ---------------------------------------------------------------------

 SCF Done:  E(RHF) =  -465.897816847     A.U. after    2 cycles

 The electronic state is 1-A.
 Alpha  occ. eigenvalues --  -20.62586 -20.56411 -20.54893 -15.64727 -15.59133
 Alpha  occ. eigenvalues --  -15.58192 -11.43508 -11.43265  -1.57232  -1.51962
 Alpha  occ. eigenvalues --   -1.50114  -1.38540  -1.27058  -1.12500  -0.95593
 Alpha  occ. eigenvalues --   -0.91921  -0.82528  -0.80539  -0.75865  -0.72663
 Alpha  occ. eigenvalues --   -0.69481  -0.68693  -0.66306  -0.60663  -0.57071
 Alpha  occ. eigenvalues --   -0.54972  -0.50069  -0.47753  -0.47199  -0.44350
 Alpha virt. eigenvalues --    0.02725   0.04402   0.05000   0.08719   0.09163
 Alpha virt. eigenvalues --    0.09734   0.10149   0.10757   0.11351   0.12164
 Alpha virt. eigenvalues --    0.13463   0.14305   0.15345   0.15942   0.17726

 Mulliken charges:
               1
     1  C    0.591879
     2  C    0.755402
     3  H    0.256439
     4  H    0.142038
     5  H    0.130951
     6  N    0.739331
     7  N    0.222543
     8  N    0.458596
     9  O   -1.100583
    10  O   -1.095793
    11  O   -1.100803
 Sum of Mulliken charges =  -0.00000

 Dipole moment (field-independent basis, Debye):
    X=             -1.0177    Y=             -0.9493    Z=              1.2883  Tot=              1.8965

 Test job not archived.
 1\1\GINC-SE393\SP\RHF\Aug-CC-pVDZ\C2H3N3O3\OHZDE\08-Apr-2025\0\\#t hf
 aug-cc-pvdz iop(5/13=1,5/36=2,99/5=2) pseudo=read geom=check guess=(re
 ad,tcheck) scf=(maxcycle=1)\\title\\0,1\C,0,1.40881,0.022505,-0.044751
 8\C,0,-0.743409,0.773556,0.116304\H,0,-2.33307,-1.62796,0.204655\H,0,0
 .876808,-1.84167,0.568336\H,0,0.843201,2.0759,-0.324013\N,0,-0.754157,
 -0.656999,0.388092\N,0,0.537026,-1.06414,0.0768379\N,0,0.576055,1.1215
 4,-0.124595\O,0,-1.68015,-1.32001,-0.397457\O,0,2.61605,-0.098637,-0.0
 60219\O,0,-1.67238,1.52046,0.0500973\\Version=ES64L-G16RevC.01\State=1

 Normal termination of Gaussian 16 at Tue Apr  8 21:44:01 2025.
