 Gaussian 16, Revision C.01,

 ----------------------------------------------------------------------
 #t hf aug-cc-pvdz symm=none int=(grid=ultrafine) guess=(read,tcheck) s
 table=(opt,rrhf)
 ----------------------------------------------------------------------
 -----
 title
 -----
 Symbolic Z-matrix:
 Charge =  0 Multiplicity = 1

 SCF Done:  E(RHF) =  -943.077258792     A.U. after   15 cycles
 Normal termination of Gaussian 16 at Tue Apr  8 20:09:11 2025.
 Gaussian 16:  ES64L-G16RevC.01  3-Jul-2019

 ----------------------------------------------------------------------
 #t hf aug-cc-pvdz iop(5/13=1,5/36=2,99/5=2) pseudo=read geom=check gue
 ss=(read,tcheck) scf=(maxcycle=1)
 ----------------------------------------------------------------------
 -----
 title
 -----
 Structure from the checkpoint file:  "ANI1ccx_1569_conf10_mol2.chk"
 Charge =  0 Multiplicity = 1

                         Standard orientation:
 ---------------------------------------------------------------------
 Center     Atomic      Atomic             Coordinates (Angstroms)
 Number     Number       Type             X           Y           Z
 ---------------------------------------------------------------------
      1          6           0        2.308808   -1.052903    0.351813
      2          6           0        0.860536   -1.239952   -0.060954
      3          6           0        2.900770    0.200864   -0.290201
      4          6           0        2.082741    1.417997   -0.056060
      5          6           0       -1.476901   -0.394026    0.503123
      6          6           0       -2.404922   -1.637698    0.215660
      7          6           0       -1.685380    0.589914   -0.625429
      8          6           0       -1.484028    2.010241   -0.121352
      9          1           0       -0.957125   -2.464030   -0.590392
     10          1           0       -1.925486    3.739382   -0.459467
     11          1           0       -2.692630    0.624887   -1.069751
     12          1           0       -0.955576    0.462483   -1.436301
     13          1           0       -1.933510    0.084714    1.388949
     14          1           0        0.283717   -0.168976    1.569639
     15          1           0        3.038860    0.113115   -1.394161
     16          1           0        3.944320    0.309914    0.066762
     17          1           0        2.428828   -0.986266    1.434229
     18          1           0        2.862537   -2.389794   -1.044201
     19          1           0        2.711846   -3.083304    0.391025
     20          1           0        1.016102    2.247638    1.217159
     21          7           0        3.071697   -2.255494   -0.060043
     22          7           0       -0.059111   -0.711602    0.791362
     23          8           0       -2.126337    2.891812   -0.875469
     24          8           0        0.496219   -1.814351   -1.082941
     25          8           0        1.744182    2.219117   -0.864079
     26          8           0        1.690771    1.514457    1.245589
     27          8           0       -3.594542   -1.584026    0.497063
     28          8           0       -0.804766    2.363730    0.827255
     29          8           0       -1.845494   -2.726578   -0.333966
 ---------------------------------------------------------------------

 SCF Done:  E(RHF) =  -944.008389746     A.U. after    2 cycles

 The electronic state is 1-A.
 Alpha  occ. eigenvalues --  -20.63383 -20.60537 -20.58908 -20.57161 -20.56277
 Alpha  occ. eigenvalues --  -20.56077 -20.53620 -15.57095 -15.51742 -11.43271
 Alpha  occ. eigenvalues --  -11.41171 -11.40475 -11.40440 -11.33908 -11.32110
 Alpha  occ. eigenvalues --  -11.29287 -11.28673  -1.59329  -1.56725  -1.54199
 Alpha  occ. eigenvalues --   -1.51321  -1.48667  -1.47219  -1.44574  -1.28639
 Alpha  occ. eigenvalues --   -1.22493  -1.11986  -1.08587  -1.00084  -0.94477
 Alpha  occ. eigenvalues --   -0.87828  -0.85206  -0.83231  -0.82230  -0.78386
 Alpha  occ. eigenvalues --   -0.77554  -0.75858  -0.73753  -0.72563  -0.72314
 Alpha  occ. eigenvalues --   -0.70596  -0.69961  -0.68464  -0.66372  -0.66159
 Alpha  occ. eigenvalues --   -0.65019  -0.64389  -0.63156  -0.61983  -0.61513
 Alpha  occ. eigenvalues --   -0.60019  -0.59080  -0.57332  -0.56888  -0.55823
 Alpha  occ. eigenvalues --   -0.55007  -0.51015  -0.50373  -0.49447  -0.48126
 Alpha  occ. eigenvalues --   -0.47972  -0.46541  -0.46452  -0.45950  -0.43222
 Alpha virt. eigenvalues --    0.02812   0.03091   0.03869   0.03975   0.04853
 Alpha virt. eigenvalues --    0.05064   0.05656   0.05906   0.06778   0.07629
 Alpha virt. eigenvalues --    0.08196   0.08793   0.09807   0.10127   0.10861

 Mulliken charges:
               1
     1  C   -1.840450
     2  C    0.335806
     3  C   -0.195884
     4  C    2.529369
     5  C   -0.892784
     6  C    2.360467
     7  C   -0.545142
     8  C    2.504065
     9  H    0.559191
    10  H    0.366316
    11  H    0.139198
    12  H    0.222006
    13  H    0.165291
    14  H    0.366238
    15  H    0.227582
    16  H    0.327167
    17  H    0.039575
    18  H    0.281128
    19  H    0.153818
    20  H    0.704005
    21  N    0.793498
    22  N    1.600800
    23  O   -1.381160
    24  O   -1.557144
    25  O   -1.385235
    26  O   -1.614115
    27  O   -1.391853
    28  O   -1.427350
    29  O   -1.444402
 Sum of Mulliken charges =  -0.00000

 Dipole moment (field-independent basis, Debye):
    X=              3.1723    Y=              2.7336    Z=              1.1968  Tot=              4.3553

 Test job not archived.
 1\1\GINC-SE340\SP\RHF\Aug-CC-pVDZ\C8H12N2O7\OHZDE\08-Apr-2025\0\\#t hf
  aug-cc-pvdz iop(5/13=1,5/36=2,99/5=2) pseudo=read geom=check guess=(r
 ead,tcheck) scf=(maxcycle=1)\\title\\0,1\C,0,2.30881,-1.0529,0.351814\
 C,0,0.860538,-1.23995,-0.0609534\C,0,2.90077,0.200868,-0.2902\C,0,2.08
 274,1.418,-0.056059\C,0,-1.4769,-0.394027,0.503124\C,0,-2.40492,-1.637
 7,0.215661\C,0,-1.68538,0.589913,-0.625428\C,0,-1.48403,2.01024,-0.121
 351\H,0,-0.957122,-2.46403,-0.590391\H,0,-1.92549,3.73938,-0.459466\H,
 0,-2.69263,0.624884,-1.06975\H,0,-0.955576,0.462483,-1.4363\H,0,-1.933

 Normal termination of Gaussian 16 at Tue Apr  8 20:09:45 2025.
