 Gaussian 16, Revision C.01,

 ----------------------------------------------------------------------
 #t hf aug-cc-pvdz symm=none int=(grid=ultrafine) guess=(read,tcheck) s
 table=(opt,rrhf)
 ----------------------------------------------------------------------
 -----
 title
 -----
 Symbolic Z-matrix:
 Charge =  0 Multiplicity = 1

 SCF Done:  E(RHF) =  -911.542346939     A.U. after   14 cycles
 Normal termination of Gaussian 16 at Tue Apr  8 21:39:20 2025.
 Gaussian 16:  ES64L-G16RevC.01  3-Jul-2019

 ----------------------------------------------------------------------
 #t hf aug-cc-pvdz iop(5/13=1,5/36=2,99/5=2) pseudo=read geom=check gue
 ss=(read,tcheck) scf=(maxcycle=1)
 ----------------------------------------------------------------------
 -----
 title
 -----
 Structure from the checkpoint file:  "ANI1ccx_191_conf11_mol1.chk"
 Charge =  0 Multiplicity = 1

                         Standard orientation:
 ---------------------------------------------------------------------
 Center     Atomic      Atomic             Coordinates (Angstroms)
 Number     Number       Type             X           Y           Z
 ---------------------------------------------------------------------
      1          6           0       -1.167111    2.107600    0.534583
      2          6           0        1.727921   -2.253489   -0.556470
      3          6           0        1.615991   -1.838549    1.962040
      4          6           0        2.205251   -1.405469    0.601604
      5          6           0        3.112050    0.332269   -0.688815
      6          6           0        0.230532   -2.041619   -0.886301
      7          6           0       -3.592850   -0.850359   -0.424685
      8          6           0       -2.908770    0.199512    0.480801
      9          6           0       -2.119370    1.221920   -0.382301
     10          6           0        0.015704    1.219540    1.037260
     11          6           0        2.081680    0.104295    0.391016
     12          1           0        1.675331   -2.940199    1.999850
     13          1           0        3.140790    1.166062   -2.443400
     14          1           0       -0.360233   -1.765840    0.022029
     15          1           0        0.132935   -1.156769   -1.557710
     16          1           0       -0.235787   -2.870880   -1.472400
     17          1           0        2.282811   -1.996379   -1.432160
     18          1           0        1.827371   -3.349759   -0.405026
     19          1           0        2.163501   -1.442329    2.818720
     20          1           0        0.552849   -1.630759    2.112900
     21          1           0        3.286481   -1.615118    0.781423
     22          1           0       -4.876189   -2.145861   -0.394466
     23          1           0        0.877961    1.329611   -0.726702
     24          1           0       -3.670990    0.727170    1.107820
     25          1           0       -2.181850   -0.198117    1.189200
     26          1           0       -2.906961    1.848789   -0.837476
     27          1           0       -1.444440    0.859521   -1.182780
     28          1           0       -1.690951    2.558920    1.376680
     29          1           0       -0.634596    2.970350   -1.335650
     30          1           0       -0.141017    3.886040    0.013068
     31          1           0        2.384110    0.551646    1.311220
     32          7           0       -0.824054    3.215310   -0.363521
     33          7           0        0.856174    0.772575    0.087157
     34          8           0        4.295700    0.069816   -0.657260
     35          8           0        0.179094    1.011881    2.229760
     36          8           0       -3.509470   -0.909217   -1.616930
     37          8           0       -4.439669   -1.615891    0.300472
     38          8           0        2.522830    1.009011   -1.683910
 ---------------------------------------------------------------------

 SCF Done:  E(RHF) =  -912.467681814     A.U. after    2 cycles

 The electronic state is 1-A.
 Alpha  occ. eigenvalues --  -20.62854 -20.60768 -20.55375 -20.54983 -20.51928
 Alpha  occ. eigenvalues --  -15.53066 -15.50839 -11.41337 -11.40372 -11.36009
 Alpha  occ. eigenvalues --  -11.29417 -11.29294 -11.26866 -11.25733 -11.24763
 Alpha  occ. eigenvalues --  -11.23442 -11.23078 -11.21907  -1.57288  -1.55800
 Alpha  occ. eigenvalues --   -1.46932  -1.46654  -1.46473  -1.27612  -1.19858
 Alpha  occ. eigenvalues --   -1.11736  -1.07293  -1.02906  -0.97910  -0.96388
 Alpha  occ. eigenvalues --   -0.88990  -0.87957  -0.86304  -0.83782  -0.80521
 Alpha  occ. eigenvalues --   -0.79435  -0.74911  -0.72119  -0.71852  -0.71234
 Alpha  occ. eigenvalues --   -0.70346  -0.69931  -0.69163  -0.66954  -0.65749
 Alpha  occ. eigenvalues --   -0.64669  -0.62874  -0.62053  -0.61682  -0.60949
 Alpha  occ. eigenvalues --   -0.59481  -0.59305  -0.58329  -0.55295  -0.54446
 Alpha  occ. eigenvalues --   -0.53614  -0.53485  -0.52193  -0.51049  -0.50397
 Alpha  occ. eigenvalues --   -0.49404  -0.48752  -0.48143  -0.47821  -0.47339
 Alpha  occ. eigenvalues --   -0.46377  -0.45845  -0.45408  -0.41632  -0.40701
 Alpha virt. eigenvalues --    0.02126   0.03255   0.03487   0.04037   0.04322
 Alpha virt. eigenvalues --    0.04580   0.04815   0.05129   0.05561   0.06627
 Alpha virt. eigenvalues --    0.07504   0.07750   0.08304   0.08458   0.08639

 Mulliken charges:
               1
     1  C   -1.381345
     2  C   -0.237511
     3  C   -0.307612
     4  C   -0.579784
     5  C    3.201521
     6  C   -0.367264
     7  C    2.452773
     8  C   -0.756750
     9  C   -0.054630
    10  C    0.761561
    11  C   -1.537922
    12  H    0.195285
    13  H    0.520722
    14  H    0.272045
    15  H    0.236227
    16  H    0.017456
    17  H    0.152086
    18  H    0.088536
    19  H    0.136663
    20  H    0.110905
    21  H    0.227632
    22  H    0.386775
    23  H    0.323695
    24  H    0.221664
    25  H    0.205061
    26  H    0.084485
    27  H    0.195634
    28  H   -0.060982
    29  H    0.136750
    30  H    0.159545
    31  H   -0.096795
    32  N    0.878733
    33  N    1.777938
    34  O   -1.467416
    35  O   -1.556271
    36  O   -1.247408
    37  O   -1.345053
    38  O   -1.746949
 Sum of Mulliken charges =  -0.00000

 Dipole moment (field-independent basis, Debye):
    X=             -0.6195    Y=              0.8665    Z=             -2.3657  Tot=              2.5944

 Test job not archived.
 1\1\GINC-SE095\SP\RHF\Aug-CC-pVDZ\C11H20N2O5\OHZDE\08-Apr-2025\0\\#t h
 f aug-cc-pvdz iop(5/13=1,5/36=2,99/5=2) pseudo=read geom=check guess=(
 read,tcheck) scf=(maxcycle=1)\\title\\0,1\C,0,-1.16711,2.1076,0.534583
 \C,0,1.72792,-2.25349,-0.55647\C,0,1.61599,-1.83855,1.96204\C,0,2.2052
 5,-1.40547,0.601604\C,0,3.11205,0.332267,-0.688815\C,0,0.230531,-2.041
 62,-0.886301\C,0,-3.59285,-0.850358,-0.424685\C,0,-2.90877,0.199513,0.
 480801\C,0,-2.11937,1.22192,-0.382301\C,0,0.0157041,1.21954,1.03726\C,
 0,2.08168,0.104294,0.391016\H,0,1.67533,-2.9402,1.99985\H,0,3.14079,1.

 Normal termination of Gaussian 16 at Tue Apr  8 21:40:33 2025.
