 Gaussian 16, Revision C.01,

 ----------------------------------------------------------------------
 #t hf aug-cc-pvdz symm=none int=(grid=ultrafine) guess=(read,tcheck) s
 table=(opt,rrhf)
 ----------------------------------------------------------------------
 -----
 title
 -----
 Symbolic Z-matrix:
 Charge =  0 Multiplicity = 1

 SCF Done:  E(RHF) =  -456.192862640     A.U. after   12 cycles
 Normal termination of Gaussian 16 at Tue Apr  8 21:08:38 2025.
 Gaussian 16:  ES64L-G16RevC.01  3-Jul-2019

 ----------------------------------------------------------------------
 #t hf aug-cc-pvdz iop(5/13=1,5/36=2,99/5=2) pseudo=read geom=check gue
 ss=(read,tcheck) scf=(maxcycle=1)
 ----------------------------------------------------------------------
 -----
 title
 -----
 Structure from the checkpoint file:  "ANI1ccx_1844_conf677_mol1.chk"
 Charge =  0 Multiplicity = 1

                         Standard orientation:
 ---------------------------------------------------------------------
 Center     Atomic      Atomic             Coordinates (Angstroms)
 Number     Number       Type             X           Y           Z
 ---------------------------------------------------------------------
      1          1           0       -1.008932   -1.855540    1.664250
      2          1           0       -2.479190    0.658424   -0.328081
      3          1           0       -3.417441   -0.537323   -0.696872
      4          1           0        1.717870    1.195748    0.369092
      5          1           0        0.980781    1.798079    1.587760
      6          1           0       -0.447878    1.782320   -0.099977
      7          1           0       -1.705562   -1.101199    0.433359
      8          1           0       -1.444709    2.876380   -0.562318
      9          1           0        1.731767   -2.688802   -0.084948
     10          1           0        0.280660   -1.834871   -0.089785
     11          1           0        2.219649   -0.557331   -0.731714
     12          1           0        3.685749    0.476427   -0.633711
     13          8           0        1.220961    1.983788    0.672387
     14          8           0        1.071918   -1.991452   -0.737530
     15          8           0       -2.830261   -0.182992    0.013299
     16          8           0       -1.286359    1.951640   -0.698276
     17          8           0       -1.028002   -1.812580    0.695307
     18          8           0        2.837649    0.025056   -0.048569
 ---------------------------------------------------------------------

 SCF Done:  E(RHF) =  -456.662768000     A.U. after    2 cycles

 The electronic state is 1-A.
 Alpha  occ. eigenvalues --  -20.57004 -20.56685 -20.55574 -20.54402 -20.54257
 Alpha  occ. eigenvalues --  -20.53873  -1.46231  -1.43491  -1.42544  -1.42003
 Alpha  occ. eigenvalues --   -1.37902  -1.35448  -0.73068  -0.72445  -0.70819
 Alpha  occ. eigenvalues --   -0.69108  -0.67643  -0.64812  -0.61053  -0.59231
 Alpha  occ. eigenvalues --   -0.57051  -0.55311  -0.53940  -0.52625  -0.50260
 Alpha  occ. eigenvalues --   -0.49602  -0.48677  -0.48096  -0.47533  -0.45532
 Alpha virt. eigenvalues --    0.03272   0.04079   0.04514   0.04796   0.06316
 Alpha virt. eigenvalues --    0.07315   0.08567   0.08800   0.09628   0.10837
 Alpha virt. eigenvalues --    0.11294   0.11901   0.16837   0.18006   0.19362

 Mulliken charges:
               1
     1  H    0.349356
     2  H    0.622118
     3  H    0.364312
     4  H    0.795876
     5  H    0.357581
     6  H    0.729326
     7  H    0.930893
     8  H    0.347718
     9  H    0.429347
    10  H    0.931474
    11  H    0.646951
    12  H    0.477972
    13  O   -1.123388
    14  O   -1.214066
    15  O   -1.094787
    16  O   -1.101039
    17  O   -1.277168
    18  O   -1.172478
 Sum of Mulliken charges =  -0.00000

 Dipole moment (field-independent basis, Debye):
    X=             -0.7857    Y=              0.7786    Z=              1.5184  Tot=              1.8786

 Test job not archived.
 1\1\GINC-SE366\SP\RHF\Aug-CC-pVDZ\H12O6\OHZDE\08-Apr-2025\0\\#t hf aug
 -cc-pvdz iop(5/13=1,5/36=2,99/5=2) pseudo=read geom=check guess=(read,
 tcheck) scf=(maxcycle=1)\\title\\0,1\H,0,-1.00893,-1.85554,1.66425\H,0
 ,-2.47919,0.658423,-0.328081\H,0,-3.41744,-0.537325,-0.696872\H,0,1.71
 787,1.19575,0.369092\H,0,0.98078,1.79808,1.58776\H,0,-0.447879,1.78232
 ,-0.0999767\H,0,-1.70556,-1.1012,0.433359\H,0,-1.44471,2.87638,-0.5623
 18\H,0,1.73177,-2.6888,-0.0849477\H,0,0.280662,-1.83487,-0.0897847\H,0
 ,2.21965,-0.557329,-0.731714\H,0,3.68575,0.476431,-0.633711\O,0,1.2209

 Normal termination of Gaussian 16 at Tue Apr  8 21:08:42 2025.
