 Gaussian 16, Revision C.01,

 ----------------------------------------------------------------------
 #t hf aug-cc-pvdz symm=none int=(grid=ultrafine) guess=(read,tcheck) s
 table=(opt,rrhf)
 ----------------------------------------------------------------------
 -----
 title
 -----
 Symbolic Z-matrix:
 Charge =  0 Multiplicity = 1

 SCF Done:  E(RHF) =  -464.384339804     A.U. after   15 cycles
 Normal termination of Gaussian 16 at Tue Apr  8 21:42:12 2025.
 Gaussian 16:  ES64L-G16RevC.01  3-Jul-2019

 ----------------------------------------------------------------------
 #t hf aug-cc-pvdz iop(5/13=1,5/36=2,99/5=2) pseudo=read geom=check gue
 ss=(read,tcheck) scf=(maxcycle=1)
 ----------------------------------------------------------------------
 -----
 title
 -----
 Structure from the checkpoint file:  "ANI1ccx_474_conf9_mol1.chk"
 Charge =  0 Multiplicity = 1

                         Standard orientation:
 ---------------------------------------------------------------------
 Center     Atomic      Atomic             Coordinates (Angstroms)
 Number     Number       Type             X           Y           Z
 ---------------------------------------------------------------------
      1          6           0        1.288500   -0.366925    0.120297
      2          6           0       -0.223045    1.416789   -0.006166
      3          1           0        2.879880   -0.011045   -0.931592
      4          7           0        0.801639    0.893572   -0.397748
      5          7           0       -2.074350   -0.661226   -0.419948
      6          7           0       -2.552808   -1.607134   -0.127775
      7          8           0        2.483500   -0.706456   -0.381691
      8          8           0       -1.047603    2.173348    0.297471
      9          8           0        0.752356   -1.049970    0.942357
 ---------------------------------------------------------------------

 SCF Done:  E(RHF) =  -464.823796630     A.U. after    2 cycles

 The electronic state is 1-A.
 Alpha  occ. eigenvalues --  -20.64969 -20.62991 -20.56250 -15.62919 -15.62601
 Alpha  occ. eigenvalues --  -15.56944 -11.46902 -11.46326  -1.59578  -1.57989
 Alpha  occ. eigenvalues --   -1.49921  -1.48986  -1.32200  -0.96525  -0.84946
 Alpha  occ. eigenvalues --   -0.83130  -0.77747  -0.72888  -0.72354  -0.69170
 Alpha  occ. eigenvalues --   -0.68038  -0.67647  -0.66951  -0.65419  -0.62036
 Alpha  occ. eigenvalues --   -0.56993  -0.52465  -0.48765  -0.48385
 Alpha virt. eigenvalues --    0.02972   0.06942   0.07491   0.08469   0.08888
 Alpha virt. eigenvalues --    0.09379   0.09830   0.10568   0.10977   0.11386
 Alpha virt. eigenvalues --    0.11838   0.12460   0.13913   0.16488   0.17951

 Mulliken charges:
               1
     1  C    1.626495
     2  C    0.328460
     3  H    0.445113
     4  N    0.596773
     5  N    0.143414
     6  N   -0.199218
     7  O   -1.131399
     8  O   -0.806913
     9  O   -1.002725
 Sum of Mulliken charges =   0.00000

 Dipole moment (field-independent basis, Debye):
    X=              0.9099    Y=              1.7220    Z=             -1.8546  Tot=              2.6894

 Test job not archived.
 1\1\GINC-SE328\SP\RHF\Aug-CC-pVDZ\C2H1N3O3\OHZDE\08-Apr-2025\0\\#t hf
 aug-cc-pvdz iop(5/13=1,5/36=2,99/5=2) pseudo=read geom=check guess=(re
 ad,tcheck) scf=(maxcycle=1)\\title\\0,1\C,0,1.2885,-0.366926,0.120297\
 C,0,-0.223043,1.41679,-0.00616561\H,0,2.87988,-0.0110481,-0.931592\N,0
 ,0.801641,0.893571,-0.397748\N,0,-2.07435,-0.661223,-0.419948\N,0,-2.5
 5281,-1.60713,-0.127775\O,0,2.4835,-0.706459,-0.381691\O,0,-1.0476,2.1
 7335,0.297471\O,0,0.752355,-1.04997,0.942357\\Version=ES64L-G16RevC.01
 \State=1-A\HF=-464.8237966\RMSD=2.903e-02\Dipole=0.3579852,0.6774781,-

 Normal termination of Gaussian 16 at Tue Apr  8 21:42:16 2025.
