 Gaussian 16, Revision C.01,

 ----------------------------------------------------------------------
 #t hf aug-cc-pvdz symm=none int=(grid=ultrafine) guess=(read,tcheck) s
 table=(opt,rrhf)
 ----------------------------------------------------------------------
 -----
 title
 -----
 Symbolic Z-matrix:
 Charge =  0 Multiplicity = 1

 SCF Done:  E(RHF) =  -696.560606406     A.U. after   14 cycles
 Normal termination of Gaussian 16 at Tue Apr  8 19:24:07 2025.
 Gaussian 16:  ES64L-G16RevC.01  3-Jul-2019

 ----------------------------------------------------------------------
 #t hf aug-cc-pvdz iop(5/13=1,5/36=2,99/5=2) pseudo=read geom=check gue
 ss=(read,tcheck) scf=(maxcycle=1)
 ----------------------------------------------------------------------
 -----
 title
 -----
 Structure from the checkpoint file:  "ANI1ccx_1205_conf10_mol1.chk"
 Charge =  0 Multiplicity = 1

                         Standard orientation:
 ---------------------------------------------------------------------
 Center     Atomic      Atomic             Coordinates (Angstroms)
 Number     Number       Type             X           Y           Z
 ---------------------------------------------------------------------
      1          6           0        0.837342    0.985417   -0.720861
      2          6           0        0.310129    1.155460    0.709068
      3          6           0        2.145701    0.113838   -0.656290
      4          6           0        1.821360   -1.264001   -0.065004
      5          6           0       -2.103118    0.828226    0.034072
      6          6           0       -2.633229   -0.616528   -0.227175
      7          1           0       -1.052550   -1.247609    0.591010
      8          1           0       -2.962418    1.370862    0.457820
      9          1           0       -1.893018    1.259141   -0.958783
     10          1           0       -1.172478    1.184601    1.923250
     11          1           0        3.851400   -1.753313   -0.098053
     12          1           0        2.761179   -3.006272    0.348448
     13          1           0        2.524741    0.002008   -1.708670
     14          1           0        2.868841    0.652567    0.003566
     15          1           0        0.127490    0.383643   -1.313890
     16          1           0        0.264612    2.790160   -1.192870
     17          1           0        1.791093    2.816969   -0.753619
     18          7           0        1.131953    2.276059   -1.308200
     19          7           0        2.897750   -2.093962   -0.052997
     20          7           0       -1.007878    0.921733    0.961267
     21          8           0        1.022002    1.530129    1.620260
     22          8           0        0.725722   -1.579350    0.301779
     23          8           0       -3.684519   -0.811025   -0.788136
     24          8           0       -1.879550   -1.564009    0.248399
 ---------------------------------------------------------------------

 SCF Done:  E(RHF) =  -697.259958752     A.U. after    2 cycles

 The electronic state is 1-A.
 Alpha  occ. eigenvalues --  -20.57982 -20.54676 -20.52733 -20.51930 -15.54986
 Alpha  occ. eigenvalues --  -15.54736 -15.52083 -11.39084 -11.38499 -11.37219
 Alpha  occ. eigenvalues --  -11.31287 -11.30571 -11.27989  -1.54795  -1.51271
 Alpha  occ. eigenvalues --   -1.48272  -1.44334  -1.26869  -1.24931  -1.22606
 Alpha  occ. eigenvalues --   -1.05773  -1.02400  -0.94395  -0.86686  -0.84060
 Alpha  occ. eigenvalues --   -0.81920  -0.77301  -0.76573  -0.74356  -0.72919
 Alpha  occ. eigenvalues --   -0.72583  -0.69545  -0.67052  -0.65722  -0.64804
 Alpha  occ. eigenvalues --   -0.64047  -0.62528  -0.61532  -0.59221  -0.57365
 Alpha  occ. eigenvalues --   -0.55683  -0.54436  -0.52540  -0.50102  -0.47608
 Alpha  occ. eigenvalues --   -0.46552  -0.46051  -0.45105  -0.43210  -0.41162
 Alpha virt. eigenvalues --    0.02004   0.03054   0.03907   0.04462   0.04812
 Alpha virt. eigenvalues --    0.05265   0.06124   0.06760   0.07711   0.08020
 Alpha virt. eigenvalues --    0.08870   0.09809   0.10836   0.11049   0.11605

 Mulliken charges:
               1
     1  C   -1.765909
     2  C    0.813279
     3  C   -0.316226
     4  C    0.514983
     5  C   -0.676894
     6  C    2.196385
     7  H    0.721905
     8  H    0.113674
     9  H    0.280997
    10  H    0.363684
    11  H    0.062169
    12  H    0.138820
    13  H    0.345444
    14  H    0.288608
    15  H   -0.036528
    16  H    0.186116
    17  H    0.229945
    18  N    0.850435
    19  N    0.770547
    20  N    0.614484
    21  O   -1.505365
    22  O   -1.560294
    23  O   -1.354877
    24  O   -1.275381
 Sum of Mulliken charges =  -0.00000

 Dipole moment (field-independent basis, Debye):
    X=              5.5520    Y=              1.8577    Z=              0.4067  Tot=              5.8686

 Test job not archived.
 1\1\GINC-SE028\SP\RHF\Aug-CC-pVDZ\C6H11N3O4\OHZDE\08-Apr-2025\0\\#t hf
  aug-cc-pvdz iop(5/13=1,5/36=2,99/5=2) pseudo=read geom=check guess=(r
 ead,tcheck) scf=(maxcycle=1)\\title\\0,1\C,0,0.83734,0.985418,-0.72086
 1\C,0,0.310127,1.15546,0.709068\C,0,2.1457,0.113839,-0.65629\C,0,1.821
 36,-1.264,-0.0650048\C,0,-2.10312,0.828225,0.0340719\C,0,-2.63323,-0.6
 1653,-0.227175\H,0,-1.05255,-1.24761,0.59101\H,0,-2.96242,1.37086,0.45
 782\H,0,-1.89302,1.25914,-0.958783\H,0,-1.17248,1.1846,1.92325\H,0,3.8
 514,-1.75331,-0.0980536\H,0,2.76118,-3.00627,0.348448\H,0,2.52474,0.00

 Normal termination of Gaussian 16 at Tue Apr  8 19:24:27 2025.
