 Gaussian 16, Revision C.01,

 ----------------------------------------------------------------------
 #t hf aug-cc-pvdz symm=none int=(grid=ultrafine) guess=(read,tcheck) s
 table=(opt,rrhf)
 ----------------------------------------------------------------------
 -----
 title
 -----
 Symbolic Z-matrix:
 Charge =  0 Multiplicity = 1

 SCF Done:  E(RHF) =  -355.465965229     A.U. after   16 cycles
 Normal termination of Gaussian 16 at Tue Apr  8 21:11:20 2025.
 Gaussian 16:  ES64L-G16RevC.01  3-Jul-2019

 ----------------------------------------------------------------------
 #t hf aug-cc-pvdz iop(5/13=1,5/36=2,99/5=2) pseudo=read geom=check gue
 ss=(read,tcheck) scf=(maxcycle=1)
 ----------------------------------------------------------------------
 -----
 title
 -----
 Structure from the checkpoint file:  "ANI1ccx_1871_conf7_mol1.chk"
 Charge =  0 Multiplicity = 1

                         Standard orientation:
 ---------------------------------------------------------------------
 Center     Atomic      Atomic             Coordinates (Angstroms)
 Number     Number       Type             X           Y           Z
 ---------------------------------------------------------------------
      1          1           0       -3.041238   -0.471047    0.565673
      2          1           0       -2.031118    1.107140   -1.008920
      3          1           0       -0.143124   -0.217909    0.658219
      4          7           0        1.507302   -0.464757   -0.217245
      5          8           0       -2.329688   -0.586057   -0.101681
      6          8           0       -1.614108    0.633071   -0.163016
      7          8           0        0.744691    0.229777    0.742043
      8          8           0        2.532152    0.077598   -0.314127
 ---------------------------------------------------------------------

 SCF Done:  E(RHF) =  -355.806347843     A.U. after    2 cycles

 The electronic state is 1-A.
 Alpha  occ. eigenvalues --  -20.65261 -20.64440 -20.62073 -20.59574 -15.70967
 Alpha  occ. eigenvalues --   -1.67103  -1.61987  -1.46751  -1.28666  -0.95050
 Alpha  occ. eigenvalues --   -0.78926  -0.74802  -0.73103  -0.71613  -0.68548
 Alpha  occ. eigenvalues --   -0.63638  -0.58647  -0.51460  -0.51285  -0.48254
 Alpha  occ. eigenvalues --   -0.44434
 Alpha virt. eigenvalues --    0.02828   0.03844   0.06945   0.08477   0.11948
 Alpha virt. eigenvalues --    0.13712   0.15821   0.16690   0.17553   0.18455
 Alpha virt. eigenvalues --    0.19891   0.20612   0.20879   0.22252   0.23879

 Mulliken charges:
               1
     1  H    0.488224
     2  H    0.557488
     3  H    0.548077
     4  N    1.521104
     5  O   -0.458734
     6  O   -0.643494
     7  O   -1.135176
     8  O   -0.877488
 Sum of Mulliken charges =   0.00000

 Dipole moment (field-independent basis, Debye):
    X=             -4.5081    Y=              0.5894    Z=             -0.2404  Tot=              4.5528

 Test job not archived.
 1\1\GINC-SE226\SP\RHF\Aug-CC-pVDZ\H3N1O4\OHZDE\08-Apr-2025\0\\#t hf au
 g-cc-pvdz iop(5/13=1,5/36=2,99/5=2) pseudo=read geom=check guess=(read
 ,tcheck) scf=(maxcycle=1)\\title\\0,1\H,0,-3.04124,-0.471048,0.565673\
 H,0,-2.03112,1.10714,-1.00892\H,0,-0.143126,-0.217909,0.658219\N,0,1.5
 073,-0.464757,-0.217245\O,0,-2.32969,-0.586057,-0.101681\O,0,-1.61411,
 0.633071,-0.163016\O,0,0.744689,0.229777,0.742043\O,0,2.53215,0.077597
 8,-0.314127\\Version=ES64L-G16RevC.01\State=1-A\HF=-355.8063478\RMSD=1
 .029e-02\Dipole=-1.7736038,0.2318993,-0.0946001\Quadrupole=2.8488945,-

 Normal termination of Gaussian 16 at Tue Apr  8 21:11:22 2025.
