 Gaussian 16, Revision C.01,

 ----------------------------------------------------------------------
 #t hf aug-cc-pvdz symm=none int=(grid=ultrafine) guess=(read,tcheck) s
 table=(opt,rrhf)
 ----------------------------------------------------------------------
 -----
 title
 -----
 Symbolic Z-matrix:
 Charge =  0 Multiplicity = 1

 SCF Done:  E(RHF) =  -736.665040222     A.U. after   14 cycles
 Normal termination of Gaussian 16 at Tue Apr  8 19:52:01 2025.
 Gaussian 16:  ES64L-G16RevC.01  3-Jul-2019

 ----------------------------------------------------------------------
 #t hf aug-cc-pvdz iop(5/13=1,5/36=2,99/5=2) pseudo=read geom=check gue
 ss=(read,tcheck) scf=(maxcycle=1)
 ----------------------------------------------------------------------
 -----
 title
 -----
 Structure from the checkpoint file:  "ANI1ccx_1451_conf1_mol1.chk"
 Charge =  0 Multiplicity = 1

                         Standard orientation:
 ---------------------------------------------------------------------
 Center     Atomic      Atomic             Coordinates (Angstroms)
 Number     Number       Type             X           Y           Z
 ---------------------------------------------------------------------
      1          6           0        1.533690    2.456850    0.305126
      2          6           0        0.138037    2.345090   -0.228114
      3          6           0       -0.616250    0.069767    0.111041
      4          6           0       -2.909440    0.813643    0.136777
      5          6           0       -3.670680   -0.449564    0.080159
      6          6           0        0.711387   -1.850630   -0.504039
      7          6           0        2.082130   -1.563140    0.154843
      8          1           0        3.786800   -1.908720    0.487296
      9          1           0        0.466441   -2.937930   -0.443598
     10          1           0        0.906269   -1.526630   -1.591510
     11          1           0       -2.215830   -1.765730   -0.140133
     12          1           0       -4.609840   -0.245407   -0.548512
     13          1           0       -4.001590   -0.644307    1.079640
     14          1           0       -3.461470    1.646220    0.656382
     15          1           0       -2.719090    1.195840   -0.849453
     16          1           0       -1.844940    0.017987    1.667120
     17          1           0        0.866026    0.596089   -1.057180
     18          1           0       -0.084061    3.032310   -1.109580
     19          1           0       -0.641728    2.632460    0.432881
     20          1           0        1.683860    3.518360    0.498321
     21          1           0        1.601500    1.846310    1.179110
     22          1           0        2.917310    1.235440   -0.061083
     23          7           0        0.002841    0.980776   -0.751502
     24          7           0       -1.625850    0.630161    0.884835
     25          7           0       -0.438943   -1.237760    0.116818
     26          8           0        2.549990    1.987300   -0.560753
     27          8           0       -3.105760   -1.580290   -0.494908
     28          8           0        3.056130   -2.448900    0.100927
     29          8           0        2.270980   -0.487686    0.669046
 ---------------------------------------------------------------------

 SCF Done:  E(RHF) =  -737.415931336     A.U. after    2 cycles

 The electronic state is 1-A.
 Alpha  occ. eigenvalues --  -20.63078 -20.55496 -20.54397 -20.52111 -15.52019
 Alpha  occ. eigenvalues --  -15.51539 -15.48206 -11.41601 -11.36439 -11.30368
 Alpha  occ. eigenvalues --  -11.27830 -11.27759 -11.27512 -11.26627  -1.59071
 Alpha  occ. eigenvalues --   -1.47837  -1.44880  -1.43529  -1.30902  -1.20970
 Alpha  occ. eigenvalues --   -1.18776  -1.03606  -1.01016  -0.98899  -0.87494
 Alpha  occ. eigenvalues --   -0.85442  -0.84545  -0.83177  -0.75637  -0.74437
 Alpha  occ. eigenvalues --   -0.72258  -0.70713  -0.70318  -0.69804  -0.66511
 Alpha  occ. eigenvalues --   -0.65795  -0.64753  -0.64028  -0.63169  -0.60394
 Alpha  occ. eigenvalues --   -0.59550  -0.58052  -0.57483  -0.56401  -0.54550
 Alpha  occ. eigenvalues --   -0.52064  -0.51713  -0.50313  -0.48348  -0.47585
 Alpha  occ. eigenvalues --   -0.45865  -0.44739  -0.43449  -0.42082  -0.39624
 Alpha virt. eigenvalues --    0.03091   0.03493   0.04216   0.04225   0.04557
 Alpha virt. eigenvalues --    0.05031   0.05190   0.05383   0.05675   0.07715
 Alpha virt. eigenvalues --    0.08538   0.09028   0.09429   0.09937   0.10298

 Mulliken charges:
               1
     1  C    0.847730
     2  C   -0.206142
     3  C   -3.656490
     4  C   -0.039534
     5  C    0.750356
     6  C   -1.108866
     7  C    2.297444
     8  H    0.323714
     9  H    0.074738
    10  H    0.437535
    11  H    0.633350
    12  H    0.184578
    13  H    0.089694
    14  H    0.167304
    15  H    0.032065
    16  H    0.326074
    17  H    0.345984
    18  H    0.137198
    19  H    0.005030
    20  H    0.074325
    21  H    0.135972
    22  H    0.441521
    23  N    1.122717
    24  N    0.571274
    25  N    1.188081
    26  O   -1.246331
    27  O   -1.360785
    28  O   -1.314882
    29  O   -1.253652
 Sum of Mulliken charges =   0.00000

 Dipole moment (field-independent basis, Debye):
    X=              1.1239    Y=              1.1209    Z=              1.6940  Tot=              2.3214

 Test job not archived.
 1\1\GINC-SE362\SP\RHF\Aug-CC-pVDZ\C7H15N3O4\OHZDE\08-Apr-2025\0\\#t hf
  aug-cc-pvdz iop(5/13=1,5/36=2,99/5=2) pseudo=read geom=check guess=(r
 ead,tcheck) scf=(maxcycle=1)\\title\\0,1\C,0,1.53369,2.45685,0.305126\
 C,0,0.138037,2.34509,-0.228114\C,0,-0.61625,0.0697673,0.111041\C,0,-2.
 90944,0.813643,0.136777\C,0,-3.67068,-0.449564,0.0801591\C,0,0.711387,
 -1.85063,-0.504039\C,0,2.08213,-1.56314,0.154843\H,0,3.7868,-1.90872,0
 .487296\H,0,0.466441,-2.93793,-0.443598\H,0,0.906269,-1.52663,-1.59151
 \H,0,-2.21583,-1.76573,-0.140133\H,0,-4.60984,-0.245407,-0.548512\H,0,

 Normal termination of Gaussian 16 at Tue Apr  8 19:52:27 2025.
