 Gaussian 16, Revision C.01,

 ----------------------------------------------------------------------
 #t hf aug-cc-pvdz symm=none int=(grid=ultrafine) guess=(read,tcheck) s
 table=(opt,rrhf)
 ----------------------------------------------------------------------
 -----
 title
 -----
 Symbolic Z-matrix:
 Charge =  0 Multiplicity = 1

 SCF Done:  E(RHF) =  -923.194469492     A.U. after   14 cycles
 Normal termination of Gaussian 16 at Tue Apr  8 20:11:45 2025.
 Gaussian 16:  ES64L-G16RevC.01  3-Jul-2019

 ----------------------------------------------------------------------
 #t hf aug-cc-pvdz iop(5/13=1,5/36=2,99/5=2) pseudo=read geom=check gue
 ss=(read,tcheck) scf=(maxcycle=1)
 ----------------------------------------------------------------------
 -----
 title
 -----
 Structure from the checkpoint file:  "ANI1ccx_1584_conf16_mol1.chk"
 Charge =  0 Multiplicity = 1

                         Standard orientation:
 ---------------------------------------------------------------------
 Center     Atomic      Atomic             Coordinates (Angstroms)
 Number     Number       Type             X           Y           Z
 ---------------------------------------------------------------------
      1          6           0        2.253690   -1.496721    0.418488
      2          6           0        0.817787   -0.739950    0.725091
      3          6           0        3.302520   -0.500492    0.845980
      4          6           0        3.480290    0.557874   -0.201099
      5          6           0       -1.344610   -0.097360   -0.371374
      6          6           0       -1.202940    1.385560   -0.073212
      7          6           0       -2.409720   -0.768689    0.490524
      8          6           0       -3.835290   -0.638327   -0.116762
      9          1           0        0.674776    1.421110   -0.366473
     10          1           0       -3.768080    1.445480    0.236293
     11          1           0       -5.187340    0.628357   -0.689888
     12          1           0       -2.480120   -0.149703    1.398720
     13          1           0       -2.176130   -1.802860    0.733482
     14          1           0       -1.706070   -0.073066   -1.394860
     15          1           0        0.013361   -1.607970   -0.848000
     16          1           0        2.653010    2.094809   -0.777005
     17          1           0        2.977540   -0.104716    1.834190
     18          1           0        4.274820   -0.891766    0.996591
     19          1           0        2.180950   -2.384081    1.069970
     20          1           0        2.749260   -2.820311   -1.053040
     21          1           0        2.582040   -1.131821   -1.512370
     22          7           0        2.252580   -1.963611   -0.959520
     23          7           0       -0.086569   -0.801023   -0.332562
     24          7           0       -4.323130    0.588484   -0.142637
     25          8           0        0.528186   -0.253648    1.755590
     26          8           0        4.253580    0.622687   -1.115510
     27          8           0        2.557860    1.537869    0.048922
     28          8           0       -2.164860    2.032160    0.343546
     29          8           0       -4.338890   -1.634120   -0.633115
     30          8           0       -0.093197    1.994830   -0.385737
 ---------------------------------------------------------------------

 SCF Done:  E(RHF) =  -924.113052725     A.U. after    2 cycles

 The electronic state is 1-A.
 Alpha  occ. eigenvalues --  -20.64579 -20.61702 -20.58975 -20.55348 -20.54817
 Alpha  occ. eigenvalues --  -20.48937 -15.54311 -15.53684 -15.50895 -11.43729
 Alpha  occ. eigenvalues --  -11.41918 -11.38850 -11.34157 -11.33484 -11.32018
 Alpha  occ. eigenvalues --  -11.28700 -11.24774  -1.59178  -1.57830  -1.52684
 Alpha  occ. eigenvalues --   -1.49905  -1.46691  -1.43331  -1.28000  -1.23648
 Alpha  occ. eigenvalues --   -1.21234  -1.09691  -1.08241  -0.96585  -0.94215
 Alpha  occ. eigenvalues --   -0.88833  -0.85861  -0.83622  -0.80577  -0.78661
 Alpha  occ. eigenvalues --   -0.77205  -0.75975  -0.75192  -0.74265  -0.72688
 Alpha  occ. eigenvalues --   -0.70482  -0.68844  -0.68662  -0.66444  -0.66170
 Alpha  occ. eigenvalues --   -0.64496  -0.64378  -0.62697  -0.62216  -0.60538
 Alpha  occ. eigenvalues --   -0.60305  -0.57946  -0.57257  -0.55890  -0.54514
 Alpha  occ. eigenvalues --   -0.52982  -0.52342  -0.51200  -0.49036  -0.48538
 Alpha  occ. eigenvalues --   -0.46941  -0.45328  -0.43263  -0.41278  -0.39640
 Alpha virt. eigenvalues --    0.01822   0.03239   0.03390   0.03864   0.04390
 Alpha virt. eigenvalues --    0.05143   0.05363   0.05997   0.06128   0.07353
 Alpha virt. eigenvalues --    0.08194   0.08716   0.09332   0.09756   0.10278

 Mulliken charges:
               1
     1  C   -2.036029
     2  C    1.415462
     3  C   -0.379892
     4  C    2.680808
     5  C   -1.881117
     6  C    2.798998
     7  C   -0.113451
     8  C    0.436125
     9  H    0.574572
    10  H    0.208075
    11  H    0.122301
    12  H    0.313128
    13  H   -0.070838
    14  H    0.172562
    15  H    0.344938
    16  H    0.425810
    17  H    0.328251
    18  H    0.041385
    19  H    0.247090
    20  H    0.188182
    21  H    0.319635
    22  N    0.869811
    23  N    0.901979
    24  N    0.844246
    25  O   -1.479944
    26  O   -1.395033
    27  O   -1.442873
    28  O   -1.519427
    29  O   -1.402829
    30  O   -1.511924
 Sum of Mulliken charges =  -0.00000

 Dipole moment (field-independent basis, Debye):
    X=              6.3768    Y=             -1.1001    Z=             -0.5643  Tot=              6.4956

 Test job not archived.
 1\1\GINC-SE457\SP\RHF\Aug-CC-pVDZ\C8H13N3O6\OHZDE\08-Apr-2025\0\\#t hf
  aug-cc-pvdz iop(5/13=1,5/36=2,99/5=2) pseudo=read geom=check guess=(r
 ead,tcheck) scf=(maxcycle=1)\\title\\0,1\C,0,2.25369,-1.49672,0.418488
 \C,0,0.817787,-0.73995,0.725091\C,0,3.30252,-0.500491,0.84598\C,0,3.48
 029,0.557875,-0.201099\C,0,-1.34461,-0.0973598,-0.371374\C,0,-1.20294,
 1.38556,-0.0732121\C,0,-2.40972,-0.768689,0.490524\C,0,-3.83529,-0.638
 327,-0.116762\H,0,0.674776,1.42111,-0.366473\H,0,-3.76808,1.44548,0.23
 6293\H,0,-5.18734,0.628357,-0.689888\H,0,-2.48012,-0.149703,1.39872\H,

 Normal termination of Gaussian 16 at Tue Apr  8 20:12:26 2025.
