 Gaussian 16, Revision C.01,

 ----------------------------------------------------------------------
 #t hf aug-cc-pvdz symm=none int=(grid=ultrafine) guess=(read,tcheck) s
 table=(opt,rrhf)
 ----------------------------------------------------------------------
 -----
 title
 -----
 Symbolic Z-matrix:
 Charge =  0 Multiplicity = 1

 SCF Done:  E(RHF) =  -792.017590254     A.U. after   14 cycles
 Normal termination of Gaussian 16 at Tue Apr  8 19:31:31 2025.
 Gaussian 16:  ES64L-G16RevC.01  3-Jul-2019

 ----------------------------------------------------------------------
 #t hf aug-cc-pvdz iop(5/13=1,5/36=2,99/5=2) pseudo=read geom=check gue
 ss=(read,tcheck) scf=(maxcycle=1)
 ----------------------------------------------------------------------
 -----
 title
 -----
 Structure from the checkpoint file:  "ANI1ccx_1216_conf3_mol1.chk"
 Charge =  0 Multiplicity = 1

                         Standard orientation:
 ---------------------------------------------------------------------
 Center     Atomic      Atomic             Coordinates (Angstroms)
 Number     Number       Type             X           Y           Z
 ---------------------------------------------------------------------
      1          6           0        1.728852    1.251377    0.505597
      2          6           0       -1.371787    1.559213   -0.611008
      3          6           0       -1.270072   -0.813235   -1.584330
      4          6           0        1.958878   -0.806690   -0.684235
      5          6           0        1.030308   -0.882938    1.631160
      6          6           0       -2.086251   -0.379339    0.690826
      7          1           0       -2.899620    0.219318    1.116850
      8          1           0       -2.329043   -1.444805    0.570507
      9          1           0        1.575346   -1.789492    1.800780
     10          1           0        1.056379   -0.248636    2.540230
     11          1           0        2.163876   -1.886133   -0.530735
     12          1           0        2.851859   -0.359205   -1.100840
     13          1           0       -2.064593   -1.613315   -1.602600
     14          1           0       -1.139106    1.844913   -1.640270
     15          1           0       -2.268626    2.065655   -0.303146
     16          1           0        1.702603    1.621957    1.566710
     17          1           0        2.709083    1.535415    0.088522
     18          1           0       -1.314471   -0.271899   -2.520910
     19          7           0       -1.619890    0.135424   -0.533941
     20          7           0        1.618770   -0.170135    0.522920
     21          8           0       -0.270453   -1.404559    1.591070
     22          8           0        0.865213    1.984819   -0.363612
     23          8           0       -0.401850    2.071302    0.273889
     24          8           0       -0.063236   -1.539499   -1.486090
     25          8           0        1.027109   -0.634046   -1.722910
     26          8           0       -1.153711   -0.353157    1.758150
 ---------------------------------------------------------------------

 SCF Done:  E(RHF) =  -792.802295184     A.U. after    2 cycles

 The electronic state is 1-A.
 Alpha  occ. eigenvalues --  -20.60780 -20.60626 -20.60459 -20.60271 -20.59921
 Alpha  occ. eigenvalues --  -20.59200 -15.50892 -15.50467 -11.33357 -11.33006
 Alpha  occ. eigenvalues --  -11.32528 -11.32488 -11.32404 -11.32009  -1.62237
 Alpha  occ. eigenvalues --   -1.60137  -1.59669  -1.34481  -1.31138  -1.30193
 Alpha  occ. eigenvalues --   -1.24587  -1.20207  -0.97720  -0.97465  -0.94482
 Alpha  occ. eigenvalues --   -0.94276  -0.84359  -0.83113  -0.75473  -0.74347
 Alpha  occ. eigenvalues --   -0.73185  -0.72521  -0.71936  -0.70399  -0.67898
 Alpha  occ. eigenvalues --   -0.67679  -0.65800  -0.63922  -0.62922  -0.61915
 Alpha  occ. eigenvalues --   -0.61486  -0.57109  -0.56287  -0.55845  -0.55271
 Alpha  occ. eigenvalues --   -0.51888  -0.50808  -0.49443  -0.49189  -0.47052
 Alpha  occ. eigenvalues --   -0.46251  -0.42985  -0.42492  -0.42195  -0.40697
 Alpha virt. eigenvalues --    0.03941   0.04034   0.04629   0.04750   0.04934
 Alpha virt. eigenvalues --    0.05019   0.05552   0.05607   0.07247   0.08001
 Alpha virt. eigenvalues --    0.09135   0.09375   0.09763   0.10678   0.11589

 Mulliken charges:
               1
     1  C    0.287463
     2  C    0.521915
     3  C    0.399373
     4  C    0.311587
     5  C    0.564876
     6  C    0.287163
     7  H   -0.036910
     8  H    0.129205
     9  H   -0.109315
    10  H    0.148158
    11  H    0.136726
    12  H   -0.046709
    13  H    0.117686
    14  H    0.054103
    15  H   -0.032667
    16  H    0.165070
    17  H    0.038854
    18  H    0.064017
    19  N    1.355281
    20  N    1.316840
    21  O   -0.978894
    22  O   -0.930129
    23  O   -0.911302
    24  O   -0.978131
    25  O   -0.930351
    26  O   -0.943908
 Sum of Mulliken charges =  -0.00000

 Dipole moment (field-independent basis, Debye):
    X=              0.0549    Y=             -0.1970    Z=             -0.2329  Tot=              0.3099

 Test job not archived.
 1\1\GINC-SE083\SP\RHF\Aug-CC-pVDZ\C6H12N2O6\OHZDE\08-Apr-2025\0\\#t hf
  aug-cc-pvdz iop(5/13=1,5/36=2,99/5=2) pseudo=read geom=check guess=(r
 ead,tcheck) scf=(maxcycle=1)\\title\\0,1\C,0,1.72885,1.25138,0.505597\
 C,0,-1.37179,1.55921,-0.611008\C,0,-1.27007,-0.813238,-1.58433\C,0,1.9
 5888,-0.806687,-0.684235\C,0,1.03031,-0.882937,1.63116\C,0,-2.08625,-0
 .379344,0.690826\H,0,-2.89962,0.219312,1.11685\H,0,-2.32904,-1.44481,0
 .570507\H,0,1.57535,-1.78949,1.80078\H,0,1.05638,-0.248635,2.54023\H,0
 ,2.16388,-1.88613,-0.530735\H,0,2.85186,-0.3592,-1.10084\H,0,-2.06459,

 Normal termination of Gaussian 16 at Tue Apr  8 19:32:12 2025.
