 Gaussian 16, Revision C.01,

 ----------------------------------------------------------------------
 #t hf aug-cc-pvdz symm=none int=(grid=ultrafine) guess=(read,tcheck) s
 table=(opt,rrhf)
 ----------------------------------------------------------------------
 -----
 title
 -----
 Symbolic Z-matrix:
 Charge =  0 Multiplicity = 1

 SCF Done:  E(RHF) =  -355.485371385     A.U. after   16 cycles
 Normal termination of Gaussian 16 at Tue Apr  8 21:11:20 2025.
 Gaussian 16:  ES64L-G16RevC.01  3-Jul-2019

 ----------------------------------------------------------------------
 #t hf aug-cc-pvdz iop(5/13=1,5/36=2,99/5=2) pseudo=read geom=check gue
 ss=(read,tcheck) scf=(maxcycle=1)
 ----------------------------------------------------------------------
 -----
 title
 -----
 Structure from the checkpoint file:  "ANI1ccx_1871_conf3_mol1.chk"
 Charge =  0 Multiplicity = 1

                         Standard orientation:
 ---------------------------------------------------------------------
 Center     Atomic      Atomic             Coordinates (Angstroms)
 Number     Number       Type             X           Y           Z
 ---------------------------------------------------------------------
      1          1           0        1.572930   -1.704170    0.026558
      2          1           0       -1.189900    0.578505    0.183170
      3          1           0       -3.449000   -0.151789    0.506422
      4          7           0        1.240840    0.113753    0.086566
      5          8           0        2.119450   -0.910370   -0.106316
      6          8           0        1.710880    1.155490   -0.017330
      7          8           0       -1.623950   -0.274969    0.218135
      8          8           0       -2.908870    0.089997   -0.259753
 ---------------------------------------------------------------------

 SCF Done:  E(RHF) =  -355.827375492     A.U. after    2 cycles

 The electronic state is 1-A.
 Alpha  occ. eigenvalues --  -20.64231 -20.63635 -20.61787 -20.61713 -15.72682
 Alpha  occ. eigenvalues --   -1.71081  -1.60287  -1.52895  -1.27517  -0.97850
 Alpha  occ. eigenvalues --   -0.82692  -0.76745  -0.72439  -0.71771  -0.70971
 Alpha  occ. eigenvalues --   -0.63207  -0.61132  -0.52965  -0.51215  -0.46693
 Alpha  occ. eigenvalues --   -0.46251
 Alpha virt. eigenvalues --    0.03791   0.04660   0.06917   0.07489   0.12922
 Alpha virt. eigenvalues --    0.13852   0.15563   0.16896   0.17544   0.18151
 Alpha virt. eigenvalues --    0.20073   0.21260   0.21499   0.22026   0.23301

 Mulliken charges:
               1
     1  H    0.329613
     2  H    0.516046
     3  H    0.460960
     4  N    1.616888
     5  O   -1.035240
     6  O   -0.929591
     7  O   -0.553419
     8  O   -0.405258
 Sum of Mulliken charges =  -0.00000

 Dipole moment (field-independent basis, Debye):
    X=             -0.7203    Y=             -1.0102    Z=              1.4253  Tot=              1.8897

 Test job not archived.
 1\1\GINC-SE177\SP\RHF\Aug-CC-pVDZ\H3N1O4\OHZDE\08-Apr-2025\0\\#t hf au
 g-cc-pvdz iop(5/13=1,5/36=2,99/5=2) pseudo=read geom=check guess=(read
 ,tcheck) scf=(maxcycle=1)\\title\\0,1\H,0,1.57293,-1.70417,0.0265575\H
 ,0,-1.1899,0.578505,0.18317\H,0,-3.449,-0.151788,0.506422\N,0,1.24084,
 0.113753,0.0865663\O,0,2.11945,-0.91037,-0.106316\O,0,1.71088,1.15549,
 -0.0173305\O,0,-1.62395,-0.274969,0.218135\O,0,-2.90887,0.0899979,-0.2
 59753\\Version=ES64L-G16RevC.01\State=1-A\HF=-355.8273755\RMSD=1.057e-
 02\Dipole=-0.2834051,-0.3974269,0.5607554\Quadrupole=-0.8591834,1.7567

 Normal termination of Gaussian 16 at Tue Apr  8 21:11:23 2025.
