 Gaussian 16, Revision C.01,

 ----------------------------------------------------------------------
 #t hf aug-cc-pvdz symm=none int=(grid=ultrafine) guess=(read,tcheck) s
 table=(opt,rrhf)
 ----------------------------------------------------------------------
 -----
 title
 -----
 Symbolic Z-matrix:
 Charge =  0 Multiplicity = 1

 SCF Done:  E(RHF) =  -542.941794144     A.U. after   15 cycles
 Normal termination of Gaussian 16 at Tue Apr  8 21:49:06 2025.
 Gaussian 16:  ES64L-G16RevC.01  3-Jul-2019

 ----------------------------------------------------------------------
 #t hf aug-cc-pvdz iop(5/13=1,5/36=2,99/5=2) pseudo=read geom=check gue
 ss=(read,tcheck) scf=(maxcycle=1)
 ----------------------------------------------------------------------
 -----
 title
 -----
 Structure from the checkpoint file:  "ANI1ccx_647_conf1_mol1.chk"
 Charge =  0 Multiplicity = 1

                         Standard orientation:
 ---------------------------------------------------------------------
 Center     Atomic      Atomic             Coordinates (Angstroms)
 Number     Number       Type             X           Y           Z
 ---------------------------------------------------------------------
      1          6           0       -0.882060   -0.326944    0.053134
      2          6           0        1.050131    0.836401   -0.008699
      3          6           0        1.347920   -0.638498    0.049539
      4          1           0       -2.571919    1.165222   -0.073186
      5          7           0       -2.050180   -0.665731   -0.032481
      6          8           0       -2.957960    0.307695   -0.032082
      7          8           0       -0.317559    0.913439   -0.068683
      8          8           0        1.772821    1.787629    0.065265
      9          8           0        2.351309   -1.213981   -0.145226
     10          8           0        0.129792   -1.261140    0.147814
 ---------------------------------------------------------------------

 SCF Done:  E(RHF) =  -543.463203576     A.U. after    2 cycles

 The electronic state is 1-A.
 Alpha  occ. eigenvalues --  -20.69616 -20.67877 -20.63085 -20.62889 -20.62073
 Alpha  occ. eigenvalues --  -15.60576 -11.48102 -11.47023 -11.45552  -1.69233
 Alpha  occ. eigenvalues --   -1.60558  -1.58788  -1.56234  -1.53039  -1.26013
 Alpha  occ. eigenvalues --   -1.04133  -0.94763  -0.92027  -0.86363  -0.78932
 Alpha  occ. eigenvalues --   -0.76912  -0.74291  -0.71162  -0.67666  -0.66724
 Alpha  occ. eigenvalues --   -0.66396  -0.64102  -0.59384  -0.57588  -0.54991
 Alpha  occ. eigenvalues --   -0.54140  -0.50121  -0.44198
 Alpha virt. eigenvalues --    0.01488   0.03420   0.06416   0.07114   0.07259
 Alpha virt. eigenvalues --    0.08542   0.10303   0.10390   0.11315   0.12019
 Alpha virt. eigenvalues --    0.13199   0.14522   0.15370   0.16180   0.17736

 Mulliken charges:
               1
     1  C    0.707067
     2  C    1.804970
     3  C    1.696981
     4  H    0.329827
     5  N    1.574386
     6  O   -1.213322
     7  O   -1.281497
     8  O   -1.151483
     9  O   -1.151163
    10  O   -1.315766
 Sum of Mulliken charges =  -0.00000

 Dipole moment (field-independent basis, Debye):
    X=             -0.3567    Y=              1.8266    Z=              0.2014  Tot=              1.8720

 Test job not archived.
 1\1\GINC-SE127\SP\RHF\Aug-CC-pVDZ\C3H1N1O5\OHZDE\08-Apr-2025\0\\#t hf
 aug-cc-pvdz iop(5/13=1,5/36=2,99/5=2) pseudo=read geom=check guess=(re
 ad,tcheck) scf=(maxcycle=1)\\title\\0,1\C,0,-0.88206,-0.326945,0.05313
 42\C,0,1.05013,0.836402,-0.00869873\C,0,1.34792,-0.638497,0.0495395\H,
 0,-2.57192,1.16522,-0.0731864\N,0,-2.05018,-0.665732,-0.0324807\O,0,-2
 .95796,0.307693,-0.0320823\O,0,-0.31756,0.913439,-0.0686826\O,0,1.7728
 2,1.78763,0.0652648\O,0,2.35131,-1.21398,-0.145226\O,0,0.129793,-1.261
 14,0.147814\\Version=ES64L-G16RevC.01\State=1-A\HF=-543.4632036\RMSD=1

 Normal termination of Gaussian 16 at Tue Apr  8 21:49:11 2025.
