 Gaussian 16, Revision C.01,

 ----------------------------------------------------------------------
 #t hf aug-cc-pvdz symm=none int=(grid=ultrafine) guess=(read,tcheck) s
 table=(opt,rrhf)
 ----------------------------------------------------------------------
 -----
 title
 -----
 Symbolic Z-matrix:
 Charge =  0 Multiplicity = 1

 SCF Done:  E(RHF) =  -959.252447877     A.U. after   15 cycles
 Normal termination of Gaussian 16 at Tue Apr  8 22:04:36 2025.
 Gaussian 16:  ES64L-G16RevC.01  3-Jul-2019

 ----------------------------------------------------------------------
 #t hf aug-cc-pvdz iop(5/13=1,5/36=2,99/5=2) pseudo=read geom=check gue
 ss=(read,tcheck) scf=(maxcycle=1)
 ----------------------------------------------------------------------
 -----
 title
 -----
 Structure from the checkpoint file:  "ANI1ccx_47_conf1_mol1.chk"
 Charge =  0 Multiplicity = 1

                         Standard orientation:
 ---------------------------------------------------------------------
 Center     Atomic      Atomic             Coordinates (Angstroms)
 Number     Number       Type             X           Y           Z
 ---------------------------------------------------------------------
      1          6           0        0.646438   -0.809146    0.927134
      2          6           0        1.241760    2.862760    0.585410
      3          6           0       -0.376835    1.914170   -0.489665
      4          6           0       -1.807710    1.558549   -0.717910
      5          6           0       -3.408089   -0.267445    0.075682
      6          6           0        0.708040    1.546010   -1.167120
      7          6           0        3.073731   -0.808499    0.057071
      8          6           0        2.052121   -1.343160    1.078410
      9          6           0       -0.031837   -1.485530   -0.295155
     10          6           0       -1.932910    0.166772   -0.113965
     11          1           0       -2.479170    2.229609   -0.182917
     12          1           0       -4.618269   -1.546221   -0.433449
     13          1           0        2.781230    1.996630   -0.509658
     14          1           0        1.719240    3.601480    1.277300
     15          1           0        0.938210    0.901494   -2.042810
     16          1           0       -2.047520    1.617879   -1.725380
     17          1           0       -1.579870    0.140974    0.952420
     18          1           0        3.914651   -1.178579   -1.788010
     19          1           0        2.328301   -1.957100   -1.477710
     20          1           0        1.900661   -2.405550    1.068570
     21          1           0        2.450501   -1.013750    2.051500
     22          1           0        0.493154    0.209263    0.756611
     23          1           0       -0.062706   -2.113200    2.394490
     24          1           0       -0.255955   -0.523840    2.796960
     25          1           0       -1.635389   -1.512700   -1.519170
     26          7           0       -0.328569   -1.200440    2.015470
     27          7           0        3.110881   -1.378000   -1.170910
     28          7           0       -1.183659   -0.930595   -0.785289
     29          7           0       -0.034506    2.734960    0.567076
     30          7           0        1.767290    2.058250   -0.413192
     31          8           0       -4.253830    0.307663    0.724775
     32          8           0        0.517157   -2.439620   -0.794683
     33          8           0        3.900500    0.063594    0.341991
     34          8           0       -3.683249   -1.361951   -0.615863
 ---------------------------------------------------------------------

 SCF Done:  E(RHF) =  -960.210809078     A.U. after    2 cycles

 The electronic state is 1-A.
 Alpha  occ. eigenvalues --  -20.61693 -20.54507 -20.52602 -20.50964 -15.55529
 Alpha  occ. eigenvalues --  -15.53978 -15.52459 -15.51990 -15.48352 -11.40471
 Alpha  occ. eigenvalues --  -11.36782 -11.36705 -11.31098 -11.30778 -11.28879
 Alpha  occ. eigenvalues --  -11.27414 -11.25736 -11.25537 -11.24866  -1.57466
 Alpha  occ. eigenvalues --   -1.48813  -1.45956  -1.45238  -1.34341  -1.25272
 Alpha  occ. eigenvalues --   -1.21622  -1.19925  -1.17193  -1.09355  -1.05137
 Alpha  occ. eigenvalues --   -1.02851  -0.94860  -0.93216  -0.85202  -0.83877
 Alpha  occ. eigenvalues --   -0.83521  -0.80857  -0.79709  -0.77489  -0.76202
 Alpha  occ. eigenvalues --   -0.75186  -0.73521  -0.71656  -0.69161  -0.67879
 Alpha  occ. eigenvalues --   -0.67207  -0.66812  -0.65199  -0.65095  -0.63686
 Alpha  occ. eigenvalues --   -0.62514  -0.61470  -0.61259  -0.60756  -0.59883
 Alpha  occ. eigenvalues --   -0.57475  -0.56380  -0.56023  -0.54843  -0.54575
 Alpha  occ. eigenvalues --   -0.52661  -0.48635  -0.48003  -0.47755  -0.46836
 Alpha  occ. eigenvalues --   -0.44746  -0.43372  -0.42771  -0.42294  -0.41931
 Alpha  occ. eigenvalues --   -0.34899
 Alpha virt. eigenvalues --    0.03123   0.03302   0.03384   0.03991   0.04227
 Alpha virt. eigenvalues --    0.04735   0.05202   0.05632   0.05802   0.07277
 Alpha virt. eigenvalues --    0.07564   0.08499   0.08579   0.08827   0.09504

 Mulliken charges:
               1
     1  C   -1.234677
     2  C   -0.967105
     3  C   -1.194059
     4  C   -0.444023
     5  C    3.263627
     6  C   -0.404325
     7  C    0.623313
     8  C   -0.561647
     9  C    0.881057
    10  C   -1.970513
    11  H    0.171605
    12  H    0.456951
    13  H   -0.061390
    14  H   -0.143896
    15  H   -0.198845
    16  H    0.050259
    17  H    0.651867
    18  H    0.129155
    19  H    0.083539
    20  H    0.222019
    21  H    0.152712
    22  H    0.682529
    23  H    0.155798
    24  H    0.321086
    25  H    0.270778
    26  N    0.565009
    27  N    0.887102
    28  N    0.851343
    29  N    1.728606
    30  N    1.186481
    31  O   -1.499674
    32  O   -1.612214
    33  O   -1.540805
    34  O   -1.501661
 Sum of Mulliken charges =  -0.00000

 Dipole moment (field-independent basis, Debye):
    X=              0.4626    Y=             -1.5698    Z=             -1.7029  Tot=              2.3618

 Test job not archived.
 1\1\GINC-SE454\SP\RHF\Aug-CC-pVDZ\C10H15N5O4\OHZDE\08-Apr-2025\0\\#t h
 f aug-cc-pvdz iop(5/13=1,5/36=2,99/5=2) pseudo=read geom=check guess=(
 read,tcheck) scf=(maxcycle=1)\\title\\0,1\C,0,0.646437,-0.809146,0.927
 134\C,0,1.24176,2.86276,0.58541\C,0,-0.376835,1.91417,-0.489665\C,0,-1
 .80771,1.55855,-0.71791\C,0,-3.40809,-0.267444,0.075682\C,0,0.70804,1.
 54601,-1.16712\C,0,3.07373,-0.808499,0.0570708\C,0,2.05212,-1.34316,1.
 07841\C,0,-0.0318382,-1.48553,-0.295155\C,0,-1.93291,0.166773,-0.11396
 5\H,0,-2.47917,2.22961,-0.182917\H,0,-4.61827,-1.54622,-0.433449\H,0,2

 Normal termination of Gaussian 16 at Tue Apr  8 22:05:37 2025.
