 Gaussian 16, Revision C.01,

 ----------------------------------------------------------------------
 #t hf aug-cc-pvdz symm=none int=(grid=ultrafine) guess=(read,tcheck) s
 table=(opt,rrhf)
 ----------------------------------------------------------------------
 -----
 title
 -----
 Symbolic Z-matrix:
 Charge =  0 Multiplicity = 1

 SCF Done:  E(RHF) =  -795.516174682     A.U. after   14 cycles
 Normal termination of Gaussian 16 at Tue Apr  8 20:26:08 2025.
 Gaussian 16:  ES64L-G16RevC.01  3-Jul-2019

 ----------------------------------------------------------------------
 #t hf aug-cc-pvdz iop(5/13=1,5/36=2,99/5=2) pseudo=read geom=check gue
 ss=(read,tcheck) scf=(maxcycle=1)
 ----------------------------------------------------------------------
 -----
 title
 -----
 Structure from the checkpoint file:  "ANI1ccx_1619_conf14_mol1.chk"
 Charge =  0 Multiplicity = 1

                         Standard orientation:
 ---------------------------------------------------------------------
 Center     Atomic      Atomic             Coordinates (Angstroms)
 Number     Number       Type             X           Y           Z
 ---------------------------------------------------------------------
      1          6           0       -2.097750   -0.300331    0.739570
      2          6           0       -0.740717   -0.693020    0.069833
      3          6           0       -3.100490    0.466683   -0.259759
      4          6           0       -3.234980   -0.144706   -1.662569
      5          6           0        1.527860   -0.042848   -0.467432
      6          6           0        2.512259   -1.146082   -0.047798
      7          6           0        2.405670    1.307348   -0.500085
      8          6           0        1.645101    2.510329   -0.784737
      9          1           0        1.054799   -2.359761   -0.364816
     10          1           0        0.815467    2.779109   -0.144925
     11          1           0        2.374412    3.420978   -0.827485
     12          1           0        1.360411    2.340989   -1.850029
     13          1           0        3.858630    0.574695    0.712580
     14          1           0        3.048110    1.071838   -1.359819
     15          1           0        1.115710   -0.228089   -1.493889
     16          1           0        0.132844    0.591347    1.072721
     17          1           0       -3.096101   -1.204589   -1.556489
     18          1           0       -4.189720    0.224118   -2.118169
     19          1           0       -2.387460    0.205489   -2.267359
     20          1           0       -4.901610    1.214592    0.701333
     21          1           0       -2.746489    1.523781   -0.375850
     22          1           0       -2.302901   -1.340929    0.979624
     23          1           0       -2.691030    0.048871    2.585291
     24          1           0       -2.076209    1.492600    1.694161
     25          7           0       -1.936150    0.458043    1.923081
     26          7           0        0.286403    0.032282    0.337591
     27          8           0       -0.725433   -1.719190   -0.592004
     28          8           0       -4.478900    0.366990    0.311332
     29          8           0        3.607319   -0.933660    0.472179
     30          8           0        3.233831    1.457248    0.649095
     31          8           0        1.947889   -2.362832   -0.057312
 ---------------------------------------------------------------------

 SCF Done:  E(RHF) =  -796.323807766     A.U. after    2 cycles

 The electronic state is 1-A.
 Alpha  occ. eigenvalues --  -20.60010 -20.56907 -20.56256 -20.53178 -20.52076
 Alpha  occ. eigenvalues --  -15.55282 -15.53085 -11.42516 -11.36922 -11.33210
 Alpha  occ. eigenvalues --  -11.32760 -11.30698 -11.29727 -11.24688 -11.23797
 Alpha  occ. eigenvalues --   -1.55693  -1.49253  -1.47711  -1.42772  -1.40322
 Alpha  occ. eigenvalues --   -1.30614  -1.22100  -1.08648  -1.04284  -1.01151
 Alpha  occ. eigenvalues --   -0.94918  -0.87827  -0.86693  -0.84919  -0.82705
 Alpha  occ. eigenvalues --   -0.78979  -0.74683  -0.71891  -0.71090  -0.69603
 Alpha  occ. eigenvalues --   -0.68943  -0.67036  -0.66770  -0.64960  -0.63338
 Alpha  occ. eigenvalues --   -0.61816  -0.61094  -0.59442  -0.58400  -0.57491
 Alpha  occ. eigenvalues --   -0.55890  -0.55489  -0.54401  -0.53314  -0.51519
 Alpha  occ. eigenvalues --   -0.50559  -0.49901  -0.49334  -0.48848  -0.47071
 Alpha  occ. eigenvalues --   -0.45745  -0.44113  -0.41904  -0.40877
 Alpha virt. eigenvalues --    0.01803   0.02870   0.03502   0.03635   0.04596
 Alpha virt. eigenvalues --    0.04913   0.05264   0.05705   0.06265   0.07114
 Alpha virt. eigenvalues --    0.07821   0.08296   0.08400   0.09204   0.09552

 Mulliken charges:
               1
     1  C   -2.135459
     2  C    0.315091
     3  C    0.886770
     4  C   -0.267170
     5  C   -1.276906
     6  C    2.529112
     7  C    1.097217
     8  C   -0.433338
     9  H    0.487822
    10  H    0.116713
    11  H    0.276637
    12  H    0.308405
    13  H    0.575705
    14  H    0.101943
    15  H    0.169287
    16  H    0.285859
    17  H    0.251104
    18  H    0.201419
    19  H    0.258717
    20  H    0.372911
    21  H    0.126815
    22  H    0.227433
    23  H    0.321199
    24  H    0.318643
    25  N    0.906711
    26  N    1.237146
    27  O   -1.494994
    28  O   -1.362294
    29  O   -1.395754
    30  O   -1.544256
    31  O   -1.462488
 Sum of Mulliken charges =   0.00000

 Dipole moment (field-independent basis, Debye):
    X=             -4.5518    Y=              3.5648    Z=             -1.2817  Tot=              5.9220

 Test job not archived.
 1\1\GINC-SE462\SP\RHF\Aug-CC-pVDZ\C8H16N2O5\OHZDE\08-Apr-2025\0\\#t hf
  aug-cc-pvdz iop(5/13=1,5/36=2,99/5=2) pseudo=read geom=check guess=(r
 ead,tcheck) scf=(maxcycle=1)\\title\\0,1\C,0,-2.09775,-0.300331,0.7395
 69\C,0,-0.740716,-0.69302,0.0698328\C,0,-3.10049,0.466682,-0.25976\C,0
 ,-3.23498,-0.144707,-1.66257\C,0,1.52786,-0.0428467,-0.467433\C,0,2.51
 226,-1.14608,-0.0477983\C,0,2.40567,1.30735,-0.500086\C,0,1.6451,2.510
 33,-0.784738\H,0,1.0548,-2.35976,-0.364817\H,0,0.815466,2.77911,-0.144
 926\H,0,2.37441,3.42098,-0.827486\H,0,1.36041,2.34099,-1.85003\H,0,3.8

 Normal termination of Gaussian 16 at Tue Apr  8 20:26:37 2025.
