 Gaussian 16, Revision C.01,

 ----------------------------------------------------------------------
 #t hf aug-cc-pvdz symm=none int=(grid=ultrafine) guess=(read,tcheck) s
 table=(opt,rrhf)
 ----------------------------------------------------------------------
 -----
 title
 -----
 Symbolic Z-matrix:
 Charge =  0 Multiplicity = 1

 SCF Done:  E(RHF) =  -723.898283305     A.U. after   15 cycles
 Normal termination of Gaussian 16 at Tue Apr  8 22:12:34 2025.
 Gaussian 16:  ES64L-G16RevC.01  3-Jul-2019

 ----------------------------------------------------------------------
 #t hf aug-cc-pvdz iop(5/13=1,5/36=2,99/5=2) pseudo=read geom=check gue
 ss=(read,tcheck) scf=(maxcycle=1)
 ----------------------------------------------------------------------
 -----
 title
 -----
 Structure from the checkpoint file:  "ANI1ccx_85_conf1_mol1.chk"
 Charge =  0 Multiplicity = 1

                         Standard orientation:
 ---------------------------------------------------------------------
 Center     Atomic      Atomic             Coordinates (Angstroms)
 Number     Number       Type             X           Y           Z
 ---------------------------------------------------------------------
      1          6           0       -1.513379    0.126448   -0.275651
      2          6           0        3.711361    1.028678   -0.851579
      3          6           0        2.469781    1.130239    0.075990
      4          6           0        1.990920   -1.460051   -0.104236
      5          6           0        1.436741    0.005116   -0.091440
      6          6           0        1.819931    2.495969    0.087588
      7          6           0       -4.046230   -0.643698    0.158148
      8          6           0       -3.020919    0.474306   -0.114993
      9          6           0       -0.820711    0.169305    1.050460
     10          6           0       -3.476579    1.316161   -1.323890
     11          1           0        0.828848    0.134524   -0.998850
     12          1           0        0.404030   -1.903511   -1.029670
     13          1           0        1.370211    2.707799    1.070580
     14          1           0        2.643922    3.218349   -0.131309
     15          1           0        1.017181    2.653959   -0.687410
     16          1           0        3.525791    1.163718   -1.902120
     17          1           0        4.483641    1.770658   -0.521188
     18          1           0        4.215991    0.072147   -0.781680
     19          1           0        2.788651    0.895842    1.147470
     20          1           0        0.951541    0.096759    1.929880
     21          1           0       -4.454319    1.675511   -1.252270
     22          1           0       -3.382909    0.736336   -2.239160
     23          1           0       -3.796960   -1.360369    0.943889
     24          1           0       -5.019329   -0.226612    0.504491
     25          1           0       -4.311250   -1.168689   -0.783138
     26          1           0       -3.013739    1.018020    0.786194
     27          1           0       -1.072369    0.717158   -1.032330
     28          1           0       -1.899160   -1.601890   -1.403970
     29          1           0       -1.385130   -1.865280    0.050450
     30          1           0       -2.764869    2.203490   -1.415670
     31          7           0       -1.220500   -1.249720   -0.768951
     32          7           0        0.523884    0.084254    1.000140
     33          8           0        3.076840   -1.653811    0.339509
     34          8           0       -1.437999    0.161671    2.117140
     35          8           0        1.166290   -2.337171   -0.648512
 ---------------------------------------------------------------------

 SCF Done:  E(RHF) =  -724.649071517     A.U. after    2 cycles

 The electronic state is 1-A.
 Alpha  occ. eigenvalues --  -20.58115 -20.52928 -20.52303 -15.54157 -15.53295
 Alpha  occ. eigenvalues --  -11.38617 -11.37161 -11.29928 -11.29437 -11.25886
 Alpha  occ. eigenvalues --  -11.24621 -11.24399 -11.24130 -11.24072 -11.22791
 Alpha  occ. eigenvalues --   -1.54506  -1.46713  -1.46414  -1.28036  -1.23040
 Alpha  occ. eigenvalues --   -1.09764  -1.08895  -1.00346  -0.97862  -0.94521
 Alpha  occ. eigenvalues --   -0.94089  -0.85993  -0.84680  -0.80970  -0.79917
 Alpha  occ. eigenvalues --   -0.76529  -0.76320  -0.70344  -0.68659  -0.66852
 Alpha  occ. eigenvalues --   -0.66263  -0.64709  -0.63671  -0.62903  -0.61902
 Alpha  occ. eigenvalues --   -0.60692  -0.59655  -0.58140  -0.57245  -0.56561
 Alpha  occ. eigenvalues --   -0.55670  -0.55195  -0.53950  -0.52598  -0.51078
 Alpha  occ. eigenvalues --   -0.50734  -0.49985  -0.49507  -0.47592  -0.46635
 Alpha  occ. eigenvalues --   -0.46173  -0.45347  -0.43669  -0.40106
 Alpha virt. eigenvalues --    0.02418   0.02865   0.03059   0.03705   0.04026
 Alpha virt. eigenvalues --    0.04537   0.04957   0.05681   0.06021   0.06917
 Alpha virt. eigenvalues --    0.07049   0.07435   0.08103   0.08243   0.09075

 Mulliken charges:
               1
     1  C   -0.450270
     2  C   -0.230631
     3  C   -0.706273
     4  C    2.412414
     5  C   -0.548847
     6  C   -0.278566
     7  C   -0.044598
     8  C   -0.813766
     9  C    0.144768
    10  C    0.049854
    11  H    0.124403
    12  H    0.721740
    13  H    0.230053
    14  H    0.174609
    15  H    0.262908
    16  H    0.130845
    17  H    0.200631
    18  H    0.122919
    19  H    0.278781
    20  H    0.248411
    21  H   -0.085555
    22  H    0.238902
    23  H    0.121258
    24  H    0.133806
    25  H    0.252153
    26  H    0.111601
    27  H   -0.187298
    28  H    0.245454
    29  H    0.380539
    30  H    0.364673
    31  N   -0.058657
    32  N    0.755387
    33  O   -1.421317
    34  O   -1.434445
    35  O   -1.445887
 Sum of Mulliken charges =  -0.00000

 Dipole moment (field-independent basis, Debye):
    X=             -3.1531    Y=              2.4411    Z=             -3.2243  Tot=              5.1281

 Test job not archived.
 1\1\GINC-SE364\SP\RHF\Aug-CC-pVDZ\C10H20N2O3\OHZDE\08-Apr-2025\0\\#t h
 f aug-cc-pvdz iop(5/13=1,5/36=2,99/5=2) pseudo=read geom=check guess=(
 read,tcheck) scf=(maxcycle=1)\\title\\0,1\C,0,-1.51338,0.126448,-0.275
 651\C,0,3.71136,1.02868,-0.851579\C,0,2.46978,1.13024,0.0759899\C,0,1.
 99092,-1.46005,-0.104236\C,0,1.43674,0.00511669,-0.0914399\C,0,1.81993
 ,2.49597,0.0875881\C,0,-4.04623,-0.643699,0.158148\C,0,-3.02092,0.4743
 06,-0.114993\C,0,-0.820712,0.169305,1.05046\C,0,-3.47658,1.31616,-1.32
 389\H,0,0.828847,0.134525,-0.99885\H,0,0.40403,-1.90351,-1.02967\H,0,1

 Normal termination of Gaussian 16 at Tue Apr  8 22:13:24 2025.
