 Gaussian 16, Revision C.01,

 ----------------------------------------------------------------------
 #t hf aug-cc-pvdz symm=none int=(grid=ultrafine) guess=(read,tcheck) s
 table=(opt,rrhf)
 ----------------------------------------------------------------------
 -----
 title
 -----
 Symbolic Z-matrix:
 Charge =  0 Multiplicity = 1

 SCF Done:  E(RHF) =  -555.300289159     A.U. after   18 cycles
 Normal termination of Gaussian 16 at Tue Apr  8 22:03:59 2025.
 Gaussian 16:  ES64L-G16RevC.01  3-Jul-2019

 ----------------------------------------------------------------------
 #t hf aug-cc-pvdz iop(5/13=1,5/36=2,99/5=2) pseudo=read geom=check gue
 ss=(read,tcheck) scf=(maxcycle=1)
 ----------------------------------------------------------------------
 -----
 title
 -----
 Structure from the checkpoint file:  "ANI1ccx_886_conf19_mol1.chk"
 Charge =  0 Multiplicity = 1

                         Standard orientation:
 ---------------------------------------------------------------------
 Center     Atomic      Atomic             Coordinates (Angstroms)
 Number     Number       Type             X           Y           Z
 ---------------------------------------------------------------------
      1          6           0        1.311439    0.687862    0.078584
      2          6           0       -0.938266    0.670056   -0.043181
      3          6           0       -0.980778   -0.730601   -0.051890
      4          6           0        1.338149   -0.721706   -0.034946
      5          1           0        2.492109    2.281402   -0.169763
      6          1           0        3.221439    0.986088   -0.725199
      7          1           0        2.489550   -2.280088    0.122551
      8          1           0        3.046929   -0.943035    0.858543
      9          7           0        2.551179    1.316412   -0.020276
     10          7           0        0.211820    1.446211    0.077532
     11          7           0       -2.196811    1.127351    0.022808
     12          7           0       -2.211111   -1.137299   -0.011203
     13          7           0        0.233255   -1.437629   -0.094838
     14          7           0        2.581289   -1.282008    0.018893
     15          8           0       -2.977581    0.036338    0.034006
 ---------------------------------------------------------------------

 SCF Done:  E(RHF) =  -555.845948618     A.U. after    2 cycles

 The electronic state is 1-A.
 Alpha  occ. eigenvalues --  -20.67264 -15.59533 -15.58975 -15.56310 -15.55505
 Alpha  occ. eigenvalues --  -15.55292 -15.55251 -11.37998 -11.37950 -11.33048
 Alpha  occ. eigenvalues --  -11.32371  -1.61394  -1.36160  -1.29058  -1.27186
 Alpha  occ. eigenvalues --   -1.23084  -1.18981  -1.16367  -0.99788  -0.91935
 Alpha  occ. eigenvalues --   -0.90525  -0.83415  -0.81593  -0.77583  -0.74273
 Alpha  occ. eigenvalues --   -0.72366  -0.71819  -0.70639  -0.64397  -0.63708
 Alpha  occ. eigenvalues --   -0.59905  -0.58715  -0.57140  -0.53664  -0.53133
 Alpha  occ. eigenvalues --   -0.51137  -0.48333  -0.42589  -0.39345
 Alpha virt. eigenvalues --   -0.01706   0.01671   0.03358   0.04997   0.05414
 Alpha virt. eigenvalues --    0.07654   0.08541   0.09116   0.09236   0.09679
 Alpha virt. eigenvalues --    0.10789   0.12054   0.12187   0.12583   0.12814

 Mulliken charges:
               1
     1  C   -1.784047
     2  C   -1.322409
     3  C   -0.912807
     4  C   -1.717134
     5  H   -0.017421
     6  H    0.234378
     7  H    0.086141
     8  H    0.370397
     9  N    0.827235
    10  N    1.110636
    11  N    1.413232
    12  N    1.400582
    13  N    0.956797
    14  N    0.853036
    15  O   -1.498617
 Sum of Mulliken charges =   0.00000

 Dipole moment (field-independent basis, Debye):
    X=              7.8952    Y=             -0.2266    Z=              0.0564  Tot=              7.8986

 Test job not archived.
 1\1\GINC-SE187\SP\RHF\Aug-CC-pVDZ\C4H4N6O1\OHZDE\08-Apr-2025\0\\#t hf
 aug-cc-pvdz iop(5/13=1,5/36=2,99/5=2) pseudo=read geom=check guess=(re
 ad,tcheck) scf=(maxcycle=1)\\title\\0,1\C,0,1.31144,0.68786,0.0785838\
 C,0,-0.938265,0.670055,-0.0431807\C,0,-0.980777,-0.730602,-0.0518898\C
 ,0,1.33815,-0.721708,-0.0349462\H,0,2.49211,2.2814,-0.169763\H,0,3.221
 44,0.986086,-0.725199\H,0,2.48955,-2.28009,0.122551\H,0,3.04693,-0.943
 037,0.858543\N,0,2.55118,1.31641,-0.0202758\N,0,0.211821,1.44621,0.077
 5324\N,0,-2.19681,1.12735,0.0228076\N,0,-2.21111,-1.1373,-0.0112025\N,

 Normal termination of Gaussian 16 at Tue Apr  8 22:04:08 2025.
