 Gaussian 16, Revision C.01,

 ----------------------------------------------------------------------
 #t hf aug-cc-pvdz symm=none int=(grid=ultrafine) guess=(read,tcheck) s
 table=(opt,rrhf)
 ----------------------------------------------------------------------
 -----
 title
 -----
 Symbolic Z-matrix:
 Charge =  0 Multiplicity = 1

 SCF Done:  E(RHF) =  -849.490005861     A.U. after   14 cycles
 Normal termination of Gaussian 16 at Tue Apr  8 20:30:45 2025.
 Gaussian 16:  ES64L-G16RevC.01  3-Jul-2019

 ----------------------------------------------------------------------
 #t hf aug-cc-pvdz iop(5/13=1,5/36=2,99/5=2) pseudo=read geom=check gue
 ss=(read,tcheck) scf=(maxcycle=1)
 ----------------------------------------------------------------------
 -----
 title
 -----
 Structure from the checkpoint file:  "ANI1ccx_1611_conf15_mol2.chk"
 Charge =  0 Multiplicity = 1

                         Standard orientation:
 ---------------------------------------------------------------------
 Center     Atomic      Atomic             Coordinates (Angstroms)
 Number     Number       Type             X           Y           Z
 ---------------------------------------------------------------------
      1          6           0       -2.344570   -0.664858    0.594027
      2          6           0       -0.996028   -1.169380    0.086067
      3          6           0       -3.069420    0.389705   -0.282861
      4          6           0       -2.520711    1.815169   -0.119519
      5          6           0        1.258250   -0.477039   -0.774686
      6          6           0        2.372170   -1.319908   -0.016842
      7          6           0        1.704419    0.954255   -1.220890
      8          6           0        1.610339    1.895901   -0.016092
      9          1           0        1.005191   -2.538339    0.116857
     10          1           0        3.704189    1.848122    0.181905
     11          1           0        2.740568    2.733802    1.303970
     12          1           0        2.719479    0.944179   -1.601100
     13          1           0        0.961145    1.357121   -1.879060
     14          1           0        0.937405   -1.139069   -1.569160
     15          1           0       -0.255020    0.644768    0.224045
     16          1           0       -2.202821    2.074129    0.892502
     17          1           0       -1.679381    1.825289   -0.753614
     18          1           0       -3.192382    2.598179   -0.391047
     19          1           0       -3.603590    0.310432   -2.142190
     20          1           0       -4.075050    0.415724    0.082360
     21          1           0       -2.982039   -1.549591    0.579443
     22          1           0       -2.180780   -1.038121    2.628610
     23          1           0       -1.585560    0.399565    2.156610
     24          7           0       -2.349980   -0.219734    2.001660
     25          7           0        0.057340   -0.298223    0.018937
     26          7           0        2.822839    2.197812    0.487535
     27          8           0       -0.748454   -2.352840   -0.172129
     28          8           0       -3.003170   -0.152936   -1.585470
     29          8           0        3.475210   -0.875785    0.190691
     30          8           0        0.554813    2.271061    0.476769
     31          8           0        1.957921   -2.538029    0.229857
 ---------------------------------------------------------------------

 SCF Done:  E(RHF) =  -850.345669634     A.U. after    2 cycles

 The electronic state is 1-A.
 Alpha  occ. eigenvalues --  -20.58892 -20.56460 -20.53800 -20.53508 -20.53051
 Alpha  occ. eigenvalues --  -15.54151 -15.53245 -15.51268 -11.39754 -11.38479
 Alpha  occ. eigenvalues --  -11.37372 -11.32082 -11.30375 -11.28985 -11.27683
 Alpha  occ. eigenvalues --  -11.22529  -1.55299  -1.48991  -1.47812  -1.47446
 Alpha  occ. eigenvalues --   -1.45982  -1.26315  -1.25238  -1.20615  -1.08306
 Alpha  occ. eigenvalues --   -1.04495  -0.98331  -0.95414  -0.86873  -0.85874
 Alpha  occ. eigenvalues --   -0.83033  -0.82301  -0.78955  -0.76615  -0.74623
 Alpha  occ. eigenvalues --   -0.72241  -0.71293  -0.70673  -0.68630  -0.67090
 Alpha  occ. eigenvalues --   -0.65179  -0.64943  -0.63275  -0.62158  -0.61503
 Alpha  occ. eigenvalues --   -0.60873  -0.58806  -0.58556  -0.57646  -0.56770
 Alpha  occ. eigenvalues --   -0.55153  -0.54623  -0.53050  -0.50605  -0.49399
 Alpha  occ. eigenvalues --   -0.47316  -0.47098  -0.45501  -0.45424  -0.44549
 Alpha  occ. eigenvalues --   -0.42813  -0.41100
 Alpha virt. eigenvalues --    0.02816   0.02986   0.03596   0.04117   0.04415
 Alpha virt. eigenvalues --    0.04964   0.05424   0.05979   0.06317   0.07222
 Alpha virt. eigenvalues --    0.07950   0.08426   0.09361   0.09735   0.10167

 Mulliken charges:
               1
     1  C   -1.648573
     2  C    0.340814
     3  C    1.560291
     4  C   -0.430280
     5  C   -0.899631
     6  C    2.390154
     7  C   -0.080116
     8  C    0.274107
     9  H    0.558190
    10  H    0.110191
    11  H    0.189682
    12  H    0.003220
    13  H    0.214787
    14  H   -0.068633
    15  H    0.104832
    16  H    0.276577
    17  H    0.310340
    18  H   -0.099187
    19  H    0.267118
    20  H    0.130000
    21  H    0.126329
    22  H    0.226067
    23  H    0.153684
    24  N    0.793379
    25  N    1.381313
    26  N    0.939353
    27  O   -1.457553
    28  O   -1.433740
    29  O   -1.315195
    30  O   -1.564335
    31  O   -1.353182
 Sum of Mulliken charges =  -0.00000

 Dipole moment (field-independent basis, Debye):
    X=             -1.5260    Y=              4.1553    Z=             -1.4556  Tot=              4.6598

 Test job not archived.
 1\1\GINC-SE402\SP\RHF\Aug-CC-pVDZ\C8H15N3O5\OHZDE\08-Apr-2025\0\\#t hf
  aug-cc-pvdz iop(5/13=1,5/36=2,99/5=2) pseudo=read geom=check guess=(r
 ead,tcheck) scf=(maxcycle=1)\\title\\0,1\C,0,-2.34457,-0.664857,0.5940
 27\C,0,-0.996028,-1.16938,0.0860671\C,0,-3.06942,0.389706,-0.282861\C,
 0,-2.52071,1.81517,-0.119519\C,0,1.25825,-0.47704,-0.774686\C,0,2.3721
 7,-1.31991,-0.0168423\C,0,1.70442,0.954254,-1.22089\C,0,1.61034,1.8959
 ,-0.0160922\H,0,1.00519,-2.53834,0.116857\H,0,3.70419,1.84812,0.181905
 \H,0,2.74057,2.7338,1.30397\H,0,2.71948,0.944177,-1.6011\H,0,0.961146,

 Normal termination of Gaussian 16 at Tue Apr  8 20:31:27 2025.
