 Gaussian 16, Revision C.01,

 ----------------------------------------------------------------------
 #t hf aug-cc-pvdz symm=none int=(grid=ultrafine) guess=(read,tcheck) s
 table=(opt,rrhf)
 ----------------------------------------------------------------------
 -----
 title
 -----
 Symbolic Z-matrix:
 Charge =  0 Multiplicity = 1

 SCF Done:  E(RHF) =  -456.250384519     A.U. after   11 cycles
 Normal termination of Gaussian 16 at Tue Apr  8 21:07:41 2025.
 Gaussian 16:  ES64L-G16RevC.01  3-Jul-2019

 ----------------------------------------------------------------------
 #t hf aug-cc-pvdz iop(5/13=1,5/36=2,99/5=2) pseudo=read geom=check gue
 ss=(read,tcheck) scf=(maxcycle=1)
 ----------------------------------------------------------------------
 -----
 title
 -----
 Structure from the checkpoint file:  "ANI1ccx_1844_conf320_mol1.chk"
 Charge =  0 Multiplicity = 1

                         Standard orientation:
 ---------------------------------------------------------------------
 Center     Atomic      Atomic             Coordinates (Angstroms)
 Number     Number       Type             X           Y           Z
 ---------------------------------------------------------------------
      1          1           0       -2.169962    0.673318   -0.077220
      2          1           0       -0.421042    1.836540   -0.220140
      3          1           0        0.379785    1.980780    1.111850
      4          1           0        2.883108    0.933703   -1.248520
      5          1           0        2.003398    1.259380   -0.069716
      6          1           0       -0.587024   -2.513750   -0.948911
      7          1           0       -2.164702    1.974300    0.716537
      8          1           0        0.333266   -1.626990   -0.290222
      9          1           0        2.306079   -1.621249    1.469190
     10          1           0        2.478129   -0.742450    0.125783
     11          1           0       -1.970211   -1.323380    0.240590
     12          1           0       -3.170461   -1.038861   -0.639674
     13          8           0        2.887748    0.792128   -0.325418
     14          8           0        2.090939   -1.604179    0.466298
     15          8           0        0.485493    1.784170    0.165288
     16          8           0       -0.580993   -1.739420   -0.479671
     17          8           0       -2.032212    1.677580   -0.124219
     18          8           0       -2.838521   -0.884196    0.276528
 ---------------------------------------------------------------------

 SCF Done:  E(RHF) =  -456.725205657     A.U. after    2 cycles

 The electronic state is 1-A.
 Alpha  occ. eigenvalues --  -20.55868 -20.55208 -20.55090 -20.54962 -20.54326
 Alpha  occ. eigenvalues --  -20.53966  -1.48342  -1.46469  -1.44230  -1.42990
 Alpha  occ. eigenvalues --   -1.42262  -1.39457  -0.74393  -0.73211  -0.72560
 Alpha  occ. eigenvalues --   -0.71875  -0.69716  -0.68254  -0.63417  -0.62279
 Alpha  occ. eigenvalues --   -0.59965  -0.56860  -0.55170  -0.54012  -0.51928
 Alpha  occ. eigenvalues --   -0.50546  -0.49018  -0.48149  -0.47862  -0.47430
 Alpha virt. eigenvalues --    0.03302   0.03680   0.04648   0.05090   0.06650
 Alpha virt. eigenvalues --    0.07329   0.08101   0.08315   0.09321   0.10293
 Alpha virt. eigenvalues --    0.10743   0.12204   0.17728   0.18465   0.19090

 Mulliken charges:
               1
     1  H    0.805540
     2  H    0.735089
     3  H    0.436874
     4  H    0.316502
     5  H    0.855182
     6  H    0.255296
     7  H    0.261089
     8  H    0.667586
     9  H    0.430400
    10  H    0.755533
    11  H    0.749411
    12  H    0.372473
    13  O   -1.129788
    14  O   -1.134512
    15  O   -1.287553
    16  O   -0.983248
    17  O   -1.039882
    18  O   -1.065990
 Sum of Mulliken charges =  -0.00000

 Dipole moment (field-independent basis, Debye):
    X=             -0.6927    Y=             -0.4132    Z=              0.1279  Tot=              0.8166

 Test job not archived.
 1\1\GINC-SE398\SP\RHF\Aug-CC-pVDZ\H12O6\OHZDE\08-Apr-2025\0\\#t hf aug
 -cc-pvdz iop(5/13=1,5/36=2,99/5=2) pseudo=read geom=check guess=(read,
 tcheck) scf=(maxcycle=1)\\title\\0,1\H,0,-2.16996,0.673318,-0.0772198\
 H,0,-0.42104,1.83654,-0.22014\H,0,0.379787,1.98078,1.11185\H,0,2.88311
 ,0.933702,-1.24852\H,0,2.0034,1.25938,-0.0697157\H,0,-0.587023,-2.5137
 5,-0.948911\H,0,-2.1647,1.9743,0.716537\H,0,0.333267,-1.62699,-0.29022
 2\H,0,2.30608,-1.62125,1.46919\H,0,2.47813,-0.742451,0.125783\H,0,-1.9
 7021,-1.32338,0.24059\H,0,-3.17046,-1.03886,-0.639674\O,0,2.88775,0.79

 Normal termination of Gaussian 16 at Tue Apr  8 21:07:46 2025.
