 Gaussian 16, Revision C.01,

 ----------------------------------------------------------------------
 #t hf aug-cc-pvdz symm=none int=(grid=ultrafine) guess=(read,tcheck) s
 table=(opt,rrhf)
 ----------------------------------------------------------------------
 -----
 title
 -----
 Symbolic Z-matrix:
 Charge =  0 Multiplicity = 1

 SCF Done:  E(RHF) =  -396.755270975     A.U. after   14 cycles
 Normal termination of Gaussian 16 at Tue Apr  8 21:53:16 2025.
 Gaussian 16:  ES64L-G16RevC.01  3-Jul-2019

 ----------------------------------------------------------------------
 #t hf aug-cc-pvdz iop(5/13=1,5/36=2,99/5=2) pseudo=read geom=check gue
 ss=(read,tcheck) scf=(maxcycle=1)
 ----------------------------------------------------------------------
 -----
 title
 -----
 Structure from the checkpoint file:  "ANI1ccx_744_conf28_mol1.chk"
 Charge =  0 Multiplicity = 1

                         Standard orientation:
 ---------------------------------------------------------------------
 Center     Atomic      Atomic             Coordinates (Angstroms)
 Number     Number       Type             X           Y           Z
 ---------------------------------------------------------------------
      1          6           0        0.175098    0.028650   -0.413998
      2          6           0       -1.250471   -0.298737   -0.010222
      3          6           0        1.195609   -0.628580    0.487214
      4          1           0        1.242387    1.674871   -0.044469
      5          1           0        0.249300    1.829820   -1.251780
      6          1           0        0.328955   -0.190087   -1.453920
      7          1           0        0.964861   -1.718479    0.367427
      8          1           0        1.098658   -0.252589    1.545090
      9          1           0        3.082848   -0.246842    0.745274
     10          1           0       -1.130693    1.475429    0.381880
     11          7           0        0.294752    1.463950   -0.306921
     12          8           0       -1.734641   -1.356711   -0.356419
     13          8           0        2.504869   -0.327068   -0.072265
     14          8           0       -1.847852    0.755308    0.613805
 ---------------------------------------------------------------------

 SCF Done:  E(RHF) =  -397.158146548     A.U. after    2 cycles

 The electronic state is 1-A.
 Alpha  occ. eigenvalues --  -20.58877 -20.57504 -20.53044 -15.53271 -11.38541
 Alpha  occ. eigenvalues --  -11.32634 -11.29245  -1.51220  -1.46580  -1.44069
 Alpha  occ. eigenvalues --   -1.25260  -1.03801  -0.90359  -0.78822  -0.77061
 Alpha  occ. eigenvalues --   -0.75305  -0.70465  -0.69101  -0.64452  -0.61992
 Alpha  occ. eigenvalues --   -0.61760  -0.58064  -0.55496  -0.53228  -0.50162
 Alpha  occ. eigenvalues --   -0.47817  -0.45547  -0.42645
 Alpha virt. eigenvalues --    0.02197   0.03298   0.04656   0.04946   0.06375
 Alpha virt. eigenvalues --    0.06758   0.07076   0.09975   0.11236   0.12275
 Alpha virt. eigenvalues --    0.12834   0.13694   0.14752   0.15145   0.15937

 Mulliken charges:
               1
     1  C   -1.648223
     2  C    2.443462
     3  C    0.704000
     4  H    0.357987
     5  H    0.308372
     6  H    0.110830
     7  H    0.211288
     8  H    0.243428
     9  H    0.347143
    10  H    0.673264
    11  N    0.122638
    12  O   -1.280713
    13  O   -1.189847
    14  O   -1.403629
 Sum of Mulliken charges =  -0.00000

 Dipole moment (field-independent basis, Debye):
    X=              4.8575    Y=              2.7016    Z=              0.4573  Tot=              5.5770

 Test job not archived.
 1\1\GINC-SE163\SP\RHF\Aug-CC-pVDZ\C3H7N1O3\OHZDE\08-Apr-2025\0\\#t hf
 aug-cc-pvdz iop(5/13=1,5/36=2,99/5=2) pseudo=read geom=check guess=(re
 ad,tcheck) scf=(maxcycle=1)\\title\\0,1\C,0,0.1751,0.0286499,-0.413998
 \C,0,-1.25047,-0.298736,-0.0102221\C,0,1.19561,-0.628581,0.487214\H,0,
 1.24239,1.67487,-0.0444689\H,0,0.249303,1.82982,-1.25178\H,0,0.328957,
 -0.190087,-1.45392\H,0,0.964861,-1.71848,0.367427\H,0,1.09866,-0.25259
 ,1.54509\H,0,3.08285,-0.246845,0.745274\H,0,-1.13069,1.47543,0.38188\N
 ,0,0.294755,1.46395,-0.306921\O,0,-1.73464,-1.35671,-0.356419\O,0,2.50

 Normal termination of Gaussian 16 at Tue Apr  8 21:53:21 2025.
