 Gaussian 16, Revision C.01,

 ----------------------------------------------------------------------
 #t hf aug-cc-pvdz symm=none int=(grid=ultrafine) guess=(read,tcheck) s
 table=(opt,rrhf)
 ----------------------------------------------------------------------
 -----
 title
 -----
 Symbolic Z-matrix:
 Charge =  0 Multiplicity = 1

 SCF Done:  E(RHF) =  -560.128619350     A.U. after   17 cycles
 Normal termination of Gaussian 16 at Tue Apr  8 19:49:12 2025.
 Gaussian 16:  ES64L-G16RevC.01  3-Jul-2019

 ----------------------------------------------------------------------
 #t hf aug-cc-pvdz iop(5/13=1,5/36=2,99/5=2) pseudo=read geom=check gue
 ss=(read,tcheck) scf=(maxcycle=1)
 ----------------------------------------------------------------------
 -----
 title
 -----
 Structure from the checkpoint file:  "ANI1ccx_1481_conf4_mol2.chk"
 Charge =  0 Multiplicity = 1

                         Standard orientation:
 ---------------------------------------------------------------------
 Center     Atomic      Atomic             Coordinates (Angstroms)
 Number     Number       Type             X           Y           Z
 ---------------------------------------------------------------------
      1          6           0        1.995890   -0.906629   -0.002542
      2          6           0       -0.269512   -0.034275    0.026296
      3          6           0       -1.633971    0.063257    0.004386
      4          6           0       -0.890610    2.084289    0.005149
      5          6           0        1.572379    1.517920   -0.016905
      6          6           0        2.428429    0.503367   -0.022309
      7          6           0       -2.564120   -1.019792   -0.026478
      8          1           0        0.239295   -2.012911    0.177157
      9          1           0       -0.788724    3.155649   -0.022370
     10          1           0        1.829948    2.582990   -0.018591
     11          1           0        3.509729    0.636948   -0.056350
     12          7           0        0.618473   -1.082660    0.066778
     13          7           0       -1.983091    1.391799   -0.010698
     14          7           0        0.200669    1.248779    0.026288
     15          7           0       -3.234160   -1.962442   -0.028499
     16          8           0        2.770700   -1.847479   -0.032813
 ---------------------------------------------------------------------

 SCF Done:  E(RHF) =  -560.678288738     A.U. after    2 cycles

 The electronic state is 1-A.
 Alpha  occ. eigenvalues --  -20.54796 -15.62395 -15.59478 -15.53895 -15.52339
 Alpha  occ. eigenvalues --  -11.40770 -11.37592 -11.36509 -11.34460 -11.31021
 Alpha  occ. eigenvalues --  -11.29542 -11.29422  -1.49438  -1.42502  -1.31181
 Alpha  occ. eigenvalues --   -1.26225  -1.23649  -1.13097  -1.08436  -0.98268
 Alpha  occ. eigenvalues --   -0.93878  -0.92622  -0.85813  -0.79909  -0.77253
 Alpha  occ. eigenvalues --   -0.75713  -0.73293  -0.70770  -0.69201  -0.64901
 Alpha  occ. eigenvalues --   -0.63957  -0.62510  -0.61177  -0.57021  -0.53678
 Alpha  occ. eigenvalues --   -0.52006  -0.51122  -0.51038  -0.46820  -0.41167
 Alpha  occ. eigenvalues --   -0.36100
 Alpha virt. eigenvalues --    0.01497   0.03067   0.04165   0.04228   0.05416
 Alpha virt. eigenvalues --    0.05909   0.07212   0.07770   0.08811   0.08842
 Alpha virt. eigenvalues --    0.10354   0.10714   0.10903   0.11350   0.12406

 Mulliken charges:
               1
     1  C    0.857048
     2  C   -1.841707
     3  C    0.745968
     4  C   -0.471402
     5  C    0.306567
     6  C    0.565525
     7  C   -2.653857
     8  H    0.319519
     9  H   -0.136960
    10  H   -0.250053
    11  H   -0.177537
    12  N    0.910801
    13  N    1.063540
    14  N    0.959113
    15  N    1.244056
    16  O   -1.440622
 Sum of Mulliken charges =  -0.00000

 Dipole moment (field-independent basis, Debye):
    X=              4.9740    Y=              6.3073    Z=              0.2069  Tot=              8.0353

 Test job not archived.
 1\1\GINC-SE127\SP\RHF\Aug-CC-pVDZ\C7H4N4O1\OHZDE\08-Apr-2025\0\\#t hf
 aug-cc-pvdz iop(5/13=1,5/36=2,99/5=2) pseudo=read geom=check guess=(re
 ad,tcheck) scf=(maxcycle=1)\\title\\0,1\C,0,1.99589,-0.906629,-0.00254
 174\C,0,-0.269511,-0.0342739,0.0262959\C,0,-1.63397,0.063258,0.0043861
 9\C,0,-0.890609,2.08429,0.00514875\C,0,1.57238,1.51792,-0.0169049\C,0,
 2.42843,0.503367,-0.0223088\C,0,-2.56412,-1.01979,-0.0264785\H,0,0.239
 295,-2.01291,0.177157\H,0,-0.788722,3.15565,-0.0223699\H,0,1.82995,2.5
 8299,-0.0185914\H,0,3.50973,0.636947,-0.0563499\N,0,0.618473,-1.08266,

 Normal termination of Gaussian 16 at Tue Apr  8 19:49:23 2025.
