 Gaussian 16, Revision C.01,

 ----------------------------------------------------------------------
 #t hf aug-cc-pvdz symm=none int=(grid=ultrafine) guess=(read,tcheck) s
 table=(opt,rrhf)
 ----------------------------------------------------------------------
 -----
 title
 -----
 Symbolic Z-matrix:
 Charge =  0 Multiplicity = 1

 SCF Done:  E(RHF) =  -393.465904704     A.U. after   15 cycles
 Normal termination of Gaussian 16 at Tue Apr  8 21:34:41 2025.
 Gaussian 16:  ES64L-G16RevC.01  3-Jul-2019

 ----------------------------------------------------------------------
 #t hf aug-cc-pvdz iop(5/13=1,5/36=2,99/5=2) pseudo=read geom=check gue
 ss=(read,tcheck) scf=(maxcycle=1)
 ----------------------------------------------------------------------
 -----
 title
 -----
 Structure from the checkpoint file:  "ANI1ccx_388_conf9_mol1.chk"
 Charge =  0 Multiplicity = 1

                         Standard orientation:
 ---------------------------------------------------------------------
 Center     Atomic      Atomic             Coordinates (Angstroms)
 Number     Number       Type             X           Y           Z
 ---------------------------------------------------------------------
      1          6           0       -2.286010   -0.071184    0.324449
      2          1           0       -1.604910    1.681190    0.463012
      3          1           0       -2.343260   -0.028932    1.410840
      4          1           0        0.561170   -0.404752    0.355998
      5          7           0        2.368721   -0.461928    0.268233
      6          8           0       -1.823900    1.053320   -0.228766
      7          8           0       -2.598459   -1.036271   -0.296538
      8          8           0        1.185510    0.245087   -0.027415
      9          8           0        3.302100    0.039501   -0.204053
 ---------------------------------------------------------------------

 SCF Done:  E(RHF) =  -393.842363687     A.U. after    2 cycles

 The electronic state is 1-A.
 Alpha  occ. eigenvalues --  -20.65030 -20.63488 -20.62770 -20.56237 -15.73471
 Alpha  occ. eigenvalues --  -11.41521  -1.69741  -1.57443  -1.51104  -1.48626
 Alpha  occ. eigenvalues --   -0.97588  -0.89122  -0.81602  -0.80902  -0.76239
 Alpha  occ. eigenvalues --   -0.71267  -0.68759  -0.65052  -0.63372  -0.60953
 Alpha  occ. eigenvalues --   -0.52801  -0.49865  -0.47101  -0.46689
 Alpha virt. eigenvalues --    0.02167   0.04394   0.05481   0.06344   0.08346
 Alpha virt. eigenvalues --    0.10380   0.11971   0.12898   0.13592   0.14156
 Alpha virt. eigenvalues --    0.15295   0.16543   0.18077   0.19006   0.20166

 Mulliken charges:
               1
     1  C    1.428234
     2  H    0.421670
     3  H    0.084450
     4  H    0.371146
     5  N    1.581146
     6  O   -0.980541
     7  O   -0.970986
     8  O   -1.057658
     9  O   -0.877463
 Sum of Mulliken charges =  -0.00000

 Dipole moment (field-independent basis, Debye):
    X=             -0.6965    Y=              1.9199    Z=              3.5302  Tot=              4.0784

 Test job not archived.
 1\1\GINC-SE074\SP\RHF\Aug-CC-pVDZ\C1H3N1O4\OHZDE\08-Apr-2025\0\\#t hf
 aug-cc-pvdz iop(5/13=1,5/36=2,99/5=2) pseudo=read geom=check guess=(re
 ad,tcheck) scf=(maxcycle=1)\\title\\0,1\C,0,-2.28601,-0.0711838,0.3244
 49\H,0,-1.60491,1.68119,0.463012\H,0,-2.34326,-0.0289311,1.41084\H,0,0
 .561169,-0.404752,0.355998\N,0,2.36872,-0.461928,0.268233\O,0,-1.8239,
 1.05332,-0.228766\O,0,-2.59846,-1.03627,-0.296538\O,0,1.18551,0.245087
 ,-0.0274146\O,0,3.3021,0.0394999,-0.204053\\Version=ES64L-G16RevC.01\S
 tate=1-A\HF=-393.8423637\RMSD=9.432e-03\Dipole=-0.2740254,0.755339,1.3

 Normal termination of Gaussian 16 at Tue Apr  8 21:34:43 2025.
