 Gaussian 16, Revision C.01,

 ----------------------------------------------------------------------
 #t hf aug-cc-pvdz symm=none int=(grid=ultrafine) guess=(read,tcheck) s
 table=(opt,rrhf)
 ----------------------------------------------------------------------
 -----
 title
 -----
 Symbolic Z-matrix:
 Charge =  0 Multiplicity = 1

 SCF Done:  E(RHF) =  -785.618470901     A.U. after   14 cycles
 Normal termination of Gaussian 16 at Tue Apr  8 19:29:12 2025.
 Gaussian 16:  ES64L-G16RevC.01  3-Jul-2019

 ----------------------------------------------------------------------
 #t hf aug-cc-pvdz iop(5/13=1,5/36=2,99/5=2) pseudo=read geom=check gue
 ss=(read,tcheck) scf=(maxcycle=1)
 ----------------------------------------------------------------------
 -----
 title
 -----
 Structure from the checkpoint file:  "ANI1ccx_1221_conf8_mol1.chk"
 Charge =  0 Multiplicity = 1

                         Standard orientation:
 ---------------------------------------------------------------------
 Center     Atomic      Atomic             Coordinates (Angstroms)
 Number     Number       Type             X           Y           Z
 ---------------------------------------------------------------------
      1          6           0        3.628969    0.043393    0.696535
      2          6           0        1.320969    0.321513   -0.027073
      3          6           0       -0.808343    0.865740   -0.512197
      4          6           0       -1.652271    3.191279   -0.321005
      5          6           0       -0.237044   -1.317121   -0.212779
      6          6           0       -2.106460   -2.964741   -0.231178
      7          1           0       -2.749270   -1.774582    1.100090
      8          1           0       -2.611050   -2.396512   -1.012850
      9          1           0       -2.162919   -4.070921   -0.451494
     10          1           0       -0.019172   -3.251281    0.108455
     11          1           0       -0.750377    3.741399   -0.524343
     12          1           0       -1.301151    2.649919    1.544240
     13          1           0       -2.666751    1.580758   -0.708166
     14          1           0        2.557119    1.827510    0.258839
     15          1           0        4.407619    0.770366    1.050010
     16          1           0        3.336520   -0.621785    1.502720
     17          1           0        3.729930   -1.286790   -0.764384
     18          1           0       -2.444502    3.686678   -0.895387
     19          7           0        2.531569    0.815879    0.218311
     20          7           0        0.449820    1.281769   -0.295431
     21          7           0       -1.698461    1.845309   -0.761734
     22          7           0       -1.250310   -0.395194   -0.498070
     23          7           0       -0.670145   -2.583201   -0.325511
     24          7           0        1.017500   -1.012880    0.025922
     25          8           0       -2.010221    3.187229    1.069190
     26          8           0        4.303840   -0.603420   -0.378570
     27          8           0       -2.651210   -2.753422    1.046140
 ---------------------------------------------------------------------

 SCF Done:  E(RHF) =  -786.412718337     A.U. after    2 cycles

 The electronic state is 1-A.
 Alpha  occ. eigenvalues --  -20.56373 -20.56010 -20.55354 -15.53606 -15.53340
 Alpha  occ. eigenvalues --  -15.52319 -15.49814 -15.48885 -15.48307 -11.37419
 Alpha  occ. eigenvalues --  -11.37399 -11.36450 -11.33854 -11.33628 -11.32880
 Alpha  occ. eigenvalues --   -1.46715  -1.45615  -1.45142  -1.36556  -1.29214
 Alpha  occ. eigenvalues --   -1.28426  -1.22188  -1.18264  -1.16813  -0.99382
 Alpha  occ. eigenvalues --   -0.97717  -0.95636  -0.88321  -0.87225  -0.84671
 Alpha  occ. eigenvalues --   -0.78450  -0.75718  -0.74074  -0.71388  -0.70570
 Alpha  occ. eigenvalues --   -0.69895  -0.69125  -0.67981  -0.66577  -0.64903
 Alpha  occ. eigenvalues --   -0.63349  -0.62846  -0.61389  -0.60191  -0.56528
 Alpha  occ. eigenvalues --   -0.55925  -0.53376  -0.52606  -0.51823  -0.48996
 Alpha  occ. eigenvalues --   -0.48238  -0.47695  -0.47206  -0.46856  -0.44502
 Alpha  occ. eigenvalues --   -0.41905  -0.41277
 Alpha virt. eigenvalues --    0.03035   0.03632   0.03774   0.04187   0.04649
 Alpha virt. eigenvalues --    0.04746   0.05329   0.05918   0.06511   0.07066
 Alpha virt. eigenvalues --    0.08376   0.08631   0.09382   0.10608   0.11287

 Mulliken charges:
               1
     1  C    0.698836
     2  C   -1.146738
     3  C   -2.163059
     4  C    0.688732
     5  C   -1.748909
     6  C    0.695664
     7  H    0.433503
     8  H    0.230422
     9  H    0.089238
    10  H    0.272491
    11  H    0.037504
    12  H    0.419634
    13  H    0.292128
    14  H    0.321274
    15  H    0.039151
    16  H    0.134271
    17  H    0.391467
    18  H    0.061561
    19  N    0.552446
    20  N    0.667302
    21  N    0.841298
    22  N    0.467475
    23  N    0.703044
    24  N    0.595171
    25  O   -1.217380
    26  O   -1.154419
    27  O   -1.202109
 Sum of Mulliken charges =  -0.00000

 Dipole moment (field-independent basis, Debye):
    X=              0.0852    Y=              0.3296    Z=              0.4069  Tot=              0.5306

 Test job not archived.
 1\1\GINC-SE086\SP\RHF\Aug-CC-pVDZ\C6H12N6O3\OHZDE\08-Apr-2025\0\\#t hf
  aug-cc-pvdz iop(5/13=1,5/36=2,99/5=2) pseudo=read geom=check guess=(r
 ead,tcheck) scf=(maxcycle=1)\\title\\0,1\C,0,3.62897,0.0433923,0.69653
 5\C,0,1.32097,0.321513,-0.027073\C,0,-0.808342,0.865741,-0.512197\C,0,
 -1.65227,3.19128,-0.321005\C,0,-0.237044,-1.31712,-0.212779\C,0,-2.106
 46,-2.96474,-0.231178\H,0,-2.74927,-1.77458,1.10009\H,0,-2.61105,-2.39
 651,-1.01285\H,0,-2.16292,-4.07092,-0.451494\H,0,-0.0191728,-3.25128,0
 .108455\H,0,-0.750375,3.7414,-0.524343\H,0,-1.30115,2.64992,1.54424\H,

 Normal termination of Gaussian 16 at Tue Apr  8 19:29:40 2025.
