 Gaussian 16, Revision C.01,

 ----------------------------------------------------------------------
 #t hf aug-cc-pvdz symm=none int=(grid=ultrafine) guess=(read,tcheck) s
 table=(opt,rrhf)
 ----------------------------------------------------------------------
 -----
 title
 -----
 Symbolic Z-matrix:
 Charge =  0 Multiplicity = 1

 SCF Done:  E(RHF) =  -585.408605483     A.U. after   15 cycles
 Normal termination of Gaussian 16 at Tue Apr  8 22:15:27 2025.
 Gaussian 16:  ES64L-G16RevC.01  3-Jul-2019

 ----------------------------------------------------------------------
 #t hf aug-cc-pvdz iop(5/13=1,5/36=2,99/5=2) pseudo=read geom=check gue
 ss=(read,tcheck) scf=(maxcycle=1)
 ----------------------------------------------------------------------
 -----
 title
 -----
 Structure from the checkpoint file:  "ANI1ccx_978_conf10_mol2.chk"
 Charge =  0 Multiplicity = 1

                         Standard orientation:
 ---------------------------------------------------------------------
 Center     Atomic      Atomic             Coordinates (Angstroms)
 Number     Number       Type             X           Y           Z
 ---------------------------------------------------------------------
      1          6           0        0.263573   -1.441821   -0.250084
      2          6           0       -0.137367   -0.132830    0.446236
      3          6           0       -1.568790   -0.269511    1.006380
      4          6           0        0.935206    0.260019    1.475240
      5          1           0        2.551240   -0.027577    0.475718
      6          1           0        1.097690   -0.587672    2.129160
      7          1           0        0.574303    1.115549    2.101420
      8          1           0       -1.845010    0.742288    1.290930
      9          1           0       -3.215600   -0.940665    0.261124
     10          1           0        0.313713   -2.246161    0.487943
     11          1           0       -0.487022   -1.746181   -1.004390
     12          1           0        1.437430   -0.797093   -1.529920
     13          1           0       -1.512730   -0.888777    1.928120
     14          7           0       -0.231136    0.948237   -0.652931
     15          8           0        0.212085    0.651307   -1.783070
     16          8           0        1.547450   -1.467251   -0.857245
     17          8           0       -2.317910   -0.867697   -0.042680
     18          8           0        2.091860    0.707294    0.851652
     19          8           0       -0.814956    2.006779   -0.373183
 ---------------------------------------------------------------------

 SCF Done:  E(RHF) =  -585.989980830     A.U. after    2 cycles

 The electronic state is 1-A.
 Alpha  occ. eigenvalues --  -20.60509 -20.60083 -20.58805 -20.56191 -20.55404
 Alpha  occ. eigenvalues --  -15.79286 -11.33197 -11.33057 -11.32350 -11.30362
 Alpha  occ. eigenvalues --   -1.65374  -1.50181  -1.49334  -1.48494  -1.46072
 Alpha  occ. eigenvalues --   -1.16152  -0.99249  -0.95826  -0.94899  -0.84277
 Alpha  occ. eigenvalues --   -0.77398  -0.75867  -0.75123  -0.73317  -0.70025
 Alpha  occ. eigenvalues --   -0.69173  -0.67010  -0.65568  -0.61606  -0.60667
 Alpha  occ. eigenvalues --   -0.59156  -0.56731  -0.53821  -0.52155  -0.50219
 Alpha  occ. eigenvalues --   -0.48778  -0.48396  -0.47282  -0.45275  -0.43758
 Alpha virt. eigenvalues --    0.02338   0.03226   0.03902   0.04439   0.04963
 Alpha virt. eigenvalues --    0.05663   0.06273   0.06778   0.07654   0.09537
 Alpha virt. eigenvalues --    0.11224   0.11901   0.13114   0.13560   0.14136

 Mulliken charges:
               1
     1  C    1.608074
     2  C   -3.184655
     3  C    1.193286
     4  C    1.334254
     5  H    0.386551
     6  H    0.221714
     7  H    0.184017
     8  H    0.314286
     9  H    0.314644
    10  H    0.104662
    11  H    0.281148
    12  H    0.395620
    13  H    0.308020
    14  N    3.340204
    15  O   -1.489979
    16  O   -1.248358
    17  O   -1.225331
    18  O   -1.233990
    19  O   -1.604167
 Sum of Mulliken charges =  -0.00000

 Dipole moment (field-independent basis, Debye):
    X=             -2.5696    Y=             -2.6655    Z=              3.8714  Tot=              5.3568

 Test job not archived.
 1\1\GINC-SE365\SP\RHF\Aug-CC-pVDZ\C4H9N1O5\OHZDE\08-Apr-2025\0\\#t hf
 aug-cc-pvdz iop(5/13=1,5/36=2,99/5=2) pseudo=read geom=check guess=(re
 ad,tcheck) scf=(maxcycle=1)\\title\\0,1\C,0,0.263573,-1.44182,-0.25008
 4\C,0,-0.137367,-0.132829,0.446236\C,0,-1.56879,-0.26951,1.00638\C,0,0
 .935206,0.26002,1.47524\H,0,2.55124,-0.0275762,0.475718\H,0,1.09769,-0
 .587671,2.12916\H,0,0.574303,1.11555,2.10142\H,0,-1.84501,0.742289,1.2
 9093\H,0,-3.2156,-0.940664,0.261124\H,0,0.313713,-2.24616,0.487943\H,0
 ,-0.487022,-1.74618,-1.00439\H,0,1.43743,-0.797092,-1.52992\H,0,-1.512

 Normal termination of Gaussian 16 at Tue Apr  8 22:15:36 2025.
