 Gaussian 16, Revision C.01,

 ----------------------------------------------------------------------
 #t hf aug-cc-pvdz symm=none int=(grid=ultrafine) guess=(read,tcheck) s
 table=(opt,rrhf)
 ----------------------------------------------------------------------
 -----
 title
 -----
 Symbolic Z-matrix:
 Charge =  0 Multiplicity = 1

 SCF Done:  E(RHF) =  -404.752197543     A.U. after   16 cycles
 Normal termination of Gaussian 16 at Tue Apr  8 21:44:59 2025.
 Gaussian 16:  ES64L-G16RevC.01  3-Jul-2019

 ----------------------------------------------------------------------
 #t hf aug-cc-pvdz iop(5/13=1,5/36=2,99/5=2) pseudo=read geom=check gue
 ss=(read,tcheck) scf=(maxcycle=1)
 ----------------------------------------------------------------------
 -----
 title
 -----
 Structure from the checkpoint file:  "ANI1ccx_523_conf2_mol1.chk"
 Charge =  0 Multiplicity = 1

                         Standard orientation:
 ---------------------------------------------------------------------
 Center     Atomic      Atomic             Coordinates (Angstroms)
 Number     Number       Type             X           Y           Z
 ---------------------------------------------------------------------
      1          6           0        1.117169   -0.210479   -0.057408
      2          6           0       -1.103511   -0.313297   -0.065391
      3          1           0        2.280648   -1.947990    0.277782
      4          1           0        3.192469   -0.541503    0.210072
      5          1           0       -2.439632   -1.945769    0.267692
      6          1           0       -3.180791   -0.367791    0.366439
      7          7           0        2.260769   -0.954263    0.074040
      8          7           0        1.165459    1.127910   -0.049239
      9          7           0       -0.034849    1.750770    0.028157
     10          7           0       -1.128101    1.115210    0.063250
     11          7           0       -2.290751   -0.933855   -0.015145
     12          7           0        0.036811   -0.970672   -0.156090
 ---------------------------------------------------------------------

 SCF Done:  E(RHF) =  -405.148282556     A.U. after    2 cycles

 The electronic state is 1-A.
 Alpha  occ. eigenvalues --  -15.61631 -15.56796 -15.54608 -15.53523 -15.52160
 Alpha  occ. eigenvalues --  -15.51210 -11.39287 -11.37719  -1.41769  -1.30571
 Alpha  occ. eigenvalues --   -1.27545  -1.19414  -1.18292  -0.99376  -0.95090
 Alpha  occ. eigenvalues --   -0.85081  -0.81887  -0.73879  -0.71040  -0.68318
 Alpha  occ. eigenvalues --   -0.67658  -0.66268  -0.58107  -0.57634  -0.56324
 Alpha  occ. eigenvalues --   -0.49576  -0.45561  -0.44628  -0.41623
 Alpha virt. eigenvalues --    0.02216   0.03461   0.04567   0.04840   0.06248
 Alpha virt. eigenvalues --    0.08890   0.09853   0.10672   0.11291   0.12411
 Alpha virt. eigenvalues --    0.13032   0.13528   0.13727   0.16337   0.16479

 Mulliken charges:
               1
     1  C   -1.046043
     2  C   -0.980866
     3  H    0.061983
     4  H    0.112698
     5  H    0.134487
     6  H    0.262948
     7  N    0.598621
     8  N    0.294107
     9  N   -0.470799
    10  N    0.062620
    11  N    0.622401
    12  N    0.347843
 Sum of Mulliken charges =  -0.00000

 Dipole moment (field-independent basis, Debye):
    X=             -1.0897    Y=             -5.1791    Z=              1.5342  Tot=              5.5104

 Test job not archived.
 1\1\GINC-SE457\SP\RHF\Aug-CC-pVDZ\C2H4N6\OHZDE\08-Apr-2025\0\\#t hf au
 g-cc-pvdz iop(5/13=1,5/36=2,99/5=2) pseudo=read geom=check guess=(read
 ,tcheck) scf=(maxcycle=1)\\title\\0,1\C,0,1.11717,-0.210479,-0.0574082
 \C,0,-1.10351,-0.313297,-0.0653908\H,0,2.28065,-1.94799,0.277782\H,0,3
 .19247,-0.541503,0.210072\H,0,-2.43963,-1.94577,0.267692\H,0,-3.18079,
 -0.367792,0.366439\N,0,2.26077,-0.954263,0.0740401\N,0,1.16546,1.12791
 ,-0.0492392\N,0,-0.0348478,1.75077,0.0281572\N,0,-1.1281,1.11521,0.063
 2502\N,0,-2.29075,-0.933856,-0.0151454\N,0,0.0368129,-0.970672,-0.1560

 Normal termination of Gaussian 16 at Tue Apr  8 21:45:04 2025.
