 Gaussian 16, Revision C.01,

 ----------------------------------------------------------------------
 #t hf aug-cc-pvdz symm=none int=(grid=ultrafine) guess=(read,tcheck) s
 table=(opt,rrhf)
 ----------------------------------------------------------------------
 -----
 title
 -----
 Symbolic Z-matrix:
 Charge =  0 Multiplicity = 1

 SCF Done:  E(RHF) =  -752.398365234     A.U. after   14 cycles
 Normal termination of Gaussian 16 at Tue Apr  8 20:04:16 2025.
 Gaussian 16:  ES64L-G16RevC.01  3-Jul-2019

 ----------------------------------------------------------------------
 #t hf aug-cc-pvdz iop(5/13=1,5/36=2,99/5=2) pseudo=read geom=check gue
 ss=(read,tcheck) scf=(maxcycle=1)
 ----------------------------------------------------------------------
 -----
 title
 -----
 Structure from the checkpoint file:  "ANI1ccx_1572_conf6_mol1.chk"
 Charge =  0 Multiplicity = 1

                         Standard orientation:
 ---------------------------------------------------------------------
 Center     Atomic      Atomic             Coordinates (Angstroms)
 Number     Number       Type             X           Y           Z
 ---------------------------------------------------------------------
      1          6           0        1.727232   -2.117627   -0.703894
      2          6           0        2.615441   -1.077126   -0.130149
      3          6           0        0.669198    0.647549   -0.012565
      4          6           0        0.738306    2.181472   -0.089729
      5          6           0       -0.319953    0.306254    1.104470
      6          6           0       -1.636430   -0.062210    0.558098
      7          6           0       -2.460109   -1.078922    0.973116
      8          6           0       -3.322680   -0.086585   -0.784947
      9          1           0       -1.146873    2.188889   -0.588272
     10          1           0       -4.225458   -1.754694    0.089406
     11          1           0       -4.001410   -0.005309   -1.585820
     12          1           0       -2.345288   -1.767112    1.827510
     13          1           0       -0.364459    1.127210    1.786120
     14          1           0        0.046843   -0.465325    1.810670
     15          1           0        0.371074    0.319403   -0.984991
     16          1           0        2.648659    0.799168    0.615739
     17          1           0        2.050383   -3.148717   -0.289095
     18          1           0        1.769522   -2.058237   -1.753220
     19          1           0        0.202465   -2.329569    0.643138
     20          1           0       -0.140289   -2.735459   -0.955817
     21          7           0        0.332727   -2.022949   -0.375990
     22          7           0        2.002419    0.099447    0.230356
     23          7           0       -2.290371    0.561367   -0.544460
     24          7           0       -3.521639   -1.082543    0.120701
     25          8           0        3.788471   -1.252785    0.113199
     26          8           0        1.734766    2.842543    0.233415
     27          8           0       -0.347381    2.743450   -0.611121
 ---------------------------------------------------------------------

 SCF Done:  E(RHF) =  -753.158038636     A.U. after    2 cycles

 The electronic state is 1-A.
 Alpha  occ. eigenvalues --  -20.58682 -20.52820 -20.50294 -15.57592 -15.51536
 Alpha  occ. eigenvalues --  -15.51503 -15.51437 -11.39288 -11.35413 -11.32349
 Alpha  occ. eigenvalues --  -11.29911 -11.28986 -11.28300 -11.27849 -11.26231
 Alpha  occ. eigenvalues --   -1.53337  -1.45776  -1.43044  -1.37975  -1.24418
 Alpha  occ. eigenvalues --   -1.21594  -1.20323  -1.10385  -1.03890  -0.97344
 Alpha  occ. eigenvalues --   -0.94118  -0.88958  -0.84651  -0.84038  -0.80607
 Alpha  occ. eigenvalues --   -0.80228  -0.76310  -0.73356  -0.69374  -0.68409
 Alpha  occ. eigenvalues --   -0.67840  -0.66606  -0.65472  -0.64006  -0.63663
 Alpha  occ. eigenvalues --   -0.62780  -0.61759  -0.60300  -0.59865  -0.58955
 Alpha  occ. eigenvalues --   -0.56001  -0.53479  -0.52490  -0.50953  -0.47663
 Alpha  occ. eigenvalues --   -0.45755  -0.45452  -0.43299  -0.41943  -0.41110
 Alpha  occ. eigenvalues --   -0.35411
 Alpha virt. eigenvalues --    0.01040   0.02436   0.02949   0.03270   0.04259
 Alpha virt. eigenvalues --    0.04909   0.05511   0.06065   0.06459   0.08094
 Alpha virt. eigenvalues --    0.08243   0.08888   0.08961   0.10046   0.10619

 Mulliken charges:
               1
     1  C   -0.514238
     2  C    0.779040
     3  C   -1.662498
     4  C    2.724239
     5  C   -0.511149
     6  C   -0.090379
     7  C   -0.732938
     8  C   -0.550258
     9  H    0.636190
    10  H   -0.070215
    11  H   -0.225927
    12  H   -0.252894
    13  H    0.085711
    14  H    0.183271
    15  H    0.153497
    16  H    0.326999
    17  H    0.301822
    18  H    0.054710
    19  H    0.333104
    20  H    0.335835
    21  N    0.004195
    22  N    0.885945
    23  N    1.340156
    24  N    0.837266
    25  O   -1.428626
    26  O   -1.468385
    27  O   -1.474473
 Sum of Mulliken charges =  -0.00000

 Dipole moment (field-independent basis, Debye):
    X=             -9.2854    Y=             -7.0520    Z=              0.0163  Tot=             11.6597

 Test job not archived.
 1\1\GINC-SE362\SP\RHF\Aug-CC-pVDZ\C8H12N4O3\OHZDE\08-Apr-2025\0\\#t hf
  aug-cc-pvdz iop(5/13=1,5/36=2,99/5=2) pseudo=read geom=check guess=(r
 ead,tcheck) scf=(maxcycle=1)\\title\\0,1\C,0,1.72723,-2.11763,-0.70389
 4\C,0,2.61544,-1.07713,-0.130149\C,0,0.669199,0.647547,-0.0125653\C,0,
 0.738309,2.18147,-0.089729\C,0,-0.319952,0.306254,1.10447\C,0,-1.63643
 ,-0.0622089,0.558098\C,0,-2.46011,-1.07892,0.973116\C,0,-3.32268,-0.08
 65817,-0.784947\H,0,-1.14687,2.18889,-0.588272\H,0,-4.22546,-1.75469,0
 .0894052\H,0,-4.00141,-0.0053046,-1.58582\H,0,-2.34529,-1.76711,1.8275

 Normal termination of Gaussian 16 at Tue Apr  8 20:04:42 2025.
