 Gaussian 16, Revision C.01,

 ----------------------------------------------------------------------
 #t hf aug-cc-pvdz symm=none int=(grid=ultrafine) guess=(read,tcheck) s
 table=(opt,rrhf)
 ----------------------------------------------------------------------
 -----
 title
 -----
 Symbolic Z-matrix:
 Charge =  0 Multiplicity = 1

 SCF Done:  E(RHF) =  -725.300164681     A.U. after   15 cycles
 Normal termination of Gaussian 16 at Tue Apr  8 20:47:19 2025.
 Gaussian 16:  ES64L-G16RevC.01  3-Jul-2019

 ----------------------------------------------------------------------
 #t hf aug-cc-pvdz iop(5/13=1,5/36=2,99/5=2) pseudo=read geom=check gue
 ss=(read,tcheck) scf=(maxcycle=1)
 ----------------------------------------------------------------------
 -----
 title
 -----
 Structure from the checkpoint file:  "ANI1ccx_174_conf1_mol2.chk"
 Charge =  0 Multiplicity = 1

                         Standard orientation:
 ---------------------------------------------------------------------
 Center     Atomic      Atomic             Coordinates (Angstroms)
 Number     Number       Type             X           Y           Z
 ---------------------------------------------------------------------
      1          6           0        2.646830   -3.205641   -0.049167
      2          6           0       -2.958709   -0.977068   -0.711580
      3          6           0       -1.336569   -0.542186    1.296210
      4          6           0        0.546636    0.519288    0.209073
      5          6           0        0.196221    1.849069    0.453166
      6          6           0       -2.690649   -0.244879    0.623486
      7          6           0        2.338762    2.675989   -0.511251
      8          6           0        2.625171    1.331679   -0.800448
      9          6           0        1.767671    0.269422   -0.339916
     10          6           0        2.329891   -1.923971    0.552664
     11          6           0        1.118942    2.879699    0.166618
     12          1           0       -1.335929   -1.513080    1.846920
     13          1           0       -4.316459   -1.017899   -2.063520
     14          1           0       -2.182359   -0.814959   -1.409950
     15          1           0       -3.064729   -2.064250   -0.503742
     16          1           0       -3.373169    1.416190   -0.147683
     17          1           0       -3.591489   -0.640774    1.170600
     18          1           0       -1.013719    0.387240    1.955860
     19          1           0       -0.686324    2.188410    1.053280
     20          1           0        3.118601   -1.597341    1.216630
     21          1           0        3.122112    3.402439   -0.821616
     22          1           0        3.553591    0.919135   -1.137520
     23          1           0        1.343021   -1.907271    1.026980
     24          1           0        1.977940   -3.512611   -0.985852
     25          1           0        2.623370   -4.089361    0.703899
     26          1           0        3.715170   -2.940511   -0.443913
     27          1           0        0.899899    3.871459    0.643522
     28          8           0       -2.709219    1.164090    0.499036
     29          8           0        2.209491   -1.021891   -0.561751
     30          8           0       -0.302081   -0.594185    0.358039
     31          8           0       -4.235029   -0.532417   -1.224950
 ---------------------------------------------------------------------

 SCF Done:  E(RHF) =  -726.041216701     A.U. after    2 cycles

 The electronic state is 1-A.
 Alpha  occ. eigenvalues --  -20.56647 -20.56561 -20.55093 -20.54619 -11.30946
 Alpha  occ. eigenvalues --  -11.30173 -11.29906 -11.29326 -11.29039 -11.27720
 Alpha  occ. eigenvalues --  -11.25000 -11.24681 -11.24471 -11.24447 -11.24055
 Alpha  occ. eigenvalues --   -1.49625  -1.46851  -1.46107  -1.44563  -1.14403
 Alpha  occ. eigenvalues --   -1.04968  -1.04202  -1.00786  -0.98065  -0.93093
 Alpha  occ. eigenvalues --   -0.85037  -0.83325  -0.81388  -0.79437  -0.73951
 Alpha  occ. eigenvalues --   -0.71996  -0.70004  -0.68589  -0.68123  -0.65986
 Alpha  occ. eigenvalues --   -0.64631  -0.63372  -0.62978  -0.61450  -0.59504
 Alpha  occ. eigenvalues --   -0.58794  -0.57488  -0.55102  -0.53870  -0.53724
 Alpha  occ. eigenvalues --   -0.52680  -0.51543  -0.51197  -0.49572  -0.48864
 Alpha  occ. eigenvalues --   -0.47240  -0.46005  -0.44988  -0.43526  -0.42939
 Alpha  occ. eigenvalues --   -0.33275  -0.31487
 Alpha virt. eigenvalues --    0.02975   0.03156   0.03788   0.03800   0.04686
 Alpha virt. eigenvalues --    0.04713   0.05185   0.05711   0.06033   0.07056
 Alpha virt. eigenvalues --    0.07476   0.07695   0.08468   0.08768   0.10321

 Mulliken charges:
               1
     1  C   -1.047282
     2  C    0.789312
     3  C   -0.062901
     4  C    1.962232
     5  C   -0.185511
     6  C    0.748105
     7  C    0.113423
     8  C    0.448107
     9  C    1.313527
    10  C    0.370454
    11  C    0.554032
    12  H    0.042677
    13  H    0.345399
    14  H   -0.011814
    15  H    0.148516
    16  H    0.419116
    17  H    0.245682
    18  H    0.531392
    19  H   -0.281704
    20  H    0.061792
    21  H   -0.146550
    22  H   -0.327880
    23  H    0.115905
    24  H    0.318947
    25  H    0.221396
    26  H    0.319865
    27  H   -0.186607
    28  O   -1.574020
    29  O   -2.059034
    30  O   -1.920891
    31  O   -1.265686
 Sum of Mulliken charges =  -0.00000

 Dipole moment (field-independent basis, Debye):
    X=             -0.7647    Y=             -1.5613    Z=              0.5241  Tot=              1.8157

 Test job not archived.
 1\1\GINC-SE038\SP\RHF\Aug-CC-pVDZ\C11H16O4\OHZDE\08-Apr-2025\0\\#t hf
 aug-cc-pvdz iop(5/13=1,5/36=2,99/5=2) pseudo=read geom=check guess=(re
 ad,tcheck) scf=(maxcycle=1)\\title\\0,1\C,0,2.64683,-3.20564,-0.049166
 5\C,0,-2.95871,-0.977068,-0.71158\C,0,-1.33657,-0.542186,1.29621\C,0,0
 .546635,0.519289,0.209073\C,0,0.196219,1.84907,0.453166\C,0,-2.69065,-
 0.244879,0.623486\C,0,2.33876,2.67599,-0.511251\C,0,2.62517,1.33168,-0
 .800448\C,0,1.76767,0.269423,-0.339916\C,0,2.32989,-1.92397,0.552664\C
 ,0,1.11894,2.8797,0.166618\H,0,-1.33593,-1.51308,1.84692\H,0,-4.31646,

 Normal termination of Gaussian 16 at Tue Apr  8 20:47:58 2025.
