 Gaussian 16, Revision C.01,

 ----------------------------------------------------------------------
 #t hf aug-cc-pvdz symm=none int=(grid=ultrafine) guess=(read,tcheck) s
 table=(opt,rrhf)
 ----------------------------------------------------------------------
 -----
 title
 -----
 Symbolic Z-matrix:
 Charge =  0 Multiplicity = 1

 SCF Done:  E(RHF) =  -590.484205756     A.U. after   16 cycles
 Normal termination of Gaussian 16 at Tue Apr  8 22:11:03 2025.
 Gaussian 16:  ES64L-G16RevC.01  3-Jul-2019

 ----------------------------------------------------------------------
 #t hf aug-cc-pvdz iop(5/13=1,5/36=2,99/5=2) pseudo=read geom=check gue
 ss=(read,tcheck) scf=(maxcycle=1)
 ----------------------------------------------------------------------
 -----
 title
 -----
 Structure from the checkpoint file:  "ANI1ccx_928_conf1_mol2.chk"
 Charge =  0 Multiplicity = 1

                         Standard orientation:
 ---------------------------------------------------------------------
 Center     Atomic      Atomic             Coordinates (Angstroms)
 Number     Number       Type             X           Y           Z
 ---------------------------------------------------------------------
      1          6           0        0.671408    1.730389   -0.453010
      2          6           0       -0.458026    1.752599    0.528056
      3          6           0       -1.263870   -0.625433    1.003490
      4          6           0        1.101850   -0.716694   -0.904444
      5          1           0        0.249391   -0.894451   -1.554100
      6          1           0       -0.034942    1.712409    1.578780
      7          1           0       -0.529583   -0.877073    1.740330
      8          1           0        1.346160    2.529159   -0.198304
      9          1           0        0.325915    1.888299   -1.522200
     10          1           0       -1.084651    2.661919    0.412766
     11          7           0        2.692680   -0.884425    0.490791
     12          7           0       -1.288940    0.557465    0.368659
     13          7           0       -2.237310   -1.403721    0.483613
     14          7           0       -2.719640   -0.732964   -0.565993
     15          7           0       -2.142570    0.408301   -0.730610
     16          7           0        1.358880    0.476301   -0.380709
     17          7           0        1.934760   -1.604961   -0.384578
     18          7           0        2.319220    0.346084    0.504282
 ---------------------------------------------------------------------

 SCF Done:  E(RHF) =  -591.073797252     A.U. after    2 cycles

 The electronic state is 1-A.
 Alpha  occ. eigenvalues --  -15.63323 -15.63235 -15.61105 -15.60516 -15.60306
 Alpha  occ. eigenvalues --  -15.59356 -15.55499 -15.55423 -11.35782 -11.35023
 Alpha  occ. eigenvalues --  -11.34539 -11.34099  -1.51143  -1.48516  -1.31537
 Alpha  occ. eigenvalues --   -1.28942  -1.22675  -1.21979  -1.12532  -1.01195
 Alpha  occ. eigenvalues --   -0.97755  -0.94800  -0.92305  -0.89097  -0.81476
 Alpha  occ. eigenvalues --   -0.77984  -0.77132  -0.73218  -0.72414  -0.69715
 Alpha  occ. eigenvalues --   -0.67330  -0.64684  -0.63219  -0.62118  -0.59885
 Alpha  occ. eigenvalues --   -0.54708  -0.54347  -0.53471  -0.52823  -0.51452
 Alpha  occ. eigenvalues --   -0.49368  -0.47380  -0.45832
 Alpha virt. eigenvalues --    0.02077   0.02417   0.03069   0.03949   0.05482
 Alpha virt. eigenvalues --    0.06002   0.06543   0.07657   0.08222   0.09247
 Alpha virt. eigenvalues --    0.09907   0.10852   0.11312   0.11836   0.12125

 Mulliken charges:
               1
     1  C   -0.336519
     2  C   -0.452133
     3  C   -0.274468
     4  C   -0.348779
     5  H    0.024460
     6  H    0.187443
     7  H   -0.052115
     8  H   -0.020446
     9  H    0.155643
    10  H    0.047514
    11  N   -0.387073
    12  N    1.137667
    13  N    0.197290
    14  N   -0.484773
    15  N   -0.323678
    16  N    1.067098
    17  N    0.270793
    18  N   -0.407923
 Sum of Mulliken charges =  -0.00000

 Dipole moment (field-independent basis, Debye):
    X=              0.1216    Y=              6.3681    Z=              0.4695  Tot=              6.3866

 Test job not archived.
 1\1\GINC-SE334\SP\RHF\Aug-CC-pVDZ\C4H6N8\OHZDE\08-Apr-2025\0\\#t hf au
 g-cc-pvdz iop(5/13=1,5/36=2,99/5=2) pseudo=read geom=check guess=(read
 ,tcheck) scf=(maxcycle=1)\\title\\0,1\C,0,0.671408,1.73039,-0.45301\C,
 0,-0.458026,1.7526,0.528056\C,0,-1.26387,-0.625432,1.00349\C,0,1.10185
 ,-0.716693,-0.904444\H,0,0.249391,-0.89445,-1.5541\H,0,-0.0349415,1.71
 241,1.57878\H,0,-0.529583,-0.877072,1.74033\H,0,1.34616,2.52916,-0.198
 304\H,0,0.325915,1.8883,-1.5222\H,0,-1.08465,2.66192,0.412766\N,0,2.69
 268,-0.884425,0.490791\N,0,-1.28894,0.557466,0.368659\N,0,-2.23731,-1.

 Normal termination of Gaussian 16 at Tue Apr  8 22:11:15 2025.
