 Gaussian 16, Revision C.01,

 ----------------------------------------------------------------------
 #t hf aug-cc-pvdz symm=none int=(grid=ultrafine) guess=(read,tcheck) s
 table=(opt,rrhf)
 ----------------------------------------------------------------------
 -----
 title
 -----
 Symbolic Z-matrix:
 Charge =  0 Multiplicity = 1

 SCF Done:  E(RHF) =  -538.523326628     A.U. after   16 cycles
 Normal termination of Gaussian 16 at Tue Apr  8 21:52:34 2025.
 Gaussian 16:  ES64L-G16RevC.01  3-Jul-2019

 ----------------------------------------------------------------------
 #t hf aug-cc-pvdz iop(5/13=1,5/36=2,99/5=2) pseudo=read geom=check gue
 ss=(read,tcheck) scf=(maxcycle=1)
 ----------------------------------------------------------------------
 -----
 title
 -----
 Structure from the checkpoint file:  "ANI1ccx_716_conf1_mol2.chk"
 Charge =  0 Multiplicity = 1

                         Standard orientation:
 ---------------------------------------------------------------------
 Center     Atomic      Atomic             Coordinates (Angstroms)
 Number     Number       Type             X           Y           Z
 ---------------------------------------------------------------------
      1          6           0       -0.752724    0.541143    0.546278
      2          6           0       -1.796131   -0.451027   -0.066609
      3          6           0        0.652287    0.123743    0.210497
      4          1           0       -1.321032    2.485969    0.874767
      5          1           0       -1.752982    1.879208   -0.559885
      6          1           0       -0.878833    0.424682    1.624590
      7          1           0       -0.580335   -1.914241    0.242627
      8          1           0        1.532438    1.971330   -0.395109
      9          7           0       -0.992076    1.901689    0.107419
     10          7           0        1.184059   -1.067090    0.304797
     11          7           0        2.477689   -0.924808   -0.051026
     12          7           0        2.741749    0.278925   -0.376619
     13          7           0        1.602248    0.966653   -0.221508
     14          8           0       -1.514840   -1.750791    0.003006
     15          8           0       -2.824601   -0.026419   -0.536684
 ---------------------------------------------------------------------

 SCF Done:  E(RHF) =  -539.060171947     A.U. after    2 cycles

 The electronic state is 1-A.
 Alpha  occ. eigenvalues --  -20.61339 -20.55882 -15.62993 -15.61313 -15.59923
 Alpha  occ. eigenvalues --  -15.55989 -15.53629 -11.42303 -11.35968 -11.34563
 Alpha  occ. eigenvalues --   -1.56327  -1.50864  -1.47600  -1.28671  -1.26400
 Alpha  occ. eigenvalues --   -1.22405  -1.04022  -0.96981  -0.93995  -0.86965
 Alpha  occ. eigenvalues --   -0.83105  -0.79576  -0.75375  -0.73560  -0.70611
 Alpha  occ. eigenvalues --   -0.68499  -0.66223  -0.63991  -0.61589  -0.59286
 Alpha  occ. eigenvalues --   -0.55237  -0.54332  -0.52627  -0.50139  -0.49565
 Alpha  occ. eigenvalues --   -0.48455  -0.45400
 Alpha virt. eigenvalues --    0.01888   0.03630   0.04024   0.05707   0.06576
 Alpha virt. eigenvalues --    0.06993   0.07970   0.09537   0.10139   0.11051
 Alpha virt. eigenvalues --    0.11751   0.12309   0.12796   0.13777   0.13990

 Mulliken charges:
               1
     1  C   -1.372584
     2  C    2.425945
     3  C   -1.499920
     4  H    0.257327
     5  H    0.295182
     6  H    0.347667
     7  H    0.557429
     8  H    0.162408
     9  N    0.514033
    10  N    0.695000
    11  N   -0.159888
    12  N   -0.103332
    13  N    0.493816
    14  O   -1.350216
    15  O   -1.262868
 Sum of Mulliken charges =  -0.00000

 Dipole moment (field-independent basis, Debye):
    X=             -0.8157    Y=              4.4371    Z=              2.2525  Tot=              5.0426

 Test job not archived.
 1\1\GINC-SE229\SP\RHF\Aug-CC-pVDZ\C3H5N5O2\OHZDE\08-Apr-2025\0\\#t hf
 aug-cc-pvdz iop(5/13=1,5/36=2,99/5=2) pseudo=read geom=check guess=(re
 ad,tcheck) scf=(maxcycle=1)\\title\\0,1\C,0,-0.752723,0.541144,0.54627
 8\C,0,-1.79613,-0.451025,-0.066609\C,0,0.652288,0.123743,0.210497\H,0,
 -1.32103,2.48597,0.874767\H,0,-1.75298,1.87921,-0.559885\H,0,-0.878832
 ,0.424683,1.62459\H,0,-0.580335,-1.91424,0.242627\H,0,1.53244,1.97133,
 -0.395109\N,0,-0.992074,1.90169,0.107419\N,0,1.18406,-1.06709,0.304797
 \N,0,2.47769,-0.924809,-0.0510261\N,0,2.74175,0.278924,-0.376619\N,0,1

 Normal termination of Gaussian 16 at Tue Apr  8 21:52:42 2025.
