 Gaussian 16, Revision C.01,

 ----------------------------------------------------------------------
 #t hf aug-cc-pvdz symm=none int=(grid=ultrafine) guess=(read,tcheck) s
 table=(opt,rrhf)
 ----------------------------------------------------------------------
 -----
 title
 -----
 Symbolic Z-matrix:
 Charge =  0 Multiplicity = 1

 SCF Done:  E(RHF) =  -532.274691728     A.U. after   11 cycles
 Normal termination of Gaussian 16 at Tue Apr  8 21:10:06 2025.
 Gaussian 16:  ES64L-G16RevC.01  3-Jul-2019

 ----------------------------------------------------------------------
 #t hf aug-cc-pvdz iop(5/13=1,5/36=2,99/5=2) pseudo=read geom=check gue
 ss=(read,tcheck) scf=(maxcycle=1)
 ----------------------------------------------------------------------
 -----
 title
 -----
 Structure from the checkpoint file:  "ANI1ccx_1845_conf455_mol1.chk"
 Charge =  0 Multiplicity = 1

                         Standard orientation:
 ---------------------------------------------------------------------
 Center     Atomic      Atomic             Coordinates (Angstroms)
 Number     Number       Type             X           Y           Z
 ---------------------------------------------------------------------
      1          1           0       -3.396331    0.875252    0.311254
      2          1           0       -0.974477   -1.643511   -0.952628
      3          1           0        0.005198   -0.419950   -1.303370
      4          1           0       -2.842729   -1.321553    0.090805
      5          1           0       -1.794058   -2.034052    0.972345
      6          1           0       -2.092851    1.107728   -0.471746
      7          1           0       -1.735623    3.153559    0.335778
      8          1           0        0.535610    0.255422    0.806795
      9          1           0       -0.577422    2.146090    0.355787
     10          1           0        2.544832   -2.144597    0.950242
     11          1           0        2.140421   -1.442468   -0.310697
     12          1           0        3.964719    1.163834   -1.029310
     13          1           0        3.535080   -0.053948   -0.012153
     14          1           0        1.734959    1.192172    1.215190
     15          8           0       -2.755281    0.357230   -0.222680
     16          8           0        0.724129    1.164651    1.168760
     17          8           0       -2.357848   -2.171122    0.177302
     18          8           0        2.302951   -1.272348    0.565764
     19          8           0       -0.138333   -1.162630   -0.742173
     20          8           0       -1.256953    2.513099   -0.292541
     21          8           0        3.350419    0.466873   -0.774219
 ---------------------------------------------------------------------

 SCF Done:  E(RHF) =  -532.827337104     A.U. after    2 cycles

 The electronic state is 1-A.
 Alpha  occ. eigenvalues --  -20.57170 -20.56144 -20.55497 -20.54150 -20.54040
 Alpha  occ. eigenvalues --  -20.53008 -20.52073  -1.46873  -1.44149  -1.42737
 Alpha  occ. eigenvalues --   -1.42315  -1.41575  -1.40754  -1.39049  -0.75834
 Alpha  occ. eigenvalues --   -0.72331  -0.71067  -0.70182  -0.69067  -0.67687
 Alpha  occ. eigenvalues --   -0.67059  -0.61322  -0.60289  -0.58779  -0.56283
 Alpha  occ. eigenvalues --   -0.55253  -0.54749  -0.54014  -0.50471  -0.49680
 Alpha  occ. eigenvalues --   -0.49121  -0.48586  -0.48168  -0.47503  -0.45286
 Alpha virt. eigenvalues --    0.03247   0.03355   0.04240   0.05804   0.06284
 Alpha virt. eigenvalues --    0.06750   0.07480   0.08693   0.09046   0.09519
 Alpha virt. eigenvalues --    0.09973   0.11074   0.11589   0.11632   0.17633

 Mulliken charges:
               1
     1  H    0.400447
     2  H    0.616169
     3  H    0.401802
     4  H    0.657806
     5  H    0.425799
     6  H    0.756090
     7  H    0.375747
     8  H    0.632799
     9  H    0.716704
    10  H    0.369410
    11  H    0.511979
    12  H    0.364045
    13  H    0.551235
    14  H    0.527399
    15  O   -1.210295
    16  O   -1.227577
    17  O   -1.010292
    18  O   -0.901624
    19  O   -1.047748
    20  O   -1.048350
    21  O   -0.861545
 Sum of Mulliken charges =  -0.00000

 Dipole moment (field-independent basis, Debye):
    X=              2.7062    Y=              2.0018    Z=              1.9601  Tot=              3.8953

 Test job not archived.
 1\1\GINC-SE366\SP\RHF\Aug-CC-pVDZ\H14O7\OHZDE\08-Apr-2025\0\\#t hf aug
 -cc-pvdz iop(5/13=1,5/36=2,99/5=2) pseudo=read geom=check guess=(read,
 tcheck) scf=(maxcycle=1)\\title\\0,1\H,0,-3.39633,0.875255,0.311254\H,
 0,-0.974478,-1.64351,-0.952628\H,0,0.00519747,-0.41995,-1.30337\H,0,-2
 .84273,-1.32155,0.0908046\H,0,-1.79406,-2.03405,0.972345\H,0,-2.09285,
 1.10773,-0.471746\H,0,-1.73562,3.15356,0.335778\H,0,0.53561,0.255421,0
 .806795\H,0,-0.57742,2.14609,0.355787\H,0,2.54483,-2.1446,0.950242\H,0
 ,2.14042,-1.44247,-0.310697\H,0,3.96472,1.16383,-1.02931\H,0,3.53508,-

 Normal termination of Gaussian 16 at Tue Apr  8 21:10:12 2025.
