 Gaussian 16, Revision C.01,

 ----------------------------------------------------------------------
 #t hf aug-cc-pvdz symm=none int=(grid=ultrafine) guess=(read,tcheck) s
 table=(opt,rrhf)
 ----------------------------------------------------------------------
 -----
 title
 -----
 Symbolic Z-matrix:
 Charge =  0 Multiplicity = 1

 SCF Done:  E(RHF) =  -376.428703247     A.U. after   14 cycles
 Normal termination of Gaussian 16 at Tue Apr  8 21:43:34 2025.
 Gaussian 16:  ES64L-G16RevC.01  3-Jul-2019

 ----------------------------------------------------------------------
 #t hf aug-cc-pvdz iop(5/13=1,5/36=2,99/5=2) pseudo=read geom=check gue
 ss=(read,tcheck) scf=(maxcycle=1)
 ----------------------------------------------------------------------
 -----
 title
 -----
 Structure from the checkpoint file:  "ANI1ccx_494_conf3_mol1.chk"
 Charge =  0 Multiplicity = 1

                         Standard orientation:
 ---------------------------------------------------------------------
 Center     Atomic      Atomic             Coordinates (Angstroms)
 Number     Number       Type             X           Y           Z
 ---------------------------------------------------------------------
      1          6           0       -0.740221   -0.155143    0.006809
      2          6           0        0.761630    0.134899    0.052671
      3          1           0       -2.370359    0.687263   -0.194578
      4          1           0        2.364399   -0.647427   -0.326291
      5          8           0       -1.439579    0.944321   -0.307659
      6          8           0       -1.192342   -1.205220    0.320960
      7          8           0        1.401318   -0.942264   -0.303576
      8          8           0        1.215291    1.213367    0.310774
 ---------------------------------------------------------------------

 SCF Done:  E(RHF) =  -376.790385792     A.U. after    2 cycles

 The electronic state is 1-A.
 Alpha  occ. eigenvalues --  -20.64103 -20.62862 -20.57555 -20.57303 -11.42885
 Alpha  occ. eigenvalues --  -11.42661  -1.60230  -1.57568  -1.50214  -1.48663
 Alpha  occ. eigenvalues --   -0.99478  -0.84750  -0.76163  -0.74439  -0.72810
 Alpha  occ. eigenvalues --   -0.68350  -0.66257  -0.63953  -0.60600  -0.53076
 Alpha  occ. eigenvalues --   -0.50773  -0.50401  -0.45263
 Alpha virt. eigenvalues --    0.03275   0.03737   0.08435   0.08727   0.09255
 Alpha virt. eigenvalues --    0.10834   0.11311   0.11858   0.13339   0.13754
 Alpha virt. eigenvalues --    0.18526   0.19263   0.19869   0.20562   0.22653

 Mulliken charges:
               1
     1  C    1.762462
     2  C    1.776981
     3  H    0.373234
     4  H    0.416278
     5  O   -1.106053
     6  O   -1.048813
     7  O   -1.104351
     8  O   -1.069738
 Sum of Mulliken charges =  -0.00000

 Dipole moment (field-independent basis, Debye):
    X=              0.1733    Y=             -0.2125    Z=             -0.8676  Tot=              0.9099

 Test job not archived.
 1\1\GINC-SE016\SP\RHF\Aug-CC-pVDZ\C2H2O4\OHZDE\08-Apr-2025\0\\#t hf au
 g-cc-pvdz iop(5/13=1,5/36=2,99/5=2) pseudo=read geom=check guess=(read
 ,tcheck) scf=(maxcycle=1)\\title\\0,1\C,0,-0.74022,-0.155143,0.0068090
 1\C,0,0.76163,0.134901,0.0526715\H,0,-2.37036,0.687261,-0.194578\H,0,2
 .3644,-0.647422,-0.326291\O,0,-1.43958,0.94432,-0.307659\O,0,-1.19234,
 -1.20522,0.32096\O,0,1.40132,-0.942261,-0.303576\O,0,1.21529,1.21337,0
 .310774\\Version=ES64L-G16RevC.01\State=1-A\HF=-376.7903858\RMSD=1.085
 e-02\Dipole=0.068191,-0.0836151,-0.3413205\Quadrupole=7.0026775,-6.806

 Normal termination of Gaussian 16 at Tue Apr  8 21:43:36 2025.
