 Gaussian 16, Revision C.01,

 ----------------------------------------------------------------------
 #t hf aug-cc-pvdz symm=none int=(grid=ultrafine) guess=(read,tcheck) s
 table=(opt,rrhf)
 ----------------------------------------------------------------------
 -----
 title
 -----
 Symbolic Z-matrix:
 Charge =  0 Multiplicity = 1

 SCF Done:  E(RHF) =  -466.644826254     A.U. after   13 cycles
 Normal termination of Gaussian 16 at Tue Apr  8 21:46:14 2025.
 Gaussian 16:  ES64L-G16RevC.01  3-Jul-2019

 ----------------------------------------------------------------------
 #t hf aug-cc-pvdz iop(5/13=1,5/36=2,99/5=2) pseudo=read geom=check gue
 ss=(read,tcheck) scf=(maxcycle=1)
 ----------------------------------------------------------------------
 -----
 title
 -----
 Structure from the checkpoint file:  "ANI1ccx_540_conf24_mol2.chk"
 Charge =  0 Multiplicity = 1

                         Standard orientation:
 ---------------------------------------------------------------------
 Center     Atomic      Atomic             Coordinates (Angstroms)
 Number     Number       Type             X           Y           Z
 ---------------------------------------------------------------------
      1          6           0        1.710242    0.009206    0.007451
      2          6           0       -0.827237   -0.572625   -0.043817
      3          1           0        2.336602    1.861391   -0.311732
      4          1           0        0.624516    1.630981   -0.681186
      5          1           0        0.778183   -1.805199    0.140487
      6          1           0       -0.850716    1.249440    0.906500
      7          1           0       -2.945668   -0.038526    0.077214
      8          7           0        1.486552    1.346541   -0.226231
      9          7           0        0.545935   -0.828417    0.017122
     10          7           0       -1.213888    0.772176    0.072014
     11          8           0        2.796102   -0.475117    0.208867
     12          8           0       -1.581467   -1.479210   -0.203691
     13          8           0       -2.586028    0.885617    0.125646
 ---------------------------------------------------------------------

 SCF Done:  E(RHF) =  -467.106972911     A.U. after    2 cycles

 The electronic state is 1-A.
 Alpha  occ. eigenvalues --  -20.60649 -20.56129 -20.53517 -15.60870 -15.56806
 Alpha  occ. eigenvalues --  -15.54860 -11.43159 -11.42301  -1.55991  -1.51069
 Alpha  occ. eigenvalues --   -1.49844  -1.28958  -1.23083  -1.17630  -0.93214
 Alpha  occ. eigenvalues --   -0.89123  -0.82804  -0.80489  -0.75850  -0.71981
 Alpha  occ. eigenvalues --   -0.69983  -0.67641  -0.65518  -0.64187  -0.59603
 Alpha  occ. eigenvalues --   -0.57502  -0.51610  -0.48944  -0.47031  -0.45832
 Alpha  occ. eigenvalues --   -0.45143
 Alpha virt. eigenvalues --    0.02616   0.04686   0.05379   0.05800   0.06381
 Alpha virt. eigenvalues --    0.09408   0.09871   0.10178   0.10826   0.13024
 Alpha virt. eigenvalues --    0.13272   0.13955   0.14483   0.14971   0.15422

 Mulliken charges:
               1
     1  C    0.100675
     2  C    0.109167
     3  H    0.188946
     4  H    0.093606
     5  H    0.277169
     6  H    0.297990
     7  H    0.347193
     8  N    0.511855
     9  N    0.614122
    10  N    1.067333
    11  O   -1.155154
    12  O   -1.159299
    13  O   -1.293605
 Sum of Mulliken charges =   0.00000

 Dipole moment (field-independent basis, Debye):
    X=             -0.5209    Y=              1.9848    Z=              0.3279  Tot=              2.0781

 Test job not archived.
 1\1\GINC-SE328\SP\RHF\Aug-CC-pVDZ\C2H5N3O3\OHZDE\08-Apr-2025\0\\#t hf
 aug-cc-pvdz iop(5/13=1,5/36=2,99/5=2) pseudo=read geom=check guess=(re
 ad,tcheck) scf=(maxcycle=1)\\title\\0,1\C,0,1.71024,0.00920524,0.00745
 146\C,0,-0.827239,-0.572625,-0.0438166\H,0,2.3366,1.86139,-0.311732\H,
 0,0.624514,1.63098,-0.681186\H,0,0.77818,-1.8052,0.140487\H,0,-0.85071
 8,1.24944,0.9065\H,0,-2.94567,-0.0385254,0.0772138\N,0,1.48655,1.34654
 ,-0.226231\N,0,0.545932,-0.828418,0.017122\N,0,-1.21389,0.772176,0.072
 0135\O,0,2.7961,-0.475119,0.208867\O,0,-1.58147,-1.47921,-0.203691\O,0

 Normal termination of Gaussian 16 at Tue Apr  8 21:46:18 2025.
