 Gaussian 16, Revision C.01,

 ----------------------------------------------------------------------
 #t hf aug-cc-pvdz symm=none int=(grid=ultrafine) guess=(read,tcheck) s
 table=(opt,rrhf)
 ----------------------------------------------------------------------
 -----
 title
 -----
 Symbolic Z-matrix:
 Charge =  0 Multiplicity = 1

 SCF Done:  E(RHF) =  -258.514618193     A.U. after  110 cycles
 Normal termination of Gaussian 16 at Thu Apr 10 16:54:53 2025.
 Gaussian 16:  ES64L-G16RevC.01  3-Jul-2019

 ----------------------------------------------------------------------
 #t hf aug-cc-pvdz iop(5/13=1,5/36=2,99/5=2) pseudo=read geom=check gue
 ss=(read,tcheck) scf=(maxcycle=1)
 ----------------------------------------------------------------------
 -----
 title
 -----
 Structure from the checkpoint file:  "ANI1ccx_1907_conf25_mol2.chk"
 Charge =  0 Multiplicity = 1

                         Standard orientation:
 ---------------------------------------------------------------------
 Center     Atomic      Atomic             Coordinates (Angstroms)
 Number     Number       Type             X           Y           Z
 ---------------------------------------------------------------------
      1          7           0        1.885593   -0.438191    0.309696
      2          7           0        2.358333    0.356518   -0.285302
      3          8           0       -1.751977    0.608424    0.171368
      4          8           0       -1.961457   -0.536960   -0.192713
 ---------------------------------------------------------------------

 SCF Done:  E(RHF) =  -258.748092220     A.U. after    2 cycles

 The electronic state is 1-A.
 Alpha  occ. eigenvalues --  -20.73342 -20.73307 -15.62375 -15.62223  -1.76891
 Alpha  occ. eigenvalues --   -1.49471  -1.16330  -0.82182  -0.75957  -0.73341
 Alpha  occ. eigenvalues --   -0.68735  -0.67147  -0.67133  -0.64387  -0.46432
 Alpha virt. eigenvalues --    0.01882   0.09184   0.09296   0.11290   0.12172
 Alpha virt. eigenvalues --    0.12751   0.16020   0.16439   0.18043   0.18686
 Alpha virt. eigenvalues --    0.20541   0.21863   0.23803   0.24515   0.25958

 Mulliken charges:
               1
     1  N   -0.012275
     2  N    0.005528
     3  O    0.008994
     4  O   -0.002248
 Sum of Mulliken charges =  -0.00000

 Dipole moment (field-independent basis, Debye):
    X=             -0.0204    Y=             -0.0029    Z=             -0.0046  Tot=              0.0212

 Test job not archived.
 1\1\GINC-SE455\SP\RHF\Aug-CC-pVDZ\N2O2\OHZDE\10-Apr-2025\0\\#t hf aug-
 cc-pvdz iop(5/13=1,5/36=2,99/5=2) pseudo=read geom=check guess=(read,t
 check) scf=(maxcycle=1)\\title\\0,1\N,0,1.88559,-0.438191,0.309696\N,0
 ,2.35833,0.356518,-0.285302\O,0,-1.75198,0.608424,0.171368\O,0,-1.9614
 6,-0.53696,-0.192713\\Version=ES64L-G16RevC.01\State=1-A\HF=-258.74809
 22\RMSD=4.577e-02\Dipole=-0.0080444,-0.0011456,-0.0018165\Quadrupole=-
 0.4124611,-0.0777721,0.4902332,-0.2084429,0.4788795,0.0122167\PG=C01 [
 X(N2O2)]\\@

 Normal termination of Gaussian 16 at Thu Apr 10 16:54:54 2025.
