 Gaussian 16, Revision C.01,

 ----------------------------------------------------------------------
 #t hf aug-cc-pvdz symm=none int=(grid=ultrafine) guess=(read,tcheck) s
 table=(opt,rrhf)
 ----------------------------------------------------------------------
 -----
 title
 -----
 Symbolic Z-matrix:
 Charge =  0 Multiplicity = 1

 SCF Done:  E(RHF) =  -907.737375467     A.U. after   14 cycles
 Normal termination of Gaussian 16 at Tue Apr  8 22:36:06 2025.
 Gaussian 16:  ES64L-G16RevC.01  3-Jul-2019

 ----------------------------------------------------------------------
 #t hf aug-cc-pvdz iop(5/13=1,5/36=2,99/5=2) pseudo=read geom=check gue
 ss=(read,tcheck) scf=(maxcycle=1)
 ----------------------------------------------------------------------
 -----
 title
 -----
 Structure from the checkpoint file:  "ANI1ccx_88_conf2_mol2.chk"
 Charge =  0 Multiplicity = 1

                         Standard orientation:
 ---------------------------------------------------------------------
 Center     Atomic      Atomic             Coordinates (Angstroms)
 Number     Number       Type             X           Y           Z
 ---------------------------------------------------------------------
      1          6           0       -1.885371    1.909450   -0.173674
      2          6           0        2.447759    0.745256   -0.355835
      3          6           0        1.255969   -1.087500    1.020840
      4          6           0        1.293119   -0.240932   -0.269765
      5          6           0       -3.034981   -2.003770   -0.621576
      6          6           0        3.796089   -0.006006   -0.644846
      7          6           0       -3.025491   -0.132816    1.145040
      8          6           0       -2.905371    1.421280    0.917840
      9          6           0       -0.429913    1.436680    0.221493
     10          6           0       -3.845911   -0.944955    0.108933
     11          1           0       -2.559821   -1.534420   -2.559810
     12          1           0        2.227299   -1.620870    2.506900
     13          1           0        4.810119    1.610420    0.109666
     14          1           0        5.736029    0.371801   -0.641748
     15          1           0        2.288379    1.392000   -1.231590
     16          1           0        2.454589    1.397120    0.529667
     17          1           0        1.476879   -0.973451   -1.076150
     18          1           0       -0.681960   -0.111253   -1.011290
     19          1           0       -1.301761   -2.113150   -1.758360
     20          1           0       -3.756951   -2.710250   -1.049590
     21          1           0       -4.319651   -0.251215   -0.597920
     22          1           0       -2.326921    0.522451   -1.585660
     23          1           0       -4.664001   -1.507180    0.584897
     24          1           0       -2.006261   -0.532214    1.118400
     25          1           0       -3.392861   -0.352143    2.182310
     26          1           0       -2.652921    1.837810    1.898850
     27          1           0       -3.880981    1.869790    0.665489
     28          1           0       -1.900531    3.006070   -0.086338
     29          1           0       -3.239241    1.900010   -1.719000
     30          1           0       -2.466131   -2.601210    0.100373
     31          7           0       -2.310671    1.546300   -1.488250
     32          7           0       -2.099871   -1.495770   -1.653170
     33          7           0        0.038975    0.432431   -0.528637
     34          7           0        4.859989    0.843624   -0.546549
     35          8           0        0.355648   -1.787340    1.346770
     36          8           0        3.904839   -1.158600   -1.032060
     37          8           0        0.212091    2.029680    1.058850
     38          8           0        2.370219   -1.017030    1.757240
 ---------------------------------------------------------------------

 SCF Done:  E(RHF) =  -908.664991026     A.U. after    2 cycles

 The electronic state is 1-A.
 Alpha  occ. eigenvalues --  -20.60146 -20.54053 -20.51902 -20.50478 -15.52571
 Alpha  occ. eigenvalues --  -15.52003 -15.51376 -15.47599 -11.39507 -11.36587
 Alpha  occ. eigenvalues --  -11.34850 -11.30138 -11.26935 -11.26931 -11.25433
 Alpha  occ. eigenvalues --  -11.23448 -11.23086 -11.23073  -1.56323  -1.46366
 Alpha  occ. eigenvalues --   -1.46242  -1.45965  -1.25703  -1.22644  -1.20471
 Alpha  occ. eigenvalues --   -1.18609  -1.07330  -1.06227  -0.99440  -0.95118
 Alpha  occ. eigenvalues --   -0.91777  -0.86716  -0.83494  -0.82769  -0.79621
 Alpha  occ. eigenvalues --   -0.79059  -0.75644  -0.74518  -0.72152  -0.71232
 Alpha  occ. eigenvalues --   -0.70580  -0.69072  -0.67940  -0.67488  -0.66004
 Alpha  occ. eigenvalues --   -0.63372  -0.62853  -0.62480  -0.61595  -0.60590
 Alpha  occ. eigenvalues --   -0.60098  -0.58861  -0.57942  -0.56824  -0.55672
 Alpha  occ. eigenvalues --   -0.54852  -0.53472  -0.53072  -0.51741  -0.50293
 Alpha  occ. eigenvalues --   -0.48389  -0.48158  -0.47198  -0.45397  -0.44703
 Alpha  occ. eigenvalues --   -0.43983  -0.43025  -0.42192  -0.41967  -0.39001
 Alpha virt. eigenvalues --    0.02765   0.03299   0.03438   0.03531   0.04121
 Alpha virt. eigenvalues --    0.04600   0.05103   0.05367   0.05540   0.06394
 Alpha virt. eigenvalues --    0.06661   0.07770   0.07951   0.08525   0.09160

 Mulliken charges:
               1
     1  C   -1.747960
     2  C   -0.397031
     3  C    3.007244
     4  C   -2.458442
     5  C   -0.505740
     6  C    0.571823
     7  C    0.000331
     8  C   -0.011209
     9  C    1.070854
    10  C   -0.316660
    11  H    0.272240
    12  H    0.412500
    13  H    0.089943
    14  H    0.121679
    15  H    0.297982
    16  H    0.143932
    17  H    0.087550
    18  H    0.124464
    19  H    0.081409
    20  H    0.043636
    21  H    0.083389
    22  H    0.074406
    23  H    0.079257
    24  H    0.047897
    25  H    0.144108
    26  H    0.156470
    27  H    0.108898
    28  H    0.085401
    29  H    0.318362
    30  H    0.141546
    31  N    1.155456
    32  N    0.076684
    33  N    1.734356
    34  N    0.731704
    35  O   -1.407426
    36  O   -1.404297
    37  O   -1.565854
    38  O   -1.448901
 Sum of Mulliken charges =   0.00000

 Dipole moment (field-independent basis, Debye):
    X=             -1.9875    Y=             -1.0978    Z=             -0.3264  Tot=              2.2939

 Test job not archived.
 1\1\GINC-SE331\SP\RHF\Aug-CC-pVDZ\C10H20N4O4\OHZDE\08-Apr-2025\0\\#t h
 f aug-cc-pvdz iop(5/13=1,5/36=2,99/5=2) pseudo=read geom=check guess=(
 read,tcheck) scf=(maxcycle=1)\\title\\0,1\C,0,-1.88537,1.90945,-0.1736
 74\C,0,2.44776,0.745256,-0.355835\C,0,1.25597,-1.0875,1.02084\C,0,1.29
 312,-0.240932,-0.269765\C,0,-3.03498,-2.00377,-0.621576\C,0,3.79609,-0
 .00600583,-0.644846\C,0,-3.02549,-0.132816,1.14504\C,0,-2.90537,1.4212
 8,0.91784\C,0,-0.429912,1.43668,0.221493\C,0,-3.84591,-0.944955,0.1089
 33\H,0,-2.55982,-1.53442,-2.55981\H,0,2.2273,-1.62087,2.5069\H,0,4.810

 Normal termination of Gaussian 16 at Tue Apr  8 22:37:14 2025.
