 Gaussian 16, Revision C.01,

 ----------------------------------------------------------------------
 #t hf aug-cc-pvdz symm=none int=(grid=ultrafine) guess=(read,tcheck) s
 table=(opt,rrhf)
 ----------------------------------------------------------------------
 -----
 title
 -----
 Symbolic Z-matrix:
 Charge =  0 Multiplicity = 1

 SCF Done:  E(RHF) =  -464.387025108     A.U. after   15 cycles
 Normal termination of Gaussian 16 at Tue Apr  8 21:41:42 2025.
 Gaussian 16:  ES64L-G16RevC.01  3-Jul-2019

 ----------------------------------------------------------------------
 #t hf aug-cc-pvdz iop(5/13=1,5/36=2,99/5=2) pseudo=read geom=check gue
 ss=(read,tcheck) scf=(maxcycle=1)
 ----------------------------------------------------------------------
 -----
 title
 -----
 Structure from the checkpoint file:  "ANI1ccx_474_conf11_mol2.chk"
 Charge =  0 Multiplicity = 1

                         Standard orientation:
 ---------------------------------------------------------------------
 Center     Atomic      Atomic             Coordinates (Angstroms)
 Number     Number       Type             X           Y           Z
 ---------------------------------------------------------------------
      1          6           0        1.210390   -0.508693    0.161506
      2          6           0        0.092656    1.573860   -0.010846
      3          1           0        2.588070   -0.406513   -1.135601
      4          7           0        0.967926    0.794014   -0.346398
      5          7           0       -2.081670   -0.621169   -0.397681
      6          7           0       -2.875921   -1.347497   -0.137112
      7          8           0        2.292389   -1.049582   -0.446712
      8          8           0       -0.699665    2.389181    0.212238
      9          8           0        0.597441   -1.059840    1.034469
 ---------------------------------------------------------------------

 SCF Done:  E(RHF) =  -464.825448172     A.U. after    2 cycles

 The electronic state is 1-A.
 Alpha  occ. eigenvalues --  -20.65646 -20.63069 -20.56369 -15.62812 -15.62660
 Alpha  occ. eigenvalues --  -15.57091 -11.47040 -11.46900  -1.60174  -1.57240
 Alpha  occ. eigenvalues --   -1.48959  -1.48777  -1.32400  -0.98040  -0.83422
 Alpha  occ. eigenvalues --   -0.82808  -0.78369  -0.73200  -0.72464  -0.68950
 Alpha  occ. eigenvalues --   -0.67749  -0.66981  -0.66773  -0.65291  -0.62697
 Alpha  occ. eigenvalues --   -0.56748  -0.52563  -0.48857  -0.48433
 Alpha virt. eigenvalues --    0.03043   0.06851   0.07555   0.08611   0.09024
 Alpha virt. eigenvalues --    0.09250   0.09661   0.10077   0.10955   0.11433
 Alpha virt. eigenvalues --    0.11579   0.12491   0.13206   0.16434   0.17704

 Mulliken charges:
               1
     1  C    1.618089
     2  C    0.255575
     3  H    0.468946
     4  N    0.649875
     5  N    0.232543
     6  N   -0.297082
     7  O   -1.136394
     8  O   -0.779527
     9  O   -1.012025
 Sum of Mulliken charges =  -0.00000

 Dipole moment (field-independent basis, Debye):
    X=              0.9395    Y=              1.8963    Z=             -2.0948  Tot=              2.9777

 Test job not archived.
 1\1\GINC-SE092\SP\RHF\Aug-CC-pVDZ\C2H1N3O3\OHZDE\08-Apr-2025\0\\#t hf
 aug-cc-pvdz iop(5/13=1,5/36=2,99/5=2) pseudo=read geom=check guess=(re
 ad,tcheck) scf=(maxcycle=1)\\title\\0,1\C,0,1.21039,-0.508692,0.161507
 \C,0,0.0926539,1.57386,-0.0108454\H,0,2.58807,-0.406511,-1.1356\N,0,0.
 967925,0.794015,-0.346397\N,0,-2.08167,-0.621172,-0.39768\N,0,-2.87592
 ,-1.3475,-0.137111\O,0,2.29239,-1.04958,-0.446711\O,0,-0.699668,2.3891
 8,0.212239\O,0,0.597442,-1.05984,1.03447\\Version=ES64L-G16RevC.01\Sta
 te=1-A\HF=-464.8254482\RMSD=3.016e-02\Dipole=0.3696285,0.7460437,-0.82

 Normal termination of Gaussian 16 at Tue Apr  8 21:42:04 2025.
