 Gaussian 16, Revision C.01,

 ----------------------------------------------------------------------
 #t hf aug-cc-pvdz symm=none int=(grid=ultrafine) guess=(read,tcheck) s
 table=(opt,rrhf)
 ----------------------------------------------------------------------
 -----
 title
 -----
 Symbolic Z-matrix:
 Charge =  0 Multiplicity = 1

 SCF Done:  E(RHF) =  -853.772318205     A.U. after   14 cycles
 Normal termination of Gaussian 16 at Tue Apr  8 22:37:38 2025.
 Gaussian 16:  ES64L-G16RevC.01  3-Jul-2019

 ----------------------------------------------------------------------
 #t hf aug-cc-pvdz iop(5/13=1,5/36=2,99/5=2) pseudo=read geom=check gue
 ss=(read,tcheck) scf=(maxcycle=1)
 ----------------------------------------------------------------------
 -----
 title
 -----
 Structure from the checkpoint file:  "ANI1ccx_97_conf10_mol1.chk"
 Charge =  0 Multiplicity = 1

                         Standard orientation:
 ---------------------------------------------------------------------
 Center     Atomic      Atomic             Coordinates (Angstroms)
 Number     Number       Type             X           Y           Z
 ---------------------------------------------------------------------
      1          6           0        1.220531    1.522570   -1.099660
      2          6           0       -2.246999   -1.559220   -0.266331
      3          6           0       -2.580699    1.024210    0.751905
      4          6           0       -2.230089    0.014196   -0.496178
      5          6           0        3.832321   -0.913719    1.166600
      6          6           0       -3.652099   -1.965350    0.052599
      7          6           0        2.612481   -0.779088   -1.009700
      8          6           0        2.539891    0.804110   -0.800981
      9          6           0        0.102484    0.741715   -0.278822
     10          6           0        3.736961   -1.398019   -0.269959
     11          1           0        2.165051   -1.840340    2.075190
     12          1           0       -1.048709    0.432073    1.703510
     13          1           0       -3.698169   -3.076460    0.193252
     14          1           0       -3.973019   -1.490430    0.991169
     15          1           0       -4.363629   -1.707840   -0.695967
     16          1           0       -0.958142   -2.434780   -1.408750
     17          1           0       -1.560009   -1.871060    0.534025
     18          1           0       -2.989429    0.225338   -1.309990
     19          1           0       -0.918801    0.411535   -2.042290
     20          1           0        1.812521   -0.352075    1.498740
     21          1           0        4.654521   -1.155369   -0.825621
     22          1           0        4.520441   -1.537899    1.698830
     23          1           0        1.497051    3.138610    0.157113
     24          1           0        4.377551    0.093953    1.144220
     25          1           0        0.946712    1.394370   -2.157170
     26          1           0        2.742531    0.957059    0.276076
     27          1           0        0.378059    3.385420   -0.899297
     28          1           0        1.549341   -1.064740   -0.573181
     29          1           0        2.574461   -0.866102   -2.156100
     30          1           0        3.724731   -2.510089   -0.190476
     31          1           0        3.342901    1.290931   -1.335720
     32          7           0        1.322381    2.944770   -0.787358
     33          7           0        2.615301   -0.887138    1.999410
     34          7           0       -0.946024    0.407391   -1.048260
     35          8           0       -1.879119   -2.196270   -1.456010
     36          8           0        0.267804    0.387460    0.879551
     37          8           0       -3.332919    1.937410    0.659406
     38          8           0       -2.021549    0.668187    1.876930
 ---------------------------------------------------------------------

 SCF Done:  E(RHF) =  -854.646548660     A.U. after    2 cycles

 The electronic state is 1-A.
 Alpha  occ. eigenvalues --  -20.57397 -20.56979 -20.56763 -20.53903 -15.57125
 Alpha  occ. eigenvalues --  -15.52061 -15.48270 -11.40400 -11.39707 -11.31973
 Alpha  occ. eigenvalues --  -11.31732 -11.31131 -11.26684 -11.25709 -11.24837
 Alpha  occ. eigenvalues --  -11.23990 -11.23639  -1.55024  -1.52473  -1.48896
 Alpha  occ. eigenvalues --   -1.45559  -1.29700  -1.21998  -1.16418  -1.08424
 Alpha  occ. eigenvalues --   -1.07299  -1.02072  -0.98717  -0.92282  -0.89352
 Alpha  occ. eigenvalues --   -0.86082  -0.85349  -0.82200  -0.78973  -0.77165
 Alpha  occ. eigenvalues --   -0.75245  -0.74449  -0.71352  -0.69983  -0.69809
 Alpha  occ. eigenvalues --   -0.67532  -0.66816  -0.66251  -0.64935  -0.64442
 Alpha  occ. eigenvalues --   -0.62676  -0.61259  -0.60634  -0.60256  -0.58585
 Alpha  occ. eigenvalues --   -0.56579  -0.56232  -0.55317  -0.53933  -0.52870
 Alpha  occ. eigenvalues --   -0.52132  -0.51604  -0.50728  -0.49855  -0.49220
 Alpha  occ. eigenvalues --   -0.48905  -0.46925  -0.46569  -0.45833  -0.43606
 Alpha  occ. eigenvalues --   -0.41926  -0.41393
 Alpha virt. eigenvalues --    0.02064   0.02389   0.03109   0.03592   0.04020
 Alpha virt. eigenvalues --    0.04244   0.04764   0.05356   0.05879   0.06103
 Alpha virt. eigenvalues --    0.06568   0.07396   0.07540   0.08394   0.08625

 Mulliken charges:
               1
     1  C   -1.530187
     2  C    1.079728
     3  C    2.624193
     4  C   -1.220705
     5  C   -0.998615
     6  C   -0.141764
     7  C   -0.667621
     8  C    0.215445
     9  C   -0.172168
    10  C   -0.079472
    11  H    0.327796
    12  H    0.877592
    13  H    0.169290
    14  H    0.238033
    15  H    0.125951
    16  H    0.305401
    17  H    0.043439
    18  H    0.010697
    19  H    0.206054
    20  H   -0.150144
    21  H    0.213067
    22  H   -0.066988
    23  H    0.135662
    24  H    0.300621
    25  H   -0.017627
    26  H    0.339530
    27  H    0.228339
    28  H    0.383213
    29  H    0.177236
    30  H    0.188650
    31  H    0.075000
    32  N    0.930134
    33  N    0.599634
    34  N    1.584773
    35  O   -1.418954
    36  O   -2.030405
    37  O   -1.409765
    38  O   -1.475067
 Sum of Mulliken charges =  -0.00000

 Dipole moment (field-independent basis, Debye):
    X=              2.2562    Y=             -2.7350    Z=             -4.3860  Tot=              5.6399

 Test job not archived.
 1\1\GINC-SE143\SP\RHF\Aug-CC-pVDZ\C10H21N3O4\OHZDE\08-Apr-2025\0\\#t h
 f aug-cc-pvdz iop(5/13=1,5/36=2,99/5=2) pseudo=read geom=check guess=(
 read,tcheck) scf=(maxcycle=1)\\title\\0,1\C,0,1.22053,1.52257,-1.09966
 \C,0,-2.247,-1.55922,-0.266331\C,0,-2.5807,1.02421,0.751905\C,0,-2.230
 09,0.0141962,-0.496178\C,0,3.83232,-0.91372,1.1666\C,0,-3.6521,-1.9653
 5,0.0525991\C,0,2.61248,-0.779088,-1.0097\C,0,2.53989,0.80411,-0.80098
 1\C,0,0.102483,0.741715,-0.278822\C,0,3.73696,-1.39802,-0.269959\H,0,2
 .16505,-1.84034,2.07519\H,0,-1.04871,0.432073,1.70351\H,0,-3.69817,-3.

 Normal termination of Gaussian 16 at Tue Apr  8 22:38:47 2025.
