 Gaussian 16, Revision C.01,

 ----------------------------------------------------------------------
 #t hf aug-cc-pvdz symm=none int=(grid=ultrafine) guess=(read,tcheck) s
 table=(opt,rrhf)
 ----------------------------------------------------------------------
 -----
 title
 -----
 Symbolic Z-matrix:
 Charge =  0 Multiplicity = 1

 SCF Done:  E(RHF) =  -817.971413822     A.U. after   14 cycles
 Normal termination of Gaussian 16 at Tue Apr  8 21:43:45 2025.
 Gaussian 16:  ES64L-G16RevC.01  3-Jul-2019

 ----------------------------------------------------------------------
 #t hf aug-cc-pvdz iop(5/13=1,5/36=2,99/5=2) pseudo=read geom=check gue
 ss=(read,tcheck) scf=(maxcycle=1)
 ----------------------------------------------------------------------
 -----
 title
 -----
 Structure from the checkpoint file:  "ANI1ccx_211_conf6_mol2.chk"
 Charge =  0 Multiplicity = 1

                         Standard orientation:
 ---------------------------------------------------------------------
 Center     Atomic      Atomic             Coordinates (Angstroms)
 Number     Number       Type             X           Y           Z
 ---------------------------------------------------------------------
      1          6           0        0.936905    1.679621   -0.347336
      2          6           0       -1.685269   -1.126899    1.822270
      3          6           0       -2.142349   -1.661329    0.443155
      4          6           0       -3.622480    0.196511   -0.573423
      5          6           0       -2.255120   -0.597543   -0.753743
      6          6           0       -1.247539   -2.780859    0.033347
      7          6           0        3.483391   -1.348409    0.058408
      8          6           0        2.418010   -0.487929   -0.651596
      9          6           0        1.975420    0.681051    0.195949
     10          6           0       -0.522271    1.116271   -0.067724
     11          6           0        4.770240   -0.631823    0.480729
     12          1           0       -0.543209    0.061826   -1.799410
     13          1           0       -2.588400    1.409701    0.463037
     14          1           0       -1.528229   -3.162069   -0.995717
     15          1           0       -1.397889   -3.588229    0.715598
     16          1           0       -0.206981   -2.398119    0.008863
     17          1           0       -1.797809   -1.955039    2.522770
     18          1           0       -2.178120   -0.227850    2.155370
     19          1           0       -0.615138   -0.857827    1.753980
     20          1           0       -3.100629   -2.081339    0.562692
     21          1           0       -2.419349   -1.157889   -1.677780
     22          1           0        5.104710    0.534511   -1.219960
     23          1           0        3.098541   -1.759099    1.019460
     24          1           0        5.455911   -1.284529    1.012820
     25          1           0        0.402153    2.640021    1.225330
     26          1           0        0.512499    3.616621   -0.008301
     27          1           0        6.479980    0.027124   -0.525540
     28          1           0        2.883330    1.228631    0.467803
     29          1           0        1.592850    0.313258    1.191070
     30          1           0        1.130690    1.799101   -1.426450
     31          1           0        2.933430   -0.087785   -1.537730
     32          1           0        3.756941   -2.226309   -0.565891
     33          1           0        4.662100    0.239449    1.135160
     34          1           0        1.578560   -1.062499   -0.948561
     35          7           0        1.048610    2.853361    0.454940
     36          7           0        5.537590   -0.241191   -0.728065
     37          7           0       -1.054040    0.271212   -0.962098
     38          8           0       -4.684440   -0.279152   -0.958026
     39          8           0       -1.095720    1.451591    0.946488
     40          8           0       -3.544180    1.272901    0.171253
 ---------------------------------------------------------------------

 SCF Done:  E(RHF) =  -818.822178105     A.U. after    2 cycles

 The electronic state is 1-A.
 Alpha  occ. eigenvalues --  -20.57607 -20.55811 -20.51969 -15.57363 -15.50099
 Alpha  occ. eigenvalues --  -15.48572 -11.39577 -11.38790 -11.32047 -11.30386
 Alpha  occ. eigenvalues --  -11.26613 -11.25747 -11.24994 -11.24720 -11.24602
 Alpha  occ. eigenvalues --  -11.24212 -11.23235  -1.54053  -1.51930  -1.42848
 Alpha  occ. eigenvalues --   -1.28342  -1.22376  -1.18265  -1.11190  -1.09029
 Alpha  occ. eigenvalues --   -1.01601  -0.99230  -0.94516  -0.93228  -0.88650
 Alpha  occ. eigenvalues --   -0.85383  -0.82907  -0.81068  -0.79917  -0.76644
 Alpha  occ. eigenvalues --   -0.75677  -0.71255  -0.70275  -0.70103  -0.67365
 Alpha  occ. eigenvalues --   -0.66138  -0.65729  -0.64718  -0.64128  -0.63163
 Alpha  occ. eigenvalues --   -0.62596  -0.61421  -0.59322  -0.58460  -0.57715
 Alpha  occ. eigenvalues --   -0.57519  -0.56101  -0.54959  -0.54234  -0.52824
 Alpha  occ. eigenvalues --   -0.52344  -0.50650  -0.50295  -0.49932  -0.49483
 Alpha  occ. eigenvalues --   -0.48548  -0.47048  -0.46817  -0.44827  -0.44365
 Alpha  occ. eigenvalues --   -0.42859  -0.41195
 Alpha virt. eigenvalues --    0.01767   0.02567   0.03017   0.03322   0.03985
 Alpha virt. eigenvalues --    0.04268   0.04498   0.05083   0.05714   0.06347
 Alpha virt. eigenvalues --    0.06616   0.07068   0.07548   0.07893   0.08049

 Mulliken charges:
               1
     1  C   -1.845421
     2  C    0.079010
     3  C   -0.483725
     4  C    2.467164
     5  C   -1.171234
     6  C   -0.177685
     7  C   -0.485408
     8  C   -0.537132
     9  C    0.142866
    10  C   -0.091466
    11  C   -0.396817
    12  H    0.216474
    13  H    0.679077
    14  H    0.240183
    15  H    0.091040
    16  H    0.136526
    17  H    0.043272
    18  H    0.148294
    19  H    0.146745
    20  H    0.003620
    21  H    0.049108
    22  H    0.047542
    23  H    0.227876
    24  H   -0.038729
    25  H    0.285564
    26  H    0.263064
    27  H    0.137996
    28  H    0.206787
    29  H    0.322550
    30  H   -0.027030
    31  H    0.315394
    32  H    0.180942
    33  H    0.121147
    34  H   -0.100105
    35  N    0.968439
    36  N    0.321101
    37  N    2.057227
    38  O   -1.425887
    39  O   -1.643284
    40  O   -1.475081
 Sum of Mulliken charges =  -0.00000

 Dipole moment (field-independent basis, Debye):
    X=              5.5968    Y=             -0.9546    Z=             -0.7156  Tot=              5.7226

 Test job not archived.
 1\1\GINC-SE393\SP\RHF\Aug-CC-pVDZ\C11H23N3O3\OHZDE\08-Apr-2025\0\\#t h
 f aug-cc-pvdz iop(5/13=1,5/36=2,99/5=2) pseudo=read geom=check guess=(
 read,tcheck) scf=(maxcycle=1)\\title\\0,1\C,0,0.936905,1.67962,-0.3473
 36\C,0,-1.68527,-1.1269,1.82227\C,0,-2.14235,-1.66133,0.443155\C,0,-3.
 62248,0.19651,-0.573423\C,0,-2.25512,-0.597544,-0.753743\C,0,-1.24754,
 -2.78086,0.033347\C,0,3.48339,-1.34841,0.0584083\C,0,2.41801,-0.48793,
 -0.651596\C,0,1.97542,0.68105,0.195949\C,0,-0.522271,1.11627,-0.067724
 1\C,0,4.77024,-0.631824,0.480729\H,0,-0.543209,0.0618253,-1.79941\H,0,

 Normal termination of Gaussian 16 at Tue Apr  8 21:44:54 2025.
