 Gaussian 16, Revision C.01,

 ----------------------------------------------------------------------
 #t hf aug-cc-pvdz symm=none int=(grid=ultrafine) guess=(read,tcheck) s
 table=(opt,rrhf)
 ----------------------------------------------------------------------
 -----
 title
 -----
 Symbolic Z-matrix:
 Charge =  0 Multiplicity = 1

 SCF Done:  E(RHF) =  -654.477448255     A.U. after   18 cycles
 Normal termination of Gaussian 16 at Tue Apr  8 19:34:19 2025.
 Gaussian 16:  ES64L-G16RevC.01  3-Jul-2019

 ----------------------------------------------------------------------
 #t hf aug-cc-pvdz iop(5/13=1,5/36=2,99/5=2) pseudo=read geom=check gue
 ss=(read,tcheck) scf=(maxcycle=1)
 ----------------------------------------------------------------------
 -----
 title
 -----
 Structure from the checkpoint file:  "ANI1ccx_1371_conf1_mol2.chk"
 Charge =  0 Multiplicity = 1

                         Standard orientation:
 ---------------------------------------------------------------------
 Center     Atomic      Atomic             Coordinates (Angstroms)
 Number     Number       Type             X           Y           Z
 ---------------------------------------------------------------------
      1          6           0       -4.225940   -0.464771   -0.017503
      2          6           0       -2.984311    0.437424    0.039422
      3          6           0       -0.557068    0.087509   -0.002960
      4          6           0        0.917494    1.821570   -0.000445
      5          6           0        1.873959   -0.203702    0.019455
      6          6           0        0.561247   -0.805060   -0.021043
      7          1           0        2.566010   -1.941069    0.019820
      8          1           0        0.309249    3.788140   -0.077592
      9          1           0        2.030558    3.549550   -0.020282
     10          1           0       -1.849650   -1.405091   -0.065879
     11          1           0       -2.934021    1.163309   -0.786974
     12          1           0       -2.980341    1.078429    0.958663
     13          1           0       -5.148301    0.138940   -0.160939
     14          1           0       -4.076710   -1.159441   -0.872943
     15          1           0       -4.283820   -1.078361    0.885972
     16          7           0       -1.787700   -0.409249   -0.006310
     17          7           0       -0.367602    1.402840    0.031254
     18          7           0        1.086868    3.182410   -0.044509
     19          7           0        2.071029    1.087951    0.041355
     20          7           0        0.304928   -2.138180    0.003779
     21          8           0        2.912100   -1.006049   -0.008027
     22          8           0        1.300660   -2.900530   -0.012020
 ---------------------------------------------------------------------

 SCF Done:  E(RHF) =  -655.132437100     A.U. after    2 cycles

 The electronic state is 1-A.
 Alpha  occ. eigenvalues --  -20.58378 -20.57202 -15.63966 -15.54481 -15.54297
 Alpha  occ. eigenvalues --  -15.50304 -15.50192 -11.39473 -11.38587 -11.36287
 Alpha  occ. eigenvalues --  -11.29350 -11.26616 -11.25656  -1.55379  -1.51442
 Alpha  occ. eigenvalues --   -1.34706  -1.29139  -1.22501  -1.20064  -1.15085
 Alpha  occ. eigenvalues --   -1.04894  -0.97806  -0.91808  -0.90735  -0.88499
 Alpha  occ. eigenvalues --   -0.81579  -0.79757  -0.77830  -0.73794  -0.70871
 Alpha  occ. eigenvalues --   -0.69393  -0.68555  -0.67159  -0.65632  -0.63617
 Alpha  occ. eigenvalues --   -0.61111  -0.59179  -0.58674  -0.56955  -0.55973
 Alpha  occ. eigenvalues --   -0.55712  -0.54236  -0.50789  -0.47187  -0.45921
 Alpha  occ. eigenvalues --   -0.42982  -0.41528  -0.36291
 Alpha virt. eigenvalues --    0.02753   0.02794   0.03287   0.03857   0.04142
 Alpha virt. eigenvalues --    0.05047   0.06046   0.06592   0.06755   0.08616
 Alpha virt. eigenvalues --    0.09184   0.10052   0.10332   0.12184   0.12490

 Mulliken charges:
               1
     1  C   -0.599568
     2  C    0.041122
     3  C   -2.583736
     4  C   -0.792382
     5  C    0.552441
     6  C   -0.700543
     7  H    0.543607
     8  H    0.085609
     9  H    0.116555
    10  H    0.317213
    11  H    0.039106
    12  H    0.128649
    13  H    0.165441
    14  H    0.191983
    15  H    0.180155
    16  N    1.103638
    17  N    0.721905
    18  N    0.746586
    19  N    1.006547
    20  N    1.918155
    21  O   -1.662402
    22  O   -1.520079
 Sum of Mulliken charges =  -0.00000

 Dipole moment (field-independent basis, Debye):
    X=             -3.9514    Y=              3.3036    Z=             -0.1152  Tot=              5.1517

 Test job not archived.
 1\1\GINC-SE095\SP\RHF\Aug-CC-pVDZ\C6H9N5O2\OHZDE\08-Apr-2025\0\\#t hf
 aug-cc-pvdz iop(5/13=1,5/36=2,99/5=2) pseudo=read geom=check guess=(re
 ad,tcheck) scf=(maxcycle=1)\\title\\0,1\C,0,-4.22594,-0.46477,-0.01750
 29\C,0,-2.98431,0.437425,0.0394221\C,0,-0.557067,0.0875098,-0.00295964
 \C,0,0.917495,1.82157,-0.00044482\C,0,1.87396,-0.203702,0.0194546\C,0,
 0.561247,-0.80506,-0.0210433\H,0,2.56601,-1.94107,0.0198196\H,0,0.3092
 51,3.78814,-0.0775917\H,0,2.03056,3.54955,-0.020282\H,0,-1.84965,-1.40
 509,-0.0658788\H,0,-2.93402,1.16331,-0.786974\H,0,-2.98034,1.07843,0.9

 Normal termination of Gaussian 16 at Tue Apr  8 19:34:37 2025.
