 Gaussian 16, Revision C.01,

 ----------------------------------------------------------------------
 #t hf aug-cc-pvdz symm=none int=(grid=ultrafine) guess=(read,tcheck) s
 table=(opt,rrhf)
 ----------------------------------------------------------------------
 -----
 title
 -----
 Symbolic Z-matrix:
 Charge =  0 Multiplicity = 1

 SCF Done:  E(RHF) =  -463.362015119     A.U. after   16 cycles
 Normal termination of Gaussian 16 at Tue Apr  8 19:16:43 2025.
 Gaussian 16:  ES64L-G16RevC.01  3-Jul-2019

 ----------------------------------------------------------------------
 #t hf aug-cc-pvdz iop(5/13=1,5/36=2,99/5=2) pseudo=read geom=check gue
 ss=(read,tcheck) scf=(maxcycle=1)
 ----------------------------------------------------------------------
 -----
 title
 -----
 Structure from the checkpoint file:  "ANI1ccx_1081_conf2_mol1.chk"
 Charge =  0 Multiplicity = 1

                         Standard orientation:
 ---------------------------------------------------------------------
 Center     Atomic      Atomic             Coordinates (Angstroms)
 Number     Number       Type             X           Y           Z
 ---------------------------------------------------------------------
      1          6           0       -0.622025    0.915179    0.013192
      2          6           0        1.266899   -0.202149    0.004503
      3          6           0       -0.855070   -0.395330   -0.004705
      4          6           0       -2.162521   -1.065329   -0.017532
      5          6           0        2.684409   -0.348565    0.002188
      6          1           0       -1.354380    2.813541    0.549292
      7          1           0       -2.481060    1.741251   -0.087030
      8          1           0        1.271760    1.918151   -0.132651
      9          7           0       -1.499860    2.006801   -0.071142
     10          7           0        0.731491    1.072511   -0.009377
     11          7           0        0.310466   -1.101339   -0.036510
     12          7           0       -3.262481   -1.429458    0.042737
     13          7           0        3.819459   -0.533626    0.029222
 ---------------------------------------------------------------------

 SCF Done:  E(RHF) =  -463.813273728     A.U. after    2 cycles

 The electronic state is 1-A.
 Alpha  occ. eigenvalues --  -15.61703 -15.56866 -15.55766 -15.55376 -15.53294
 Alpha  occ. eigenvalues --  -11.37718 -11.37544 -11.31780 -11.31690 -11.30471
 Alpha  occ. eigenvalues --   -1.41651  -1.27094  -1.26596  -1.24840  -1.22674
 Alpha  occ. eigenvalues --   -1.09569  -0.96083  -0.93837  -0.87104  -0.79246
 Alpha  occ. eigenvalues --   -0.75338  -0.74197  -0.72212  -0.70817  -0.64140
 Alpha  occ. eigenvalues --   -0.61960  -0.58535  -0.55892  -0.54971  -0.54307
 Alpha  occ. eigenvalues --   -0.53493  -0.51995  -0.48937  -0.37485
 Alpha virt. eigenvalues --    0.00982   0.03177   0.04031   0.04892   0.06942
 Alpha virt. eigenvalues --    0.07660   0.08135   0.08767   0.09822   0.10021
 Alpha virt. eigenvalues --    0.10177   0.11042   0.11293   0.12330   0.12827

 Mulliken charges:
               1
     1  C   -1.280218
     2  C   -0.416133
     3  C    0.295964
     4  C   -2.149575
     5  C   -1.661304
     6  H    0.113473
     7  H    0.266111
     8  H    0.060941
     9  N    0.700489
    10  N    0.704723
    11  N    1.163303
    12  N    1.079574
    13  N    1.122652
 Sum of Mulliken charges =   0.00000

 Dipole moment (field-independent basis, Debye):
    X=             -0.1971    Y=              7.1493    Z=              0.6568  Tot=              7.1822

 Test job not archived.
 1\1\GINC-SE179\SP\RHF\Aug-CC-pVDZ\C5H3N5\OHZDE\08-Apr-2025\0\\#t hf au
 g-cc-pvdz iop(5/13=1,5/36=2,99/5=2) pseudo=read geom=check guess=(read
 ,tcheck) scf=(maxcycle=1)\\title\\0,1\C,0,-0.622025,0.915178,0.0131919
 \C,0,1.2669,-0.20215,0.00450334\C,0,-0.855069,-0.395331,-0.00470475\C,
 0,-2.16252,-1.06533,-0.0175324\C,0,2.68441,-0.348565,0.00218797\H,0,-1
 .35438,2.81354,0.549292\H,0,-2.48106,1.74125,-0.08703\H,0,1.27176,1.91
 815,-0.132651\N,0,-1.49986,2.0068,-0.0711422\N,0,0.731491,1.07251,-0.0
 093769\N,0,0.310467,-1.10134,-0.0365101\N,0,-3.26248,-1.42946,0.042737

 Normal termination of Gaussian 16 at Tue Apr  8 19:16:49 2025.
