 Gaussian 16, Revision C.01,

 ----------------------------------------------------------------------
 #t hf aug-cc-pvdz symm=none int=(grid=ultrafine) guess=(read,tcheck) s
 table=(opt,rrhf)
 ----------------------------------------------------------------------
 -----
 title
 -----
 Symbolic Z-matrix:
 Charge =  0 Multiplicity = 1

 SCF Done:  E(RHF) =  -332.547243665     A.U. after   16 cycles
 Normal termination of Gaussian 16 at Tue Apr  8 21:49:40 2025.
 Gaussian 16:  ES64L-G16RevC.01  3-Jul-2019

 ----------------------------------------------------------------------
 #t hf aug-cc-pvdz iop(5/13=1,5/36=2,99/5=2) pseudo=read geom=check gue
 ss=(read,tcheck) scf=(maxcycle=1)
 ----------------------------------------------------------------------
 -----
 title
 -----
 Structure from the checkpoint file:  "ANI1ccx_658_conf3_mol2.chk"
 Charge =  0 Multiplicity = 1

                         Standard orientation:
 ---------------------------------------------------------------------
 Center     Atomic      Atomic             Coordinates (Angstroms)
 Number     Number       Type             X           Y           Z
 ---------------------------------------------------------------------
      1          6           0        1.680500    0.119594   -0.028014
      2          6           0        0.285366    0.021217    0.192327
      3          6           0       -1.646630    0.652679   -0.028642
      4          1           0       -2.628670    1.050650   -0.294296
      5          1           0       -2.346941   -1.441000   -0.143358
      6          7           0        2.820949   -0.068435   -0.108787
      7          7           0       -0.491285    1.228190    0.052234
      8          7           0       -1.572571   -0.703155   -0.101975
      9          7           0       -0.319922   -1.080970    0.104761
 ---------------------------------------------------------------------

 SCF Done:  E(RHF) =  -332.876021004     A.U. after    2 cycles

 The electronic state is 1-A.
 Alpha  occ. eigenvalues --  -15.63079 -15.58462 -15.54798 -15.53062 -11.35945
 Alpha  occ. eigenvalues --  -11.35028 -11.29278  -1.46981  -1.25434  -1.24321
 Alpha  occ. eigenvalues --   -1.18701  -0.96469  -0.93546  -0.84211  -0.76081
 Alpha  occ. eigenvalues --   -0.72173  -0.68066  -0.61584  -0.59498  -0.55357
 Alpha  occ. eigenvalues --   -0.54938  -0.51553  -0.49752  -0.44145
 Alpha virt. eigenvalues --    0.01508   0.03680   0.05979   0.06847   0.07255
 Alpha virt. eigenvalues --    0.08615   0.09046   0.10517   0.11386   0.12339
 Alpha virt. eigenvalues --    0.12784   0.13522   0.14354   0.15247   0.15893

 Mulliken charges:
               1
     1  C   -1.489790
     2  C   -0.522958
     3  C   -0.240231
     4  H   -0.016757
     5  H    0.144033
     6  N    0.964714
     7  N    0.591223
     8  N    0.132461
     9  N    0.437305
 Sum of Mulliken charges =  -0.00000

 Dipole moment (field-independent basis, Debye):
    X=             -7.4784    Y=             -0.7964    Z=             -0.0750  Tot=              7.5210

 Test job not archived.
 1\1\GINC-SE099\SP\RHF\Aug-CC-pVDZ\C3H2N4\OHZDE\08-Apr-2025\0\\#t hf au
 g-cc-pvdz iop(5/13=1,5/36=2,99/5=2) pseudo=read geom=check guess=(read
 ,tcheck) scf=(maxcycle=1)\\title\\0,1\C,0,1.6805,0.119594,-0.0280145\C
 ,0,0.285366,0.0212169,0.192327\C,0,-1.64663,0.652679,-0.0286423\H,0,-2
 .62867,1.05065,-0.294296\H,0,-2.34694,-1.441,-0.143358\N,0,2.82095,-0.
 0684345,-0.108787\N,0,-0.491285,1.22819,0.0522337\N,0,-1.57257,-0.7031
 55,-0.101975\N,0,-0.319921,-1.08097,0.104761\\Version=ES64L-G16RevC.01
 \State=1-A\HF=-332.876021\RMSD=5.525e-02\Dipole=-2.942213,-0.3133431,-

 Normal termination of Gaussian 16 at Tue Apr  8 21:49:45 2025.
