 Gaussian 16, Revision C.01,

 ----------------------------------------------------------------------
 #t hf aug-cc-pvdz symm=none int=(grid=ultrafine) guess=(read,tcheck) s
 table=(opt,rrhf)
 ----------------------------------------------------------------------
 -----
 title
 -----
 Symbolic Z-matrix:
 Charge =  0 Multiplicity = 1

 SCF Done:  E(RHF) =  -564.583402055     A.U. after   14 cycles
 Normal termination of Gaussian 16 at Tue Apr  8 22:14:24 2025.
 Gaussian 16:  ES64L-G16RevC.01  3-Jul-2019

 ----------------------------------------------------------------------
 #t hf aug-cc-pvdz iop(5/13=1,5/36=2,99/5=2) pseudo=read geom=check gue
 ss=(read,tcheck) scf=(maxcycle=1)
 ----------------------------------------------------------------------
 -----
 title
 -----
 Structure from the checkpoint file:  "ANI1ccx_958_conf2_mol1.chk"
 Charge =  0 Multiplicity = 1

                         Standard orientation:
 ---------------------------------------------------------------------
 Center     Atomic      Atomic             Coordinates (Angstroms)
 Number     Number       Type             X           Y           Z
 ---------------------------------------------------------------------
      1          6           0       -0.632575    1.747189    1.033870
      2          6           0       -0.374242    0.041718   -0.493150
      3          6           0        1.993140   -0.364903    0.008988
      4          6           0       -1.670000   -0.730607   -0.158029
      5          1           0       -2.546311    0.856080   -0.480505
      6          1           0        1.624679    1.520709   -0.953703
      7          1           0        3.259429    0.925701   -0.921530
      8          1           0        0.442490   -1.410811    0.774370
      9          1           0       -1.561481    1.396219    1.445560
     10          1           0        0.227782    1.307149    1.560830
     11          1           0       -0.525818    2.827969    1.138350
     12          1           0       -0.160990   -0.052241   -1.516620
     13          7           0        0.663188   -0.523014    0.392881
     14          7           0        2.283959    0.777845   -0.706825
     15          8           0       -2.792640   -0.056600   -0.368369
     16          8           0       -0.517888    1.440329   -0.326705
     17          8           0        2.854540   -1.163370    0.375536
     18          8           0       -1.704980   -1.884731    0.169638
 ---------------------------------------------------------------------

 SCF Done:  E(RHF) =  -565.145314684     A.U. after    2 cycles

 The electronic state is 1-A.
 Alpha  occ. eigenvalues --  -20.62538 -20.60962 -20.56225 -20.50938 -15.54265
 Alpha  occ. eigenvalues --  -15.53954 -11.41990 -11.40018 -11.38053 -11.30933
 Alpha  occ. eigenvalues --   -1.58748  -1.53631  -1.48559  -1.46027  -1.27046
 Alpha  occ. eigenvalues --   -1.20819  -1.04285  -0.95890  -0.87993  -0.85908
 Alpha  occ. eigenvalues --   -0.81727  -0.78711  -0.75431  -0.74161  -0.70008
 Alpha  occ. eigenvalues --   -0.68391  -0.67856  -0.64991  -0.64012  -0.61560
 Alpha  occ. eigenvalues --   -0.60323  -0.59046  -0.54840  -0.51551  -0.49698
 Alpha  occ. eigenvalues --   -0.48655  -0.46185  -0.44468  -0.43267
 Alpha virt. eigenvalues --    0.02413   0.03310   0.03782   0.04421   0.05288
 Alpha virt. eigenvalues --    0.06824   0.07201   0.07879   0.09168   0.11111
 Alpha virt. eigenvalues --    0.11195   0.12284   0.12537   0.13114   0.13657

 Mulliken charges:
               1
     1  C    0.066882
     2  C    0.586751
     3  C    0.096094
     4  C    2.308569
     5  H    0.481140
     6  H    0.070076
     7  H    0.155549
     8  H    0.311956
     9  H    0.076111
    10  H    0.394249
    11  H    0.045765
    12  H   -0.075774
    13  N    0.325124
    14  N    0.628476
    15  O   -1.325742
    16  O   -1.568707
    17  O   -1.237675
    18  O   -1.338846
 Sum of Mulliken charges =  -0.00000

 Dipole moment (field-independent basis, Debye):
    X=             -1.1439    Y=              5.7278    Z=             -1.4625  Tot=              6.0212

 Test job not archived.
 1\1\GINC-SE460\SP\RHF\Aug-CC-pVDZ\C4H8N2O4\OHZDE\08-Apr-2025\0\\#t hf
 aug-cc-pvdz iop(5/13=1,5/36=2,99/5=2) pseudo=read geom=check guess=(re
 ad,tcheck) scf=(maxcycle=1)\\title\\0,1\C,0,-0.632574,1.74719,1.03387\
 C,0,-0.374242,0.0417194,-0.49315\C,0,1.99314,-0.364902,0.00898869\C,0,
 -1.67,-0.730606,-0.158029\H,0,-2.54631,0.856081,-0.480505\H,0,1.62468,
 1.52071,-0.953703\H,0,3.25943,0.925701,-0.92153\H,0,0.44249,-1.41081,0
 .77437\H,0,-1.56148,1.39622,1.44556\H,0,0.227783,1.30715,1.56083\H,0,-
 0.525817,2.82797,1.13835\H,0,-0.16099,-0.0522399,-1.51662\N,0,0.663188

 Normal termination of Gaussian 16 at Tue Apr  8 22:14:33 2025.
