 Gaussian 16, Revision C.01,

 ----------------------------------------------------------------------
 #t hf aug-cc-pvdz symm=none int=(grid=ultrafine) guess=(read,tcheck) s
 table=(opt,rrhf)
 ----------------------------------------------------------------------
 -----
 title
 -----
 Symbolic Z-matrix:
 Charge =  0 Multiplicity = 1

 SCF Done:  E(RHF) =  -541.300383249     A.U. after   14 cycles
 Normal termination of Gaussian 16 at Tue Apr  8 21:46:23 2025.
 Gaussian 16:  ES64L-G16RevC.01  3-Jul-2019

 ----------------------------------------------------------------------
 #t hf aug-cc-pvdz iop(5/13=1,5/36=2,99/5=2) pseudo=read geom=check gue
 ss=(read,tcheck) scf=(maxcycle=1)
 ----------------------------------------------------------------------
 -----
 title
 -----
 Structure from the checkpoint file:  "ANI1ccx_541_conf1_mol2.chk"
 Charge =  0 Multiplicity = 1

                         Standard orientation:
 ---------------------------------------------------------------------
 Center     Atomic      Atomic             Coordinates (Angstroms)
 Number     Number       Type             X           Y           Z
 ---------------------------------------------------------------------
      1          6           0       -0.443193    0.571054   -0.022934
      2          6           0        1.195543   -1.340177   -0.314397
      3          1           0        2.302718    0.929841    0.448605
      4          1           0        0.226526    2.344561   -0.338277
      5          1           0       -3.401310    0.229680    0.274003
      6          1           0       -1.655726   -1.583263    0.303778
      7          1           0        1.045255   -2.405278   -0.186836
      8          7           0        0.644631    1.446331   -0.300425
      9          7           0       -1.628942    1.020897   -0.189361
     10          7           0        0.004983   -0.731619    0.098080
     11          8           0        1.568897    1.519293    0.738651
     12          8           0       -2.528190    0.013208   -0.416899
     13          8           0       -0.831063   -1.583912    0.785509
     14          8           0        2.268322   -0.829848   -0.574179
 ---------------------------------------------------------------------

 SCF Done:  E(RHF) =  -541.834397515     A.U. after    2 cycles

 The electronic state is 1-A.
 Alpha  occ. eigenvalues --  -20.62648 -20.62578 -20.58821 -20.56602 -15.62512
 Alpha  occ. eigenvalues --  -15.57863 -15.56805 -11.40583 -11.37942  -1.56977
 Alpha  occ. eigenvalues --   -1.51851  -1.51196  -1.49673  -1.27753  -1.18669
 Alpha  occ. eigenvalues --   -1.11292  -0.98733  -0.83812  -0.78896  -0.78105
 Alpha  occ. eigenvalues --   -0.75677  -0.72527  -0.69691  -0.68613  -0.67376
 Alpha  occ. eigenvalues --   -0.65316  -0.63061  -0.59923  -0.55941  -0.53155
 Alpha  occ. eigenvalues --   -0.50626  -0.47987  -0.46944  -0.45779  -0.41111
 Alpha virt. eigenvalues --    0.02715   0.04195   0.05561   0.05930   0.06762
 Alpha virt. eigenvalues --    0.07778   0.09842   0.10696   0.10850   0.11608
 Alpha virt. eigenvalues --    0.13395   0.13928   0.14479   0.15515   0.16217

 Mulliken charges:
               1
     1  C   -1.387923
     2  C    0.793464
     3  H    0.376190
     4  H    0.208420
     5  H    0.462570
     6  H    0.369752
     7  H    0.108055
     8  N    1.134520
     9  N    1.421364
    10  N    1.491599
    11  O   -1.228155
    12  O   -1.398884
    13  O   -1.305992
    14  O   -1.044981
 Sum of Mulliken charges =  -0.00000

 Dipole moment (field-independent basis, Debye):
    X=             -2.6358    Y=             -2.0263    Z=              0.7240  Tot=              3.4026

 Test job not archived.
 1\1\GINC-SE334\SP\RHF\Aug-CC-pVDZ\C2H5N3O4\OHZDE\08-Apr-2025\0\\#t hf
 aug-cc-pvdz iop(5/13=1,5/36=2,99/5=2) pseudo=read geom=check guess=(re
 ad,tcheck) scf=(maxcycle=1)\\title\\0,1\C,0,-0.443192,0.571055,-0.0229
 341\C,0,1.19554,-1.34018,-0.314397\H,0,2.30272,0.929836,0.448605\H,0,0
 .226531,2.34456,-0.338277\H,0,-3.40131,0.229687,0.274003\H,0,-1.65573,
 -1.58326,0.303778\H,0,1.04525,-2.40528,-0.186836\N,0,0.644634,1.44633,
 -0.300425\N,0,-1.62894,1.0209,-0.189361\N,0,0.0049813,-0.731619,0.0980
 805\O,0,1.5689,1.51929,0.738651\O,0,-2.52819,0.0132133,-0.416899\O,0,-

 Normal termination of Gaussian 16 at Tue Apr  8 21:46:28 2025.
