 Gaussian 16, Revision C.01,

 ----------------------------------------------------------------------
 #t hf aug-cc-pvdz symm=none int=(grid=ultrafine) guess=(read,tcheck) s
 table=(opt,rrhf)
 ----------------------------------------------------------------------
 -----
 title
 -----
 Symbolic Z-matrix:
 Charge =  0 Multiplicity = 1

 SCF Done:  E(RHF) =  -674.271326489     A.U. after   18 cycles
 Normal termination of Gaussian 16 at Tue Apr  8 19:33:03 2025.
 Gaussian 16:  ES64L-G16RevC.01  3-Jul-2019

 ----------------------------------------------------------------------
 #t hf aug-cc-pvdz iop(5/13=1,5/36=2,99/5=2) pseudo=read geom=check gue
 ss=(read,tcheck) scf=(maxcycle=1)
 ----------------------------------------------------------------------
 -----
 title
 -----
 Structure from the checkpoint file:  "ANI1ccx_1351_conf2_mol2.chk"
 Charge =  0 Multiplicity = 1

                         Standard orientation:
 ---------------------------------------------------------------------
 Center     Atomic      Atomic             Coordinates (Angstroms)
 Number     Number       Type             X           Y           Z
 ---------------------------------------------------------------------
      1          6           0        3.446121    0.542011    0.007190
      2          6           0        1.138561    0.040967    0.020702
      3          6           0       -0.326780    1.771631   -0.008774
      4          6           0       -1.222039   -0.301529    0.012006
      5          6           0       -3.566090   -0.497107    0.011887
      6          6           0        0.060872   -0.885477    0.016143
      7          1           0       -3.694229    0.092957    0.929011
      8          1           0       -4.284000   -1.311706   -0.029923
      9          1           0       -3.680879    0.165486   -0.846933
     10          1           0       -1.445626    3.476082   -0.072169
     11          1           0        3.399012    1.173407    0.901051
     12          1           0        4.357531   -0.053337   -0.000198
     13          1           0        3.389142    1.170457   -0.894846
     14          1           0        0.288286    3.724660   -0.075013
     15          7           0        0.949743    1.352739    0.011209
     16          7           0       -0.512323    3.104551   -0.008515
     17          7           0       -1.429278    1.006992   -0.019486
     18          7           0        0.114000   -2.290890   -0.045200
     19          8           0       -2.269560   -1.121048    0.020547
     20          8           0        2.376550   -0.419333    0.022559
     21          8           0        1.221998   -2.793961   -0.022100
 ---------------------------------------------------------------------

 SCF Done:  E(RHF) =  -674.939903925     A.U. after    2 cycles

 The electronic state is 1-A.
 Alpha  occ. eigenvalues --  -20.59634 -20.59608 -20.56784 -15.61673 -15.54466
 Alpha  occ. eigenvalues --  -15.50312 -15.50215 -11.38561 -11.38295 -11.37873
 Alpha  occ. eigenvalues --  -11.30192 -11.30054 -11.25587  -1.55101  -1.53341
 Alpha  occ. eigenvalues --   -1.53214  -1.34097  -1.23194  -1.21351  -1.12663
 Alpha  occ. eigenvalues --   -1.00296  -0.98916  -0.95065  -0.89291  -0.88916
 Alpha  occ. eigenvalues --   -0.79737  -0.79375  -0.74053  -0.72594  -0.70588
 Alpha  occ. eigenvalues --   -0.69609  -0.69514  -0.67082  -0.63509  -0.62879
 Alpha  occ. eigenvalues --   -0.62208  -0.59621  -0.58865  -0.56982  -0.53451
 Alpha  occ. eigenvalues --   -0.53343  -0.53275  -0.53049  -0.47720  -0.46619
 Alpha  occ. eigenvalues --   -0.44091  -0.38932  -0.35295
 Alpha virt. eigenvalues --    0.02377   0.03790   0.04010   0.04561   0.04762
 Alpha virt. eigenvalues --    0.05684   0.05969   0.06353   0.07429   0.07955
 Alpha virt. eigenvalues --    0.09938   0.10932   0.11562   0.12001   0.12370

 Mulliken charges:
               1
     1  C    0.175890
     2  C    0.354982
     3  C   -0.432622
     4  C   -0.052624
     5  C    0.203342
     6  C   -0.691578
     7  H    0.212569
     8  H   -0.028736
     9  H    0.213061
    10  H    0.146196
    11  H    0.227239
    12  H   -0.019169
    13  H    0.230976
    14  H    0.149447
    15  N    0.697714
    16  N    0.740475
    17  N    0.762235
    18  N    1.731506
    19  O   -1.648227
    20  O   -1.687150
    21  O   -1.285525
 Sum of Mulliken charges =  -0.00000

 Dipole moment (field-independent basis, Debye):
    X=             -0.7635    Y=              5.8595    Z=             -0.1430  Tot=              5.9108

 Test job not archived.
 1\1\GINC-SE115\SP\RHF\Aug-CC-pVDZ\C6H8N4O3\OHZDE\08-Apr-2025\0\\#t hf
 aug-cc-pvdz iop(5/13=1,5/36=2,99/5=2) pseudo=read geom=check guess=(re
 ad,tcheck) scf=(maxcycle=1)\\title\\0,1\C,0,3.44612,0.542014,0.0071899
 5\C,0,1.13856,0.0409681,0.0207018\C,0,-0.326783,1.77163,-0.00877418\C,
 0,-1.22204,-0.30153,0.0120056\C,0,-3.56609,-0.497111,0.0118872\C,0,0.0
 608716,-0.885477,0.0161427\H,0,-3.69423,0.0929534,0.929011\H,0,-4.284,
 -1.31171,-0.0299234\H,0,-3.68088,0.165482,-0.846933\H,0,-1.44563,3.476
 08,-0.0721691\H,0,3.39901,1.17341,0.901051\H,0,4.35753,-0.0533331,-0.0

 Normal termination of Gaussian 16 at Tue Apr  8 19:33:24 2025.
