 Gaussian 16, Revision C.01,

 ----------------------------------------------------------------------
 #t hf aug-cc-pvdz symm=none int=(grid=ultrafine) guess=(read,tcheck) s
 table=(opt,rrhf)
 ----------------------------------------------------------------------
 -----
 title
 -----
 Symbolic Z-matrix:
 Charge =  0 Multiplicity = 1

 SCF Done:  E(RHF) =  -456.239408259     A.U. after   11 cycles
 Normal termination of Gaussian 16 at Tue Apr  8 21:07:46 2025.
 Gaussian 16:  ES64L-G16RevC.01  3-Jul-2019

 ----------------------------------------------------------------------
 #t hf aug-cc-pvdz iop(5/13=1,5/36=2,99/5=2) pseudo=read geom=check gue
 ss=(read,tcheck) scf=(maxcycle=1)
 ----------------------------------------------------------------------
 -----
 title
 -----
 Structure from the checkpoint file:  "ANI1ccx_1844_conf298_mol1.chk"
 Charge =  0 Multiplicity = 1

                         Standard orientation:
 ---------------------------------------------------------------------
 Center     Atomic      Atomic             Coordinates (Angstroms)
 Number     Number       Type             X           Y           Z
 ---------------------------------------------------------------------
      1          1           0       -0.209458   -0.617126    1.819590
      2          1           0       -1.605131   -0.518253   -0.887596
      3          1           0       -1.807862   -1.900941   -1.625920
      4          1           0        2.059589   -0.554914    0.860592
      5          1           0        1.382139    0.767508    1.205040
      6          1           0       -0.171133    1.725359   -0.614852
      7          1           0       -1.306632   -1.325071    0.804402
      8          1           0        1.127749    2.577199   -1.169790
      9          1           0        1.571989   -0.033165   -1.097210
     10          1           0        1.026448   -1.488651   -1.382730
     11          1           0       -2.465201    1.839139    0.115454
     12          1           0       -1.575241    0.682470    0.654706
     13          8           0        1.654189   -0.084794    1.606390
     14          8           0        1.805758   -0.970408   -1.040550
     15          8           0       -1.072772   -1.389821   -1.069390
     16          8           0        0.822860    1.788119   -0.646664
     17          8           0       -1.213121   -0.662659    1.528850
     18          8           0       -1.750321    1.175369   -0.213848
 ---------------------------------------------------------------------

 SCF Done:  E(RHF) =  -456.711281125     A.U. after    2 cycles

 The electronic state is 1-A.
 Alpha  occ. eigenvalues --  -20.58911 -20.58747 -20.56072 -20.55010 -20.53172
 Alpha  occ. eigenvalues --  -20.52724  -1.46252  -1.43139  -1.42666  -1.41590
 Alpha  occ. eigenvalues --   -1.40749  -1.39739  -0.73572  -0.72451  -0.70116
 Alpha  occ. eigenvalues --   -0.68897  -0.67928  -0.67410  -0.62385  -0.60431
 Alpha  occ. eigenvalues --   -0.58241  -0.56966  -0.56585  -0.53158  -0.51903
 Alpha  occ. eigenvalues --   -0.50699  -0.49790  -0.48772  -0.47632  -0.45828
 Alpha virt. eigenvalues --    0.02389   0.03500   0.04354   0.06395   0.07298
 Alpha virt. eigenvalues --    0.07968   0.08094   0.08618   0.09110   0.10475
 Alpha virt. eigenvalues --    0.10828   0.10932   0.16324   0.17815   0.18373

 Mulliken charges:
               1
     1  H    0.642086
     2  H    0.730296
     3  H    0.458080
     4  H    0.598373
     5  H    0.570370
     6  H    0.813592
     7  H    0.647679
     8  H    0.466335
     9  H    0.625761
    10  H    0.569254
    11  H    0.441041
    12  H    0.762721
    13  O   -1.140958
    14  O   -1.135298
    15  O   -1.191475
    16  O   -1.233534
    17  O   -1.348554
    18  O   -1.275769
 Sum of Mulliken charges =  -0.00000

 Dipole moment (field-independent basis, Debye):
    X=             -4.4602    Y=              2.3609    Z=             -2.7437  Tot=              5.7441

 Test job not archived.
 1\1\GINC-SE015\SP\RHF\Aug-CC-pVDZ\H12O6\OHZDE\08-Apr-2025\0\\#t hf aug
 -cc-pvdz iop(5/13=1,5/36=2,99/5=2) pseudo=read geom=check guess=(read,
 tcheck) scf=(maxcycle=1)\\title\\0,1\H,0,-0.209457,-0.617125,1.81959\H
 ,0,-1.60513,-0.518252,-0.887596\H,0,-1.80786,-1.90094,-1.62592\H,0,2.0
 5959,-0.554912,0.860592\H,0,1.38214,0.767509,1.20504\H,0,-0.171132,1.7
 2536,-0.614852\H,0,-1.30663,-1.32507,0.804402\H,0,1.12775,2.5772,-1.16
 979\H,0,1.57199,-0.0331636,-1.09721\H,0,1.02645,-1.48865,-1.38273\H,0,
 -2.4652,1.83914,0.115454\H,0,-1.57524,0.682471,0.654706\O,0,1.65419,-0

 Normal termination of Gaussian 16 at Tue Apr  8 21:07:52 2025.
