 Gaussian 16, Revision C.01,

 ----------------------------------------------------------------------
 #t hf aug-cc-pvdz symm=none int=(grid=ultrafine) guess=(read,tcheck) s
 table=(opt,rrhf)
 ----------------------------------------------------------------------
 -----
 title
 -----
 Symbolic Z-matrix:
 Charge =  0 Multiplicity = 1

 SCF Done:  E(RHF) =  -276.585661493     A.U. after   15 cycles
 Normal termination of Gaussian 16 at Tue Apr  8 21:18:23 2025.
 Gaussian 16:  ES64L-G16RevC.01  3-Jul-2019

 ----------------------------------------------------------------------
 #t hf aug-cc-pvdz iop(5/13=1,5/36=2,99/5=2) pseudo=read geom=check gue
 ss=(read,tcheck) scf=(maxcycle=1)
 ----------------------------------------------------------------------
 -----
 title
 -----
 Structure from the checkpoint file:  "ANI1ccx_370_conf35_mol1.chk"
 Charge =  0 Multiplicity = 1

                         Standard orientation:
 ---------------------------------------------------------------------
 Center     Atomic      Atomic             Coordinates (Angstroms)
 Number     Number       Type             X           Y           Z
 ---------------------------------------------------------------------
      1          6           0        0.995364    0.346826    0.023436
      2          1           0        2.051691    0.645874    0.017360
      3          7           0       -0.023449    1.180219   -0.004546
      4          7           0       -1.101729    0.371289   -0.017586
      5          7           0       -0.750191   -0.857147    0.031903
      6          8           0        0.637964   -0.948421   -0.028297
 ---------------------------------------------------------------------

 SCF Done:  E(RHF) =  -276.853199933     A.U. after    2 cycles

 The electronic state is 1-A.
 Alpha  occ. eigenvalues --  -20.69868 -15.65458 -15.63009 -15.57707 -11.40215
 Alpha  occ. eigenvalues --   -1.65294  -1.40602  -1.24825  -0.97706  -0.94992
 Alpha  occ. eigenvalues --   -0.80316  -0.75116  -0.69836  -0.63006  -0.57023
 Alpha  occ. eigenvalues --   -0.56170  -0.56043  -0.49101
 Alpha virt. eigenvalues --    0.02980   0.04069   0.07591   0.07881   0.08592
 Alpha virt. eigenvalues --    0.12784   0.13231   0.14160   0.15113   0.15941
 Alpha virt. eigenvalues --    0.17744   0.18933   0.19959   0.22521   0.23657

 Mulliken charges:
               1
     1  C    0.470159
     2  H    0.142475
     3  N    0.323227
     4  N   -0.840094
     5  N    1.125625
     6  O   -1.221392
 Sum of Mulliken charges =  -0.00000

 Dipole moment (field-independent basis, Debye):
    X=              3.9490    Y=             -0.2747    Z=              0.0483  Tot=              3.9589

 Test job not archived.
 1\1\GINC-SE058\SP\RHF\Aug-CC-pVDZ\C1H1N3O1\OHZDE\08-Apr-2025\0\\#t hf
 aug-cc-pvdz iop(5/13=1,5/36=2,99/5=2) pseudo=read geom=check guess=(re
 ad,tcheck) scf=(maxcycle=1)\\title\\0,1\C,0,0.995363,0.34683,0.0234361
 \H,0,2.05169,0.645881,0.0173602\N,0,-0.0234517,1.18022,-0.004546\N,0,-
 1.10173,0.371287,-0.0175857\N,0,-0.750188,-0.857148,0.0319029\O,0,0.63
 7967,-0.948418,-0.0282969\\Version=ES64L-G16RevC.01\State=1-A\HF=-276.
 8531999\RMSD=4.149e-02\Dipole=1.5536674,-0.1080688,0.018989\Quadrupole
 =2.5905058,-2.9852476,0.3947418,1.0531721,0.0825834,0.0251366\PG=C01 [

 Normal termination of Gaussian 16 at Tue Apr  8 21:18:25 2025.
