 Gaussian 16, Revision C.01,

 ----------------------------------------------------------------------
 #t hf aug-cc-pvdz symm=none int=(grid=ultrafine) guess=(read,tcheck) s
 table=(opt,rrhf)
 ----------------------------------------------------------------------
 -----
 title
 -----
 Symbolic Z-matrix:
 Charge =  0 Multiplicity = 1

 SCF Done:  E(RHF) =  -458.356299621     A.U. after   19 cycles
 Normal termination of Gaussian 16 at Tue Apr  8 21:45:09 2025.
 Gaussian 16:  ES64L-G16RevC.01  3-Jul-2019

 ----------------------------------------------------------------------
 #t hf aug-cc-pvdz iop(5/13=1,5/36=2,99/5=2) pseudo=read geom=check gue
 ss=(read,tcheck) scf=(maxcycle=1)
 ----------------------------------------------------------------------
 -----
 title
 -----
 Structure from the checkpoint file:  "ANI1ccx_509_conf2_mol1.chk"
 Charge =  0 Multiplicity = 1

                         Standard orientation:
 ---------------------------------------------------------------------
 Center     Atomic      Atomic             Coordinates (Angstroms)
 Number     Number       Type             X           Y           Z
 ---------------------------------------------------------------------
      1          6           0       -1.313010   -0.081493   -0.222912
      2          6           0        1.380120   -0.161169    0.332049
      3          1           0       -2.347770   -1.412540    1.011520
      4          1           0       -3.289550    0.339580    0.627115
      5          1           0        2.776040   -1.420281   -0.035218
      6          7           0       -2.342160   -0.346451    0.646745
      7          7           0       -0.790630    1.104850   -0.728583
      8          7           0        0.054726    1.776030   -0.135214
      9          7           0        0.984265    1.171870    0.481355
     10          7           0        2.623310   -0.385796    0.108358
     11          7           0        0.489399   -1.442260   -0.234955
     12          7           0       -0.667679   -1.314070   -0.460312
 ---------------------------------------------------------------------

 SCF Done:  E(RHF) =  -458.799931223     A.U. after    2 cycles

 The electronic state is 1-A.
 Alpha  occ. eigenvalues --  -15.64680 -15.63558 -15.62643 -15.61266 -15.52952
 Alpha  occ. eigenvalues --  -15.51869 -15.51803 -11.47220 -11.36883  -1.47570
 Alpha  occ. eigenvalues --   -1.43602  -1.31189  -1.25183  -1.19172  -1.07734
 Alpha  occ. eigenvalues --   -1.00147  -0.90820  -0.87321  -0.82422  -0.76004
 Alpha  occ. eigenvalues --   -0.73897  -0.71463  -0.68205  -0.67484  -0.63974
 Alpha  occ. eigenvalues --   -0.58885  -0.55053  -0.53159  -0.48629  -0.47444
 Alpha  occ. eigenvalues --   -0.41829  -0.39072
 Alpha virt. eigenvalues --   -0.02589   0.00506   0.03210   0.03372   0.05137
 Alpha virt. eigenvalues --    0.07079   0.07837   0.09237   0.10250   0.10949
 Alpha virt. eigenvalues --    0.11209   0.11654   0.12818   0.13201   0.14105

 Mulliken charges:
               1
     1  C   -1.373944
     2  C   -0.874167
     3  H    0.299985
     4  H    0.268275
     5  H    0.186163
     6  N    0.544190
     7  N    0.219498
     8  N   -0.135427
     9  N    0.140891
    10  N    0.720524
    11  N    0.326845
    12  N   -0.322833
 Sum of Mulliken charges =  -0.00000

 Dipole moment (field-independent basis, Debye):
    X=             -7.3133    Y=             -4.3818    Z=              1.7968  Tot=              8.7127

 Test job not archived.
 1\1\GINC-SE051\SP\RHF\Aug-CC-pVDZ\C2H3N7\OHZDE\08-Apr-2025\0\\#t hf au
 g-cc-pvdz iop(5/13=1,5/36=2,99/5=2) pseudo=read geom=check guess=(read
 ,tcheck) scf=(maxcycle=1)\\title\\0,1\C,0,-1.31301,-0.0814927,-0.22291
 2\C,0,1.38012,-0.161169,0.332049\H,0,-2.34777,-1.41254,1.01152\H,0,-3.
 28955,0.33958,0.627115\H,0,2.77604,-1.42028,-0.0352182\N,0,-2.34216,-0
 .346451,0.646745\N,0,-0.790631,1.10485,-0.728583\N,0,0.0547254,1.77603
 ,-0.135214\N,0,0.984264,1.17187,0.481355\N,0,2.62331,-0.385795,0.10835
 8\N,0,0.489399,-1.44226,-0.234955\N,0,-0.667679,-1.31407,-0.460312\\Ve

 Normal termination of Gaussian 16 at Tue Apr  8 21:45:15 2025.
