 Gaussian 16, Revision C.01,

 ----------------------------------------------------------------------
 #t hf aug-cc-pvdz symm=none int=(grid=ultrafine) guess=(read,tcheck) s
 table=(opt,rrhf)
 ----------------------------------------------------------------------
 -----
 title
 -----
 Symbolic Z-matrix:
 Charge =  0 Multiplicity = 1

 SCF Done:  E(RHF) =  -509.547086136     A.U. after   14 cycles
 Normal termination of Gaussian 16 at Tue Apr  8 22:10:53 2025.
 Gaussian 16:  ES64L-G16RevC.01  3-Jul-2019

 ----------------------------------------------------------------------
 #t hf aug-cc-pvdz iop(5/13=1,5/36=2,99/5=2) pseudo=read geom=check gue
 ss=(read,tcheck) scf=(maxcycle=1)
 ----------------------------------------------------------------------
 -----
 title
 -----
 Structure from the checkpoint file:  "ANI1ccx_939_conf12_mol1.chk"
 Charge =  0 Multiplicity = 1

                         Standard orientation:
 ---------------------------------------------------------------------
 Center     Atomic      Atomic             Coordinates (Angstroms)
 Number     Number       Type             X           Y           Z
 ---------------------------------------------------------------------
      1          6           0        0.833892   -0.596628   -0.767260
      2          6           0        1.159231    0.644901    0.101996
      3          6           0       -0.691689   -0.500827   -1.088451
      4          6           0       -1.526759   -0.031523    0.044929
      5          1           0        2.248631   -2.004119   -0.292022
      6          1           0        1.076301   -1.695739    0.840671
      7          1           0        1.310861   -0.342477   -1.709101
      8          1           0       -0.952419    0.315104   -1.825661
      9          1           0       -1.003689   -1.495259   -1.403141
     10          1           0       -1.868709   -0.556905    1.759049
     11          1           0        0.982530    2.551471   -0.055796
     12          7           0        1.266981   -1.778539   -0.133539
     13          8           0        1.791971    0.670544    1.137859
     14          8           0       -2.525509    0.637905   -0.002343
     15          8           0       -1.172179   -0.730989    1.143979
     16          8           0        0.741916    1.745311   -0.545311
 ---------------------------------------------------------------------

 SCF Done:  E(RHF) =  -510.055007015     A.U. after    2 cycles

 The electronic state is 1-A.
 Alpha  occ. eigenvalues --  -20.61426 -20.60596 -20.54974 -20.54943 -15.49720
 Alpha  occ. eigenvalues --  -11.40076 -11.40039 -11.30611 -11.26797  -1.56632
 Alpha  occ. eigenvalues --   -1.55932  -1.46535  -1.46020  -1.22282  -1.07428
 Alpha  occ. eigenvalues --   -0.95970  -0.85376  -0.81201  -0.75390  -0.73128
 Alpha  occ. eigenvalues --   -0.71977  -0.70643  -0.67786  -0.67226  -0.64493
 Alpha  occ. eigenvalues --   -0.61377  -0.60649  -0.58387  -0.56547  -0.53392
 Alpha  occ. eigenvalues --   -0.49601  -0.47662  -0.47482  -0.45120  -0.43223
 Alpha virt. eigenvalues --    0.03262   0.03927   0.04234   0.04995   0.05515
 Alpha virt. eigenvalues --    0.06419   0.07783   0.09702   0.10002   0.11445
 Alpha virt. eigenvalues --    0.12420   0.12841   0.13869   0.14069   0.14897

 Mulliken charges:
               1
     1  C   -2.155456
     2  C    2.815373
     3  C   -0.534920
     4  C    2.340787
     5  H    0.234285
     6  H    0.251086
     7  H    0.212138
     8  H    0.293556
     9  H    0.251636
    10  H    0.320552
    11  H    0.374578
    12  N    0.882316
    13  O   -1.360716
    14  O   -1.344750
    15  O   -1.262672
    16  O   -1.317793
 Sum of Mulliken charges =  -0.00000

 Dipole moment (field-independent basis, Debye):
    X=              1.1919    Y=             -0.1094    Z=             -1.0053  Tot=              1.5631

 Test job not archived.
 1\1\GINC-SE338\SP\RHF\Aug-CC-pVDZ\C4H7N1O4\OHZDE\08-Apr-2025\0\\#t hf
 aug-cc-pvdz iop(5/13=1,5/36=2,99/5=2) pseudo=read geom=check guess=(re
 ad,tcheck) scf=(maxcycle=1)\\title\\0,1\C,0,0.833891,-0.596629,-0.7672
 59\C,0,1.15923,0.6449,0.101997\C,0,-0.69169,-0.500828,-1.08845\C,0,-1.
 52676,-0.0315236,0.0449293\H,0,2.24863,-2.00412,-0.292021\H,0,1.0763,-
 1.69574,0.840672\H,0,1.31086,-0.342478,-1.7091\H,0,-0.95242,0.315103,-
 1.82566\H,0,-1.00369,-1.49526,-1.40314\H,0,-1.86871,-0.556906,1.75905\
 H,0,0.98253,2.55147,-0.0557956\N,0,1.26698,-1.77854,-0.133538\O,0,1.79

 Normal termination of Gaussian 16 at Tue Apr  8 22:10:59 2025.
