 Gaussian 16, Revision C.01,

 ----------------------------------------------------------------------
 #t hf aug-cc-pvdz symm=none int=(grid=ultrafine) guess=(read,tcheck) s
 table=(opt,rrhf)
 ----------------------------------------------------------------------
 -----
 title
 -----
 Symbolic Z-matrix:
 Charge =  0 Multiplicity = 1

 SCF Done:  E(RHF) =  -699.156670967     A.U. after   14 cycles
 Normal termination of Gaussian 16 at Tue Apr  8 19:54:06 2025.
 Gaussian 16:  ES64L-G16RevC.01  3-Jul-2019

 ----------------------------------------------------------------------
 #t hf aug-cc-pvdz iop(5/13=1,5/36=2,99/5=2) pseudo=read geom=check gue
 ss=(read,tcheck) scf=(maxcycle=1)
 ----------------------------------------------------------------------
 -----
 title
 -----
 Structure from the checkpoint file:  "ANI1ccx_1533_conf1_mol2.chk"
 Charge =  0 Multiplicity = 1

                         Standard orientation:
 ---------------------------------------------------------------------
 Center     Atomic      Atomic             Coordinates (Angstroms)
 Number     Number       Type             X           Y           Z
 ---------------------------------------------------------------------
      1          6           0        3.941380    0.817059    0.544569
      2          6           0        3.447640   -0.585714    0.113579
      3          6           0        1.145900   -0.269423   -0.078293
      4          6           0       -1.810000   -1.110720   -0.043488
      5          6           0       -3.042080   -0.551467    0.648188
      6          6           0       -2.920060    0.996047    0.430705
      7          6           0       -1.559950    1.262200   -0.200339
      8          1           0       -2.964940    1.567590    1.377920
      9          1           0       -3.697650    1.438450   -0.172334
     10          1           0       -3.013370   -0.792029    1.726640
     11          1           0       -3.951010   -1.058930    0.187879
     12          1           0        4.213740   -1.040739   -0.485396
     13          1           0        4.955960    0.779991    0.972799
     14          1           0        4.019080    1.461751   -0.361747
     15          1           0        3.233820    1.285181    1.292010
     16          1           0        3.229280   -1.201939    0.999064
     17          7           0       -1.062850   -0.016850   -0.474922
     18          8           0       -1.547620   -2.302730   -0.155848
     19          8           0        2.280480   -0.476631   -0.741083
     20          8           0        0.926548   -0.093434    1.106650
     21          8           0        0.165109   -0.156703   -1.042670
     22          8           0       -1.049760    2.320840   -0.504784
 ---------------------------------------------------------------------

 SCF Done:  E(RHF) =  -699.847342088     A.U. after    2 cycles

 The electronic state is 1-A.
 Alpha  occ. eigenvalues --  -20.66353 -20.62545 -20.56418 -20.55558 -20.55206
 Alpha  occ. eigenvalues --  -15.63170 -11.47214 -11.40245 -11.40189 -11.31977
 Alpha  occ. eigenvalues --  -11.29201 -11.28478 -11.25038  -1.63795  -1.54808
 Alpha  occ. eigenvalues --   -1.49033  -1.48349  -1.47959  -1.27958  -1.09213
 Alpha  occ. eigenvalues --   -1.04447  -0.99550  -0.93194  -0.90435  -0.85847
 Alpha  occ. eigenvalues --   -0.78782  -0.78260  -0.72421  -0.71509  -0.69807
 Alpha  occ. eigenvalues --   -0.69072  -0.67390  -0.65625  -0.64616  -0.62159
 Alpha  occ. eigenvalues --   -0.60771  -0.59555  -0.58845  -0.58419  -0.57364
 Alpha  occ. eigenvalues --   -0.54542  -0.52871  -0.51550  -0.50657  -0.49141
 Alpha  occ. eigenvalues --   -0.47634  -0.46957  -0.45381  -0.44233
 Alpha virt. eigenvalues --    0.03105   0.03536   0.04117   0.04616   0.04759
 Alpha virt. eigenvalues --    0.04922   0.06199   0.06577   0.07779   0.08534
 Alpha virt. eigenvalues --    0.09939   0.10332   0.10602   0.11681   0.12204

 Mulliken charges:
               1
     1  C   -0.545914
     2  C    0.329379
     3  C    2.263661
     4  C    0.845727
     5  C   -0.493800
     6  C   -0.251568
     7  C    0.835518
     8  H    0.270927
     9  H    0.173801
    10  H    0.267044
    11  H    0.306609
    12  H   -0.066504
    13  H    0.126968
    14  H    0.223050
    15  H    0.237134
    16  H    0.266953
    17  N    1.851751
    18  O   -1.365345
    19  O   -1.252524
    20  O   -1.036598
    21  O   -1.608586
    22  O   -1.377682
 Sum of Mulliken charges =   0.00000

 Dipole moment (field-independent basis, Debye):
    X=             -0.4884    Y=              0.2434    Z=              1.5541  Tot=              1.6471

 Test job not archived.
 1\1\GINC-SE367\SP\RHF\Aug-CC-pVDZ\C7H9N1O5\OHZDE\08-Apr-2025\0\\#t hf
 aug-cc-pvdz iop(5/13=1,5/36=2,99/5=2) pseudo=read geom=check guess=(re
 ad,tcheck) scf=(maxcycle=1)\\title\\0,1\C,0,3.94138,0.817058,0.544569\
 C,0,3.44764,-0.585715,0.113579\C,0,1.1459,-0.269424,-0.0782932\C,0,-1.
 81,-1.11072,-0.043488\C,0,-3.04208,-0.551467,0.648188\C,0,-2.92006,0.9
 96047,0.430705\C,0,-1.55995,1.2622,-0.200339\H,0,-2.96494,1.56759,1.37
 792\H,0,-3.69765,1.43845,-0.172334\H,0,-3.01337,-0.792029,1.72664\H,0,
 -3.95101,-1.05893,0.187879\H,0,4.21374,-1.04074,-0.485396\H,0,4.95596,

 Normal termination of Gaussian 16 at Tue Apr  8 19:54:20 2025.
