 Gaussian 16, Revision C.01,

 ----------------------------------------------------------------------
 #t hf aug-cc-pvdz symm=none int=(grid=ultrafine) guess=(read,tcheck) s
 table=(opt,rrhf)
 ----------------------------------------------------------------------
 -----
 title
 -----
 Symbolic Z-matrix:
 Charge =  0 Multiplicity = 1

 SCF Done:  E(RHF) =  -585.404230974     A.U. after   15 cycles
 Normal termination of Gaussian 16 at Tue Apr  8 22:16:09 2025.
 Gaussian 16:  ES64L-G16RevC.01  3-Jul-2019

 ----------------------------------------------------------------------
 #t hf aug-cc-pvdz iop(5/13=1,5/36=2,99/5=2) pseudo=read geom=check gue
 ss=(read,tcheck) scf=(maxcycle=1)
 ----------------------------------------------------------------------
 -----
 title
 -----
 Structure from the checkpoint file:  "ANI1ccx_978_conf3_mol1.chk"
 Charge =  0 Multiplicity = 1

                         Standard orientation:
 ---------------------------------------------------------------------
 Center     Atomic      Atomic             Coordinates (Angstroms)
 Number     Number       Type             X           Y           Z
 ---------------------------------------------------------------------
      1          6           0       -0.255180   -1.491960    0.160076
      2          6           0        0.165294   -0.151238   -0.434716
      3          6           0        1.545550   -0.185859   -0.993519
      4          6           0       -0.918211    0.432425   -1.403431
      5          1           0       -2.424860   -0.091810   -0.256858
      6          1           0       -0.965819   -0.264990   -2.311971
      7          1           0       -0.567364    1.394060   -1.761481
      8          1           0        1.937480    0.859927   -1.204871
      9          1           0        3.285390   -0.636486   -0.329562
     10          1           0       -0.308622   -2.231930   -0.582841
     11          1           0        0.600602   -1.750260    0.829976
     12          1           0       -1.325440   -1.033730    1.626169
     13          1           0        1.531770   -0.717778   -1.993911
     14          7           0        0.271119    0.882651    0.737614
     15          8           0       -0.251747    0.667137    1.817749
     16          8           0       -1.505410   -1.528590    0.813941
     17          8           0        2.379980   -0.872762   -0.029918
     18          8           0       -2.226760    0.614253   -0.918736
     19          8           0        0.743225    1.954240    0.423410
 ---------------------------------------------------------------------

 SCF Done:  E(RHF) =  -585.987043169     A.U. after    2 cycles

 The electronic state is 1-A.
 Alpha  occ. eigenvalues --  -20.60055 -20.59783 -20.59369 -20.57282 -20.55968
 Alpha  occ. eigenvalues --  -15.78989 -11.33848 -11.33800 -11.32391 -11.31033
 Alpha  occ. eigenvalues --   -1.68470  -1.52037  -1.48392  -1.47910  -1.45646
 Alpha  occ. eigenvalues --   -1.16723  -0.98517  -0.96281  -0.94712  -0.84566
 Alpha  occ. eigenvalues --   -0.77693  -0.76349  -0.75882  -0.73919  -0.70469
 Alpha  occ. eigenvalues --   -0.67343  -0.65405  -0.64832  -0.63214  -0.61497
 Alpha  occ. eigenvalues --   -0.59901  -0.57080  -0.55469  -0.52754  -0.50583
 Alpha  occ. eigenvalues --   -0.48724  -0.47894  -0.46433  -0.44997  -0.44571
 Alpha virt. eigenvalues --    0.02368   0.03341   0.03958   0.04930   0.05369
 Alpha virt. eigenvalues --    0.05885   0.06242   0.06567   0.07860   0.09666
 Alpha virt. eigenvalues --    0.11125   0.11677   0.13053   0.13413   0.14257

 Mulliken charges:
               1
     1  C    1.651671
     2  C   -3.351705
     3  C    1.118138
     4  C    1.404653
     5  H    0.471550
     6  H    0.324684
     7  H    0.184761
     8  H    0.349749
     9  H    0.333870
    10  H    0.060495
    11  H    0.347544
    12  H    0.390092
    13  H    0.300218
    14  N    3.356791
    15  O   -1.524399
    16  O   -1.263506
    17  O   -1.209966
    18  O   -1.322221
    19  O   -1.622420
 Sum of Mulliken charges =  -0.00000

 Dipole moment (field-independent basis, Debye):
    X=              3.2588    Y=             -2.1671    Z=             -2.9565  Tot=              4.9048

 Test job not archived.
 1\1\GINC-SE016\SP\RHF\Aug-CC-pVDZ\C4H9N1O5\OHZDE\08-Apr-2025\0\\#t hf
 aug-cc-pvdz iop(5/13=1,5/36=2,99/5=2) pseudo=read geom=check guess=(re
 ad,tcheck) scf=(maxcycle=1)\\title\\0,1\C,0,-0.25518,-1.49196,0.160077
 \C,0,0.165294,-0.151238,-0.434715\C,0,1.54555,-0.185859,-0.993518\C,0,
 -0.918211,0.432425,-1.40343\H,0,-2.42486,-0.0918103,-0.256857\H,0,-0.9
 65819,-0.26499,-2.31197\H,0,-0.567364,1.39406,-1.76148\H,0,1.93748,0.8
 59927,-1.20487\H,0,3.28539,-0.636486,-0.329561\H,0,-0.308622,-2.23193,
 -0.58284\H,0,0.600602,-1.75026,0.829977\H,0,-1.32544,-1.03373,1.62617\

 Normal termination of Gaussian 16 at Tue Apr  8 22:16:19 2025.
