 Gaussian 16, Revision C.01,

 ----------------------------------------------------------------------
 #t hf aug-cc-pvdz symm=none int=(grid=ultrafine) guess=(read,tcheck) s
 table=(opt,rrhf)
 ----------------------------------------------------------------------
 -----
 title
 -----
 Symbolic Z-matrix:
 Charge =  0 Multiplicity = 1

 SCF Done:  E(RHF) =  -903.391491161     A.U. after   14 cycles
 Normal termination of Gaussian 16 at Tue Apr  8 20:27:00 2025.
 Gaussian 16:  ES64L-G16RevC.01  3-Jul-2019

 ----------------------------------------------------------------------
 #t hf aug-cc-pvdz iop(5/13=1,5/36=2,99/5=2) pseudo=read geom=check gue
 ss=(read,tcheck) scf=(maxcycle=1)
 ----------------------------------------------------------------------
 -----
 title
 -----
 Structure from the checkpoint file:  "ANI1ccx_1597_conf3_mol1.chk"
 Charge =  0 Multiplicity = 1

                         Standard orientation:
 ---------------------------------------------------------------------
 Center     Atomic      Atomic             Coordinates (Angstroms)
 Number     Number       Type             X           Y           Z
 ---------------------------------------------------------------------
      1          6           0        1.966509   -1.359942    0.275791
      2          6           0        0.693934   -1.102301   -0.476566
      3          6           0        3.127789   -0.519701   -0.176832
      4          6           0        2.958210    0.960024    0.304258
      5          6           0       -1.173280    0.454297   -0.869950
      6          6           0       -1.681679    1.823770   -0.529975
      7          6           0       -2.347901   -0.525614   -0.868440
      8          6           0       -2.876671   -0.975259    0.523463
      9          1           0       -1.577979    3.177770    0.768451
     10          1           0       -1.845210    0.399215    1.688810
     11          1           0       -2.980971   -0.692566    2.524680
     12          1           0       -2.087461   -1.458819   -1.335640
     13          1           0       -3.211890   -0.088999   -1.403200
     14          1           0       -0.811555    0.608306   -1.940650
     15          1           0        0.153522    0.516863    0.778789
     16          1           0        4.938420    1.269337   -0.251130
     17          1           0        4.061579   -0.853923    0.307894
     18          1           0        3.342379   -0.584564   -1.254900
     19          1           0        1.761279   -1.239401    1.333770
     20          1           0        1.438418   -3.308371    0.692088
     21          1           0        2.121798   -3.111692   -0.724572
     22          1           0        4.152821    2.637677    0.408156
     23          7           0        2.216218   -2.797362    0.231063
     24          7           0        4.081711    1.700227    0.065570
     25          7           0       -0.132575   -0.091080   -0.013344
     26          7           0       -2.679680   -0.223089    1.646010
     27          8           0       -3.559551   -1.975158    0.611683
     28          8           0        0.408457   -1.723741   -1.503700
     29          8           0        2.013791    1.421148    0.952339
     30          8           0       -2.432049    2.482001   -1.229820
     31          8           0       -1.162689    2.305330    0.645985
 ---------------------------------------------------------------------

 SCF Done:  E(RHF) =  -904.292124515     A.U. after    2 cycles

 The electronic state is 1-A.
 Alpha  occ. eigenvalues --  -20.62465 -20.56019 -20.54398 -20.52784 -20.50098
 Alpha  occ. eigenvalues --  -15.55336 -15.53952 -15.52504 -15.50044 -11.42141
 Alpha  occ. eigenvalues --  -11.39935 -11.37317 -11.35505 -11.31607 -11.29579
 Alpha  occ. eigenvalues --  -11.28879 -11.25440  -1.56236  -1.48315  -1.46949
 Alpha  occ. eigenvalues --   -1.46642  -1.45525  -1.25706  -1.24912  -1.21277
 Alpha  occ. eigenvalues --   -1.20569  -1.08446  -1.06125  -0.96871  -0.93724
 Alpha  occ. eigenvalues --   -0.86408  -0.84410  -0.82029  -0.80663  -0.78285
 Alpha  occ. eigenvalues --   -0.76539  -0.74500  -0.73508  -0.72077  -0.71758
 Alpha  occ. eigenvalues --   -0.68891  -0.68217  -0.66835  -0.64783  -0.64402
 Alpha  occ. eigenvalues --   -0.63929  -0.62925  -0.61417  -0.61373  -0.60008
 Alpha  occ. eigenvalues --   -0.58109  -0.57135  -0.55541  -0.55167  -0.53906
 Alpha  occ. eigenvalues --   -0.52403  -0.49450  -0.47250  -0.47045  -0.46553
 Alpha  occ. eigenvalues --   -0.45896  -0.43901  -0.43211  -0.42578  -0.41009
 Alpha virt. eigenvalues --    0.01496   0.03261   0.03604   0.04113   0.04508
 Alpha virt. eigenvalues --    0.04689   0.05168   0.05971   0.06491   0.07066
 Alpha virt. eigenvalues --    0.07483   0.08313   0.09468   0.09661   0.10237

 Mulliken charges:
               1
     1  C   -1.754013
     2  C    0.556760
     3  C   -0.120358
     4  C    0.454588
     5  C   -1.964573
     6  C    2.847302
     7  C   -0.121663
     8  C    0.213012
     9  H    0.427785
    10  H    0.115821
    11  H    0.099498
    12  H    0.201937
    13  H    0.252374
    14  H    0.245265
    15  H    0.361044
    16  H    0.053348
    17  H    0.302996
    18  H    0.234537
    19  H   -0.001084
    20  H    0.211478
    21  H    0.243970
    22  H    0.059841
    23  N    0.846651
    24  N    0.825698
    25  N    1.788516
    26  N    0.786080
    27  O   -1.349837
    28  O   -1.446891
    29  O   -1.422566
    30  O   -1.438008
    31  O   -1.509509
 Sum of Mulliken charges =  -0.00000

 Dipole moment (field-independent basis, Debye):
    X=              7.2685    Y=              3.6500    Z=              1.7512  Tot=              8.3199

 Test job not archived.
 1\1\GINC-SE398\SP\RHF\Aug-CC-pVDZ\C8H14N4O5\OHZDE\08-Apr-2025\0\\#t hf
  aug-cc-pvdz iop(5/13=1,5/36=2,99/5=2) pseudo=read geom=check guess=(r
 ead,tcheck) scf=(maxcycle=1)\\title\\0,1\C,0,1.96651,-1.35994,0.275791
 \C,0,0.693935,-1.1023,-0.476566\C,0,3.12779,-0.519699,-0.176832\C,0,2.
 95821,0.960026,0.304258\C,0,-1.17328,0.454297,-0.86995\C,0,-1.68168,1.
 82377,-0.529975\C,0,-2.3479,-0.525615,-0.86844\C,0,-2.87667,-0.97526,0
 .523463\H,0,-1.57798,3.17777,0.768451\H,0,-1.84521,0.399214,1.68881\H,
 0,-2.98097,-0.692567,2.52468\H,0,-2.08746,-1.45882,-1.33564\H,0,-3.211

 Normal termination of Gaussian 16 at Tue Apr  8 20:27:44 2025.
