 Gaussian 16, Revision C.01,

 ----------------------------------------------------------------------
 #t hf aug-cc-pvdz symm=none int=(grid=ultrafine) guess=(read,tcheck) s
 table=(opt,rrhf)
 ----------------------------------------------------------------------
 -----
 title
 -----
 Symbolic Z-matrix:
 Charge =  0 Multiplicity = 1

 SCF Done:  E(RHF) =  -555.311282356     A.U. after   18 cycles
 Normal termination of Gaussian 16 at Tue Apr  8 22:04:14 2025.
 Gaussian 16:  ES64L-G16RevC.01  3-Jul-2019

 ----------------------------------------------------------------------
 #t hf aug-cc-pvdz iop(5/13=1,5/36=2,99/5=2) pseudo=read geom=check gue
 ss=(read,tcheck) scf=(maxcycle=1)
 ----------------------------------------------------------------------
 -----
 title
 -----
 Structure from the checkpoint file:  "ANI1ccx_886_conf6_mol1.chk"
 Charge =  0 Multiplicity = 1

                         Standard orientation:
 ---------------------------------------------------------------------
 Center     Atomic      Atomic             Coordinates (Angstroms)
 Number     Number       Type             X           Y           Z
 ---------------------------------------------------------------------
      1          6           0       -1.304720    0.701324   -0.008759
      2          6           0        0.936266    0.697622    0.039963
      3          6           0        0.937183   -0.732657    0.003379
      4          6           0       -1.299228   -0.719562    0.040702
      5          1           0       -3.182620    1.088926    0.613314
      6          1           0       -2.504222    2.310487   -0.224615
      7          1           0       -3.147658   -0.836750   -0.571395
      8          1           0       -2.500876   -2.367413   -0.075914
      9          7           0       -2.514111    1.307417   -0.098359
     10          7           0       -0.181804    1.459519    0.017752
     11          7           0        2.151680    1.164062    0.045875
     12          7           0        2.180272   -1.134288   -0.049710
     13          7           0       -0.216349   -1.424011   -0.006385
     14          7           0       -2.536928   -1.334223    0.092469
     15          8           0        2.942381   -0.018117   -0.025574
 ---------------------------------------------------------------------

 SCF Done:  E(RHF) =  -555.858243091     A.U. after    2 cycles

 The electronic state is 1-A.
 Alpha  occ. eigenvalues --  -20.65803 -15.59012 -15.58087 -15.56478 -15.56295
 Alpha  occ. eigenvalues --  -15.54979 -15.54350 -11.38430 -11.37471 -11.32028
 Alpha  occ. eigenvalues --  -11.31871  -1.59357  -1.36842  -1.29983  -1.27576
 Alpha  occ. eigenvalues --   -1.23506  -1.18345  -1.16624  -0.99693  -0.92652
 Alpha  occ. eigenvalues --   -0.89980  -0.83995  -0.81431  -0.77293  -0.75198
 Alpha  occ. eigenvalues --   -0.72624  -0.72571  -0.70081  -0.63866  -0.62711
 Alpha  occ. eigenvalues --   -0.59467  -0.58268  -0.57627  -0.53659  -0.52772
 Alpha  occ. eigenvalues --   -0.52008  -0.47899  -0.41426  -0.39236
 Alpha virt. eigenvalues --   -0.01657   0.01548   0.03177   0.04824   0.05285
 Alpha virt. eigenvalues --    0.07688   0.08312   0.09293   0.09670   0.10089
 Alpha virt. eigenvalues --    0.11652   0.12015   0.12309   0.12397   0.12842

 Mulliken charges:
               1
     1  C   -1.683036
     2  C   -1.569738
     3  C   -1.069810
     4  C   -1.852011
     5  H    0.264577
     6  H    0.059760
     7  H    0.333622
     8  H    0.115932
     9  N    0.899872
    10  N    1.155410
    11  N    1.423588
    12  N    1.502589
    13  N    1.082121
    14  N    0.848231
    15  O   -1.511108
 Sum of Mulliken charges =  -0.00000

 Dipole moment (field-independent basis, Debye):
    X=             -8.7774    Y=              0.0800    Z=             -0.2237  Tot=              8.7806

 Test job not archived.
 1\1\GINC-SE334\SP\RHF\Aug-CC-pVDZ\C4H4N6O1\OHZDE\08-Apr-2025\0\\#t hf
 aug-cc-pvdz iop(5/13=1,5/36=2,99/5=2) pseudo=read geom=check guess=(re
 ad,tcheck) scf=(maxcycle=1)\\title\\0,1\C,0,-1.30472,0.701326,-0.00875
 873\C,0,0.936266,0.697621,0.0399631\C,0,0.937181,-0.732658,0.0033791\C
 ,0,-1.29923,-0.71956,0.0407019\H,0,-3.18262,1.08893,0.613314\H,0,-2.50
 422,2.31049,-0.224615\H,0,-3.14766,-0.836746,-0.571395\H,0,-2.50088,-2
 .36741,-0.0759143\N,0,-2.51411,1.30742,-0.098359\N,0,-0.181803,1.45952
 ,0.0177522\N,0,2.15168,1.16406,0.0458751\N,0,2.18027,-1.13429,-0.04970

 Normal termination of Gaussian 16 at Tue Apr  8 22:04:22 2025.
