 Gaussian 16, Revision C.01,

 ----------------------------------------------------------------------
 #t hf aug-cc-pvdz symm=none int=(grid=ultrafine) guess=(read,tcheck) s
 table=(opt,rrhf)
 ----------------------------------------------------------------------
 -----
 title
 -----
 Symbolic Z-matrix:
 Charge =  0 Multiplicity = 1

 SCF Done:  E(RHF) =  -351.484460696     A.U. after   15 cycles
 Normal termination of Gaussian 16 at Tue Apr  8 21:22:29 2025.
 Gaussian 16:  ES64L-G16RevC.01  3-Jul-2019

 ----------------------------------------------------------------------
 #t hf aug-cc-pvdz iop(5/13=1,5/36=2,99/5=2) pseudo=read geom=check gue
 ss=(read,tcheck) scf=(maxcycle=1)
 ----------------------------------------------------------------------
 -----
 title
 -----
 Structure from the checkpoint file:  "ANI1ccx_371_conf10_mol1.chk"
 Charge =  0 Multiplicity = 1

                         Standard orientation:
 ---------------------------------------------------------------------
 Center     Atomic      Atomic             Coordinates (Angstroms)
 Number     Number       Type             X           Y           Z
 ---------------------------------------------------------------------
      1          6           0       -0.769007   -0.022377    0.045010
      2          1           0       -0.168091    2.056961    0.115298
      3          7           0        0.104391    1.048681    0.014691
      4          7           0        1.405279    0.601205   -0.033902
      5          7           0        1.372470   -0.631681   -0.018748
      6          8           0       -1.964780    0.000061   -0.045800
      7          8           0        0.040675   -1.131329    0.030845
 ---------------------------------------------------------------------

 SCF Done:  E(RHF) =  -351.823500242     A.U. after    2 cycles

 The electronic state is 1-A.
 Alpha  occ. eigenvalues --  -20.67757 -20.56030 -15.67500 -15.66987 -15.62890
 Alpha  occ. eigenvalues --  -11.45916  -1.64266  -1.51036  -1.43760  -1.27843
 Alpha  occ. eigenvalues --   -0.99462  -0.95608  -0.85556  -0.77751  -0.71896
 Alpha  occ. eigenvalues --   -0.68587  -0.65213  -0.61284  -0.59687  -0.58958
 Alpha  occ. eigenvalues --   -0.48420  -0.46306
 Alpha virt. eigenvalues --    0.02331   0.04706   0.08793   0.09550   0.09839
 Alpha virt. eigenvalues --    0.10093   0.11285   0.12835   0.14063   0.15435
 Alpha virt. eigenvalues --    0.16558   0.17397   0.17949   0.19876   0.21430

 Mulliken charges:
               1
     1  C    1.270147
     2  H    0.131644
     3  N    0.408927
     4  N   -0.695140
     5  N    1.129823
     6  O   -0.989952
     7  O   -1.255449
 Sum of Mulliken charges =   0.00000

 Dipole moment (field-independent basis, Debye):
    X=              0.8059    Y=              2.6776    Z=              0.4065  Tot=              2.8256

 Test job not archived.
 1\1\GINC-SE460\SP\RHF\Aug-CC-pVDZ\C1H1N3O2\OHZDE\08-Apr-2025\0\\#t hf
 aug-cc-pvdz iop(5/13=1,5/36=2,99/5=2) pseudo=read geom=check guess=(re
 ad,tcheck) scf=(maxcycle=1)\\title\\0,1\C,0,-0.769007,-0.0223781,0.045
 0096\H,0,-0.168089,2.05696,0.115298\N,0,0.104392,1.04868,0.0146909\N,0
 ,1.40528,0.601203,-0.0339022\N,0,1.37247,-0.631683,-0.0187479\O,0,-1.9
 6478,0.0000608,-0.0458\O,0,0.0406747,-1.13133,0.0308448\\Version=ES64L
 -G16RevC.01\State=1-A\HF=-351.8235002\RMSD=3.603e-02\Dipole=0.3170583,
 1.0534375,0.1599286\Quadrupole=-6.0216598,4.5876643,1.4339954,-0.40439

 Normal termination of Gaussian 16 at Tue Apr  8 21:22:31 2025.
