 Gaussian 16, Revision C.01,

 ----------------------------------------------------------------------
 #t hf aug-cc-pvdz symm=none int=(grid=ultrafine) guess=(read,tcheck) s
 table=(opt,rrhf)
 ----------------------------------------------------------------------
 -----
 title
 -----
 Symbolic Z-matrix:
 Charge =  0 Multiplicity = 1

 SCF Done:  E(RHF) =  -800.992709521     A.U. after   12 cycles
 Normal termination of Gaussian 16 at Tue Apr  8 19:28:47 2025.
 Gaussian 16:  ES64L-G16RevC.01  3-Jul-2019

 ----------------------------------------------------------------------
 #t hf aug-cc-pvdz iop(5/13=1,5/36=2,99/5=2) pseudo=read geom=check gue
 ss=(read,tcheck) scf=(maxcycle=1)
 ----------------------------------------------------------------------
 -----
 title
 -----
 Structure from the checkpoint file:  "ANI1ccx_102_conf1_mol1.chk"
 Charge =  0 Multiplicity = 1

                         Standard orientation:
 ---------------------------------------------------------------------
 Center     Atomic      Atomic             Coordinates (Angstroms)
 Number     Number       Type             X           Y           Z
 ---------------------------------------------------------------------
      1          6           0       -3.009220   -0.237969    0.198518
      2          6           0       -2.280290    0.945190   -0.381222
      3          6           0       -0.205717    2.145800   -0.666118
      4          6           0       -0.048358    2.836300    0.699433
      5          6           0       -0.407623   -0.133299   -1.651800
      6          6           0       -0.200360   -1.554270   -1.151580
      7          6           0        0.510737   -2.240830    1.100670
      8          6           0        0.570819   -1.190490    2.231740
      9          6           0        2.201900   -1.444711   -0.472760
     10          6           0        2.762570    0.016005   -0.374584
     11          1           0        1.210289   -3.057250    1.268380
     12          1           0       -0.455255   -2.730450    1.039850
     13          1           0        1.603460   -0.785028    2.177980
     14          1           0        0.270904   -1.632180    3.191280
     15          1           0       -0.404280   -0.112660    0.909299
     16          1           0        3.229170    1.526069   -1.545760
     17          1           0        2.342199   -1.763471   -1.468320
     18          1           0        3.797380   -0.165898   -0.038505
     19          1           0        2.187700    0.542151    0.381385
     20          1           0       -1.141311   -1.988980   -0.755560
     21          1           0        2.798669   -2.145591    0.155992
     22          1           0        0.131906   -2.185470   -1.991550
     23          1           0        0.365314    1.335830    1.768110
     24          1           0       -1.102010   -0.132275   -2.516090
     25          1           0       -3.549130   -0.970569   -1.468070
     26          1           0       -3.986400    0.003603    0.564161
     27          1           0        0.633712    0.115456   -1.992230
     28          1           0       -2.734780    1.275610   -1.289540
     29          1           0       -2.310550    1.788910    0.325932
     30          1           0       -2.419860   -0.586195    1.047610
     31          1           0       -0.711800    2.758830   -1.351560
     32          1           0       -1.069570    2.906250    1.165000
     33          1           0        0.324489    3.845170    0.605238
     34          1           0        0.796252    2.012840   -1.090790
     35          7           0       -0.806448    0.774151   -0.610583
     36          7           0        0.822693   -1.579960   -0.124296
     37          8           0       -0.360334   -0.174153    1.895390
     38          8           0       -3.092110   -1.335200   -0.706407
     39          8           0        0.869698    2.135980    1.524270
     40          8           0        2.671880    0.740326   -1.605990
 ---------------------------------------------------------------------

 SCF Done:  E(RHF) =  -801.829102185     A.U. after    2 cycles

 The electronic state is 1-A.
 Alpha  occ. eigenvalues --  -20.55241 -20.54988 -20.52446 -20.51112 -15.49461
 Alpha  occ. eigenvalues --  -15.46464 -11.27822 -11.27384 -11.27369 -11.27297
 Alpha  occ. eigenvalues --  -11.26196 -11.25328 -11.24672 -11.24546 -11.24380
 Alpha  occ. eigenvalues --  -11.23967  -1.45763  -1.44495  -1.44359  -1.41433
 Alpha  occ. eigenvalues --   -1.23759  -1.21296  -1.03405  -1.01760  -1.01409
 Alpha  occ. eigenvalues --   -0.97564  -0.93041  -0.86958  -0.86142  -0.84229
 Alpha  occ. eigenvalues --   -0.80156  -0.78588  -0.71643  -0.71313  -0.69742
 Alpha  occ. eigenvalues --   -0.69371  -0.67172  -0.66281  -0.65741  -0.64488
 Alpha  occ. eigenvalues --   -0.63890  -0.62409  -0.62055  -0.60099  -0.59741
 Alpha  occ. eigenvalues --   -0.59576  -0.58300  -0.57252  -0.55642  -0.54957
 Alpha  occ. eigenvalues --   -0.53215  -0.53064  -0.52190  -0.50873  -0.50028
 Alpha  occ. eigenvalues --   -0.49111  -0.48010  -0.47609  -0.46614  -0.44807
 Alpha  occ. eigenvalues --   -0.43781  -0.42621  -0.41322  -0.38765  -0.35788
 Alpha virt. eigenvalues --    0.03035   0.03316   0.03570   0.03798   0.04146
 Alpha virt. eigenvalues --    0.04447   0.04704   0.04930   0.05114   0.07190
 Alpha virt. eigenvalues --    0.07417   0.07698   0.07826   0.08669   0.08968

 Mulliken charges:
               1
     1  C    1.031190
     2  C   -0.390990
     3  C    0.348668
     4  C    0.509046
     5  C   -1.100636
     6  C   -1.054768
     7  C   -0.456034
     8  C    0.737907
     9  C   -1.181375
    10  C    1.253020
    11  H   -0.033425
    12  H   -0.007956
    13  H    0.336337
    14  H    0.018827
    15  H    1.155539
    16  H    0.355000
    17  H   -0.109378
    18  H    0.082782
    19  H    0.031272
    20  H    0.072188
    21  H   -0.053647
    22  H   -0.094574
    23  H    0.755130
    24  H   -0.150480
    25  H    0.350776
    26  H   -0.031695
    27  H    0.240815
    28  H   -0.125885
    29  H    0.164580
    30  H    0.006970
    31  H    0.029782
    32  H    0.279436
    33  H   -0.048653
    34  H    0.090853
    35  N    0.873337
    36  N    2.082530
    37  O   -1.860712
    38  O   -1.284678
    39  O   -1.413930
    40  O   -1.407166
 Sum of Mulliken charges =  -0.00000

 Dipole moment (field-independent basis, Debye):
    X=             -0.8593    Y=              0.1551    Z=             -1.8257  Tot=              2.0237

 Test job not archived.
 1\1\GINC-SE338\SP\RHF\Aug-CC-pVDZ\C10H24N2O4\OHZDE\08-Apr-2025\0\\#t h
 f aug-cc-pvdz iop(5/13=1,5/36=2,99/5=2) pseudo=read geom=check guess=(
 read,tcheck) scf=(maxcycle=1)\\title\\0,1\C,0,-3.00922,-0.237969,0.198
 518\C,0,-2.28029,0.94519,-0.381222\C,0,-0.205717,2.1458,-0.666118\C,0,
 -0.048358,2.8363,0.699433\C,0,-0.407623,-0.133299,-1.6518\C,0,-0.20036
 ,-1.55427,-1.15158\C,0,0.510738,-2.24083,1.10067\C,0,0.570819,-1.19049
 ,2.23174\C,0,2.2019,-1.44471,-0.47276\C,0,2.76257,0.0160053,-0.374584\
 H,0,1.21029,-3.05725,1.26838\H,0,-0.455254,-2.73045,1.03985\H,0,1.6034

 Normal termination of Gaussian 16 at Tue Apr  8 19:29:49 2025.
