 Gaussian 16, Revision C.01,

 ----------------------------------------------------------------------
 #t hf aug-cc-pvdz symm=none int=(grid=ultrafine) guess=(read,tcheck) s
 table=(opt,rrhf)
 ----------------------------------------------------------------------
 -----
 title
 -----
 Symbolic Z-matrix:
 Charge =  0 Multiplicity = 1

 SCF Done:  E(RHF) =  -460.252898358     A.U. after   17 cycles
 Normal termination of Gaussian 16 at Tue Apr  8 21:28:41 2025.
 Gaussian 16:  ES64L-G16RevC.01  3-Jul-2019

 ----------------------------------------------------------------------
 #t hf aug-cc-pvdz iop(5/13=1,5/36=2,99/5=2) pseudo=read geom=check gue
 ss=(read,tcheck) scf=(maxcycle=1)
 ----------------------------------------------------------------------
 -----
 title
 -----
 Structure from the checkpoint file:  "ANI1ccx_373_conf6_mol1.chk"
 Charge =  0 Multiplicity = 1

                         Standard orientation:
 ---------------------------------------------------------------------
 Center     Atomic      Atomic             Coordinates (Angstroms)
 Number     Number       Type             X           Y           Z
 ---------------------------------------------------------------------
      1          6           0        0.088714   -0.060621    0.018387
      2          1           0        2.779789   -1.053720   -0.127466
      3          7           0       -1.364521   -0.039959   -0.025108
      4          7           0        0.649533    1.111850   -0.105965
      5          7           0        1.891200    0.818873   -0.100250
      6          7           0        1.979349   -0.519859    0.098596
      7          7           0        0.828212   -1.143910    0.121756
      8          8           0       -1.939410    1.085660    0.154056
      9          8           0       -1.960401   -1.107100   -0.142313
 ---------------------------------------------------------------------

 SCF Done:  E(RHF) =  -460.702235525     A.U. after    2 cycles

 The electronic state is 1-A.
 Alpha  occ. eigenvalues --  -20.62381 -20.60523 -15.81451 -15.69146 -15.66144
 Alpha  occ. eigenvalues --  -15.64084 -15.61053 -11.39661  -1.66898  -1.56850
 Alpha  occ. eigenvalues --   -1.50045  -1.37505  -1.26887  -1.11274  -1.03753
 Alpha  occ. eigenvalues --   -0.95111  -0.87786  -0.81325  -0.79674  -0.75446
 Alpha  occ. eigenvalues --   -0.74192  -0.70039  -0.62875  -0.59065  -0.57380
 Alpha  occ. eigenvalues --   -0.52339  -0.50824  -0.49502  -0.45724
 Alpha virt. eigenvalues --   -0.01175   0.01789   0.02697   0.07100   0.09634
 Alpha virt. eigenvalues --    0.10430   0.11085   0.11308   0.12282   0.13432
 Alpha virt. eigenvalues --    0.13644   0.15222   0.15783   0.16749   0.17496

 Mulliken charges:
               1
     1  C   -0.680680
     2  H    0.104593
     3  N    2.464385
     4  N    0.339531
     5  N   -0.250420
     6  N    0.069150
     7  N    0.535492
     8  O   -1.248584
     9  O   -1.333466
 Sum of Mulliken charges =  -0.00000

 Dipole moment (field-independent basis, Debye):
    X=              4.5037    Y=             -2.1336    Z=             -0.2510  Tot=              4.9899

 Test job not archived.
 1\1\GINC-SE041\SP\RHF\Aug-CC-pVDZ\C1H1N5O2\OHZDE\08-Apr-2025\0\\#t hf
 aug-cc-pvdz iop(5/13=1,5/36=2,99/5=2) pseudo=read geom=check guess=(re
 ad,tcheck) scf=(maxcycle=1)\\title\\0,1\C,0,0.0887147,-0.0606214,0.018
 3866\H,0,2.77979,-1.05372,-0.127466\N,0,-1.36452,-0.0399594,-0.025108\
 N,0,0.649533,1.11185,-0.105965\N,0,1.8912,0.818873,-0.10025\N,0,1.9793
 5,-0.519859,0.0985961\N,0,0.828213,-1.14391,0.121756\O,0,-1.93941,1.08
 566,0.154056\O,0,-1.9604,-1.1071,-0.142313\\Version=ES64L-G16RevC.01\S
 tate=1-A\HF=-460.7022355\RMSD=4.513e-02\Dipole=1.7719092,-0.8394117,-0

 Normal termination of Gaussian 16 at Tue Apr  8 21:28:44 2025.
