 Gaussian 16, Revision C.01,

 ----------------------------------------------------------------------
 #t hf aug-cc-pvdz symm=none int=(grid=ultrafine) guess=(read,tcheck) s
 table=(opt,rrhf)
 ----------------------------------------------------------------------
 -----
 title
 -----
 Symbolic Z-matrix:
 Charge =  0 Multiplicity = 1

 SCF Done:  E(RHF) =  -485.201813363     A.U. after   15 cycles
 Normal termination of Gaussian 16 at Tue Apr  8 21:42:54 2025.
 Gaussian 16:  ES64L-G16RevC.01  3-Jul-2019

 ----------------------------------------------------------------------
 #t hf aug-cc-pvdz iop(5/13=1,5/36=2,99/5=2) pseudo=read geom=check gue
 ss=(read,tcheck) scf=(maxcycle=1)
 ----------------------------------------------------------------------
 -----
 title
 -----
 Structure from the checkpoint file:  "ANI1ccx_484_conf6_mol1.chk"
 Charge =  0 Multiplicity = 1

                         Standard orientation:
 ---------------------------------------------------------------------
 Center     Atomic      Atomic             Coordinates (Angstroms)
 Number     Number       Type             X           Y           Z
 ---------------------------------------------------------------------
      1          6           0        1.372780   -0.125515    0.120827
      2          6           0       -0.671782    0.722547   -0.162846
      3          1           0       -2.279500   -0.502032    1.035790
      4          1           0       -2.640661   -1.403818   -0.324419
      5          7           0       -1.841820   -1.140349    0.355427
      6          7           0       -0.728591   -0.611751   -0.328480
      7          8           0        0.537293   -1.122449   -0.300102
      8          8           0        2.597450   -0.086039    0.273614
      9          8           0        0.766449    1.048711   -0.124345
     10          8           0       -1.562810    1.483321    0.069848
 ---------------------------------------------------------------------

 SCF Done:  E(RHF) =  -485.667869097     A.U. after    2 cycles

 The electronic state is 1-A.
 Alpha  occ. eigenvalues --  -20.70319 -20.66786 -20.59826 -20.57958 -15.68012
 Alpha  occ. eigenvalues --  -15.59960 -11.49811 -11.48144  -1.69903  -1.57476
 Alpha  occ. eigenvalues --   -1.54610  -1.48147  -1.34473  -1.14847  -0.97557
 Alpha  occ. eigenvalues --   -0.90863  -0.83762  -0.81709  -0.76755  -0.73206
 Alpha  occ. eigenvalues --   -0.70302  -0.68920  -0.65003  -0.62365  -0.61841
 Alpha  occ. eigenvalues --   -0.55146  -0.54109  -0.50240  -0.49797  -0.46969
 Alpha virt. eigenvalues --    0.02000   0.05247   0.07500   0.08024   0.08480
 Alpha virt. eigenvalues --    0.09585   0.10101   0.10326   0.11255   0.11452
 Alpha virt. eigenvalues --    0.12630   0.14572   0.16239   0.17180   0.17821

 Mulliken charges:
               1
     1  C    2.004334
     2  C    1.305590
     3  H    0.152465
     4  H    0.237073
     5  N    0.063096
     6  N    0.824588
     7  O   -1.338382
     8  O   -1.071045
     9  O   -1.142441
    10  O   -1.035278
 Sum of Mulliken charges =  -0.00000

 Dipole moment (field-independent basis, Debye):
    X=             -3.9656    Y=             -1.3407    Z=             -0.1933  Tot=              4.1905

 Test job not archived.
 1\1\GINC-SE150\SP\RHF\Aug-CC-pVDZ\C2H2N2O4\OHZDE\08-Apr-2025\0\\#t hf
 aug-cc-pvdz iop(5/13=1,5/36=2,99/5=2) pseudo=read geom=check guess=(re
 ad,tcheck) scf=(maxcycle=1)\\title\\0,1\C,0,1.37278,-0.125515,0.120827
 \C,0,-0.671782,0.722546,-0.162846\H,0,-2.2795,-0.502033,1.03579\H,0,-2
 .64066,-1.40382,-0.324419\N,0,-1.84182,-1.14035,0.355427\N,0,-0.728591
 ,-0.611752,-0.32848\O,0,0.537293,-1.12245,-0.300102\O,0,2.59745,-0.086
 0386,0.273614\O,0,0.766449,1.04871,-0.124345\O,0,-1.56281,1.48332,0.06
 98477\\Version=ES64L-G16RevC.01\State=1-A\HF=-485.6678691\RMSD=1.540e-

 Normal termination of Gaussian 16 at Tue Apr  8 21:42:59 2025.
