 Gaussian 16, Revision C.01,

 ----------------------------------------------------------------------
 #t hf aug-cc-pvdz symm=none int=(grid=ultrafine) guess=(read,tcheck) s
 table=(opt,rrhf)
 ----------------------------------------------------------------------
 -----
 title
 -----
 Symbolic Z-matrix:
 Charge =  0 Multiplicity = 1

 SCF Done:  E(RHF) =  -390.618759640     A.U. after   13 cycles
 Normal termination of Gaussian 16 at Tue Apr  8 21:43:50 2025.
 Gaussian 16:  ES64L-G16RevC.01  3-Jul-2019

 ----------------------------------------------------------------------
 #t hf aug-cc-pvdz iop(5/13=1,5/36=2,99/5=2) pseudo=read geom=check gue
 ss=(read,tcheck) scf=(maxcycle=1)
 ----------------------------------------------------------------------
 -----
 title
 -----
 Structure from the checkpoint file:  "ANI1ccx_502_conf4_mol1.chk"
 Charge =  0 Multiplicity = 1

                         Standard orientation:
 ---------------------------------------------------------------------
 Center     Atomic      Atomic             Coordinates (Angstroms)
 Number     Number       Type             X           Y           Z
 ---------------------------------------------------------------------
      1          6           0        1.184260   -0.143437    0.024947
      2          6           0       -1.147570   -0.177682   -0.000227
      3          1           0        1.034770    1.839360    0.569728
      4          1           0       -1.198930    1.670450   -0.454415
      5          1           0        0.120351   -1.963650    0.138657
      6          7           0        0.678443    1.175040   -0.138393
      7          7           0       -0.724288    1.103000    0.148671
      8          7           0       -0.000180   -0.907070    0.120109
      9          8           0        2.284390   -0.569799   -0.079625
     10          8           0       -2.266160   -0.582230   -0.084750
 ---------------------------------------------------------------------

 SCF Done:  E(RHF) =  -391.007201641     A.U. after    2 cycles

 The electronic state is 1-A.
 Alpha  occ. eigenvalues --  -20.56066 -20.54048 -15.59769 -15.58023 -15.57547
 Alpha  occ. eigenvalues --  -11.43092 -11.41470  -1.53112  -1.51043  -1.40544
 Alpha  occ. eigenvalues --   -1.25861  -1.17470  -0.93929  -0.91862  -0.80032
 Alpha  occ. eigenvalues --   -0.78898  -0.72227  -0.70230  -0.68896  -0.66466
 Alpha  occ. eigenvalues --   -0.61008  -0.59544  -0.50801  -0.47348  -0.46602
 Alpha  occ. eigenvalues --   -0.45948
 Alpha virt. eigenvalues --    0.02397   0.04807   0.05197   0.08928   0.09205
 Alpha virt. eigenvalues --    0.09403   0.09849   0.10157   0.11062   0.13629
 Alpha virt. eigenvalues --    0.14271   0.14927   0.14987   0.16951   0.17064

 Mulliken charges:
               1
     1  C    0.515978
     2  C    0.388542
     3  H    0.290237
     4  H    0.224907
     5  H    0.175538
     6  N    0.045560
     7  N    0.108444
     8  N    0.397737
     9  O   -1.039851
    10  O   -1.107093
 Sum of Mulliken charges =  -0.00000

 Dipole moment (field-independent basis, Debye):
    X=              0.5098    Y=              1.5650    Z=              0.5294  Tot=              1.7290

 Test job not archived.
 1\1\GINC-SE221\SP\RHF\Aug-CC-pVDZ\C2H3N3O2\OHZDE\08-Apr-2025\0\\#t hf
 aug-cc-pvdz iop(5/13=1,5/36=2,99/5=2) pseudo=read geom=check guess=(re
 ad,tcheck) scf=(maxcycle=1)\\title\\0,1\C,0,1.18426,-0.143437,0.024946
 6\C,0,-1.14757,-0.177682,-0.00022732\H,0,1.03477,1.83936,0.569728\H,0,
 -1.19893,1.67045,-0.454415\H,0,0.12035,-1.96365,0.138657\N,0,0.678443,
 1.17504,-0.138393\N,0,-0.724288,1.103,0.148671\N,0,-0.00018002,-0.9070
 7,0.120109\O,0,2.28439,-0.5698,-0.0796245\O,0,-2.26616,-0.582229,-0.08
 47495\\Version=ES64L-G16RevC.01\State=1-A\HF=-391.0072016\RMSD=1.726e-

 Normal termination of Gaussian 16 at Tue Apr  8 21:43:54 2025.
