 Gaussian 16, Revision C.01,

 ----------------------------------------------------------------------
 #t hf aug-cc-pvdz symm=none int=(grid=ultrafine) guess=(read,tcheck) s
 table=(opt,rrhf)
 ----------------------------------------------------------------------
 -----
 title
 -----
 Symbolic Z-matrix:
 Charge =  0 Multiplicity = 1

 SCF Done:  E(RHF) =  -830.270991327     A.U. after   14 cycles
 Normal termination of Gaussian 16 at Tue Apr  8 19:41:35 2025.
 Gaussian 16:  ES64L-G16RevC.01  3-Jul-2019

 ----------------------------------------------------------------------
 #t hf aug-cc-pvdz iop(5/13=1,5/36=2,99/5=2) pseudo=read geom=check gue
 ss=(read,tcheck) scf=(maxcycle=1)
 ----------------------------------------------------------------------
 -----
 title
 -----
 Structure from the checkpoint file:  "ANI1ccx_1406_conf13_mol1.chk"
 Charge =  0 Multiplicity = 1

                         Standard orientation:
 ---------------------------------------------------------------------
 Center     Atomic      Atomic             Coordinates (Angstroms)
 Number     Number       Type             X           Y           Z
 ---------------------------------------------------------------------
      1          6           0        2.420890    0.678886   -0.098748
      2          6           0        1.510001    0.072865    0.896435
      3          6           0        2.861611   -0.490238   -1.014300
      4          6           0       -1.017879   -0.527527    0.900682
      5          6           0       -1.518998   -1.694880    0.061804
      6          6           0       -1.943340    0.708641    0.906609
      7          6           0       -2.087850    1.489499   -0.435150
      8          1           0       -3.001707   -2.893002    0.223441
      9          1           0       -3.135551    2.879928   -1.244450
     10          1           0       -1.514260    1.408020    1.672290
     11          1           0       -2.936430    0.508575    1.299770
     12          1           0       -0.967298   -0.927645    1.933680
     13          1           0        0.315466   -0.159026   -0.712309
     14          1           0        3.691881   -0.140964   -1.622720
     15          1           0        3.194082   -1.415617   -0.427686
     16          1           0        1.896740    1.449922   -0.684339
     17          1           0        4.120490    0.618410    1.124840
     18          1           0        3.320409    1.986603    1.315510
     19          1           0        1.548612   -1.812758   -1.752890
     20          7           0        3.546610    1.289433    0.581929
     21          7           0        0.307006   -0.154145    0.324526
     22          8           0       -3.025921    2.473578   -0.373494
     23          8           0        1.695121   -0.152005    2.067240
     24          8           0        1.846931   -0.890348   -1.969000
     25          8           0       -1.065138   -1.938550   -1.003670
     26          8           0       -1.239840    1.376560   -1.303910
     27          8           0       -2.567948   -2.228351    0.736046
 ---------------------------------------------------------------------

 SCF Done:  E(RHF) =  -831.095190181     A.U. after    2 cycles

 The electronic state is 1-A.
 Alpha  occ. eigenvalues --  -20.62665 -20.62231 -20.56600 -20.55517 -20.55488
 Alpha  occ. eigenvalues --  -20.49880 -15.50310 -15.48640 -11.42022 -11.41457
 Alpha  occ. eigenvalues --  -11.33611 -11.31547 -11.30181 -11.28657 -11.27290
 Alpha  occ. eigenvalues --   -1.57370  -1.55630  -1.49885  -1.46700  -1.45734
 Alpha  occ. eigenvalues --   -1.43771  -1.23196  -1.18322  -1.09003  -1.00617
 Alpha  occ. eigenvalues --   -0.97541  -0.89088  -0.86097  -0.82607  -0.79362
 Alpha  occ. eigenvalues --   -0.74705  -0.74122  -0.72496  -0.71208  -0.70117
 Alpha  occ. eigenvalues --   -0.69250  -0.67480  -0.66600  -0.65899  -0.65133
 Alpha  occ. eigenvalues --   -0.62433  -0.61842  -0.60322  -0.59362  -0.58396
 Alpha  occ. eigenvalues --   -0.57437  -0.56475  -0.56237  -0.53160  -0.51119
 Alpha  occ. eigenvalues --   -0.49723  -0.48999  -0.46862  -0.45796  -0.44941
 Alpha  occ. eigenvalues --   -0.44301  -0.40737  -0.40514
 Alpha virt. eigenvalues --    0.02626   0.03201   0.04117   0.04523   0.04896
 Alpha virt. eigenvalues --    0.05384   0.05765   0.06107   0.07516   0.07607
 Alpha virt. eigenvalues --    0.08475   0.09472   0.10254   0.11669   0.11952

 Mulliken charges:
               1
     1  C   -2.419160
     2  C    1.333231
     3  C    1.066325
     4  C   -1.685396
     5  C    2.609040
     6  C   -0.517220
     7  C    2.256909
     8  H    0.362127
     9  H    0.392560
    10  H    0.346682
    11  H    0.065952
    12  H    0.128797
    13  H    0.600267
    14  H    0.045055
    15  H    0.275214
    16  H    0.110832
    17  H    0.219423
    18  H    0.127268
    19  H    0.398550
    20  N    0.868249
    21  N    1.137836
    22  O   -1.299798
    23  O   -1.439673
    24  O   -1.251265
    25  O   -1.236618
    26  O   -1.201133
    27  O   -1.294056
 Sum of Mulliken charges =  -0.00000

 Dipole moment (field-independent basis, Debye):
    X=             -4.2280    Y=             -0.8759    Z=              0.4798  Tot=              4.3443

 Test job not archived.
 1\1\GINC-SE340\SP\RHF\Aug-CC-pVDZ\C7H12N2O6\OHZDE\08-Apr-2025\0\\#t hf
  aug-cc-pvdz iop(5/13=1,5/36=2,99/5=2) pseudo=read geom=check guess=(r
 ead,tcheck) scf=(maxcycle=1)\\title\\0,1\C,0,2.42089,0.678884,-0.09874
 83\C,0,1.51,0.0728638,0.896435\C,0,2.86161,-0.490241,-1.0143\C,0,-1.01
 788,-0.527527,0.900682\C,0,-1.519,-1.69488,0.0618044\C,0,-1.94334,0.70
 8642,0.906609\C,0,-2.08785,1.4895,-0.43515\H,0,-3.00171,-2.893,0.22344
 1\H,0,-3.13555,2.87993,-1.24445\H,0,-1.51426,1.40802,1.67229\H,0,-2.93
 643,0.508576,1.29977\H,0,-0.967299,-0.927645,1.93368\H,0,0.315465,-0.1

 Normal termination of Gaussian 16 at Tue Apr  8 19:42:00 2025.
