 Gaussian 16, Revision C.01,

 ----------------------------------------------------------------------
 #t hf aug-cc-pvdz symm=none int=(grid=ultrafine) guess=(read,tcheck) s
 table=(opt,rrhf)
 ----------------------------------------------------------------------
 -----
 title
 -----
 Symbolic Z-matrix:
 Charge =  0 Multiplicity = 1

 SCF Done:  E(RHF) =  -595.577673787     A.U. after   16 cycles
 Normal termination of Gaussian 16 at Tue Apr  8 19:20:29 2025.
 Gaussian 16:  ES64L-G16RevC.01  3-Jul-2019

 ----------------------------------------------------------------------
 #t hf aug-cc-pvdz iop(5/13=1,5/36=2,99/5=2) pseudo=read geom=check gue
 ss=(read,tcheck) scf=(maxcycle=1)
 ----------------------------------------------------------------------
 -----
 title
 -----
 Structure from the checkpoint file:  "ANI1ccx_1158_conf7_mol1.chk"
 Charge =  0 Multiplicity = 1

                         Standard orientation:
 ---------------------------------------------------------------------
 Center     Atomic      Atomic             Coordinates (Angstroms)
 Number     Number       Type             X           Y           Z
 ---------------------------------------------------------------------
      1          6           0       -4.187421   -0.307562    0.039280
      2          6           0       -0.054829    0.218063    0.048889
      3          6           0        0.505666    2.325069   -0.093468
      4          6           0        1.342160    0.349164    0.116859
      5          6           0        2.258199   -0.806459   -0.021693
      6          1           0        3.922290    0.372552    0.227068
      7          1           0        4.369589   -1.238012    0.101320
      8          1           0        0.392561    3.378909   -0.296569
      9          1           0       -1.604250    1.670040   -0.177856
     10          1           0       -4.444051   -1.351169   -0.053706
     11          1           0       -4.592211    0.201889    0.941567
     12          1           0       -4.622720    0.273061   -0.752620
     13          1           0       -0.227664   -1.744830   -0.175640
     14          7           0        3.611349   -0.563667    0.094509
     15          7           0       -2.743571   -0.063777    0.097632
     16          7           0       -2.089141   -1.131600   -0.050991
     17          7           0       -0.779914   -0.922551    0.024705
     18          7           0       -0.585023    1.448920   -0.079387
     19          7           0        1.639450    1.724229    0.040311
     20          8           0        1.781469   -1.959121   -0.155028
 ---------------------------------------------------------------------

 SCF Done:  E(RHF) =  -596.175983442     A.U. after    2 cycles

 The electronic state is 1-A.
 Alpha  occ. eigenvalues --  -20.50353 -15.63181 -15.57110 -15.56709 -15.55869
 Alpha  occ. eigenvalues --  -15.52193 -15.50901 -11.37195 -11.34047 -11.31044
 Alpha  occ. eigenvalues --  -11.27220 -11.25710  -1.43977  -1.42964  -1.35227
 Alpha  occ. eigenvalues --   -1.25696  -1.21147  -1.18814  -1.08137  -1.00716
 Alpha  occ. eigenvalues --   -0.93730  -0.89228  -0.87224  -0.83002  -0.78114
 Alpha  occ. eigenvalues --   -0.76020  -0.73734  -0.72711  -0.69825  -0.66385
 Alpha  occ. eigenvalues --   -0.66114  -0.64406  -0.63904  -0.59399  -0.59056
 Alpha  occ. eigenvalues --   -0.58255  -0.57635  -0.50119  -0.48305  -0.47141
 Alpha  occ. eigenvalues --   -0.45069  -0.43079  -0.42869  -0.31827
 Alpha virt. eigenvalues --    0.02830   0.03967   0.04336   0.04745   0.04857
 Alpha virt. eigenvalues --    0.05377   0.06139   0.06859   0.07670   0.08537
 Alpha virt. eigenvalues --    0.09169   0.10475   0.10971   0.12075   0.12776

 Mulliken charges:
               1
     1  C   -0.200818
     2  C   -1.973655
     3  C   -0.410653
     4  C   -0.211314
     5  C    0.714582
     6  H    0.051885
     7  H    0.047420
     8  H   -0.119857
     9  H    0.074451
    10  H    0.088766
    11  H    0.215370
    12  H    0.117632
    13  H    0.362192
    14  N    0.757430
    15  N    0.209981
    16  N    0.043973
    17  N   -0.062829
    18  N    1.004979
    19  N    0.827914
    20  O   -1.537449
 Sum of Mulliken charges =   0.00000

 Dipole moment (field-independent basis, Debye):
    X=             -2.7489    Y=              2.7789    Z=             -0.3791  Tot=              3.9272

 Test job not archived.
 1\1\GINC-SE083\SP\RHF\Aug-CC-pVDZ\C5H8N6O1\OHZDE\08-Apr-2025\0\\#t hf
 aug-cc-pvdz iop(5/13=1,5/36=2,99/5=2) pseudo=read geom=check guess=(re
 ad,tcheck) scf=(maxcycle=1)\\title\\0,1\C,0,-4.18742,-0.307563,0.03928
 04\C,0,-0.0548285,0.218064,0.0488887\C,0,0.505666,2.32507,-0.0934681\C
 ,0,1.34216,0.349165,0.116859\C,0,2.2582,-0.806458,-0.0216934\H,0,3.922
 29,0.372554,0.227068\H,0,4.36959,-1.23801,0.10132\H,0,0.392561,3.37891
 ,-0.296569\H,0,-1.60425,1.67004,-0.177856\H,0,-4.44405,-1.35117,-0.053
 706\H,0,-4.59221,0.201888,0.941567\H,0,-4.62272,0.27306,-0.75262\H,0,-

 Normal termination of Gaussian 16 at Tue Apr  8 19:20:42 2025.
