 Gaussian 16, Revision C.01,

 ----------------------------------------------------------------------
 #t hf aug-cc-pvdz symm=none int=(grid=ultrafine) guess=(read,tcheck) s
 table=(opt,rrhf)
 ----------------------------------------------------------------------
 -----
 title
 -----
 Symbolic Z-matrix:
 Charge =  0 Multiplicity = 1

 SCF Done:  E(RHF) =  -461.461248475     A.U. after   16 cycles
 Normal termination of Gaussian 16 at Tue Apr  8 21:35:51 2025.
 Gaussian 16:  ES64L-G16RevC.01  3-Jul-2019

 ----------------------------------------------------------------------
 #t hf aug-cc-pvdz iop(5/13=1,5/36=2,99/5=2) pseudo=read geom=check gue
 ss=(read,tcheck) scf=(maxcycle=1)
 ----------------------------------------------------------------------
 -----
 title
 -----
 Structure from the checkpoint file:  "ANI1ccx_394_conf3_mol1.chk"
 Charge =  0 Multiplicity = 1

                         Standard orientation:
 ---------------------------------------------------------------------
 Center     Atomic      Atomic             Coordinates (Angstroms)
 Number     Number       Type             X           Y           Z
 ---------------------------------------------------------------------
      1          6           0        0.051393    0.667359    0.032061
      2          1           0        2.663490    0.624851    0.634685
      3          1           0        2.361700    0.620569   -0.895267
      4          1           0       -2.631230    0.181316    0.966126
      5          7           0        2.333210    0.027638   -0.080925
      6          7           0        0.993847   -0.268513    0.226482
      7          7           0        0.468378   -1.515711    0.119097
      8          7           0       -0.711561   -1.547431   -0.128476
      9          7           0       -1.067841   -0.089550   -0.285368
     10          8           0       -2.298740    0.423630    0.024551
     11          8           0        0.196921    1.866879   -0.006249
 ---------------------------------------------------------------------

 SCF Done:  E(RHF) =  -461.920675313     A.U. after    2 cycles

 The electronic state is 1-A.
 Alpha  occ. eigenvalues --  -20.64160 -20.54235 -15.65010 -15.64506 -15.63834
 Alpha  occ. eigenvalues --  -15.63215 -15.57675 -11.41155  -1.56608  -1.51560
 Alpha  occ. eigenvalues --   -1.48898  -1.35309  -1.21794  -1.17421  -0.98607
 Alpha  occ. eigenvalues --   -0.92121  -0.84634  -0.80856  -0.78374  -0.73260
 Alpha  occ. eigenvalues --   -0.69735  -0.65823  -0.65580  -0.61850  -0.58591
 Alpha  occ. eigenvalues --   -0.55826  -0.53254  -0.51327  -0.46236  -0.44279
 Alpha virt. eigenvalues --    0.02117   0.04160   0.05696   0.06139   0.08724
 Alpha virt. eigenvalues --    0.10010   0.10238   0.11572   0.12623   0.12920
 Alpha virt. eigenvalues --    0.14562   0.14792   0.15206   0.15935   0.17452

 Mulliken charges:
               1
     1  C    0.817380
     2  H    0.181932
     3  H    0.182902
     4  H    0.359020
     5  N    0.345623
     6  N   -0.295342
     7  N   -0.619754
     8  N    0.312709
     9  N    1.094136
    10  O   -1.307609
    11  O   -1.070995
 Sum of Mulliken charges =  -0.00000

 Dipole moment (field-independent basis, Debye):
    X=              0.5114    Y=              0.1789    Z=              1.7506  Tot=              1.8325

 Test job not archived.
 1\1\GINC-SE340\SP\RHF\Aug-CC-pVDZ\C1H3N5O2\OHZDE\08-Apr-2025\0\\#t hf
 aug-cc-pvdz iop(5/13=1,5/36=2,99/5=2) pseudo=read geom=check guess=(re
 ad,tcheck) scf=(maxcycle=1)\\title\\0,1\C,0,0.0513936,0.66736,0.032060
 7\H,0,2.66349,0.624853,0.634685\H,0,2.3617,0.620571,-0.895267\H,0,-2.6
 3123,0.181316,0.966126\N,0,2.33321,0.0276399,-0.0809246\N,0,0.993848,-
 0.268512,0.226482\N,0,0.468379,-1.51571,0.119097\N,0,-0.71156,-1.54743
 ,-0.128476\N,0,-1.06784,-0.08955,-0.285368\O,0,-2.29874,0.42363,0.0245
 514\O,0,0.196921,1.86688,-0.00624915\\Version=ES64L-G16RevC.01\State=1

 Normal termination of Gaussian 16 at Tue Apr  8 21:35:55 2025.
