 Gaussian 16, Revision C.01,

 ----------------------------------------------------------------------
 #t hf aug-cc-pvdz symm=none int=(grid=ultrafine) guess=(read,tcheck) s
 table=(opt,rrhf)
 ----------------------------------------------------------------------
 -----
 title
 -----
 Symbolic Z-matrix:
 Charge =  0 Multiplicity = 1

 SCF Done:  E(RHF) =  -535.533157548     A.U. after   16 cycles
 Normal termination of Gaussian 16 at Tue Apr  8 22:08:37 2025.
 Gaussian 16:  ES64L-G16RevC.01  3-Jul-2019

 ----------------------------------------------------------------------
 #t hf aug-cc-pvdz iop(5/13=1,5/36=2,99/5=2) pseudo=read geom=check gue
 ss=(read,tcheck) scf=(maxcycle=1)
 ----------------------------------------------------------------------
 -----
 title
 -----
 Structure from the checkpoint file:  "ANI1ccx_911_conf2_mol1.chk"
 Charge =  0 Multiplicity = 1

                         Standard orientation:
 ---------------------------------------------------------------------
 Center     Atomic      Atomic             Coordinates (Angstroms)
 Number     Number       Type             X           Y           Z
 ---------------------------------------------------------------------
      1          6           0        1.650449   -0.518221   -0.042997
      2          6           0        0.343265    1.318940    0.008677
      3          6           0       -0.848816    0.430846    0.018488
      4          6           0       -2.213992    0.482984    0.008277
      5          1           0        3.025270   -1.944829   -0.117919
      6          1           0        3.622839   -0.310923   -0.078504
      7          1           0        0.783207    3.313370    0.193542
      8          1           0       -0.851384    2.945249    0.100806
      9          1           0       -2.918562    1.272238   -0.079314
     10          7           0        2.912859   -0.982845    0.066103
     11          7           0        1.581658    0.868740   -0.055609
     12          7           0        0.081542    2.622260   -0.025869
     13          7           0       -2.641431   -0.799699    0.010493
     14          7           0       -1.667991   -1.644321   -0.024865
     15          7           0       -0.558419   -0.869666    0.002150
     16          7           0        0.685094   -1.417670    0.031412
 ---------------------------------------------------------------------

 SCF Done:  E(RHF) =  -536.071662636     A.U. after    2 cycles

 The electronic state is 1-A.
 Alpha  occ. eigenvalues --  -15.63739 -15.57786 -15.56876 -15.53505 -15.52710
 Alpha  occ. eigenvalues --  -15.52457 -15.52345 -11.39264 -11.37027 -11.30298
 Alpha  occ. eigenvalues --  -11.27438  -1.46296  -1.35462  -1.30767  -1.26739
 Alpha  occ. eigenvalues --   -1.20773  -1.14405  -1.12010  -0.96075  -0.93933
 Alpha  occ. eigenvalues --   -0.90129  -0.86227  -0.81602  -0.77274  -0.74203
 Alpha  occ. eigenvalues --   -0.72886  -0.71555  -0.69817  -0.67873  -0.63703
 Alpha  occ. eigenvalues --   -0.59790  -0.58155  -0.56866  -0.51371  -0.49752
 Alpha  occ. eigenvalues --   -0.48765  -0.46216  -0.41347  -0.36544
 Alpha virt. eigenvalues --    0.01770   0.03458   0.03914   0.05013   0.05756
 Alpha virt. eigenvalues --    0.06674   0.07951   0.08699   0.10293   0.10342
 Alpha virt. eigenvalues --    0.10706   0.11116   0.11981   0.12643   0.13430

 Mulliken charges:
               1
     1  C   -1.067249
     2  C   -1.682588
     3  C   -0.540723
     4  C    0.461495
     5  H    0.086699
     6  H    0.181454
     7  H    0.079146
     8  H    0.204167
     9  H   -0.247773
    10  N    0.634306
    11  N    0.816420
    12  N    0.903771
    13  N    0.096077
    14  N   -0.078815
    15  N   -0.661190
    16  N    0.814803
 Sum of Mulliken charges =   0.00000

 Dipole moment (field-independent basis, Debye):
    X=              3.0851    Y=              7.0351    Z=             -0.0590  Tot=              7.6821

 Test job not archived.
 1\1\GINC-SE086\SP\RHF\Aug-CC-pVDZ\C4H5N7\OHZDE\08-Apr-2025\0\\#t hf au
 g-cc-pvdz iop(5/13=1,5/36=2,99/5=2) pseudo=read geom=check guess=(read
 ,tcheck) scf=(maxcycle=1)\\title\\0,1\C,0,1.65045,-0.518221,-0.0429965
 \C,0,0.343267,1.31894,0.00867744\C,0,-0.848814,0.430847,0.0184884\C,0,
 -2.21399,0.482986,0.00827663\H,0,3.02527,-1.94483,-0.117919\H,0,3.6228
 4,-0.310924,-0.0785042\H,0,0.78321,3.31337,0.193542\H,0,-0.851381,2.94
 525,0.100806\H,0,-2.91856,1.27224,-0.0793142\N,0,2.91286,-0.982846,0.0
 661028\N,0,1.58166,0.86874,-0.0556088\N,0,0.0815453,2.62226,-0.0258689

 Normal termination of Gaussian 16 at Tue Apr  8 22:08:47 2025.
