 Gaussian 16, Revision C.01,

 ----------------------------------------------------------------------
 #t hf aug-cc-pvdz symm=none int=(grid=ultrafine) guess=(read,tcheck) s
 table=(opt,rrhf)
 ----------------------------------------------------------------------
 -----
 title
 -----
 Symbolic Z-matrix:
 Charge =  0 Multiplicity = 1

 SCF Done:  E(RHF) =  -755.394275359     A.U. after   14 cycles
 Normal termination of Gaussian 16 at Tue Apr  8 19:37:45 2025.
 Gaussian 16:  ES64L-G16RevC.01  3-Jul-2019

 ----------------------------------------------------------------------
 #t hf aug-cc-pvdz iop(5/13=1,5/36=2,99/5=2) pseudo=read geom=check gue
 ss=(read,tcheck) scf=(maxcycle=1)
 ----------------------------------------------------------------------
 -----
 title
 -----
 Structure from the checkpoint file:  "ANI1ccx_1405_conf16_mol1.chk"
 Charge =  0 Multiplicity = 1

                         Standard orientation:
 ---------------------------------------------------------------------
 Center     Atomic      Atomic             Coordinates (Angstroms)
 Number     Number       Type             X           Y           Z
 ---------------------------------------------------------------------
      1          6           0       -1.644649    1.329801    0.189881
      2          6           0       -0.250579    0.979891    0.738166
      3          6           0       -2.225629    0.337804   -0.855444
      4          6           0       -2.585569   -0.977672   -0.235026
      5          6           0       -1.374350   -1.698559    0.216828
      6          6           0        2.135741    1.101341    0.014542
      7          6           0        2.784331   -0.217585   -0.249872
      8          1           0        1.071551   -0.901985   -0.641894
      9          1           0        2.648941    1.672901   -0.735980
     10          1           0        2.376971    1.472891    1.020350
     11          1           0        0.467410    1.485491   -1.142360
     12          1           0        0.064775   -2.502859   -0.493139
     13          1           0       -3.182759   -0.830511    0.695078
     14          1           0       -3.158920   -1.493599   -1.015380
     15          1           0       -3.116739    0.883358   -1.302800
     16          1           0       -1.539259    0.281035   -1.726500
     17          1           0       -2.287919    1.340871    1.142990
     18          1           0       -1.115769    3.354191   -0.012270
     19          1           0       -2.398659    2.851511   -0.936724
     20          7           0       -1.490139    2.543471   -0.609445
     21          7           0        0.711607    1.037711   -0.267464
     22          8           0        0.100756    0.743913    1.841560
     23          8           0       -1.013710   -1.981119    1.301270
     24          8           0       -0.701764   -2.061279   -0.881767
     25          8           0        3.989561   -0.195293   -0.162986
     26          8           0        1.948200   -1.232679   -0.551505
 ---------------------------------------------------------------------

 SCF Done:  E(RHF) =  -756.149105994     A.U. after    2 cycles

 The electronic state is 1-A.
 Alpha  occ. eigenvalues --  -20.61235 -20.60093 -20.55497 -20.53943 -20.52940
 Alpha  occ. eigenvalues --  -15.53838 -15.53596 -11.40003 -11.39089 -11.37482
 Alpha  occ. eigenvalues --  -11.31392 -11.28970 -11.28209 -11.27227  -1.58336
 Alpha  occ. eigenvalues --   -1.54519  -1.50813  -1.48169  -1.45953  -1.26417
 Alpha  occ. eigenvalues --   -1.22232  -1.11382  -1.03614  -0.98160  -0.91334
 Alpha  occ. eigenvalues --   -0.84849  -0.83418  -0.82094  -0.76560  -0.74664
 Alpha  occ. eigenvalues --   -0.73301  -0.72722  -0.71546  -0.70145  -0.68322
 Alpha  occ. eigenvalues --   -0.65818  -0.65411  -0.64611  -0.62859  -0.62643
 Alpha  occ. eigenvalues --   -0.60080  -0.59193  -0.58073  -0.57328  -0.55879
 Alpha  occ. eigenvalues --   -0.54237  -0.52588  -0.49885  -0.47888  -0.46826
 Alpha  occ. eigenvalues --   -0.46509  -0.45943  -0.44635  -0.42045
 Alpha virt. eigenvalues --    0.01716   0.02684   0.03414   0.04092   0.04675
 Alpha virt. eigenvalues --    0.05174   0.05497   0.06359   0.07043   0.07943
 Alpha virt. eigenvalues --    0.08760   0.09082   0.09799   0.10737   0.11146

 Mulliken charges:
               1
     1  C   -1.638923
     2  C    0.849338
     3  C    0.077102
     4  C   -0.672167
     5  C    2.786384
     6  C   -0.754378
     7  C    2.056562
     8  H    0.540820
     9  H    0.205629
    10  H    0.165729
    11  H    0.475280
    12  H    0.457514
    13  H    0.318523
    14  H    0.202517
    15  H    0.093130
    16  H    0.264885
    17  H    0.110675
    18  H    0.267441
    19  H    0.219604
    20  N    0.630068
    21  N    0.318250
    22  O   -1.497091
    23  O   -1.425428
    24  O   -1.449147
    25  O   -1.322756
    26  O   -1.279562
 Sum of Mulliken charges =  -0.00000

 Dipole moment (field-independent basis, Debye):
    X=             -6.5972    Y=              4.0427    Z=             -3.4385  Tot=              8.4670

 Test job not archived.
 1\1\GINC-SE344\SP\RHF\Aug-CC-pVDZ\C7H12N2O5\OHZDE\08-Apr-2025\0\\#t hf
  aug-cc-pvdz iop(5/13=1,5/36=2,99/5=2) pseudo=read geom=check guess=(r
 ead,tcheck) scf=(maxcycle=1)\\title\\0,1\C,0,-1.64465,1.3298,0.189881\
 C,0,-0.25058,0.97989,0.738166\C,0,-2.22563,0.337803,-0.855444\C,0,-2.5
 8557,-0.977673,-0.235026\C,0,-1.37435,-1.69856,0.216828\C,0,2.13574,1.
 10134,0.0145427\C,0,2.78433,-0.217586,-0.249872\H,0,1.07155,-0.901986,
 -0.641894\H,0,2.64894,1.6729,-0.73598\H,0,2.37697,1.47289,1.02035\H,0,
 0.467409,1.48549,-1.14236\H,0,0.0647748,-2.50286,-0.493139\H,0,-3.1827

 Normal termination of Gaussian 16 at Tue Apr  8 19:38:14 2025.
