 Gaussian 16, Revision C.01,

 ----------------------------------------------------------------------
 #t hf aug-cc-pvdz symm=none int=(grid=ultrafine) guess=(read,tcheck) s
 table=(opt,rrhf)
 ----------------------------------------------------------------------
 -----
 title
 -----
 Symbolic Z-matrix:
 Charge =  0 Multiplicity = 1

 SCF Done:  E(RHF) =  -982.033823838     A.U. after   14 cycles
 Normal termination of Gaussian 16 at Tue Apr  8 20:56:22 2025.
 Gaussian 16:  ES64L-G16RevC.01  3-Jul-2019

 ----------------------------------------------------------------------
 #t hf aug-cc-pvdz iop(5/13=1,5/36=2,99/5=2) pseudo=read geom=check gue
 ss=(read,tcheck) scf=(maxcycle=1)
 ----------------------------------------------------------------------
 -----
 title
 -----
 Structure from the checkpoint file:  "ANI1ccx_1743_conf47_mol1.chk"
 Charge =  0 Multiplicity = 1

                         Standard orientation:
 ---------------------------------------------------------------------
 Center     Atomic      Atomic             Coordinates (Angstroms)
 Number     Number       Type             X           Y           Z
 ---------------------------------------------------------------------
      1          6           0        1.547589   -1.753691   -0.164519
      2          6           0        1.069879   -0.958668    1.026159
      3          6           0        2.249239   -1.110811   -1.311141
      4          6           0        3.465699   -0.341028   -1.034151
      5          6           0        3.260150    0.928813   -0.292847
      6          6           0       -1.182970    0.095534   -0.060161
      7          6           0       -1.403310    1.644540   -0.126520
      8          6           0       -2.340841   -0.479787    0.629483
      9          6           0       -3.772941   -0.452384    0.038438
     10          1           0        0.541184    1.712419    0.191308
     11          1           0       -4.721150   -0.179990   -1.532171
     12          1           0       -2.467390   -0.253537    1.651179
     13          1           0       -2.263011   -1.584560    0.695210
     14          1           0       -0.926549   -0.422591   -0.947887
     15          1           0       -0.118149    0.377671    1.661949
     16          1           0        3.769180    1.853049    1.195209
     17          1           0        4.116199   -0.977130   -0.374607
     18          1           0        4.006060   -0.266902   -2.015801
     19          1           0        2.581339   -2.034111   -1.857051
     20          1           0        1.545319   -0.621089   -2.026851
     21          1           0        2.124399   -2.557711    0.214645
     22          1           0       -0.035743   -3.081091   -0.135757
     23          1           0        0.568811   -2.937871   -1.544821
     24          7           0        0.289130   -2.392701   -0.740098
     25          7           0       -0.071215   -0.166588    0.828914
     26          8           0        1.582299   -1.070281    2.121669
     27          8           0        2.259910    1.713609   -0.396326
     28          8           0        4.089790    1.107939    0.732911
     29          8           0       -2.507300    2.130050   -0.197137
     30          8           0       -4.791481   -0.645408    0.684299
     31          8           0       -3.815380   -0.093149   -1.289031
     32          8           0       -0.267947    2.288909   -0.159481
 ---------------------------------------------------------------------

 SCF Done:  E(RHF) =  -983.011916861     A.U. after    2 cycles

 The electronic state is 1-A.
 Alpha  occ. eigenvalues --  -20.63733 -20.58701 -20.58399 -20.56949 -20.54765
 Alpha  occ. eigenvalues --  -20.53164 -20.52790 -15.54236 -15.52551 -11.44486
 Alpha  occ. eigenvalues --  -11.39782 -11.39311 -11.38778 -11.30802 -11.30723
 Alpha  occ. eigenvalues --  -11.30015 -11.28709 -11.26024  -1.59259  -1.53387
 Alpha  occ. eigenvalues --   -1.53031  -1.49493  -1.45830  -1.44303  -1.43628
 Alpha  occ. eigenvalues --   -1.27367  -1.23240  -1.13841  -1.09379  -1.02446
 Alpha  occ. eigenvalues --   -0.96868  -0.93976  -0.85852  -0.83956  -0.81986
 Alpha  occ. eigenvalues --   -0.81708  -0.77977  -0.74971  -0.74444  -0.72947
 Alpha  occ. eigenvalues --   -0.71443  -0.71095  -0.69982  -0.69042  -0.68563
 Alpha  occ. eigenvalues --   -0.65969  -0.65331  -0.64268  -0.63712  -0.62660
 Alpha  occ. eigenvalues --   -0.62015  -0.61005  -0.60510  -0.58744  -0.57396
 Alpha  occ. eigenvalues --   -0.56927  -0.55557  -0.54750  -0.53950  -0.52340
 Alpha  occ. eigenvalues --   -0.49402  -0.48906  -0.48218  -0.46464  -0.46255
 Alpha  occ. eigenvalues --   -0.45831  -0.45307  -0.43293  -0.41512
 Alpha virt. eigenvalues --    0.01413   0.02233   0.03017   0.03484   0.04615
 Alpha virt. eigenvalues --    0.04723   0.05265   0.05396   0.06677   0.07179
 Alpha virt. eigenvalues --    0.07953   0.08173   0.09062   0.09658   0.09940

 Mulliken charges:
               1
     1  C   -0.850900
     2  C    0.672126
     3  C    0.032062
     4  C   -0.790398
     5  C    2.667666
     6  C   -0.697085
     7  C    2.380192
     8  C   -0.399128
     9  C    2.170438
    10  H    0.765541
    11  H    0.401109
    12  H   -0.003380
    13  H    0.358144
    14  H   -0.058749
    15  H    0.322593
    16  H    0.359325
    17  H    0.371890
    18  H    0.291562
    19  H    0.218489
    20  H    0.189664
    21  H   -0.096155
    22  H    0.238344
    23  H    0.325382
    24  N    0.188345
    25  N    0.884893
    26  O   -1.508196
    27  O   -1.636694
    28  O   -1.304175
    29  O   -1.338463
    30  O   -1.356933
    31  O   -1.326723
    32  O   -1.470790
 Sum of Mulliken charges =  -0.00000

 Dipole moment (field-independent basis, Debye):
    X=              7.4789    Y=             -5.1597    Z=             -3.1068  Tot=              9.6025

 Test job not archived.
 1\1\GINC-SE041\SP\RHF\Aug-CC-pVDZ\C9H14N2O7\OHZDE\08-Apr-2025\0\\#t hf
  aug-cc-pvdz iop(5/13=1,5/36=2,99/5=2) pseudo=read geom=check guess=(r
 ead,tcheck) scf=(maxcycle=1)\\title\\0,1\C,0,1.54759,-1.75369,-0.16451
 8\C,0,1.06988,-0.958667,1.02616\C,0,2.24924,-1.11081,-1.31114\C,0,3.46
 57,-0.341027,-1.03415\C,0,3.26015,0.928814,-0.292846\C,0,-1.18297,0.09
 55349,-0.0601601\C,0,-1.40331,1.64454,-0.126519\C,0,-2.34084,-0.479787
 ,0.629484\C,0,-3.77294,-0.452384,0.0384389\H,0,0.541184,1.71242,0.1913
 09\H,0,-4.72115,-0.17999,-1.53217\H,0,-2.46739,-0.253537,1.65118\H,0,-

 Normal termination of Gaussian 16 at Tue Apr  8 20:57:14 2025.
