 Gaussian 16, Revision C.01,

 ----------------------------------------------------------------------
 #t hf aug-cc-pvdz symm=none int=(grid=ultrafine) guess=(read,tcheck) s
 table=(opt,rrhf)
 ----------------------------------------------------------------------
 -----
 title
 -----
 Symbolic Z-matrix:
 Charge =  0 Multiplicity = 1

 SCF Done:  E(RHF) =  -866.308716757     A.U. after   15 cycles
 Normal termination of Gaussian 16 at Tue Apr  8 20:49:50 2025.
 Gaussian 16:  ES64L-G16RevC.01  3-Jul-2019

 ----------------------------------------------------------------------
 #t hf aug-cc-pvdz iop(5/13=1,5/36=2,99/5=2) pseudo=read geom=check gue
 ss=(read,tcheck) scf=(maxcycle=1)
 ----------------------------------------------------------------------
 -----
 title
 -----
 Structure from the checkpoint file:  "ANI1ccx_1746_conf9_mol2.chk"
 Charge =  0 Multiplicity = 1

                         Standard orientation:
 ---------------------------------------------------------------------
 Center     Atomic      Atomic             Coordinates (Angstroms)
 Number     Number       Type             X           Y           Z
 ---------------------------------------------------------------------
      1          6           0       -1.303019   -1.892031    0.509532
      2          6           0       -0.187153   -1.240760   -0.345426
      3          6           0       -2.601209   -1.386352   -0.053354
      4          6           0        1.805570    0.146933   -0.329484
      5          6           0        3.299430   -0.141365   -0.110699
      6          6           0        1.357509    1.523511    0.238503
      7          6           0       -0.137673    1.726220    0.064405
      8          6           0       -0.815721    2.341340   -0.905012
      9          6           0       -2.112662    1.942369    0.822181
     10          1           0        2.845151   -1.982168   -0.393278
     11          1           0       -2.885172    2.722468   -0.980697
     12          1           0       -2.962142    2.051768    1.477860
     13          1           0       -0.714170    2.774170   -1.872550
     14          1           0        1.926478    2.334262   -0.263340
     15          1           0        1.503939    1.400311    1.278750
     16          1           0        1.662000    0.146332   -1.383650
     17          1           0        0.962133   -0.820307    1.304700
     18          1           0       -1.972569   -1.454091   -1.780890
     19          1           0       -3.423669   -1.781842    0.582215
     20          1           0       -2.670140   -0.237775    0.087572
     21          1           0       -1.209628   -2.972561    0.313787
     22          1           0       -1.433748   -2.514381    2.398780
     23          1           0       -1.824900   -0.888654    2.144480
     24          7           0       -1.186579   -1.616271    1.963370
     25          7           0        1.005760   -0.884713    0.235945
     26          7           0       -0.956189    1.443179    1.136340
     27          7           0       -2.053542    2.519379   -0.394587
     28          8           0       -0.341359   -0.889090   -1.521900
     29          8           0       -2.813629   -1.788642   -1.366010
     30          8           0        4.082279    0.718811    0.226094
     31          8           0        3.660191   -1.432047   -0.193823
 ---------------------------------------------------------------------

 SCF Done:  E(RHF) =  -867.182232737     A.U. after    2 cycles

 The electronic state is 1-A.
 Alpha  occ. eigenvalues --  -20.60262 -20.53824 -20.53454 -20.53199 -15.57104
 Alpha  occ. eigenvalues --  -15.54757 -15.51666 -15.49940 -11.39187 -11.38376
 Alpha  occ. eigenvalues --  -11.31302 -11.30081 -11.29573 -11.29391 -11.26913
 Alpha  occ. eigenvalues --  -11.26217 -11.25093  -1.53850  -1.49078  -1.44665
 Alpha  occ. eigenvalues --   -1.44335  -1.37109  -1.26850  -1.21638  -1.19513
 Alpha  occ. eigenvalues --   -1.08267  -1.03923  -1.00997  -0.94485  -0.88600
 Alpha  occ. eigenvalues --   -0.86890  -0.83490  -0.83166  -0.81901  -0.78071
 Alpha  occ. eigenvalues --   -0.76736  -0.75111  -0.71062  -0.69918  -0.67877
 Alpha  occ. eigenvalues --   -0.67490  -0.66796  -0.66268  -0.64586  -0.63525
 Alpha  occ. eigenvalues --   -0.62648  -0.61719  -0.60828  -0.59661  -0.58538
 Alpha  occ. eigenvalues --   -0.56282  -0.55682  -0.54071  -0.53753  -0.51901
 Alpha  occ. eigenvalues --   -0.50823  -0.49526  -0.46714  -0.46350  -0.45346
 Alpha  occ. eigenvalues --   -0.43494  -0.43216  -0.41928  -0.34601
 Alpha virt. eigenvalues --    0.02179   0.02659   0.03326   0.03826   0.04105
 Alpha virt. eigenvalues --    0.04744   0.05198   0.05610   0.05911   0.06985
 Alpha virt. eigenvalues --    0.07729   0.08294   0.08861   0.09449   0.09911

 Mulliken charges:
               1
     1  C   -1.759101
     2  C    0.608859
     3  C    1.423483
     4  C   -0.944680
     5  C    2.632008
     6  C   -0.288836
     7  C   -0.700944
     8  C    0.004102
     9  C   -1.379277
    10  H    0.532622
    11  H    0.042859
    12  H   -0.305106
    13  H   -0.365469
    14  H    0.138195
    15  H    0.137084
    16  H    0.057523
    17  H    0.502468
    18  H    0.452039
    19  H    0.151105
    20  H    0.164999
    21  H    0.224751
    22  H    0.326567
    23  H    0.302943
    24  N    0.323004
    25  N    0.926269
    26  N    1.574011
    27  N    1.008121
    28  O   -1.608733
    29  O   -1.419352
    30  O   -1.319768
    31  O   -1.441747
 Sum of Mulliken charges =  -0.00000

 Dipole moment (field-independent basis, Debye):
    X=             -5.7944    Y=              0.7442    Z=              0.3031  Tot=              5.8498

 Test job not archived.
 1\1\GINC-SE338\SP\RHF\Aug-CC-pVDZ\C9H14N4O4\OHZDE\08-Apr-2025\0\\#t hf
  aug-cc-pvdz iop(5/13=1,5/36=2,99/5=2) pseudo=read geom=check guess=(r
 ead,tcheck) scf=(maxcycle=1)\\title\\0,1\C,0,-1.30302,-1.89203,0.50953
 2\C,0,-0.187154,-1.24076,-0.345426\C,0,-2.60121,-1.38635,-0.0533541\C,
 0,1.80557,0.146931,-0.329484\C,0,3.29943,-0.141368,-0.110699\C,0,1.357
 51,1.52351,0.238503\C,0,-0.137671,1.72622,0.064405\C,0,-0.815719,2.341
 34,-0.905012\C,0,-2.11266,1.94237,0.822181\H,0,2.84515,-1.98217,-0.393
 278\H,0,-2.88517,2.72247,-0.980697\H,0,-2.96214,2.05177,1.47786\H,0,-0

 Normal termination of Gaussian 16 at Tue Apr  8 20:50:30 2025.
