 Gaussian 16, Revision C.01,

 ----------------------------------------------------------------------
 #t hf aug-cc-pvdz symm=none int=(grid=ultrafine) guess=(read,tcheck) s
 table=(opt,rrhf)
 ----------------------------------------------------------------------
 -----
 title
 -----
 Symbolic Z-matrix:
 Charge =  0 Multiplicity = 1

 SCF Done:  E(RHF) =  -484.039210282     A.U. after   17 cycles
 Normal termination of Gaussian 16 at Tue Apr  8 21:47:54 2025.
 Gaussian 16:  ES64L-G16RevC.01  3-Jul-2019

 ----------------------------------------------------------------------
 #t hf aug-cc-pvdz iop(5/13=1,5/36=2,99/5=2) pseudo=read geom=check gue
 ss=(read,tcheck) scf=(maxcycle=1)
 ----------------------------------------------------------------------
 -----
 title
 -----
 Structure from the checkpoint file:  "ANI1ccx_606_conf3_mol1.chk"
 Charge =  0 Multiplicity = 1

                         Standard orientation:
 ---------------------------------------------------------------------
 Center     Atomic      Atomic             Coordinates (Angstroms)
 Number     Number       Type             X           Y           Z
 ---------------------------------------------------------------------
      1          6           0        1.154279   -0.435184   -0.032025
      2          6           0       -1.207361   -0.321986   -0.003472
      3          7           0        1.170200    0.990840    0.045846
      4          7           0        0.203177    1.726720   -0.041305
      5          8           0        2.245939   -0.942535   -0.113627
      6          8           0       -1.153710    1.031541    0.022819
      7          8           0       -2.217971   -0.917573   -0.124029
      8          8           0       -0.036152   -0.981420    0.237486
 ---------------------------------------------------------------------

 SCF Done:  E(RHF) =  -484.496071838     A.U. after    2 cycles

 The electronic state is 1-A.
 Alpha  occ. eigenvalues --  -20.70196 -20.68302 -20.62867 -20.59617 -15.75473
 Alpha  occ. eigenvalues --  -15.65966 -11.51314 -11.51089  -1.68959  -1.59380
 Alpha  occ. eigenvalues --   -1.56275  -1.53520  -1.45067  -1.11015  -1.01333
 Alpha  occ. eigenvalues --   -0.92080  -0.81754  -0.79313  -0.75370  -0.72792
 Alpha  occ. eigenvalues --   -0.72093  -0.69515  -0.67042  -0.62716  -0.58231
 Alpha  occ. eigenvalues --   -0.54764  -0.53647  -0.52309  -0.51573
 Alpha virt. eigenvalues --   -0.03735   0.04872   0.07390   0.08151   0.08314
 Alpha virt. eigenvalues --    0.09580   0.09898   0.10344   0.11435   0.12129
 Alpha virt. eigenvalues --    0.13169   0.15770   0.16921   0.17461   0.17817

 Mulliken charges:
               1
     1  C    1.325340
     2  C    2.247106
     3  N   -0.180929
     4  N    0.798389
     5  O   -0.949975
     6  O   -1.103969
     7  O   -1.009752
     8  O   -1.126209
 Sum of Mulliken charges =   0.00000

 Dipole moment (field-independent basis, Debye):
    X=              0.4440    Y=              0.6983    Z=              0.0824  Tot=              0.8316

 Test job not archived.
 1\1\GINC-SE398\SP\RHF\Aug-CC-pVDZ\C2N2O4\OHZDE\08-Apr-2025\0\\#t hf au
 g-cc-pvdz iop(5/13=1,5/36=2,99/5=2) pseudo=read geom=check guess=(read
 ,tcheck) scf=(maxcycle=1)\\title\\0,1\C,0,1.15428,-0.435184,-0.0320254
 \C,0,-1.20736,-0.321987,-0.0034722\N,0,1.1702,0.99084,0.0458455\N,0,0.
 203177,1.72672,-0.0413047\O,0,2.24594,-0.942534,-0.113627\O,0,-1.15371
 ,1.03154,0.0228193\O,0,-2.21797,-0.917574,-0.124029\O,0,-0.0361516,-0.
 98142,0.237486\\Version=ES64L-G16RevC.01\State=1-A\HF=-484.4960718\RMS
 D=2.969e-02\Dipole=0.1747008,0.2747419,0.032438\Quadrupole=-5.0898714,

 Normal termination of Gaussian 16 at Tue Apr  8 21:47:57 2025.
