 Gaussian 16, Revision C.01,

 ----------------------------------------------------------------------
 #t hf aug-cc-pvdz symm=none int=(grid=ultrafine) guess=(read,tcheck) s
 table=(opt,rrhf)
 ----------------------------------------------------------------------
 -----
 title
 -----
 Symbolic Z-matrix:
 Charge =  0 Multiplicity = 1

 SCF Done:  E(RHF) =  -390.239469445     A.U. after   16 cycles
 Normal termination of Gaussian 16 at Tue Apr  8 21:56:43 2025.
 Gaussian 16:  ES64L-G16RevC.01  3-Jul-2019

 ----------------------------------------------------------------------
 #t hf aug-cc-pvdz iop(5/13=1,5/36=2,99/5=2) pseudo=read geom=check gue
 ss=(read,tcheck) scf=(maxcycle=1)
 ----------------------------------------------------------------------
 -----
 title
 -----
 Structure from the checkpoint file:  "ANI1ccx_847_conf9_mol1.chk"
 Charge =  0 Multiplicity = 1

                         Standard orientation:
 ---------------------------------------------------------------------
 Center     Atomic      Atomic             Coordinates (Angstroms)
 Number     Number       Type             X           Y           Z
 ---------------------------------------------------------------------
      1          6           0       -1.522502   -0.274196    0.009690
      2          6           0       -1.118932    1.235339    0.008977
      3          6           0        0.640470   -0.078393   -0.032203
      4          6           0        2.037768   -0.148100    0.051675
      5          1           0       -1.675902    2.154549    0.016864
      6          7           0        0.159006    1.308619   -0.022224
      7          7           0       -0.189710   -0.987401   -0.044629
      8          7           0        3.190858   -0.346799    0.005162
      9          8           0       -2.583252   -0.797924    0.023267
 ---------------------------------------------------------------------

 SCF Done:  E(RHF) =  -390.612425374     A.U. after    2 cycles

 The electronic state is 1-A.
 Alpha  occ. eigenvalues --  -20.62179 -15.58110 -15.57686 -15.57126 -11.43683
 Alpha  occ. eigenvalues --  -11.40306 -11.36606 -11.32742  -1.56035  -1.39152
 Alpha  occ. eigenvalues --   -1.27031  -1.25127  -1.05879  -0.90680  -0.89249
 Alpha  occ. eigenvalues --   -0.80892  -0.72634  -0.71062  -0.68476  -0.65359
 Alpha  occ. eigenvalues --   -0.62587  -0.58846  -0.54929  -0.54193  -0.53928
 Alpha  occ. eigenvalues --   -0.49801  -0.49402
 Alpha virt. eigenvalues --   -0.04446   0.02474   0.05963   0.06434   0.07039
 Alpha virt. eigenvalues --    0.08259   0.09678   0.09816   0.10040   0.10880
 Alpha virt. eigenvalues --    0.11257   0.11467   0.12921   0.14192   0.15054

 Mulliken charges:
               1
     1  C    0.969742
     2  C   -0.209904
     3  C   -0.627043
     4  C   -1.713604
     5  H   -0.040555
     6  N    0.652000
     7  N    1.040287
     8  N    1.077961
     9  O   -1.148884
 Sum of Mulliken charges =  -0.00000

 Dipole moment (field-independent basis, Debye):
    X=             -3.4144    Y=              2.8490    Z=              0.1054  Tot=              4.4482

 Test job not archived.
 1\1\GINC-SE232\SP\RHF\Aug-CC-pVDZ\C4H1N3O1\OHZDE\08-Apr-2025\0\\#t hf
 aug-cc-pvdz iop(5/13=1,5/36=2,99/5=2) pseudo=read geom=check guess=(re
 ad,tcheck) scf=(maxcycle=1)\\title\\0,1\C,0,-1.5225,-0.274195,0.009690
 02\C,0,-1.11893,1.23534,0.00897715\C,0,0.640472,-0.0783922,-0.0322029\
 C,0,2.03777,-0.148099,0.0516755\H,0,-1.6759,2.15455,0.0168637\N,0,0.15
 9008,1.30862,-0.0222236\N,0,-0.189708,-0.9874,-0.0446292\N,0,3.19086,-
 0.346798,0.00516167\O,0,-2.58325,-0.797924,0.023267\\Version=ES64L-G16
 RevC.01\State=1-A\HF=-390.6124254\RMSD=6.521e-02\Dipole=-1.3433477,1.1

 Normal termination of Gaussian 16 at Tue Apr  8 21:56:48 2025.
