 Gaussian 16, Revision C.01,

 ----------------------------------------------------------------------
 #t hf aug-cc-pvdz symm=none int=(grid=ultrafine) guess=(read,tcheck) s
 table=(opt,rrhf)
 ----------------------------------------------------------------------
 -----
 title
 -----
 Symbolic Z-matrix:
 Charge =  0 Multiplicity = 1

 SCF Done:  E(RHF) =  -259.156572191     A.U. after   13 cycles
 Normal termination of Gaussian 16 at Tue Apr  8 21:38:43 2025.
 Gaussian 16:  ES64L-G16RevC.01  3-Jul-2019

 ----------------------------------------------------------------------
 #t hf aug-cc-pvdz iop(5/13=1,5/36=2,99/5=2) pseudo=read geom=check gue
 ss=(read,tcheck) scf=(maxcycle=1)
 ----------------------------------------------------------------------
 -----
 title
 -----
 Structure from the checkpoint file:  "ANI1ccx_430_conf33_mol1.chk"
 Charge =  0 Multiplicity = 1

                         Standard orientation:
 ---------------------------------------------------------------------
 Center     Atomic      Atomic             Coordinates (Angstroms)
 Number     Number       Type             X           Y           Z
 ---------------------------------------------------------------------
      1          6           0       -0.497733    0.131484    0.004716
      2          1           0        2.150631    0.463779   -0.712789
      3          1           0        2.031581    0.232135    0.957630
      4          1           0        0.412682   -1.673840    0.036206
      5          1           0       -1.807619   -1.551800    0.037197
      6          1           0       -2.570649   -0.017636    0.043898
      7          1           0        0.476401    1.760430   -0.094769
      8          7           0        1.892891   -0.208222    0.028148
      9          7           0        0.598614   -0.697286   -0.089495
     10          7           0       -1.698399   -0.527866    0.014352
     11          7           0       -0.465480    1.433090    0.004757
 ---------------------------------------------------------------------

 SCF Done:  E(RHF) =  -259.425037515     A.U. after    2 cycles

 The electronic state is 1-A.
 Alpha  occ. eigenvalues --  -15.54827 -15.54265 -15.52020 -15.44126 -11.34968
 Alpha  occ. eigenvalues --   -1.32866  -1.23206  -1.13500  -1.07879  -0.85511
 Alpha  occ. eigenvalues --   -0.78876  -0.76357  -0.73310  -0.69443  -0.65343
 Alpha  occ. eigenvalues --   -0.59140  -0.49041  -0.46516  -0.45613  -0.39060
 Alpha virt. eigenvalues --    0.02594   0.04466   0.05098   0.06230   0.06706
 Alpha virt. eigenvalues --    0.07110   0.11427   0.12288   0.13313   0.14781
 Alpha virt. eigenvalues --    0.15290   0.16490   0.17199   0.17827   0.18442

 Mulliken charges:
               1
     1  C   -1.571833
     2  H    0.157841
     3  H    0.177291
     4  H    0.064722
     5  H    0.075178
     6  H    0.099645
     7  H    0.166616
     8  N   -0.109388
     9  N   -0.129977
    10  N    0.455924
    11  N    0.613981
 Sum of Mulliken charges =  -0.00000

 Dipole moment (field-independent basis, Debye):
    X=              0.3236    Y=             -2.9342    Z=              0.4259  Tot=              2.9826

 Test job not archived.
 1\1\GINC-SE453\SP\RHF\Aug-CC-pVDZ\C1H6N4\OHZDE\08-Apr-2025\0\\#t hf au
 g-cc-pvdz iop(5/13=1,5/36=2,99/5=2) pseudo=read geom=check guess=(read
 ,tcheck) scf=(maxcycle=1)\\title\\0,1\C,0,-0.497734,0.131484,0.0047157
 8\H,0,2.15063,0.463779,-0.712789\H,0,2.03158,0.232135,0.95763\H,0,0.41
 2681,-1.67384,0.0362056\H,0,-1.80762,-1.5518,0.0371966\H,0,-2.57065,-0
 .0176364,0.0438985\H,0,0.4764,1.76043,-0.0947686\N,0,1.89289,-0.208222
 ,0.0281476\N,0,0.598613,-0.697286,-0.0894951\N,0,-1.6984,-0.527866,0.0
 143522\N,0,-0.465481,1.43309,0.00475718\\Version=ES64L-G16RevC.01\Stat

 Normal termination of Gaussian 16 at Tue Apr  8 21:38:46 2025.
