 Gaussian 16, Revision C.01,

 ----------------------------------------------------------------------
 #t hf aug-cc-pvdz symm=none int=(grid=ultrafine) guess=(read,tcheck) s
 table=(opt,rrhf)
 ----------------------------------------------------------------------
 -----
 title
 -----
 Symbolic Z-matrix:
 Charge =  0 Multiplicity = 1

 SCF Done:  E(RHF) =  -464.357905255     A.U. after   16 cycles
 Normal termination of Gaussian 16 at Tue Apr  8 21:42:13 2025.
 Gaussian 16:  ES64L-G16RevC.01  3-Jul-2019

 ----------------------------------------------------------------------
 #t hf aug-cc-pvdz iop(5/13=1,5/36=2,99/5=2) pseudo=read geom=check gue
 ss=(read,tcheck) scf=(maxcycle=1)
 ----------------------------------------------------------------------
 -----
 title
 -----
 Structure from the checkpoint file:  "ANI1ccx_474_conf26_mol1.chk"
 Charge =  0 Multiplicity = 1

                         Standard orientation:
 ---------------------------------------------------------------------
 Center     Atomic      Atomic             Coordinates (Angstroms)
 Number     Number       Type             X           Y           Z
 ---------------------------------------------------------------------
      1          6           0        1.128161   -0.522428    0.178788
      2          6           0        0.166150    1.586750   -0.031580
      3          1           0        2.515791   -0.574573   -1.119970
      4          7           0        0.976741    0.753895   -0.513107
      5          7           0       -2.094229   -0.638203   -0.636013
      6          7           0       -2.769640   -1.286668    0.027197
      7          8           0        2.137730   -1.157342   -0.455588
      8          8           0       -0.599427    2.441280    0.280071
      9          8           0        0.577727   -0.985753    1.186790
 ---------------------------------------------------------------------

 SCF Done:  E(RHF) =  -464.791668213     A.U. after    2 cycles

 The electronic state is 1-A.
 Alpha  occ. eigenvalues --  -20.67072 -20.62872 -20.57163 -15.64432 -15.64127
 Alpha  occ. eigenvalues --  -15.58743 -11.48860 -11.47965  -1.59066  -1.57165
 Alpha  occ. eigenvalues --   -1.47380  -1.45756  -1.31555  -0.95834  -0.84106
 Alpha  occ. eigenvalues --   -0.84037  -0.78579  -0.72750  -0.71579  -0.68683
 Alpha  occ. eigenvalues --   -0.67146  -0.65497  -0.65135  -0.64669  -0.61738
 Alpha  occ. eigenvalues --   -0.57866  -0.52300  -0.48868  -0.48747
 Alpha virt. eigenvalues --    0.03096   0.06505   0.06936   0.07092   0.08336
 Alpha virt. eigenvalues --    0.08745   0.08935   0.09560   0.10114   0.11008
 Alpha virt. eigenvalues --    0.11697   0.11973   0.13912   0.15799   0.17582

 Mulliken charges:
               1
     1  C    1.705203
     2  C    0.264975
     3  H    0.453911
     4  N    0.547203
     5  N    0.036210
     6  N   -0.089792
     7  O   -1.123916
     8  O   -0.757241
     9  O   -1.036553
 Sum of Mulliken charges =  -0.00000

 Dipole moment (field-independent basis, Debye):
    X=              0.9572    Y=              1.8758    Z=             -2.1205  Tot=              2.9885

 Test job not archived.
 1\1\GINC-SE044\SP\RHF\Aug-CC-pVDZ\C2H1N3O3\OHZDE\08-Apr-2025\0\\#t hf
 aug-cc-pvdz iop(5/13=1,5/36=2,99/5=2) pseudo=read geom=check guess=(re
 ad,tcheck) scf=(maxcycle=1)\\title\\0,1\C,0,1.12816,-0.522427,0.178788
 \C,0,0.166147,1.58675,-0.0315798\H,0,2.51579,-0.57457,-1.11997\N,0,0.9
 76739,0.753896,-0.513107\N,0,-2.09423,-0.638205,-0.636013\N,0,-2.76964
 ,-1.28667,0.0271965\O,0,2.13773,-1.15734,-0.455588\O,0,-0.59943,2.4412
 8,0.280071\O,0,0.577727,-0.985752,1.18679\\Version=ES64L-G16RevC.01\St
 ate=1-A\HF=-464.7916682\RMSD=2.530e-02\Dipole=0.3765728,0.7379914,-0.8

 Normal termination of Gaussian 16 at Tue Apr  8 21:42:17 2025.
