 Gaussian 16, Revision C.01,

 ----------------------------------------------------------------------
 #t hf aug-cc-pvdz symm=none int=(grid=ultrafine) guess=(read,tcheck) s
 table=(opt,rrhf)
 ----------------------------------------------------------------------
 -----
 title
 -----
 Symbolic Z-matrix:
 Charge =  0 Multiplicity = 1

 SCF Done:  E(RHF) =  -464.348432920     A.U. after   15 cycles
 Normal termination of Gaussian 16 at Tue Apr  8 21:42:15 2025.
 Gaussian 16:  ES64L-G16RevC.01  3-Jul-2019

 ----------------------------------------------------------------------
 #t hf aug-cc-pvdz iop(5/13=1,5/36=2,99/5=2) pseudo=read geom=check gue
 ss=(read,tcheck) scf=(maxcycle=1)
 ----------------------------------------------------------------------
 -----
 title
 -----
 Structure from the checkpoint file:  "ANI1ccx_474_conf32_mol1.chk"
 Charge =  0 Multiplicity = 1

                         Standard orientation:
 ---------------------------------------------------------------------
 Center     Atomic      Atomic             Coordinates (Angstroms)
 Number     Number       Type             X           Y           Z
 ---------------------------------------------------------------------
      1          6           0        1.223931   -0.453673    0.178207
      2          6           0        0.127734    1.424480   -0.132403
      3          1           0        2.792081   -0.875020   -0.974066
      4          7           0        1.124091    0.745910   -0.437754
      5          7           0       -2.207629   -0.493952   -0.338775
      6          7           0       -2.867018   -1.402172   -0.113932
      7          8           0        2.142042   -1.283480   -0.461864
      8          8           0       -0.655602    2.284809    0.109511
      9          8           0        0.607538   -0.613620    1.218910
 ---------------------------------------------------------------------

 SCF Done:  E(RHF) =  -464.786283215     A.U. after    2 cycles

 The electronic state is 1-A.
 Alpha  occ. eigenvalues --  -20.66169 -20.62319 -20.56403 -15.64532 -15.64306
 Alpha  occ. eigenvalues --  -15.56803 -11.48169 -11.46960  -1.58345  -1.56098
 Alpha  occ. eigenvalues --   -1.49344  -1.46217  -1.33062  -0.98670  -0.84782
 Alpha  occ. eigenvalues --   -0.84320  -0.77845  -0.73402  -0.72331  -0.68936
 Alpha  occ. eigenvalues --   -0.67593  -0.65562  -0.65440  -0.63759  -0.60975
 Alpha  occ. eigenvalues --   -0.57127  -0.53251  -0.48531  -0.47898
 Alpha virt. eigenvalues --    0.03018   0.06462   0.06798   0.07264   0.08339
 Alpha virt. eigenvalues --    0.09216   0.09553   0.09812   0.10264   0.11074
 Alpha virt. eigenvalues --    0.11668   0.12241   0.13524   0.16699   0.17272

 Mulliken charges:
               1
     1  C    1.535583
     2  C    0.401831
     3  H    0.363725
     4  N    0.670580
     5  N    0.195299
     6  N   -0.250845
     7  O   -1.106394
     8  O   -0.797613
     9  O   -1.012167
 Sum of Mulliken charges =   0.00000

 Dipole moment (field-independent basis, Debye):
    X=              1.1824    Y=              0.9907    Z=             -2.2364  Tot=              2.7169

 Test job not archived.
 1\1\GINC-SE109\SP\RHF\Aug-CC-pVDZ\C2H1N3O3\OHZDE\08-Apr-2025\0\\#t hf
 aug-cc-pvdz iop(5/13=1,5/36=2,99/5=2) pseudo=read geom=check guess=(re
 ad,tcheck) scf=(maxcycle=1)\\title\\0,1\C,0,1.22393,-0.453673,0.178207
 \C,0,0.127734,1.42448,-0.132403\H,0,2.79208,-0.875021,-0.974066\N,0,1.
 12409,0.74591,-0.437754\N,0,-2.20763,-0.493951,-0.338775\N,0,-2.86702,
 -1.40217,-0.113932\O,0,2.14204,-1.28348,-0.461864\O,0,-0.655602,2.2848
 1,0.109511\O,0,0.607537,-0.61362,1.21891\\Version=ES64L-G16RevC.01\Sta
 te=1-A\HF=-464.7862832\RMSD=2.665e-02\Dipole=0.4652116,0.3897656,-0.87

 Normal termination of Gaussian 16 at Tue Apr  8 21:42:19 2025.
