 Gaussian 16, Revision C.01,

 ----------------------------------------------------------------------
 #t hf aug-cc-pvdz symm=none int=(grid=ultrafine) guess=(read,tcheck) s
 table=(opt,rrhf)
 ----------------------------------------------------------------------
 -----
 title
 -----
 Symbolic Z-matrix:
 Charge =  0 Multiplicity = 1

 SCF Done:  E(RHF) =  -583.237106611     A.U. after   15 cycles
 Normal termination of Gaussian 16 at Tue Apr  8 22:06:29 2025.
 Gaussian 16:  ES64L-G16RevC.01  3-Jul-2019

 ----------------------------------------------------------------------
 #t hf aug-cc-pvdz iop(5/13=1,5/36=2,99/5=2) pseudo=read geom=check gue
 ss=(read,tcheck) scf=(maxcycle=1)
 ----------------------------------------------------------------------
 -----
 title
 -----
 Structure from the checkpoint file:  "ANI1ccx_900_conf5_mol1.chk"
 Charge =  0 Multiplicity = 1

                         Standard orientation:
 ---------------------------------------------------------------------
 Center     Atomic      Atomic             Coordinates (Angstroms)
 Number     Number       Type             X           Y           Z
 ---------------------------------------------------------------------
      1          6           0        2.354779   -0.120565   -0.025419
      2          6           0        1.057299   -0.308941    0.841901
      3          6           0       -1.208770    0.756504    0.117900
      4          6           0       -1.817901   -0.667120   -0.142129
      5          1           0        1.581570    1.345890   -0.977700
      6          1           0        0.556288   -1.120750    0.474177
      7          1           0        1.561849   -0.438197    1.787340
      8          1           0        0.393351    1.696100    0.737934
      9          1           0       -3.537981    0.140466   -0.121343
     10          7           0        0.118632    0.790751    0.652077
     11          8           0        2.383010    0.847922   -0.983054
     12          8           0        3.324079   -0.853385    0.118440
     13          8           0       -1.919860    1.719601   -0.006342
     14          8           0       -3.164171   -0.765342   -0.146329
     15          8           0       -1.085301   -1.588549   -0.385023
 ---------------------------------------------------------------------

 SCF Done:  E(RHF) =  -583.806277544     A.U. after    2 cycles

 The electronic state is 1-A.
 Alpha  occ. eigenvalues --  -20.64523 -20.61850 -20.59689 -20.59118 -20.54680
 Alpha  occ. eigenvalues --  -15.58536 -11.45174 -11.44297 -11.41456 -11.32160
 Alpha  occ. eigenvalues --   -1.58924  -1.55592  -1.54246  -1.50799  -1.45670
 Alpha  occ. eigenvalues --   -1.29143  -1.05069  -0.97684  -0.87310  -0.85868
 Alpha  occ. eigenvalues --   -0.80900  -0.79907  -0.73660  -0.72254  -0.70483
 Alpha  occ. eigenvalues --   -0.68030  -0.67580  -0.65613  -0.63807  -0.61961
 Alpha  occ. eigenvalues --   -0.60564  -0.57793  -0.55450  -0.51872  -0.50411
 Alpha  occ. eigenvalues --   -0.48112  -0.46331  -0.44028
 Alpha virt. eigenvalues --    0.02497   0.03784   0.04475   0.04847   0.05500
 Alpha virt. eigenvalues --    0.06878   0.07956   0.08746   0.09103   0.09459
 Alpha virt. eigenvalues --    0.11692   0.12077   0.12781   0.13932   0.14205

 Mulliken charges:
               1
     1  C    2.103685
     2  C   -0.617311
     3  C    0.632559
     4  C    2.164504
     5  H    0.408159
     6  H    0.138810
     7  H    0.235962
     8  H    0.105461
     9  H    0.414937
    10  N    0.620582
    11  O   -1.273750
    12  O   -1.305592
    13  O   -1.212421
    14  O   -1.261457
    15  O   -1.154127
 Sum of Mulliken charges =  -0.00000

 Dipole moment (field-independent basis, Debye):
    X=             -3.4344    Y=              3.1278    Z=              1.5567  Tot=              4.8991

 Test job not archived.
 1\1\GINC-SE250\SP\RHF\Aug-CC-pVDZ\C4H5N1O5\OHZDE\08-Apr-2025\0\\#t hf
 aug-cc-pvdz iop(5/13=1,5/36=2,99/5=2) pseudo=read geom=check guess=(re
 ad,tcheck) scf=(maxcycle=1)\\title\\0,1\C,0,2.35478,-0.120565,-0.02541
 92\C,0,1.0573,-0.308941,0.841901\C,0,-1.20877,0.756503,0.1179\C,0,-1.8
 179,-0.667121,-0.142129\H,0,1.58157,1.34589,-0.9777\H,0,0.556289,-1.12
 075,0.474177\H,0,1.56185,-0.438197,1.78734\H,0,0.393351,1.6961,0.73793
 4\H,0,-3.53798,0.140465,-0.121343\N,0,0.118632,0.790751,0.652077\O,0,2
 .38301,0.847922,-0.983054\O,0,3.32408,-0.853385,0.11844\O,0,-1.91986,1

 Normal termination of Gaussian 16 at Tue Apr  8 22:06:36 2025.
