 Gaussian 16, Revision C.01,

 ----------------------------------------------------------------------
 #t hf aug-cc-pvdz symm=none int=(grid=ultrafine) guess=(read,tcheck) s
 table=(opt,rrhf)
 ----------------------------------------------------------------------
 -----
 title
 -----
 Symbolic Z-matrix:
 Charge =  0 Multiplicity = 1

 SCF Done:  E(RHF) =  -522.629668769     A.U. after   13 cycles
 Normal termination of Gaussian 16 at Tue Apr  8 22:09:14 2025.
 Gaussian 16:  ES64L-G16RevC.01  3-Jul-2019

 ----------------------------------------------------------------------
 #t hf aug-cc-pvdz iop(5/13=1,5/36=2,99/5=2) pseudo=read geom=check gue
 ss=(read,tcheck) scf=(maxcycle=1)
 ----------------------------------------------------------------------
 -----
 title
 -----
 Structure from the checkpoint file:  "ANI1ccx_922_conf11_mol2.chk"
 Charge =  0 Multiplicity = 1

                         Standard orientation:
 ---------------------------------------------------------------------
 Center     Atomic      Atomic             Coordinates (Angstroms)
 Number     Number       Type             X           Y           Z
 ---------------------------------------------------------------------
      1          6           0       -1.857699   -0.002634   -0.312322
      2          6           0       -0.002358    0.787447    0.916668
      3          6           0        1.859691    0.003359   -0.308883
      4          6           0        0.001557   -0.785374    0.922336
      5          1           0       -1.454609    2.020121   -0.115583
      6          1           0        0.012935    1.219911    1.917290
      7          1           0        1.441871    2.029231   -0.120219
      8          1           0        1.445651   -2.016419   -0.131152
      9          1           0        0.002772   -1.199379    1.937190
     10          1           0       -1.414539   -2.018129   -0.154871
     11          7           0       -1.235869    1.100781    0.237637
     12          7           0        1.211911    1.109521    0.210949
     13          7           0        1.229151   -1.101649    0.233465
     14          7           0       -1.225139   -1.108669    0.234930
     15          8           0       -2.800639   -0.005335   -1.072660
     16          8           0        2.812941   -0.001165   -1.059630
 ---------------------------------------------------------------------

 SCF Done:  E(RHF) =  -523.149694683     A.U. after    2 cycles

 The electronic state is 1-A.
 Alpha  occ. eigenvalues --  -20.51729 -20.51647 -15.54467 -15.54157 -15.54113
 Alpha  occ. eigenvalues --  -15.54044 -11.39865 -11.39820 -11.35493 -11.35408
 Alpha  occ. eigenvalues --   -1.47720  -1.47311  -1.35424  -1.28133  -1.24279
 Alpha  occ. eigenvalues --   -1.18317  -1.03460  -0.91907  -0.91530  -0.87243
 Alpha  occ. eigenvalues --   -0.79969  -0.76621  -0.75242  -0.72324  -0.70411
 Alpha  occ. eigenvalues --   -0.66622  -0.66168  -0.64105  -0.62135  -0.60487
 Alpha  occ. eigenvalues --   -0.57800  -0.50286  -0.46660  -0.45322  -0.44790
 Alpha  occ. eigenvalues --   -0.44031  -0.43805
 Alpha virt. eigenvalues --    0.02252   0.03486   0.03577   0.04484   0.05062
 Alpha virt. eigenvalues --    0.05851   0.08750   0.08814   0.10111   0.11179
 Alpha virt. eigenvalues --    0.11578   0.12025   0.12576   0.12796   0.12937

 Mulliken charges:
               1
     1  C    0.801129
     2  C   -1.721743
     3  C    0.797747
     4  C   -1.808247
     5  H    0.193296
     6  H    0.007882
     7  H    0.171477
     8  H    0.191080
     9  H    0.032648
    10  H    0.195801
    11  N    0.850656
    12  N    0.856720
    13  N    0.871545
    14  N    0.868881
    15  O   -1.153632
    16  O   -1.155242
 Sum of Mulliken charges =  -0.00000

 Dipole moment (field-independent basis, Debye):
    X=              0.0427    Y=              0.0878    Z=              3.7152  Tot=              3.7165

 Test job not archived.
 1\1\GINC-SE435\SP\RHF\Aug-CC-pVDZ\C4H6N4O2\OHZDE\08-Apr-2025\0\\#t hf
 aug-cc-pvdz iop(5/13=1,5/36=2,99/5=2) pseudo=read geom=check guess=(re
 ad,tcheck) scf=(maxcycle=1)\\title\\0,1\C,0,-1.8577,-0.00263494,-0.312
 322\C,0,-0.00235909,0.787446,0.916668\C,0,1.85969,0.00335797,-0.308883
 \C,0,0.00155658,-0.785375,0.922336\H,0,-1.45461,2.02012,-0.115583\H,0,
 0.0129343,1.21991,1.91729\H,0,1.44187,2.02923,-0.120219\H,0,1.44565,-2
 .01642,-0.131152\H,0,0.00277134,-1.19938,1.93719\H,0,-1.41454,-2.01813
 ,-0.154871\N,0,-1.23587,1.10078,0.237637\N,0,1.21191,1.10952,0.210949\

 Normal termination of Gaussian 16 at Tue Apr  8 22:09:22 2025.
