 Gaussian 16, Revision C.01,

 ----------------------------------------------------------------------
 #t hf aug-cc-pvdz symm=none int=(grid=ultrafine) guess=(read,tcheck) s
 table=(opt,rrhf)
 ----------------------------------------------------------------------
 -----
 title
 -----
 Symbolic Z-matrix:
 Charge =  0 Multiplicity = 1

 SCF Done:  E(RHF) =  -355.334741851     A.U. after   14 cycles
 Normal termination of Gaussian 16 at Tue Apr  8 21:40:44 2025.
 Gaussian 16:  ES64L-G16RevC.01  3-Jul-2019

 ----------------------------------------------------------------------
 #t hf aug-cc-pvdz iop(5/13=1,5/36=2,99/5=2) pseudo=read geom=check gue
 ss=(read,tcheck) scf=(maxcycle=1)
 ----------------------------------------------------------------------
 -----
 title
 -----
 Structure from the checkpoint file:  "ANI1ccx_469_conf16_mol1.chk"
 Charge =  0 Multiplicity = 1

                         Standard orientation:
 ---------------------------------------------------------------------
 Center     Atomic      Atomic             Coordinates (Angstroms)
 Number     Number       Type             X           Y           Z
 ---------------------------------------------------------------------
      1          6           0        0.798028    0.064856    0.058757
      2          6           0       -1.350469    0.555019   -0.020687
      3          1           0       -2.193999    1.202303    0.122640
      4          7           0       -1.392441   -0.761071   -0.064933
      5          8           0        1.974140   -0.011628   -0.050991
      6          8           0       -0.056153    1.120481    0.005107
      7          8           0       -0.011021   -1.058110    0.058817
 ---------------------------------------------------------------------

 SCF Done:  E(RHF) =  -355.673217816     A.U. after    2 cycles

 The electronic state is 1-A.
 Alpha  occ. eigenvalues --  -20.68313 -20.65528 -20.57547 -15.63609 -11.48324
 Alpha  occ. eigenvalues --  -11.41822  -1.66540  -1.53754  -1.52071  -1.22486
 Alpha  occ. eigenvalues --   -0.94889  -0.91301  -0.79101  -0.75412  -0.71094
 Alpha  occ. eigenvalues --   -0.68768  -0.62320  -0.60154  -0.59655  -0.57414
 Alpha  occ. eigenvalues --   -0.50033  -0.44740
 Alpha virt. eigenvalues --    0.02479   0.05388   0.07363   0.07609   0.09300
 Alpha virt. eigenvalues --    0.10545   0.10926   0.12090   0.13667   0.15637
 Alpha virt. eigenvalues --    0.16469   0.18181   0.18879   0.19361   0.22661

 Mulliken charges:
               1
     1  C    2.123780
     2  C    0.284197
     3  H    0.044720
     4  N    0.898111
     5  O   -1.032916
     6  O   -1.077006
     7  O   -1.240886
 Sum of Mulliken charges =  -0.00000

 Dipole moment (field-independent basis, Debye):
    X=             -3.2184    Y=              2.8222    Z=              0.3797  Tot=              4.2973

 Test job not archived.
 1\1\GINC-SE179\SP\RHF\Aug-CC-pVDZ\C2H1N1O3\OHZDE\08-Apr-2025\0\\#t hf
 aug-cc-pvdz iop(5/13=1,5/36=2,99/5=2) pseudo=read geom=check guess=(re
 ad,tcheck) scf=(maxcycle=1)\\title\\0,1\C,0,0.798028,0.064856,0.058757
 1\C,0,-1.35047,0.555017,-0.0206866\H,0,-2.194,1.2023,0.12264\N,0,-1.39
 244,-0.761073,-0.0649328\O,0,1.97414,-0.0116259,-0.0509912\O,0,-0.0561
 543,1.12048,0.00510741\O,0,-0.0110196,-1.05811,0.0588171\\Version=ES64
 L-G16RevC.01\State=1-A\HF=-355.6732178\RMSD=1.257e-02\Dipole=-1.266217
 4,1.1103222,0.1493961\Quadrupole=-1.0399876,-0.38369,1.4236775,-3.8698

 Normal termination of Gaussian 16 at Tue Apr  8 21:40:47 2025.
