 Gaussian 16, Revision C.01,

 ----------------------------------------------------------------------
 #t hf aug-cc-pvdz symm=none int=(grid=ultrafine) guess=(read,tcheck) s
 table=(opt,rrhf)
 ----------------------------------------------------------------------
 -----
 title
 -----
 Symbolic Z-matrix:
 Charge =  0 Multiplicity = 1

 SCF Done:  E(RHF) =  -751.163971892     A.U. after   16 cycles
 Normal termination of Gaussian 16 at Tue Apr  8 20:01:20 2025.
 Gaussian 16:  ES64L-G16RevC.01  3-Jul-2019

 ----------------------------------------------------------------------
 #t hf aug-cc-pvdz iop(5/13=1,5/36=2,99/5=2) pseudo=read geom=check gue
 ss=(read,tcheck) scf=(maxcycle=1)
 ----------------------------------------------------------------------
 -----
 title
 -----
 Structure from the checkpoint file:  "ANI1ccx_1547_conf11_mol1.chk"
 Charge =  0 Multiplicity = 1

                         Standard orientation:
 ---------------------------------------------------------------------
 Center     Atomic      Atomic             Coordinates (Angstroms)
 Number     Number       Type             X           Y           Z
 ---------------------------------------------------------------------
      1          6           0       -3.957850   -1.008242   -0.159284
      2          6           0       -2.865230   -0.494843    0.723831
      3          6           0       -1.272801    1.337360    0.596790
      4          6           0        0.997975    2.290031   -0.033870
      5          6           0        2.045309    0.486092   -0.157195
      6          6           0        0.714148    0.094481    0.090882
      7          6           0        1.419751   -2.142869    0.074832
      8          6           0        3.123370   -0.464770   -0.104714
      9          1           0        1.166871   -3.201039    0.162678
     10          1           0       -0.540699   -1.517680    0.272862
     11          1           0        0.824146    3.288360    0.203800
     12          1           0       -1.711501    2.395629    0.215851
     13          1           0       -1.393671    1.104920    1.689110
     14          1           0       -3.257490    0.225309    1.456330
     15          1           0       -2.470410   -1.412081    1.141060
     16          1           0       -4.677050   -1.706802    0.401015
     17          1           0       -3.431550   -1.516761   -0.975926
     18          1           0       -4.021210    0.460207   -1.399160
     19          7           0        0.046085    1.279780    0.109553
     20          7           0        2.219649    1.825761   -0.227161
     21          7           0        0.389691   -1.213290    0.026073
     22          7           0        2.693440   -1.846559    0.063156
     23          8           0       -4.652570    0.055131   -0.784029
     24          8           0       -2.038320    0.286271   -0.092835
     25          8           0        4.296200   -0.219321   -0.267709
 ---------------------------------------------------------------------

 SCF Done:  E(RHF) =  -751.914851829     A.U. after    2 cycles

 The electronic state is 1-A.
 Alpha  occ. eigenvalues --  -20.60533 -20.56866 -20.49553 -15.60503 -15.59752
 Alpha  occ. eigenvalues --  -15.52074 -15.50676 -11.40325 -11.36285 -11.35137
 Alpha  occ. eigenvalues --  -11.34267 -11.32970 -11.32879 -11.32096 -11.26179
 Alpha  occ. eigenvalues --   -1.52663  -1.46899  -1.44180  -1.39322  -1.33068
 Alpha  occ. eigenvalues --   -1.24343  -1.20252  -1.07789  -1.06330  -0.99664
 Alpha  occ. eigenvalues --   -0.93574  -0.92524  -0.88390  -0.87364  -0.81569
 Alpha  occ. eigenvalues --   -0.79326  -0.77414  -0.74673  -0.73700  -0.71749
 Alpha  occ. eigenvalues --   -0.69392  -0.68412  -0.67477  -0.65909  -0.63639
 Alpha  occ. eigenvalues --   -0.62946  -0.60930  -0.60233  -0.59397  -0.55354
 Alpha  occ. eigenvalues --   -0.54082  -0.52648  -0.51849  -0.49489  -0.48725
 Alpha  occ. eigenvalues --   -0.46318  -0.45528  -0.43767  -0.40764  -0.32954
 Alpha virt. eigenvalues --    0.01336   0.01888   0.02355   0.03109   0.03895
 Alpha virt. eigenvalues --    0.04382   0.04937   0.06215   0.06896   0.07274
 Alpha virt. eigenvalues --    0.07610   0.08726   0.09795   0.09933   0.10467

 Mulliken charges:
               1
     1  C    0.461746
     2  C    0.478620
     3  C    0.008512
     4  C   -0.117613
     5  C   -0.511094
     6  C   -2.035056
     7  C   -0.690247
     8  C    0.483309
     9  H   -0.131217
    10  H    0.173559
    11  H   -0.264812
    12  H    0.249187
    13  H    0.197898
    14  H    0.059159
    15  H    0.187380
    16  H    0.192410
    17  H    0.094337
    18  H    0.313082
    19  N    1.519427
    20  N    1.069296
    21  N    1.428061
    22  N    0.994999
    23  O   -1.111912
    24  O   -1.657617
    25  O   -1.391413
 Sum of Mulliken charges =  -0.00000

 Dipole moment (field-independent basis, Debye):
    X=            -10.2288    Y=             -0.4693    Z=              2.8741  Tot=             10.6352

 Test job not archived.
 1\1\GINC-SE028\SP\RHF\Aug-CC-pVDZ\C8H10N4O3\OHZDE\08-Apr-2025\0\\#t hf
  aug-cc-pvdz iop(5/13=1,5/36=2,99/5=2) pseudo=read geom=check guess=(r
 ead,tcheck) scf=(maxcycle=1)\\title\\0,1\C,0,-3.95785,-1.00824,-0.1592
 84\C,0,-2.86523,-0.494842,0.723831\C,0,-1.2728,1.33736,0.59679\C,0,0.9
 97976,2.29003,-0.0338702\C,0,2.04531,0.486091,-0.157195\C,0,0.714148,0
 .0944808,0.0908825\C,0,1.41975,-2.14287,0.0748318\C,0,3.12337,-0.46477
 1,-0.104714\H,0,1.16687,-3.20104,0.162678\H,0,-0.540699,-1.51768,0.272
 862\H,0,0.824148,3.28836,0.2038\H,0,-1.7115,2.39563,0.215851\H,0,-1.39

 Normal termination of Gaussian 16 at Tue Apr  8 20:01:45 2025.
