 Gaussian 16, Revision C.01,

 ----------------------------------------------------------------------
 #t hf aug-cc-pvdz symm=none int=(grid=ultrafine) guess=(read,tcheck) s
 table=(opt,rrhf)
 ----------------------------------------------------------------------
 -----
 title
 -----
 Symbolic Z-matrix:
 Charge =  0 Multiplicity = 1

 SCF Done:  E(RHF) =  -313.639245105     A.U. after   14 cycles
 Normal termination of Gaussian 16 at Tue Apr  8 21:10:17 2025.
 Gaussian 16:  ES64L-G16RevC.01  3-Jul-2019

 ----------------------------------------------------------------------
 #t hf aug-cc-pvdz iop(5/13=1,5/36=2,99/5=2) pseudo=read geom=check gue
 ss=(read,tcheck) scf=(maxcycle=1)
 ----------------------------------------------------------------------
 -----
 title
 -----
 Structure from the checkpoint file:  "ANI1ccx_1854_conf5_mol2.chk"
 Charge =  0 Multiplicity = 1

                         Standard orientation:
 ---------------------------------------------------------------------
 Center     Atomic      Atomic             Coordinates (Angstroms)
 Number     Number       Type             X           Y           Z
 ---------------------------------------------------------------------
      1          1           0        0.191350    0.978584    0.415470
      2          7           0       -3.222512   -0.316853   -0.259728
      3          7           0       -2.322282    0.033500    0.276351
      4          7           0        1.569388   -0.212867    0.401579
      5          8           0        0.931462    0.843993   -0.202371
      6          8           0        2.523098   -0.532123   -0.215489
 ---------------------------------------------------------------------

 SCF Done:  E(RHF) =  -313.932112798     A.U. after    2 cycles

 The electronic state is 1-A.
 Alpha  occ. eigenvalues --  -20.63618 -20.63547 -15.72847 -15.64373 -15.64159
 Alpha  occ. eigenvalues --   -1.67994  -1.51463  -1.50750  -0.97575  -0.84261
 Alpha  occ. eigenvalues --   -0.80964  -0.75278  -0.70780  -0.70339  -0.68599
 Alpha  occ. eigenvalues --   -0.68591  -0.62190  -0.51963  -0.46732
 Alpha virt. eigenvalues --    0.04304   0.06432   0.07516   0.07729   0.10597
 Alpha virt. eigenvalues --    0.12039   0.12794   0.14598   0.15811   0.16326
 Alpha virt. eigenvalues --    0.16911   0.18786   0.19307   0.20392   0.21685

 Mulliken charges:
               1
     1  H    0.394113
     2  N   -0.173880
     3  N    0.153196
     4  N    1.566285
     5  O   -1.063958
     6  O   -0.875755
 Sum of Mulliken charges =  -0.00000

 Dipole moment (field-independent basis, Debye):
    X=             -1.9693    Y=              0.7162    Z=              0.8907  Tot=              2.2769

 Test job not archived.
 1\1\GINC-SE048\SP\RHF\Aug-CC-pVDZ\H1N3O2\OHZDE\08-Apr-2025\0\\#t hf au
 g-cc-pvdz iop(5/13=1,5/36=2,99/5=2) pseudo=read geom=check guess=(read
 ,tcheck) scf=(maxcycle=1)\\title\\0,1\H,0,0.191352,0.978584,0.41547\N,
 0,-3.22251,-0.316853,-0.259728\N,0,-2.32228,0.0335004,0.276351\N,0,1.5
 6939,-0.212867,0.401579\O,0,0.931464,0.843993,-0.202371\O,0,2.5231,-0.
 532123,-0.215489\\Version=ES64L-G16RevC.01\State=1-A\HF=-313.9321128\R
 MSD=3.806e-02\Dipole=-0.7747846,0.281777,0.3504299\Quadrupole=-1.35937
 04,0.9253729,0.4339975,-0.0622105,0.1973715,1.1451316\PG=C01 [X(H1N3O2

 Normal termination of Gaussian 16 at Tue Apr  8 21:10:19 2025.
