 Gaussian 16, Revision C.01,

 ----------------------------------------------------------------------
 #t hf aug-cc-pvdz symm=none int=(grid=ultrafine) guess=(read,tcheck) s
 table=(opt,rrhf)
 ----------------------------------------------------------------------
 -----
 title
 -----
 Symbolic Z-matrix:
 Charge =  0 Multiplicity = 1

 SCF Done:  E(RHF) =  -429.708705768     A.U. after   13 cycles
 Normal termination of Gaussian 16 at Tue Apr  8 21:52:02 2025.
 Gaussian 16:  ES64L-G16RevC.01  3-Jul-2019

 ----------------------------------------------------------------------
 #t hf aug-cc-pvdz iop(5/13=1,5/36=2,99/5=2) pseudo=read geom=check gue
 ss=(read,tcheck) scf=(maxcycle=1)
 ----------------------------------------------------------------------
 -----
 title
 -----
 Structure from the checkpoint file:  "ANI1ccx_712_conf2_mol2.chk"
 Charge =  0 Multiplicity = 1

                         Standard orientation:
 ---------------------------------------------------------------------
 Center     Atomic      Atomic             Coordinates (Angstroms)
 Number     Number       Type             X           Y           Z
 ---------------------------------------------------------------------
      1          6           0       -1.265110   -0.410083   -0.015821
      2          6           0        0.028708    1.697720    0.209296
      3          6           0        1.258690   -0.417779   -0.032553
      4          1           0       -2.064878    1.427223   -0.198636
      5          1           0        0.063838    1.824140    1.295520
      6          1           0       -0.012454    2.675860   -0.267071
      7          1           0        2.071912    1.399607   -0.111626
      8          1           0        0.009638   -2.022410    0.129969
      9          7           0       -1.202509    0.964325   -0.098258
     10          7           0        1.168071    0.957918   -0.266508
     11          7           0        0.001923   -1.023130    0.145581
     12          8           0       -2.293591   -1.052697   -0.049431
     13          8           0        2.296819   -1.049473    0.014507
 ---------------------------------------------------------------------

 SCF Done:  E(RHF) =  -430.135284360     A.U. after    2 cycles

 The electronic state is 1-A.
 Alpha  occ. eigenvalues --  -20.53512 -20.52821 -15.56045 -15.55419 -15.54935
 Alpha  occ. eigenvalues --  -11.41911 -11.41661 -11.35142  -1.49470  -1.48229
 Alpha  occ. eigenvalues --   -1.32555  -1.24065  -1.23169  -0.99980  -0.93166
 Alpha  occ. eigenvalues --   -0.87377  -0.80353  -0.74506  -0.72521  -0.70398
 Alpha  occ. eigenvalues --   -0.69899  -0.65327  -0.63338  -0.62621  -0.60521
 Alpha  occ. eigenvalues --   -0.48571  -0.47493  -0.46785  -0.45110  -0.43760
 Alpha virt. eigenvalues --    0.02263   0.03812   0.04047   0.05452   0.05681
 Alpha virt. eigenvalues --    0.08677   0.09510   0.09724   0.09894   0.12733
 Alpha virt. eigenvalues --    0.13172   0.13572   0.13743   0.14294   0.14530

 Mulliken charges:
               1
     1  C    0.234365
     2  C   -0.255277
     3  C    0.214841
     4  H    0.141448
     5  H    0.048904
     6  H    0.037716
     7  H    0.262861
     8  H    0.237922
     9  N    0.491245
    10  N    0.394004
    11  N    0.515684
    12  O   -1.158307
    13  O   -1.165406
 Sum of Mulliken charges =  -0.00000

 Dipole moment (field-independent basis, Debye):
    X=              0.1314    Y=              4.7830    Z=              0.7542  Tot=              4.8439

 Test job not archived.
 1\1\GINC-SE058\SP\RHF\Aug-CC-pVDZ\C3H5N3O2\OHZDE\08-Apr-2025\0\\#t hf
 aug-cc-pvdz iop(5/13=1,5/36=2,99/5=2) pseudo=read geom=check guess=(re
 ad,tcheck) scf=(maxcycle=1)\\title\\0,1\C,0,-1.26511,-0.410085,-0.0158
 213\C,0,0.0287056,1.69772,0.209296\C,0,1.25869,-0.417777,-0.0325527\H,
 0,-2.06488,1.42722,-0.198636\H,0,0.063836,1.82414,1.29552\H,0,-0.01245
 69,2.67586,-0.267071\H,0,2.07191,1.39961,-0.111626\H,0,0.00964088,-2.0
 2241,0.129969\N,0,-1.20251,0.964324,-0.0982583\N,0,1.16807,0.957919,-0
 .266508\N,0,0.00192455,-1.02313,0.145581\O,0,-2.29359,-1.0527,-0.04943

 Normal termination of Gaussian 16 at Tue Apr  8 21:52:07 2025.
