 Gaussian 16, Revision C.01,

 ----------------------------------------------------------------------
 #t hf aug-cc-pvdz symm=none int=(grid=ultrafine) guess=(read,tcheck) s
 table=(opt,rrhf)
 ----------------------------------------------------------------------
 -----
 title
 -----
 Symbolic Z-matrix:
 Charge =  0 Multiplicity = 1

 SCF Done:  E(RHF) =  -798.771377535     A.U. after   14 cycles
 Normal termination of Gaussian 16 at Tue Apr  8 22:16:54 2025.
 Gaussian 16:  ES64L-G16RevC.01  3-Jul-2019

 ----------------------------------------------------------------------
 #t hf aug-cc-pvdz iop(5/13=1,5/36=2,99/5=2) pseudo=read geom=check gue
 ss=(read,tcheck) scf=(maxcycle=1)
 ----------------------------------------------------------------------
 -----
 title
 -----
 Structure from the checkpoint file:  "ANI1ccx_86_conf3_mol1.chk"
 Charge =  0 Multiplicity = 1

                         Standard orientation:
 ---------------------------------------------------------------------
 Center     Atomic      Atomic             Coordinates (Angstroms)
 Number     Number       Type             X           Y           Z
 ---------------------------------------------------------------------
      1          6           0       -1.745500   -0.501497   -0.626817
      2          6           0        2.124869    0.921268    0.835144
      3          6           0        2.084331   -1.036719   -0.817465
      4          6           0        1.264700   -0.043700    0.011496
      5          6           0       -1.209032    2.511459   -1.088710
      6          6           0        3.116550    0.239330    1.707260
      7          6           0       -3.703010    0.274164    0.758237
      8          6           0       -2.739510    0.670187   -0.367961
      9          6           0       -0.999119   -0.926536    0.679447
     10          6           0       -2.050621    1.943969    0.021720
     11          1           0       -0.421057    1.830920   -1.341930
     12          1           0        3.387270    0.318477   -0.897905
     13          1           0        3.833050   -0.398450    1.043530
     14          1           0        3.695129    1.000362    2.264590
     15          1           0        2.619400   -0.426314    2.459510
     16          1           0        3.166118    2.512422    0.235660
     17          1           0        1.459459    1.540381    1.431830
     18          1           0        0.760548    0.514772   -0.725768
     19          1           0        0.648637   -1.299780    1.639260
     20          1           0       -0.699905    3.459209   -0.852862
     21          1           0       -1.411191    1.745739    0.897402
     22          1           0       -2.770952    2.740928    0.352955
     23          1           0       -3.263250    0.235899    1.739220
     24          1           0       -4.489371    1.013537    0.831984
     25          1           0       -4.217050   -0.663569    0.539084
     26          1           0       -3.371300    0.792737   -1.247240
     27          1           0       -1.051720   -0.223378   -1.471120
     28          1           0       -2.111199   -2.266192   -1.675540
     29          1           0       -2.820139   -2.213682   -0.171600
     30          1           0       -1.770502    2.598369   -1.997100
     31          7           0       -2.595419   -1.677442   -1.004070
     32          7           0        0.315439   -0.690187    0.874951
     33          8           0        2.740289    1.764402   -0.193273
     34          8           0       -1.679629   -1.624301    1.422910
     35          8           0        1.762511   -2.188729   -0.967520
     36          8           0        3.167570   -0.520188   -1.365140
 ---------------------------------------------------------------------

 SCF Done:  E(RHF) =  -799.593161670     A.U. after    2 cycles

 The electronic state is 1-A.
 Alpha  occ. eigenvalues --  -20.60883 -20.59827 -20.53952 -20.50823 -15.54826
 Alpha  occ. eigenvalues --  -15.47192 -11.39816 -11.36200 -11.34339 -11.31858
 Alpha  occ. eigenvalues --  -11.28382 -11.28096 -11.23277 -11.23052 -11.22635
 Alpha  occ. eigenvalues --  -11.19887  -1.55901  -1.50303  -1.46246  -1.45783
 Alpha  occ. eigenvalues --   -1.27196  -1.17133  -1.10941  -1.09141  -1.01986
 Alpha  occ. eigenvalues --   -0.99447  -0.93835  -0.88544  -0.86688  -0.85095
 Alpha  occ. eigenvalues --   -0.83361  -0.80986  -0.77026  -0.73035  -0.72138
 Alpha  occ. eigenvalues --   -0.70116  -0.69123  -0.66722  -0.66295  -0.65477
 Alpha  occ. eigenvalues --   -0.64402  -0.63355  -0.63107  -0.61086  -0.59980
 Alpha  occ. eigenvalues --   -0.59504  -0.57970  -0.57181  -0.56042  -0.55572
 Alpha  occ. eigenvalues --   -0.55003  -0.53496  -0.52493  -0.50493  -0.49963
 Alpha  occ. eigenvalues --   -0.48299  -0.47747  -0.47225  -0.46605  -0.45277
 Alpha  occ. eigenvalues --   -0.43307  -0.42460  -0.40383
 Alpha virt. eigenvalues --    0.01155   0.02628   0.02896   0.03923   0.04358
 Alpha virt. eigenvalues --    0.04858   0.05045   0.05881   0.06147   0.06916
 Alpha virt. eigenvalues --    0.07361   0.07585   0.08209   0.08498   0.09328

 Mulliken charges:
               1
     1  C   -2.048362
     2  C    1.194128
     3  C    2.376463
     4  C   -0.477278
     5  C   -0.056970
     6  C   -0.614567
     7  C    0.016202
     8  C   -0.472067
     9  C    0.576271
    10  C   -0.134910
    11  H   -0.173107
    12  H    0.628998
    13  H    0.310439
    14  H    0.138418
    15  H    0.282953
    16  H    0.346572
    17  H    0.041219
    18  H    0.224861
    19  H    0.204229
    20  H    0.179723
    21  H    0.333237
    22  H    0.127134
    23  H    0.188894
    24  H    0.046432
    25  H    0.173685
    26  H    0.064606
    27  H   -0.015731
    28  H    0.165684
    29  H    0.211951
    30  H    0.195761
    31  N    0.948400
    32  N    0.935835
    33  O   -1.502292
    34  O   -1.465102
    35  O   -1.479590
    36  O   -1.472120
 Sum of Mulliken charges =  -0.00000

 Dipole moment (field-independent basis, Debye):
    X=              4.0104    Y=              6.0706    Z=              2.4240  Tot=              7.6689

 Test job not archived.
 1\1\GINC-SE097\SP\RHF\Aug-CC-pVDZ\C10H20N2O4\OHZDE\08-Apr-2025\0\\#t h
 f aug-cc-pvdz iop(5/13=1,5/36=2,99/5=2) pseudo=read geom=check guess=(
 read,tcheck) scf=(maxcycle=1)\\title\\0,1\C,0,-1.7455,-0.501496,-0.626
 817\C,0,2.12487,0.921267,0.835144\C,0,2.08433,-1.03672,-0.817465\C,0,1
 .2647,-0.0437007,0.0114962\C,0,-1.20903,2.51146,-1.08871\C,0,3.11655,0
 .239328,1.70726\C,0,-3.70301,0.274167,0.758237\C,0,-2.73951,0.670189,-
 0.367961\C,0,-0.99912,-0.926535,0.679447\C,0,-2.05062,1.94397,0.021719
 9\H,0,-0.421056,1.83092,-1.34193\H,0,3.38727,0.318475,-0.897905\H,0,3.

 Normal termination of Gaussian 16 at Tue Apr  8 22:17:52 2025.
