 Gaussian 16, Revision C.01,

 ----------------------------------------------------------------------
 #t hf aug-cc-pvdz symm=none int=(grid=ultrafine) guess=(read,tcheck) s
 table=(opt,rrhf)
 ----------------------------------------------------------------------
 -----
 title
 -----
 Symbolic Z-matrix:
 Charge =  0 Multiplicity = 1

 SCF Done:  E(RHF) =  -759.723380539     A.U. after   14 cycles
 Normal termination of Gaussian 16 at Tue Apr  8 21:05:01 2025.
 Gaussian 16:  ES64L-G16RevC.01  3-Jul-2019

 ----------------------------------------------------------------------
 #t hf aug-cc-pvdz iop(5/13=1,5/36=2,99/5=2) pseudo=read geom=check gue
 ss=(read,tcheck) scf=(maxcycle=1)
 ----------------------------------------------------------------------
 -----
 title
 -----
 Structure from the checkpoint file:  "ANI1ccx_1777_conf5_mol1.chk"
 Charge =  0 Multiplicity = 1

                         Standard orientation:
 ---------------------------------------------------------------------
 Center     Atomic      Atomic             Coordinates (Angstroms)
 Number     Number       Type             X           Y           Z
 ---------------------------------------------------------------------
      1          6           0       -2.698650    0.276384    0.195120
      2          6           0        3.336780   -0.280744   -0.934861
      3          6           0        2.178640    1.817439   -1.139010
      4          6           0        1.980740    0.329328   -1.112140
      5          6           0        3.297990   -1.773541   -0.784627
      6          6           0        0.990258   -0.144298   -0.019005
      7          6           0       -3.638090   -0.737527   -0.394855
      8          6           0       -1.300050   -0.381540    0.101971
      9          6           0        1.457770    0.276826    1.301310
     10          1           0        2.846500    2.034889   -1.992860
     11          1           0        2.982440   -0.089618    2.461100
     12          1           0        2.647950   -2.147451    0.025915
     13          1           0        4.371200   -2.076161   -0.570475
     14          1           0        3.059170   -2.249911   -1.735580
     15          1           0        3.829240    0.118826   -0.053538
     16          1           0        4.063110   -0.062234   -1.810210
     17          1           0        1.207360    2.317399   -1.335530
     18          1           0        2.726870    2.251589   -0.276107
     19          1           0        0.908708   -1.273351   -0.104368
     20          1           0       -0.400212    1.389579    0.188187
     21          1           0       -5.636630   -1.088721   -0.398444
     22          1           0       -3.619490   -0.625575   -1.494990
     23          1           0       -3.286580   -1.721951   -0.097470
     24          1           0       -2.992440    0.314325    1.307020
     25          1           0       -2.448890    1.468559   -1.386360
     26          1           0       -3.801760    1.821119   -0.507285
     27          1           0        1.480470    0.029148   -2.074490
     28          7           0       -2.780330    1.539329   -0.428144
     29          7           0       -0.297809    0.431775   -0.261134
     30          8           0        1.067770    1.120799    2.046370
     31          8           0       -1.164670   -1.580601    0.280396
     32          8           0       -5.036070   -0.447345    0.018045
     33          8           0        2.630180   -0.405625    1.579820
 ---------------------------------------------------------------------

 SCF Done:  E(RHF) =  -760.504301363     A.U. after    2 cycles

 The electronic state is 1-A.
 Alpha  occ. eigenvalues --  -20.59753 -20.55771 -20.55246 -20.52370 -15.53754
 Alpha  occ. eigenvalues --  -15.50310 -11.40194 -11.36422 -11.28898 -11.28568
 Alpha  occ. eigenvalues --  -11.28291 -11.25058 -11.23393 -11.22619 -11.21966
 Alpha  occ. eigenvalues --   -1.55222  -1.47881  -1.46152  -1.42725  -1.27881
 Alpha  occ. eigenvalues --   -1.21323  -1.12322  -1.03022  -1.00648  -0.98688
 Alpha  occ. eigenvalues --   -0.88624  -0.86643  -0.83501  -0.81759  -0.78423
 Alpha  occ. eigenvalues --   -0.75139  -0.72613  -0.71058  -0.69821  -0.68125
 Alpha  occ. eigenvalues --   -0.66887  -0.66127  -0.63666  -0.63318  -0.62299
 Alpha  occ. eigenvalues --   -0.61806  -0.59994  -0.59846  -0.57736  -0.56949
 Alpha  occ. eigenvalues --   -0.55423  -0.54348  -0.53148  -0.51635  -0.50941
 Alpha  occ. eigenvalues --   -0.49946  -0.48226  -0.46621  -0.46394  -0.45948
 Alpha  occ. eigenvalues --   -0.45389  -0.44452  -0.43812  -0.42021
 Alpha virt. eigenvalues --    0.02963   0.03351   0.03466   0.03831   0.04144
 Alpha virt. eigenvalues --    0.04823   0.05100   0.05645   0.06112   0.06947
 Alpha virt. eigenvalues --    0.07515   0.07785   0.08077   0.09044   0.09386

 Mulliken charges:
               1
     1  C   -1.851281
     2  C   -0.022295
     3  C   -0.205071
     4  C   -0.591085
     5  C   -0.496565
     6  C   -3.000217
     7  C    1.298857
     8  C    1.070245
     9  C    3.210849
    10  H    0.192490
    11  H    0.483443
    12  H    0.357409
    13  H    0.166082
    14  H    0.138434
    15  H    0.321644
    16  H    0.141836
    17  H    0.183415
    18  H    0.221099
    19  H    0.123559
    20  H    0.512135
    21  H    0.356933
    22  H    0.090463
    23  H    0.084871
    24  H    0.283535
    25  H    0.357542
    26  H    0.204545
    27  H    0.202341
    28  N    0.689369
    29  N    1.361765
    30  O   -1.454280
    31  O   -1.487140
    32  O   -1.323050
    33  O   -1.621874
 Sum of Mulliken charges =  -0.00000

 Dipole moment (field-independent basis, Debye):
    X=              0.9454    Y=              0.0812    Z=             -2.2422  Tot=              2.4347

 Test job not archived.
 1\1\GINC-SE338\SP\RHF\Aug-CC-pVDZ\C9H18N2O4\OHZDE\08-Apr-2025\0\\#t hf
  aug-cc-pvdz iop(5/13=1,5/36=2,99/5=2) pseudo=read geom=check guess=(r
 ead,tcheck) scf=(maxcycle=1)\\title\\0,1\C,0,-2.69865,0.276385,0.19512
 \C,0,3.33678,-0.280743,-0.934861\C,0,2.17864,1.81744,-1.13901\C,0,1.98
 074,0.329329,-1.11214\C,0,3.29799,-1.77354,-0.784627\C,0,0.990258,-0.1
 44297,-0.0190042\C,0,-3.63809,-0.737526,-0.394855\C,0,-1.30005,-0.3815
 39,0.101971\C,0,1.45777,0.276827,1.30131\H,0,2.8465,2.03489,-1.99286\H
 ,0,2.98244,-0.0896177,2.4611\H,0,2.64795,-2.14745,0.0259159\H,0,4.3712

 Normal termination of Gaussian 16 at Tue Apr  8 21:05:37 2025.
