 Gaussian 16, Revision C.01,

 ----------------------------------------------------------------------
 #t hf aug-cc-pvdz symm=none int=(grid=ultrafine) guess=(read,tcheck) s
 table=(opt,rrhf)
 ----------------------------------------------------------------------
 -----
 title
 -----
 Symbolic Z-matrix:
 Charge =  0 Multiplicity = 1

 SCF Done:  E(RHF) =  -524.590232628     A.U. after   15 cycles
 Normal termination of Gaussian 16 at Tue Apr  8 19:31:01 2025.
 Gaussian 16:  ES64L-G16RevC.01  3-Jul-2019

 ----------------------------------------------------------------------
 #t hf aug-cc-pvdz iop(5/13=1,5/36=2,99/5=2) pseudo=read geom=check gue
 ss=(read,tcheck) scf=(maxcycle=1)
 ----------------------------------------------------------------------
 -----
 title
 -----
 Structure from the checkpoint file:  "ANI1ccx_1349_conf2_mol2.chk"
 Charge =  0 Multiplicity = 1

                         Standard orientation:
 ---------------------------------------------------------------------
 Center     Atomic      Atomic             Coordinates (Angstroms)
 Number     Number       Type             X           Y           Z
 ---------------------------------------------------------------------
      1          6           0        2.216698   -0.288598    0.067308
      2          6           0       -0.294886   -0.480512   -0.101109
      3          6           0       -2.394402   -1.278890    0.230168
      4          6           0       -2.950342    0.001691    0.163200
      5          6           0       -2.134712    1.076480   -0.047865
      6          6           0       -0.769915    0.852111   -0.216788
      7          1           0        0.916890    1.752481   -0.130041
      8          1           0       -2.487062    2.104860   -0.151977
      9          1           0       -4.024772    0.180351    0.193873
     10          1           0       -3.135792   -2.088500    0.330870
     11          1           0        1.122048   -1.841919   -0.666577
     12          1           0        3.362638   -1.406249   -0.926672
     13          1           0        2.962638    1.100541    1.187140
     14          1           0        1.441748    0.566739    1.647440
     15          7           0        2.034388    0.845251    0.878694
     16          7           0        3.420718   -0.633763   -0.246958
     17          7           0        1.022198   -0.865803   -0.388100
     18          7           0       -1.114902   -1.499799    0.081828
     19          8           0        0.033776    1.927101   -0.541474
 ---------------------------------------------------------------------

 SCF Done:  E(RHF) =  -525.122428115     A.U. after    2 cycles

 The electronic state is 1-A.
 Alpha  occ. eigenvalues --  -20.56217 -15.54991 -15.54548 -15.51589 -15.48227
 Alpha  occ. eigenvalues --  -11.37456 -11.33147 -11.31647 -11.28515 -11.26259
 Alpha  occ. eigenvalues --  -11.25059  -1.47306  -1.33283  -1.28687  -1.21353
 Alpha  occ. eigenvalues --   -1.16872  -1.10005  -1.03283  -0.90995  -0.89114
 Alpha  occ. eigenvalues --   -0.85009  -0.79923  -0.77627  -0.75297  -0.70605
 Alpha  occ. eigenvalues --   -0.69494  -0.67771  -0.66912  -0.63295  -0.61721
 Alpha  occ. eigenvalues --   -0.60105  -0.57647  -0.55835  -0.52855  -0.51026
 Alpha  occ. eigenvalues --   -0.49965  -0.46428  -0.43772  -0.40290  -0.32827
 Alpha virt. eigenvalues --    0.02832   0.03512   0.04041   0.04785   0.05439
 Alpha virt. eigenvalues --    0.05805   0.07037   0.07429   0.08124   0.09118
 Alpha virt. eigenvalues --    0.09857   0.10399   0.11163   0.12231   0.12713

 Mulliken charges:
               1
     1  C   -1.701689
     2  C   -2.832695
     3  C   -0.532415
     4  C    0.653022
     5  C    0.429588
     6  C    2.162866
     7  H    0.564980
     8  H   -0.197539
     9  H   -0.182062
    10  H   -0.150496
    11  H    0.213016
    12  H    0.214415
    13  H    0.278050
    14  H    0.392469
    15  N   -0.059518
    16  N    0.749739
    17  N    0.687744
    18  N    1.218054
    19  O   -1.907530
 Sum of Mulliken charges =   0.00000

 Dipole moment (field-independent basis, Debye):
    X=             -2.3372    Y=             -0.0432    Z=              1.6733  Tot=              2.8748

 Test job not archived.
 1\1\GINC-SE059\SP\RHF\Aug-CC-pVDZ\C6H8N4O1\OHZDE\08-Apr-2025\0\\#t hf
 aug-cc-pvdz iop(5/13=1,5/36=2,99/5=2) pseudo=read geom=check guess=(re
 ad,tcheck) scf=(maxcycle=1)\\title\\0,1\C,0,2.2167,-0.288599,0.0673084
 \C,0,-0.294884,-0.480513,-0.101109\C,0,-2.3944,-1.27889,0.230168\C,0,-
 2.95034,0.00169099,0.1632\C,0,-2.13471,1.07648,-0.0478654\C,0,-0.76991
 3,0.85211,-0.216788\H,0,0.916892,1.75248,-0.130041\H,0,-2.48706,2.1048
 6,-0.151977\H,0,-4.02477,0.180351,0.193873\H,0,-3.13579,-2.0885,0.3308
 7\H,0,1.12205,-1.84192,-0.666577\H,0,3.36264,-1.40625,-0.926672\H,0,2.

 Normal termination of Gaussian 16 at Tue Apr  8 19:31:14 2025.
