 Gaussian 16, Revision C.01,

 ----------------------------------------------------------------------
 #t hf aug-cc-pvdz symm=none int=(grid=ultrafine) guess=(read,tcheck) s
 table=(opt,rrhf)
 ----------------------------------------------------------------------
 -----
 title
 -----
 Symbolic Z-matrix:
 Charge =  0 Multiplicity = 1

 SCF Done:  E(RHF) =  -509.541757960     A.U. after   14 cycles
 Normal termination of Gaussian 16 at Tue Apr  8 22:11:30 2025.
 Gaussian 16:  ES64L-G16RevC.01  3-Jul-2019

 ----------------------------------------------------------------------
 #t hf aug-cc-pvdz iop(5/13=1,5/36=2,99/5=2) pseudo=read geom=check gue
 ss=(read,tcheck) scf=(maxcycle=1)
 ----------------------------------------------------------------------
 -----
 title
 -----
 Structure from the checkpoint file:  "ANI1ccx_939_conf22_mol1.chk"
 Charge =  0 Multiplicity = 1

                         Standard orientation:
 ---------------------------------------------------------------------
 Center     Atomic      Atomic             Coordinates (Angstroms)
 Number     Number       Type             X           Y           Z
 ---------------------------------------------------------------------
      1          6           0       -0.783353   -0.583586    0.711362
      2          6           0       -1.086930    0.722058   -0.011916
      3          6           0        0.672821   -0.628979    1.153310
      4          6           0        1.551371   -0.094163   -0.032496
      5          1           0       -2.295467   -1.708323    0.095196
      6          1           0       -1.151917   -1.741051   -0.963288
      7          1           0       -1.289928   -0.545430    1.706100
      8          1           0        0.818349    0.014685    2.019600
      9          1           0        0.996383   -1.652778    1.430610
     10          1           0        1.573882   -0.703651   -1.914470
     11          1           0       -0.717005    2.548379   -0.075236
     12          7           0       -1.306647   -1.764652    0.028093
     13          8           0       -1.841810    0.820878   -0.963440
     14          8           0        2.425650    0.710441   -0.145411
     15          8           0        1.045102   -0.883053   -1.077280
     16          8           0       -0.492844    1.807829    0.509040
 ---------------------------------------------------------------------

 SCF Done:  E(RHF) =  -510.049142798     A.U. after    2 cycles

 The electronic state is 1-A.
 Alpha  occ. eigenvalues --  -20.61505 -20.60470 -20.56232 -20.54732 -15.49516
 Alpha  occ. eigenvalues --  -11.41241 -11.40526 -11.30816 -11.27764  -1.56444
 Alpha  occ. eigenvalues --   -1.54024  -1.46418  -1.45604  -1.21114  -1.07394
 Alpha  occ. eigenvalues --   -0.94774  -0.85050  -0.80464  -0.74276  -0.73027
 Alpha  occ. eigenvalues --   -0.71612  -0.69380  -0.67001  -0.66435  -0.64180
 Alpha  occ. eigenvalues --   -0.61173  -0.59458  -0.58008  -0.56913  -0.53576
 Alpha  occ. eigenvalues --   -0.50078  -0.47709  -0.47358  -0.45087  -0.44509
 Alpha virt. eigenvalues --    0.03347   0.04051   0.04208   0.04881   0.05530
 Alpha virt. eigenvalues --    0.06392   0.07786   0.09678   0.09989   0.11284
 Alpha virt. eigenvalues --    0.12507   0.13079   0.13962   0.14132   0.14521

 Mulliken charges:
               1
     1  C   -1.949181
     2  C    2.787585
     3  C   -0.440181
     4  C    2.419045
     5  H    0.232985
     6  H    0.176587
     7  H    0.279613
     8  H    0.146059
     9  H    0.260597
    10  H    0.427236
    11  H    0.366212
    12  N    0.695352
    13  O   -1.365137
    14  O   -1.338794
    15  O   -1.364857
    16  O   -1.333120
 Sum of Mulliken charges =  -0.00000

 Dipole moment (field-independent basis, Debye):
    X=             -0.4601    Y=             -0.1675    Z=              0.7125  Tot=              0.8645

 Test job not archived.
 1\1\GINC-SE038\SP\RHF\Aug-CC-pVDZ\C4H7N1O4\OHZDE\08-Apr-2025\0\\#t hf
 aug-cc-pvdz iop(5/13=1,5/36=2,99/5=2) pseudo=read geom=check guess=(re
 ad,tcheck) scf=(maxcycle=1)\\title\\0,1\C,0,-0.783355,-0.583585,0.7113
 62\C,0,-1.08693,0.722059,-0.0119158\C,0,0.672819,-0.62898,1.15331\C,0,
 1.55137,-0.0941655,-0.0324963\H,0,-2.29547,-1.70832,0.095196\H,0,-1.15
 192,-1.74105,-0.963288\H,0,-1.28993,-0.545428,1.7061\H,0,0.818348,0.01
 46837,2.0196\H,0,0.99638,-1.65278,1.43061\H,0,1.57388,-0.703653,-1.914
 47\H,0,-0.717002,2.54838,-0.0752356\N,0,-1.30665,-1.76465,0.0280934\O,

 Normal termination of Gaussian 16 at Tue Apr  8 22:11:37 2025.
