 Gaussian 16, Revision C.01,

 ----------------------------------------------------------------------
 #t hf aug-cc-pvdz symm=none int=(grid=ultrafine) guess=(read,tcheck) s
 table=(opt,rrhf)
 ----------------------------------------------------------------------
 -----
 title
 -----
 Symbolic Z-matrix:
 Charge =  0 Multiplicity = 1

 SCF Done:  E(RHF) =  -947.037552565     A.U. after   16 cycles
 Normal termination of Gaussian 16 at Tue Apr  8 21:32:12 2025.
 Gaussian 16:  ES64L-G16RevC.01  3-Jul-2019

 ----------------------------------------------------------------------
 #t hf aug-cc-pvdz iop(5/13=1,5/36=2,99/5=2) pseudo=read geom=check gue
 ss=(read,tcheck) scf=(maxcycle=1)
 ----------------------------------------------------------------------
 -----
 title
 -----
 Structure from the checkpoint file:  "ANI1ccx_253_conf5_mol1.chk"
 Charge =  0 Multiplicity = 1

                         Standard orientation:
 ---------------------------------------------------------------------
 Center     Atomic      Atomic             Coordinates (Angstroms)
 Number     Number       Type             X           Y           Z
 ---------------------------------------------------------------------
      1          6           0        3.134470   -0.443099    0.814253
      2          6           0       -3.187201   -1.744550    0.009179
      3          6           0       -3.674520   -0.505602   -0.316848
      4          6           0       -2.752480    0.438584   -0.808950
      5          6           0       -1.095500   -1.290380   -1.057741
      6          6           0       -1.458760    0.112995   -1.163601
      7          6           0       -1.934961   -2.151240   -0.325899
      8          6           0       -0.807252    2.147640    0.779346
      9          6           0        0.237455    1.709680   -0.236634
     10          6           0        4.284850   -1.406040    0.237325
     11          6           0        2.195560    0.290453   -0.103508
     12          6           0       -0.474910    1.181510   -1.555121
     13          1           0       -1.085230    1.994040   -2.086941
     14          1           0       -2.159840    3.496270    1.071429
     15          1           0       -4.529581   -2.207540    1.431589
     16          1           0       -4.717290   -0.235706   -0.180350
     17          1           0       -1.688161   -3.154430    0.006692
     18          1           0       -3.049320    1.520990   -0.796696
     19          1           0       -0.155402   -1.651480   -1.442891
     20          1           0        0.322207    0.707858   -2.094191
     21          1           0        4.101150   -0.419615   -1.410421
     22          1           0        1.010060    0.590357    1.420389
     23          1           0        3.901099   -2.382770   -0.041205
     24          1           0        5.108619   -1.491710    0.932034
     25          1           0        3.683440    0.239346    1.377959
     26          1           0        1.634399   -1.910130    1.184019
     27          1           0        2.414470   -1.370510    2.603899
     28          1           0        0.803734    2.634720   -0.575914
     29          7           0        2.131340   -1.133400    1.670599
     30          7           0        1.003760    0.701994    0.433043
     31          8           0       -3.991671   -2.613570    0.676586
     32          8           0        2.390150    0.505050   -1.266601
     33          8           0        4.878850   -0.666131   -0.871944
     34          8           0       -0.953974    1.651400    1.897529
     35          8           0       -1.615920    3.200800    0.344967
 ---------------------------------------------------------------------

 SCF Done:  E(RHF) =  -947.990119125     A.U. after    2 cycles

 The electronic state is 1-A.
 Alpha  occ. eigenvalues --  -20.60984 -20.56998 -20.55561 -20.53509 -20.52654
 Alpha  occ. eigenvalues --  -15.52263 -15.50924 -11.41592 -11.36578 -11.31489
 Alpha  occ. eigenvalues --  -11.30302 -11.29631 -11.29326 -11.25701 -11.25494
 Alpha  occ. eigenvalues --  -11.24492 -11.24406 -11.23584 -11.23551  -1.54130
 Alpha  occ. eigenvalues --   -1.49908  -1.47570  -1.45290  -1.42341  -1.26499
 Alpha  occ. eigenvalues --   -1.19636  -1.15528  -1.07917  -1.02127  -1.01409
 Alpha  occ. eigenvalues --   -0.99479  -0.92237  -0.90625  -0.85975  -0.83592
 Alpha  occ. eigenvalues --   -0.82106  -0.79333  -0.76153  -0.73688  -0.72644
 Alpha  occ. eigenvalues --   -0.71585  -0.70006  -0.68616  -0.67889  -0.67277
 Alpha  occ. eigenvalues --   -0.65653  -0.64703  -0.63710  -0.62439  -0.61824
 Alpha  occ. eigenvalues --   -0.61392  -0.59695  -0.59458  -0.58787  -0.57767
 Alpha  occ. eigenvalues --   -0.57195  -0.56204  -0.54886  -0.53012  -0.52185
 Alpha  occ. eigenvalues --   -0.51527  -0.49176  -0.48347  -0.47205  -0.46520
 Alpha  occ. eigenvalues --   -0.45536  -0.44175  -0.43001  -0.41043  -0.34415
 Alpha  occ. eigenvalues --   -0.31998
 Alpha virt. eigenvalues --    0.02696   0.02813   0.03410   0.03726   0.04182
 Alpha virt. eigenvalues --    0.04499   0.04671   0.05375   0.05557   0.06311
 Alpha virt. eigenvalues --    0.07241   0.07521   0.08459   0.08880   0.08933

 Mulliken charges:
               1
     1  C   -1.204967
     2  C    1.418697
     3  C   -0.185031
     4  C    0.087625
     5  C    0.573643
     6  C    0.938132
     7  C    0.001545
     8  C    3.625524
     9  C   -2.417511
    10  C    1.037926
    11  C    0.307067
    12  C   -0.480011
    13  H    0.200081
    14  H    0.384187
    15  H    0.353847
    16  H   -0.269861
    17  H   -0.308970
    18  H   -0.218921
    19  H   -0.381893
    20  H    0.122662
    21  H    0.456617
    22  H    0.225385
    23  H    0.152546
    24  H    0.105949
    25  H    0.089578
    26  H    0.279177
    27  H    0.149633
    28  H    0.126230
    29  N    0.257402
    30  N    2.009990
    31  O   -1.663066
    32  O   -1.567401
    33  O   -1.194071
    34  O   -1.468140
    35  O   -1.543598
 Sum of Mulliken charges =   0.00000

 Dipole moment (field-independent basis, Debye):
    X=             -1.5135    Y=              0.7799    Z=              3.2982  Tot=              3.7117

 Test job not archived.
 1\1\GINC-SE074\SP\RHF\Aug-CC-pVDZ\C12H16N2O5\OHZDE\08-Apr-2025\0\\#t h
 f aug-cc-pvdz iop(5/13=1,5/36=2,99/5=2) pseudo=read geom=check guess=(
 read,tcheck) scf=(maxcycle=1)\\title\\0,1\C,0,3.13447,-0.443099,0.8142
 54\C,0,-3.1872,-1.74455,0.00918021\C,0,-3.67452,-0.505602,-0.316847\C,
 0,-2.75248,0.438584,-0.808949\C,0,-1.0955,-1.29038,-1.05774\C,0,-1.458
 76,0.112995,-1.1636\C,0,-1.93496,-2.15124,-0.325898\C,0,-0.807252,2.14
 764,0.779347\C,0,0.237455,1.70968,-0.236633\C,0,4.28485,-1.40604,0.237
 326\C,0,2.19556,0.290453,-0.103507\C,0,-0.47491,1.18151,-1.55512\H,0,-

 Normal termination of Gaussian 16 at Tue Apr  8 21:33:17 2025.
