 Gaussian 16, Revision C.01,

 ----------------------------------------------------------------------
 #t hf aug-cc-pvdz symm=none int=(grid=ultrafine) guess=(read,tcheck) s
 table=(opt,rrhf)
 ----------------------------------------------------------------------
 -----
 title
 -----
 Symbolic Z-matrix:
 Charge =  0 Multiplicity = 1

 SCF Done:  E(RHF) =  -962.224259062     A.U. after   14 cycles
 Normal termination of Gaussian 16 at Tue Apr  8 20:57:47 2025.
 Gaussian 16:  ES64L-G16RevC.01  3-Jul-2019

 ----------------------------------------------------------------------
 #t hf aug-cc-pvdz iop(5/13=1,5/36=2,99/5=2) pseudo=read geom=check gue
 ss=(read,tcheck) scf=(maxcycle=1)
 ----------------------------------------------------------------------
 -----
 title
 -----
 Structure from the checkpoint file:  "ANI1ccx_1756_conf23_mol1.chk"
 Charge =  0 Multiplicity = 1

                         Standard orientation:
 ---------------------------------------------------------------------
 Center     Atomic      Atomic             Coordinates (Angstroms)
 Number     Number       Type             X           Y           Z
 ---------------------------------------------------------------------
      1          6           0       -0.634162   -1.515550    0.035333
      2          6           0        0.198238   -1.320809    1.228730
      3          6           0       -2.143368   -1.788122    0.309770
      4          6           0       -2.927648   -1.059513   -0.748763
      5          6           0       -2.957420    0.427608   -0.552880
      6          6           0        1.736940    0.415989    0.022645
      7          6           0        2.984981   -0.163656   -0.723168
      8          6           0        1.858188    1.909242    0.466475
      9          6           0        0.368724    2.324471    0.386275
     10          1           0        1.913142   -1.774758   -1.139030
     11          1           0       -1.145892    2.572109    1.259480
     12          1           0        2.434228    2.437143   -0.279654
     13          1           0        2.305088    1.852353    1.474310
     14          1           0        0.964815    0.323833   -0.700629
     15          1           0        1.877761   -0.704742    1.858140
     16          1           0       -2.631752    2.111797   -1.619820
     17          1           0       -2.810760    0.698239   -2.591660
     18          1           0       -2.569468   -1.207353   -1.800850
     19          1           0       -3.965578   -1.338324   -0.780627
     20          1           0       -2.517638   -1.670172    1.301120
     21          1           0       -2.317906   -2.820902    0.183923
     22          1           0       -0.581906   -0.616160   -0.537733
     23          1           0       -0.117767   -2.812800   -1.565520
     24          1           0        0.414137   -3.338509   -0.124913
     25          7           0        0.313443   -2.414209   -0.722140
     26          7           0       -2.746841    1.132987   -1.661680
     27          7           0        1.242351   -0.464774    1.145840
     28          8           0        0.070382   -2.063740    2.200940
     29          8           0       -3.107901    0.877482    0.557895
     30          8           0        3.981000    0.523158   -0.921444
     31          8           0       -0.292860    2.316190   -0.683026
     32          8           0       -0.230964    2.644190    1.502960
     33          8           0        2.852842   -1.405747   -1.259470
 ---------------------------------------------------------------------

 SCF Done:  E(RHF) =  -963.182074350     A.U. after    2 cycles

 The electronic state is 1-A.
 Alpha  occ. eigenvalues --  -20.61883 -20.58767 -20.54723 -20.54169 -20.52463
 Alpha  occ. eigenvalues --  -20.51900 -15.56554 -15.54901 -15.53914 -11.42205
 Alpha  occ. eigenvalues --  -11.40682 -11.37368 -11.36454 -11.33362 -11.30695
 Alpha  occ. eigenvalues --  -11.29046 -11.26447 -11.25968  -1.58288  -1.52231
 Alpha  occ. eigenvalues --   -1.47823  -1.47218  -1.44351  -1.44046  -1.27245
 Alpha  occ. eigenvalues --   -1.24877  -1.22778  -1.10292  -1.09930  -1.00892
 Alpha  occ. eigenvalues --   -0.97265  -0.92924  -0.84889  -0.84261  -0.82950
 Alpha  occ. eigenvalues --   -0.81806  -0.77522  -0.77007  -0.76596  -0.73211
 Alpha  occ. eigenvalues --   -0.72107  -0.71162  -0.69799  -0.68060  -0.67473
 Alpha  occ. eigenvalues --   -0.66646  -0.65420  -0.64321  -0.63364  -0.61656
 Alpha  occ. eigenvalues --   -0.61492  -0.60692  -0.59362  -0.58743  -0.57965
 Alpha  occ. eigenvalues --   -0.56638  -0.55792  -0.54496  -0.53471  -0.52935
 Alpha  occ. eigenvalues --   -0.49652  -0.47774  -0.46633  -0.46284  -0.46165
 Alpha  occ. eigenvalues --   -0.45050  -0.43908  -0.43251  -0.42427
 Alpha virt. eigenvalues --    0.01480   0.02657   0.03143   0.04306   0.04666
 Alpha virt. eigenvalues --    0.05234   0.05633   0.05795   0.06138   0.07049
 Alpha virt. eigenvalues --    0.07105   0.08234   0.08507   0.09090   0.09635

 Mulliken charges:
               1
     1  C   -0.682954
     2  C    0.157730
     3  C    0.266597
     4  C   -0.211475
     5  C    0.071789
     6  C   -1.402732
     7  C    2.386475
     8  C   -0.311720
     9  C    3.002364
    10  H    0.896657
    11  H    0.299713
    12  H    0.236879
    13  H    0.206606
    14  H    0.248836
    15  H    0.149914
    16  H    0.074319
    17  H    0.164224
    18  H    0.191155
    19  H    0.081615
    20  H   -0.029497
    21  H    0.155515
    22  H    0.213775
    23  H    0.256214
    24  H    0.453480
    25  N   -0.190862
    26  N    0.981657
    27  N    1.027525
    28  O   -1.423125
    29  O   -1.383186
    30  O   -1.357236
    31  O   -1.484655
    32  O   -1.372050
    33  O   -1.673547
 Sum of Mulliken charges =  -0.00000

 Dipole moment (field-independent basis, Debye):
    X=             -4.4055    Y=             -1.7508    Z=             -3.3893  Tot=              5.8276

 Test job not archived.
 1\1\GINC-SE184\SP\RHF\Aug-CC-pVDZ\C9H15N3O6\OHZDE\08-Apr-2025\0\\#t hf
  aug-cc-pvdz iop(5/13=1,5/36=2,99/5=2) pseudo=read geom=check guess=(r
 ead,tcheck) scf=(maxcycle=1)\\title\\0,1\C,0,-0.634164,-1.51555,0.0353
 329\C,0,0.198236,-1.32081,1.22873\C,0,-2.14337,-1.78812,0.30977\C,0,-2
 .92765,-1.05951,-0.748763\C,0,-2.95742,0.427611,-0.55288\C,0,1.73694,0
 .415987,0.0226455\C,0,2.98498,-0.16366,-0.723168\C,0,1.85819,1.90924,0
 .466475\C,0,0.368726,2.32447,0.386275\H,0,1.91314,-1.77476,-1.13903\H,
 0,-1.14589,2.57211,1.25948\H,0,2.43423,2.43714,-0.279654\H,0,2.30509,1

 Normal termination of Gaussian 16 at Tue Apr  8 20:58:41 2025.
