 Gaussian 16, Revision C.01,

 ----------------------------------------------------------------------
 #t hf aug-cc-pvdz symm=none int=(grid=ultrafine) guess=(read,tcheck) s
 table=(opt,rrhf)
 ----------------------------------------------------------------------
 -----
 title
 -----
 Symbolic Z-matrix:
 Charge =  0 Multiplicity = 1

 SCF Done:  E(RHF) =  -443.088682447     A.U. after   19 cycles
 Normal termination of Gaussian 16 at Tue Apr  8 21:47:57 2025.
 Gaussian 16:  ES64L-G16RevC.01  3-Jul-2019

 ----------------------------------------------------------------------
 #t hf aug-cc-pvdz iop(5/13=1,5/36=2,99/5=2) pseudo=read geom=check gue
 ss=(read,tcheck) scf=(maxcycle=1)
 ----------------------------------------------------------------------
 -----
 title
 -----
 Structure from the checkpoint file:  "ANI1ccx_609_conf3_mol1.chk"
 Charge =  0 Multiplicity = 1

                         Standard orientation:
 ---------------------------------------------------------------------
 Center     Atomic      Atomic             Coordinates (Angstroms)
 Number     Number       Type             X           Y           Z
 ---------------------------------------------------------------------
      1          6           0       -0.035874   -0.597316    0.174863
      2          6           0        0.042332    0.897962    0.028766
      3          7           0       -2.239599   -0.496218   -0.119828
      4          7           0       -1.235969   -1.133293    0.018648
      5          7           0        1.186571   -1.161111    0.043297
      6          7           0        2.217761   -0.574098   -0.123044
      7          8           0        1.175939    1.358809   -0.004704
      8          8           0       -1.118451    1.359837    0.010294
 ---------------------------------------------------------------------

 SCF Done:  E(RHF) =  -443.499816901     A.U. after    2 cycles

 The electronic state is 1-A.
 Alpha  occ. eigenvalues --  -20.54648 -20.53929 -15.74368 -15.73659 -15.72808
 Alpha  occ. eigenvalues --  -15.72038 -11.39023 -11.37664  -1.54694  -1.52012
 Alpha  occ. eigenvalues --   -1.49447  -1.42903  -1.22526  -1.06368  -0.91300
 Alpha  occ. eigenvalues --   -0.82091  -0.80793  -0.77932  -0.74717  -0.74347
 Alpha  occ. eigenvalues --   -0.72325  -0.65281  -0.63629  -0.60940  -0.46536
 Alpha  occ. eigenvalues --   -0.45075  -0.44295  -0.43855
 Alpha virt. eigenvalues --   -0.05186  -0.04232  -0.02904   0.04452   0.07731
 Alpha virt. eigenvalues --    0.08054   0.08923   0.10599   0.11165   0.11230
 Alpha virt. eigenvalues --    0.11486   0.12085   0.14339   0.15884   0.17464

 Mulliken charges:
               1
     1  C   -1.396430
     2  C    2.154972
     3  N    0.863176
     4  N   -0.105297
     5  N   -0.146579
     6  N    0.852172
     7  O   -1.105683
     8  O   -1.116329
 Sum of Mulliken charges =  -0.00000

 Dipole moment (field-independent basis, Debye):
    X=              0.1618    Y=             -4.9170    Z=              0.0745  Tot=              4.9203

 Test job not archived.
 1\1\GINC-SE074\SP\RHF\Aug-CC-pVDZ\C2N4O2\OHZDE\08-Apr-2025\0\\#t hf au
 g-cc-pvdz iop(5/13=1,5/36=2,99/5=2) pseudo=read geom=check guess=(read
 ,tcheck) scf=(maxcycle=1)\\title\\0,1\C,0,-0.0358745,-0.597314,0.17486
 3\C,0,0.0423325,0.897964,0.0287665\N,0,-2.2396,-0.496214,-0.119828\N,0
 ,-1.23597,-1.13329,0.0186479\N,0,1.18657,-1.16111,0.0432972\N,0,2.2177
 6,-0.574098,-0.123044\O,0,1.17594,1.35881,-0.00470436\O,0,-1.11845,1.3
 5984,0.010294\\Version=ES64L-G16RevC.01\State=1-A\HF=-443.4998169\RMSD
 =4.820e-02\Dipole=0.0636601,-1.9345108,0.0293046\Quadrupole=-0.1565456

 Normal termination of Gaussian 16 at Tue Apr  8 21:48:00 2025.
