 Gaussian 16, Revision C.01,

 ----------------------------------------------------------------------
 #t hf aug-cc-pvdz symm=none int=(grid=ultrafine) guess=(read,tcheck) s
 table=(opt,rrhf)
 ----------------------------------------------------------------------
 -----
 title
 -----
 Symbolic Z-matrix:
 Charge =  0 Multiplicity = 1

 SCF Done:  E(RHF) =  -380.216983559     A.U. after   11 cycles
 Normal termination of Gaussian 16 at Tue Apr  8 21:05:27 2025.
 Gaussian 16:  ES64L-G16RevC.01  3-Jul-2019

 ----------------------------------------------------------------------
 #t hf aug-cc-pvdz iop(5/13=1,5/36=2,99/5=2) pseudo=read geom=check gue
 ss=(read,tcheck) scf=(maxcycle=1)
 ----------------------------------------------------------------------
 -----
 title
 -----
 Structure from the checkpoint file:  "ANI1ccx_1843_conf77_mol1.chk"
 Charge =  0 Multiplicity = 1

                         Standard orientation:
 ---------------------------------------------------------------------
 Center     Atomic      Atomic             Coordinates (Angstroms)
 Number     Number       Type             X           Y           Z
 ---------------------------------------------------------------------
      1          1           0       -1.670461    0.273843   -0.247195
      2          1           0       -2.390741    0.293597   -1.683831
      3          1           0       -0.532835   -0.811370    0.970706
      4          1           0       -1.520291   -0.541037    2.178159
      5          1           0       -0.493861   -1.259301   -0.890112
      6          1           0        0.901946   -1.423211   -0.281077
      7          1           0        1.675269    0.545416    0.070403
      8          1           0        2.927009   -0.034786   -0.752892
      9          1           0        0.001525    1.518409    0.908184
     10          1           0       -0.114048    1.618529   -0.595790
     11          8           0       -1.474661    0.317924   -1.219201
     12          8           0       -1.099811   -0.090199    1.429819
     13          8           0       -0.010897   -1.762111   -0.217907
     14          8           0        2.232659   -0.243445   -0.057452
     15          8           0        0.504771    1.755319    0.105170
 ---------------------------------------------------------------------

 SCF Done:  E(RHF) =  -380.612348101     A.U. after    2 cycles

 The electronic state is 1-A.
 Alpha  occ. eigenvalues --  -20.58204 -20.55885 -20.54942 -20.54099 -20.53828
 Alpha  occ. eigenvalues --   -1.46320  -1.44315  -1.43492  -1.42457  -1.40754
 Alpha  occ. eigenvalues --   -0.74363  -0.72172  -0.70777  -0.70089  -0.69380
 Alpha  occ. eigenvalues --   -0.61993  -0.60440  -0.58546  -0.57747  -0.54052
 Alpha  occ. eigenvalues --   -0.51299  -0.50265  -0.49190  -0.47846  -0.47627
 Alpha virt. eigenvalues --    0.02985   0.04221   0.04802   0.06509   0.07842
 Alpha virt. eigenvalues --    0.08256   0.08535   0.08958   0.10038   0.11825
 Alpha virt. eigenvalues --    0.16522   0.19043   0.19802   0.20135   0.22246

 Mulliken charges:
               1
     1  H    0.708915
     2  H    0.431275
     3  H    0.789929
     4  H    0.405449
     5  H    0.580440
     6  H    0.610703
     7  H    0.704936
     8  H    0.405641
     9  H    0.615869
    10  H    0.552878
    11  O   -1.059197
    12  O   -1.205916
    13  O   -1.228682
    14  O   -1.017106
    15  O   -1.295136
 Sum of Mulliken charges =  -0.00000

 Dipole moment (field-independent basis, Debye):
    X=             -2.6416    Y=              0.4778    Z=             -0.8088  Tot=              2.8037

 Test job not archived.
 1\1\GINC-SE081\SP\RHF\Aug-CC-pVDZ\H10O5\OHZDE\08-Apr-2025\0\\#t hf aug
 -cc-pvdz iop(5/13=1,5/36=2,99/5=2) pseudo=read geom=check guess=(read,
 tcheck) scf=(maxcycle=1)\\title\\0,1\H,0,-1.67046,0.273844,-0.247194\H
 ,0,-2.39074,0.293598,-1.68383\H,0,-0.532834,-0.811369,0.970707\H,0,-1.
 52029,-0.541036,2.17816\H,0,-0.49386,-1.2593,-0.890111\H,0,0.901947,-1
 .42321,-0.281076\H,0,1.67527,0.545416,0.0704034\H,0,2.92701,-0.0347852
 ,-0.752891\H,0,0.00152578,1.51841,0.908185\H,0,-0.114047,1.61853,-0.59
 5789\O,0,-1.47466,0.317925,-1.2192\O,0,-1.09981,-0.0901979,1.42982\O,0

 Normal termination of Gaussian 16 at Tue Apr  8 21:05:30 2025.
