 Gaussian 16, Revision C.01,

 ----------------------------------------------------------------------
 #t hf aug-cc-pvdz symm=none int=(grid=ultrafine) guess=(read,tcheck) s
 table=(opt,rrhf)
 ----------------------------------------------------------------------
 -----
 title
 -----
 Symbolic Z-matrix:
 Charge =  0 Multiplicity = 1

 SCF Done:  E(RHF) =  -469.350546287     A.U. after   13 cycles
 Normal termination of Gaussian 16 at Tue Apr  8 21:49:59 2025.
 Gaussian 16:  ES64L-G16RevC.01  3-Jul-2019

 ----------------------------------------------------------------------
 #t hf aug-cc-pvdz iop(5/13=1,5/36=2,99/5=2) pseudo=read geom=check gue
 ss=(read,tcheck) scf=(maxcycle=1)
 ----------------------------------------------------------------------
 -----
 title
 -----
 Structure from the checkpoint file:  "ANI1ccx_672_conf1_mol1.chk"
 Charge =  0 Multiplicity = 1

                         Standard orientation:
 ---------------------------------------------------------------------
 Center     Atomic      Atomic             Coordinates (Angstroms)
 Number     Number       Type             X           Y           Z
 ---------------------------------------------------------------------
      1          6           0       -1.274351   -0.357933    0.015252
      2          6           0        1.269739   -0.376322   -0.020230
      3          6           0        0.024007    1.520130    0.303701
      4          1           0       -0.053489   -1.923520    0.377339
      5          1           0       -0.018340    1.369510    1.392890
      6          1           0       -0.014388    2.586660    0.089697
      7          7           0       -0.028921   -0.907791    0.203215
      8          8           0       -2.276980   -0.985435   -0.089118
      9          8           0        2.303290   -0.984547   -0.037202
     10          8           0        1.190859    0.955934   -0.287138
     11          8           0       -1.195631    0.964877   -0.220888
 ---------------------------------------------------------------------

 SCF Done:  E(RHF) =  -469.803135911     A.U. after    2 cycles

 The electronic state is 1-A.
 Alpha  occ. eigenvalues --  -20.64403 -20.63537 -20.57400 -20.56046 -15.59464
 Alpha  occ. eigenvalues --  -11.47157 -11.45639 -11.41182  -1.62187  -1.57203
 Alpha  occ. eigenvalues --   -1.51307  -1.49037  -1.29595  -1.02284  -0.96833
 Alpha  occ. eigenvalues --   -0.86768  -0.83378  -0.79131  -0.73615  -0.69274
 Alpha  occ. eigenvalues --   -0.68305  -0.67662  -0.67252  -0.61428  -0.58510
 Alpha  occ. eigenvalues --   -0.53202  -0.51751  -0.51305  -0.48583  -0.47628
 Alpha virt. eigenvalues --    0.02691   0.03952   0.04777   0.07151   0.08445
 Alpha virt. eigenvalues --    0.10148   0.10322   0.10425   0.10670   0.12220
 Alpha virt. eigenvalues --    0.12881   0.13613   0.13919   0.15527   0.16093

 Mulliken charges:
               1
     1  C    1.211566
     2  C    1.297991
     3  C    1.033673
     4  H    0.140163
     5  H    0.245302
     6  H   -0.002557
     7  N    0.713232
     8  O   -1.127287
     9  O   -1.101582
    10  O   -1.191610
    11  O   -1.218892
 Sum of Mulliken charges =  -0.00000

 Dipole moment (field-independent basis, Debye):
    X=              0.1883    Y=              2.0195    Z=              1.8010  Tot=              2.7125

 Test job not archived.
 1\1\GINC-SE363\SP\RHF\Aug-CC-pVDZ\C3H3N1O4\OHZDE\08-Apr-2025\0\\#t hf
 aug-cc-pvdz iop(5/13=1,5/36=2,99/5=2) pseudo=read geom=check guess=(re
 ad,tcheck) scf=(maxcycle=1)\\title\\0,1\C,0,-1.27435,-0.357932,0.01525
 17\C,0,1.26974,-0.376323,-0.0202297\C,0,0.0240087,1.52013,0.303701\H,0
 ,-0.0534897,-1.92352,0.377339\H,0,-0.0183387,1.36951,1.39289\H,0,-0.01
 43856,2.58666,0.089697\N,0,-0.0289205,-0.907791,0.203215\O,0,-2.27698,
 -0.985434,-0.0891175\O,0,2.30329,-0.984549,-0.0372016\O,0,1.19086,0.95
 5933,-0.287138\O,0,-1.19563,0.964878,-0.220888\\Version=ES64L-G16RevC.

 Normal termination of Gaussian 16 at Tue Apr  8 21:50:04 2025.
