 Gaussian 16, Revision C.01,

 ----------------------------------------------------------------------
 #t hf aug-cc-pvdz symm=none int=(grid=ultrafine) guess=(read,tcheck) s
 table=(opt,rrhf)
 ----------------------------------------------------------------------
 -----
 title
 -----
 Symbolic Z-matrix:
 Charge =  0 Multiplicity = 1

 SCF Done:  E(RHF) =  -414.375088959     A.U. after   14 cycles
 Normal termination of Gaussian 16 at Tue Apr  8 21:37:35 2025.
 Gaussian 16:  ES64L-G16RevC.01  3-Jul-2019

 ----------------------------------------------------------------------
 #t hf aug-cc-pvdz iop(5/13=1,5/36=2,99/5=2) pseudo=read geom=check gue
 ss=(read,tcheck) scf=(maxcycle=1)
 ----------------------------------------------------------------------
 -----
 title
 -----
 Structure from the checkpoint file:  "ANI1ccx_410_conf3_mol2.chk"
 Charge =  0 Multiplicity = 1

                         Standard orientation:
 ---------------------------------------------------------------------
 Center     Atomic      Atomic             Coordinates (Angstroms)
 Number     Number       Type             X           Y           Z
 ---------------------------------------------------------------------
      1          6           0        2.452111    0.030554    0.195147
      2          1           0       -0.466234   -0.146757   -0.004218
      3          1           0       -3.189349    0.714193   -0.651793
      4          1           0        1.640122    1.750919    0.065756
      5          1           0        2.952441    0.462847    1.072100
      6          8           0       -1.062389    0.363590    0.556683
      7          8           0       -2.261469   -0.372820    0.559778
      8          8           0       -2.876109   -0.192363   -0.707726
      9          8           0        1.638751    0.910450   -0.410492
     10          8           0        2.605010   -1.079422   -0.204835
 ---------------------------------------------------------------------

 SCF Done:  E(RHF) =  -414.777124642     A.U. after    2 cycles

 The electronic state is 1-A.
 Alpha  occ. eigenvalues --  -20.68580 -20.63239 -20.63087 -20.62925 -20.56280
 Alpha  occ. eigenvalues --  -11.41681  -1.67857  -1.57341  -1.48452  -1.46132
 Alpha  occ. eigenvalues --   -1.19957  -0.89062  -0.81277  -0.78122  -0.68785
 Alpha  occ. eigenvalues --   -0.68134  -0.67742  -0.65861  -0.64719  -0.60939
 Alpha  occ. eigenvalues --   -0.51165  -0.50740  -0.49782  -0.48022  -0.47142
 Alpha virt. eigenvalues --    0.02319   0.04186   0.05299   0.08000   0.08467
 Alpha virt. eigenvalues --    0.11358   0.12401   0.13850   0.14142   0.15341
 Alpha virt. eigenvalues --    0.16985   0.18113   0.19581   0.19984   0.20764

 Mulliken charges:
               1
     1  C    1.429988
     2  H    0.532165
     3  H    0.457570
     4  H    0.448947
     5  H    0.117090
     6  O   -0.605924
     7  O    0.117027
     8  O   -0.490473
     9  O   -1.032199
    10  O   -0.974193
 Sum of Mulliken charges =  -0.00000

 Dipole moment (field-independent basis, Debye):
    X=              0.9806    Y=              4.4440    Z=              1.0940  Tot=              4.6805

 Test job not archived.
 1\1\GINC-SE016\SP\RHF\Aug-CC-pVDZ\C1H4O5\OHZDE\08-Apr-2025\0\\#t hf au
 g-cc-pvdz iop(5/13=1,5/36=2,99/5=2) pseudo=read geom=check guess=(read
 ,tcheck) scf=(maxcycle=1)\\title\\0,1\C,0,2.45211,0.0305551,0.195147\H
 ,0,-0.466235,-0.146757,-0.00421839\H,0,-3.18935,0.714192,-0.651793\H,0
 ,1.64012,1.75092,0.0657561\H,0,2.95244,0.462849,1.0721\O,0,-1.06239,0.
 36359,0.556683\O,0,-2.26147,-0.372821,0.559778\O,0,-2.87611,-0.192364,
 -0.707726\O,0,1.63875,0.910451,-0.410492\O,0,2.60501,-1.07942,-0.20483
 5\\Version=ES64L-G16RevC.01\State=1-A\HF=-414.7771246\RMSD=7.421e-03\D

 Normal termination of Gaussian 16 at Tue Apr  8 21:37:38 2025.
