 Gaussian 16, Revision C.01,

 ----------------------------------------------------------------------
 #t hf aug-cc-pvdz symm=none int=(grid=ultrafine) guess=(read,tcheck) s
 table=(opt,rrhf)
 ----------------------------------------------------------------------
 -----
 title
 -----
 Symbolic Z-matrix:
 Charge =  0 Multiplicity = 1

 SCF Done:  E(RHF) =  -923.154417426     A.U. after   14 cycles
 Normal termination of Gaussian 16 at Tue Apr  8 20:14:38 2025.
 Gaussian 16:  ES64L-G16RevC.01  3-Jul-2019

 ----------------------------------------------------------------------
 #t hf aug-cc-pvdz iop(5/13=1,5/36=2,99/5=2) pseudo=read geom=check gue
 ss=(read,tcheck) scf=(maxcycle=1)
 ----------------------------------------------------------------------
 -----
 title
 -----
 Structure from the checkpoint file:  "ANI1ccx_1584_conf34_mol1.chk"
 Charge =  0 Multiplicity = 1

                         Standard orientation:
 ---------------------------------------------------------------------
 Center     Atomic      Atomic             Coordinates (Angstroms)
 Number     Number       Type             X           Y           Z
 ---------------------------------------------------------------------
      1          6           0       -2.488219   -1.214130    0.079924
      2          6           0       -1.193789   -1.293350   -0.679149
      3          6           0       -3.101809    0.142924   -0.354268
      4          6           0       -2.061869    1.257830    0.012174
      5          6           0        1.278701   -0.951730   -0.685965
      6          6           0        2.233911   -1.326460    0.388655
      7          6           0        1.701081    0.445216   -1.346920
      8          6           0        1.998581    1.560270   -0.350211
      9          1           0        2.882781   -0.881403    2.000420
     10          1           0        0.014788    2.412930    0.148964
     11          1           0        1.373621    2.870290    0.968403
     12          1           0        0.901460    0.749860   -2.182780
     13          1           0        2.709411    0.323665   -1.820030
     14          1           0        1.247951   -1.601650   -1.564200
     15          1           0       -0.004625   -0.619818    0.803599
     16          1           0       -1.554759    0.439184    1.689710
     17          1           0       -4.116559    0.272435    0.066058
     18          1           0       -3.068419    0.254911   -1.401270
     19          1           0       -3.216629   -1.957400   -0.365195
     20          1           0       -3.332579   -0.795982    2.013680
     21          1           0       -2.100739   -1.939740    1.995690
     22          7           0       -2.593909   -1.139250    1.498930
     23          7           0       -0.055403   -0.799481   -0.121420
     24          7           0        1.011061    2.356060    0.207290
     25          8           0       -1.179309   -1.865600   -1.775480
     26          8           0       -2.051849    2.298230   -0.683360
     27          8           0       -1.499929    1.300780    1.219590
     28          8           0        3.265681   -2.016861    0.219006
     29          8           0        3.124571    1.776939   -0.050606
     30          8           0        2.032401   -0.764986    1.591840
 ---------------------------------------------------------------------

 SCF Done:  E(RHF) =  -924.072115789     A.U. after    2 cycles

 The electronic state is 1-A.
 Alpha  occ. eigenvalues --  -20.63113 -20.61499 -20.55833 -20.55150 -20.54453
 Alpha  occ. eigenvalues --  -20.50844 -15.56314 -15.55539 -15.50143 -11.42701
 Alpha  occ. eigenvalues --  -11.42062 -11.40268 -11.35958 -11.33408 -11.33245
 Alpha  occ. eigenvalues --  -11.29559 -11.28413  -1.58313  -1.56298  -1.48475
 Alpha  occ. eigenvalues --   -1.48398  -1.44886  -1.44696  -1.30268  -1.26318
 Alpha  occ. eigenvalues --   -1.19663  -1.10685  -1.07938  -0.98205  -0.95423
 Alpha  occ. eigenvalues --   -0.89173  -0.87082  -0.85804  -0.82187  -0.79619
 Alpha  occ. eigenvalues --   -0.78199  -0.76104  -0.74599  -0.73503  -0.73071
 Alpha  occ. eigenvalues --   -0.69822  -0.69086  -0.67827  -0.67165  -0.65397
 Alpha  occ. eigenvalues --   -0.65054  -0.63758  -0.62603  -0.60932  -0.60478
 Alpha  occ. eigenvalues --   -0.60009  -0.58812  -0.56786  -0.56269  -0.55402
 Alpha  occ. eigenvalues --   -0.53503  -0.48658  -0.48253  -0.47857  -0.47476
 Alpha  occ. eigenvalues --   -0.46075  -0.44952  -0.44276  -0.42740  -0.42045
 Alpha virt. eigenvalues --    0.00929   0.02673   0.03460   0.03898   0.04759
 Alpha virt. eigenvalues --    0.04961   0.05647   0.05825   0.06332   0.07391
 Alpha virt. eigenvalues --    0.08233   0.08407   0.08926   0.09357   0.09664

 Mulliken charges:
               1
     1  C   -1.331598
     2  C    0.625079
     3  C   -0.330983
     4  C    2.441190
     5  C   -1.746559
     6  C    3.000828
     7  C   -0.700773
     8  C    0.467820
     9  H    0.385187
    10  H   -0.192225
    11  H    0.227370
    12  H    0.366662
    13  H    0.176541
    14  H    0.019606
    15  H    0.243903
    16  H    0.744960
    17  H    0.180597
    18  H    0.128383
    19  H    0.185278
    20  H    0.094171
    21  H    0.291602
    22  N    0.678062
    23  N    1.897825
    24  N    0.922238
    25  O   -1.489435
    26  O   -1.437903
    27  O   -1.634026
    28  O   -1.393244
    29  O   -1.377117
    30  O   -1.443440
 Sum of Mulliken charges =  -0.00000

 Dipole moment (field-independent basis, Debye):
    X=             -5.9478    Y=             -3.0273    Z=              4.8899  Tot=              8.2736

 Test job not archived.
 1\1\GINC-SE402\SP\RHF\Aug-CC-pVDZ\C8H13N3O6\OHZDE\08-Apr-2025\0\\#t hf
  aug-cc-pvdz iop(5/13=1,5/36=2,99/5=2) pseudo=read geom=check guess=(r
 ead,tcheck) scf=(maxcycle=1)\\title\\0,1\C,0,-2.48822,-1.21413,0.07992
 39\C,0,-1.19379,-1.29335,-0.679149\C,0,-3.10181,0.142924,-0.354268\C,0
 ,-2.06187,1.25783,0.0121739\C,0,1.2787,-0.95173,-0.685965\C,0,2.23391,
 -1.32646,0.388655\C,0,1.70108,0.445216,-1.34692\C,0,1.99858,1.56027,-0
 .350211\H,0,2.88278,-0.881402,2.00042\H,0,0.0147873,2.41293,0.148964\H
 ,0,1.37362,2.87029,0.968403\H,0,0.901459,0.74986,-2.18278\H,0,2.70941,

 Normal termination of Gaussian 16 at Tue Apr  8 20:15:22 2025.
