 Gaussian 16, Revision C.01,

 ----------------------------------------------------------------------
 #t hf aug-cc-pvdz symm=none int=(grid=ultrafine) guess=(read,tcheck) s
 table=(opt,rrhf)
 ----------------------------------------------------------------------
 -----
 title
 -----
 Symbolic Z-matrix:
 Charge =  0 Multiplicity = 1

 SCF Done:  E(RHF) =  -428.560667803     A.U. after   14 cycles
 Normal termination of Gaussian 16 at Tue Apr  8 21:38:44 2025.
 Gaussian 16:  ES64L-G16RevC.01  3-Jul-2019

 ----------------------------------------------------------------------
 #t hf aug-cc-pvdz iop(5/13=1,5/36=2,99/5=2) pseudo=read geom=check gue
 ss=(read,tcheck) scf=(maxcycle=1)
 ----------------------------------------------------------------------
 -----
 title
 -----
 Structure from the checkpoint file:  "ANI1ccx_419_conf8_mol1.chk"
 Charge =  0 Multiplicity = 1

                         Standard orientation:
 ---------------------------------------------------------------------
 Center     Atomic      Atomic             Coordinates (Angstroms)
 Number     Number       Type             X           Y           Z
 ---------------------------------------------------------------------
      1          6           0       -0.165707   -0.257683    0.022282
      2          1           0        1.943241    0.941385    0.003841
      3          1           0       -0.701337    1.679730   -0.180430
      4          1           0       -1.555282   -1.606589   -0.096038
      5          1           0       -3.165920    0.227830    0.430420
      6          1           0        2.569478   -1.566044    0.191994
      7          7           0        0.083177    1.083469   -0.298237
      8          7           0       -1.449241   -0.677490    0.394206
      9          7           0        0.683819   -1.244922   -0.039407
     10          8           0        1.217922    1.638978    0.269971
     11          8           0       -2.393860    0.152601   -0.239814
     12          8           0        2.010909   -0.823780   -0.140084
 ---------------------------------------------------------------------

 SCF Done:  E(RHF) =  -428.987949120     A.U. after    2 cycles

 The electronic state is 1-A.
 Alpha  occ. eigenvalues --  -20.61613 -20.59687 -20.58201 -15.59601 -15.57019
 Alpha  occ. eigenvalues --  -15.54195 -11.36301  -1.52417  -1.51092  -1.48559
 Alpha  occ. eigenvalues --   -1.25322  -1.13099  -1.09821  -0.85442  -0.79585
 Alpha  occ. eigenvalues --   -0.76032  -0.72219  -0.69878  -0.67888  -0.65909
 Alpha  occ. eigenvalues --   -0.64411  -0.61919  -0.56222  -0.53125  -0.50926
 Alpha  occ. eigenvalues --   -0.47049  -0.43441  -0.38017
 Alpha virt. eigenvalues --    0.02995   0.04595   0.05380   0.05874   0.07059
 Alpha virt. eigenvalues --    0.10886   0.11947   0.12473   0.13842   0.14339
 Alpha virt. eigenvalues --    0.15321   0.16318   0.17256   0.18035   0.18598

 Mulliken charges:
               1
     1  C   -1.364489
     2  H    0.523606
     3  H    0.143847
     4  H    0.342615
     5  H    0.401673
     6  H    0.349556
     7  N    1.072696
     8  N    1.017776
     9  N    1.222987
    10  O   -1.201234
    11  O   -1.228890
    12  O   -1.280144
 Sum of Mulliken charges =  -0.00000

 Dipole moment (field-independent basis, Debye):
    X=             -1.6870    Y=             -0.7814    Z=              0.8519  Tot=              2.0450

 Test job not archived.
 1\1\GINC-SE099\SP\RHF\Aug-CC-pVDZ\C1H5N3O3\OHZDE\08-Apr-2025\0\\#t hf
 aug-cc-pvdz iop(5/13=1,5/36=2,99/5=2) pseudo=read geom=check guess=(re
 ad,tcheck) scf=(maxcycle=1)\\title\\0,1\C,0,-0.165707,-0.257683,0.0222
 815\H,0,1.94324,0.941388,0.003841\H,0,-0.701339,1.67973,-0.18043\H,0,-
 1.55528,-1.60659,-0.0960385\H,0,-3.16592,0.227826,0.43042\H,0,2.56948,
 -1.56604,0.191994\N,0,0.0831758,1.08347,-0.298237\N,0,-1.44924,-0.6774
 91,0.394206\N,0,0.68382,-1.24492,-0.0394068\O,0,1.21792,1.63898,0.2699
 71\O,0,-2.39386,0.152598,-0.239814\O,0,2.01091,-0.823777,-0.140084\\Ve

 Normal termination of Gaussian 16 at Tue Apr  8 21:38:49 2025.
