 Gaussian 16, Revision C.01,

 ----------------------------------------------------------------------
 #t hf aug-cc-pvdz symm=none int=(grid=ultrafine) guess=(read,tcheck) s
 table=(opt,rrhf)
 ----------------------------------------------------------------------
 -----
 title
 -----
 Symbolic Z-matrix:
 Charge =  0 Multiplicity = 1

 SCF Done:  E(RHF) =  -509.541782453     A.U. after   14 cycles
 Normal termination of Gaussian 16 at Tue Apr  8 22:11:30 2025.
 Gaussian 16:  ES64L-G16RevC.01  3-Jul-2019

 ----------------------------------------------------------------------
 #t hf aug-cc-pvdz iop(5/13=1,5/36=2,99/5=2) pseudo=read geom=check gue
 ss=(read,tcheck) scf=(maxcycle=1)
 ----------------------------------------------------------------------
 -----
 title
 -----
 Structure from the checkpoint file:  "ANI1ccx_939_conf24_mol1.chk"
 Charge =  0 Multiplicity = 1

                         Standard orientation:
 ---------------------------------------------------------------------
 Center     Atomic      Atomic             Coordinates (Angstroms)
 Number     Number       Type             X           Y           Z
 ---------------------------------------------------------------------
      1          6           0       -0.790633    0.674891   -0.657505
      2          6           0       -1.259521   -0.654364   -0.078229
      3          6           0        0.760731    0.857968   -0.862910
      4          6           0        1.641809    0.072065    0.116589
      5          1           0       -1.933711    2.396900   -0.354139
      6          1           0       -1.722541    1.348400    0.900052
      7          1           0       -1.232101    0.705843   -1.648260
      8          1           0        1.097049    0.557124   -1.844220
      9          1           0        0.931789    1.876771   -0.641122
     10          1           0        1.837779   -0.417409    1.956830
     11          1           0       -1.090360   -2.583160   -0.349324
     12          7           0       -1.241521    1.780460    0.137100
     13          8           0       -2.134141   -0.693564    0.808099
     14          8           0        2.635369   -0.515085   -0.310561
     15          8           0        1.283619    0.182067    1.402300
     16          8           0       -0.698795   -1.729800   -0.660740
 ---------------------------------------------------------------------

 SCF Done:  E(RHF) =  -510.048601046     A.U. after    2 cycles

 The electronic state is 1-A.
 Alpha  occ. eigenvalues --  -20.62901 -20.61595 -20.55536 -20.53662 -15.49436
 Alpha  occ. eigenvalues --  -11.42007 -11.40126 -11.30404 -11.25894  -1.55792
 Alpha  occ. eigenvalues --   -1.54909  -1.45495  -1.44437  -1.21507  -1.05328
 Alpha  occ. eigenvalues --   -0.96116  -0.85821  -0.81657  -0.75177  -0.72583
 Alpha  occ. eigenvalues --   -0.71548  -0.69582  -0.66794  -0.65748  -0.63948
 Alpha  occ. eigenvalues --   -0.61399  -0.58969  -0.57496  -0.56356  -0.54510
 Alpha  occ. eigenvalues --   -0.48852  -0.47190  -0.46491  -0.45739  -0.42753
 Alpha virt. eigenvalues --    0.03013   0.03552   0.04141   0.05047   0.05620
 Alpha virt. eigenvalues --    0.06796   0.07357   0.09302   0.10474   0.11933
 Alpha virt. eigenvalues --    0.12370   0.13076   0.13582   0.13853   0.14582

 Mulliken charges:
               1
     1  C   -1.791045
     2  C    2.681545
     3  C   -0.315374
     4  C    2.312379
     5  H    0.239341
     6  H    0.211964
     7  H    0.188641
     8  H    0.134060
     9  H    0.267056
    10  H    0.372877
    11  H    0.398073
    12  N    0.580442
    13  O   -1.342063
    14  O   -1.291074
    15  O   -1.276653
    16  O   -1.370168
 Sum of Mulliken charges =  -0.00000

 Dipole moment (field-independent basis, Debye):
    X=             -1.7122    Y=             -0.3623    Z=             -0.9069  Tot=              1.9712

 Test job not archived.
 1\1\GINC-SE179\SP\RHF\Aug-CC-pVDZ\C4H7N1O4\OHZDE\08-Apr-2025\0\\#t hf
 aug-cc-pvdz iop(5/13=1,5/36=2,99/5=2) pseudo=read geom=check guess=(re
 ad,tcheck) scf=(maxcycle=1)\\title\\0,1\C,0,-0.790632,0.674891,-0.6575
 05\C,0,-1.25952,-0.654364,-0.0782296\C,0,0.760732,0.857967,-0.86291\C,
 0,1.64181,0.0720646,0.116589\H,0,-1.93371,2.3969,-0.354139\H,0,-1.7225
 4,1.3484,0.900052\H,0,-1.2321,0.705843,-1.64826\H,0,1.09705,0.557123,-
 1.84422\H,0,0.93179,1.87677,-0.641122\H,0,1.83778,-0.41741,1.95683\H,0
 ,-1.09036,-2.58316,-0.349324\N,0,-1.24152,1.78046,0.1371\O,0,-2.13414,

 Normal termination of Gaussian 16 at Tue Apr  8 22:11:38 2025.
