 Gaussian 16, Revision C.01,

 ----------------------------------------------------------------------
 #t hf aug-cc-pvdz symm=none int=(grid=ultrafine) guess=(read,tcheck) s
 table=(opt,rrhf)
 ----------------------------------------------------------------------
 -----
 title
 -----
 Symbolic Z-matrix:
 Charge =  0 Multiplicity = 1

 SCF Done:  E(RHF) =  -577.551345642     A.U. after   15 cycles
 Normal termination of Gaussian 16 at Tue Apr  8 22:13:47 2025.
 Gaussian 16:  ES64L-G16RevC.01  3-Jul-2019

 ----------------------------------------------------------------------
 #t hf aug-cc-pvdz iop(5/13=1,5/36=2,99/5=2) pseudo=read geom=check gue
 ss=(read,tcheck) scf=(maxcycle=1)
 ----------------------------------------------------------------------
 -----
 title
 -----
 Structure from the checkpoint file:  "ANI1ccx_949_conf1_mol2.chk"
 Charge =  0 Multiplicity = 1

                         Standard orientation:
 ---------------------------------------------------------------------
 Center     Atomic      Atomic             Coordinates (Angstroms)
 Number     Number       Type             X           Y           Z
 ---------------------------------------------------------------------
      1          6           0        1.375100    0.747891    0.017347
      2          6           0        1.631490   -1.411351   -0.106935
      3          6           0       -1.520450   -1.048170    0.667774
      4          6           0       -2.144390   -0.096354   -0.333183
      5          1           0       -2.429220    1.696020   -0.649914
      6          1           0       -1.362890   -2.015740    0.178859
      7          1           0       -0.063398   -0.992410    2.116160
      8          1           0       -2.249800   -1.142420    1.462830
      9          1           0        1.566641    2.690129    0.285488
     10          1           0        0.211699    2.002839    1.067020
     11          1           0        1.433170   -2.478191    0.083735
     12          7           0        0.850671    1.966559    0.301483
     13          7           0        2.459960    0.523477   -0.695390
     14          7           0        2.606780   -0.842138   -0.729214
     15          7           0        0.791101   -0.429579    0.420809
     16          7           0       -0.301195   -0.488225    1.283170
     17          8           0       -2.019770    1.196960    0.058884
     18          8           0       -2.731220   -0.449832   -1.318910
 ---------------------------------------------------------------------

 SCF Done:  E(RHF) =  -578.129880123     A.U. after    2 cycles

 The electronic state is 1-A.
 Alpha  occ. eigenvalues --  -20.61896 -20.56285 -15.59395 -15.58555 -15.52575
 Alpha  occ. eigenvalues --  -15.51879 -15.49754 -11.41813 -11.34378 -11.32024
 Alpha  occ. eigenvalues --  -11.30568  -1.56976  -1.47814  -1.40887  -1.31197
 Alpha  occ. eigenvalues --   -1.24318  -1.16004  -1.08856  -1.02730  -0.90181
 Alpha  occ. eigenvalues --   -0.86954  -0.84270  -0.81195  -0.76372  -0.73771
 Alpha  occ. eigenvalues --   -0.73147  -0.72204  -0.69075  -0.67300  -0.65791
 Alpha  occ. eigenvalues --   -0.64879  -0.61689  -0.59944  -0.53879  -0.53265
 Alpha  occ. eigenvalues --   -0.51666  -0.49680  -0.47567  -0.46779  -0.45910
 Alpha  occ. eigenvalues --   -0.36258
 Alpha virt. eigenvalues --    0.02007   0.03312   0.03794   0.04124   0.04573
 Alpha virt. eigenvalues --    0.06344   0.06728   0.07699   0.09709   0.10788
 Alpha virt. eigenvalues --    0.11141   0.12071   0.12360   0.12676   0.13598

 Mulliken charges:
               1
     1  C   -1.501737
     2  C   -0.245478
     3  C   -0.785815
     4  C    2.207782
     5  H    0.421523
     6  H    0.111623
     7  H    0.191696
     8  H    0.175553
     9  H    0.227584
    10  H    0.195167
    11  H   -0.058746
    12  N    0.584203
    13  N    0.214078
    14  N    0.175237
    15  N    1.117210
    16  N   -0.429056
    17  O   -1.353580
    18  O   -1.247242
 Sum of Mulliken charges =  -0.00000

 Dipole moment (field-independent basis, Debye):
    X=             -4.4830    Y=             -0.1862    Z=              5.8215  Tot=              7.3500

 Test job not archived.
 1\1\GINC-SE252\SP\RHF\Aug-CC-pVDZ\C4H7N5O2\OHZDE\08-Apr-2025\0\\#t hf
 aug-cc-pvdz iop(5/13=1,5/36=2,99/5=2) pseudo=read geom=check guess=(re
 ad,tcheck) scf=(maxcycle=1)\\title\\0,1\C,0,1.3751,0.747892,0.017347\C
 ,0,1.63149,-1.41135,-0.106935\C,0,-1.52045,-1.04817,0.667774\C,0,-2.14
 439,-0.0963539,-0.333183\H,0,-2.42922,1.69602,-0.649914\H,0,-1.36289,-
 2.01574,0.178859\H,0,-0.063398,-0.992409,2.11616\H,0,-2.2498,-1.14242,
 1.46283\H,0,1.56664,2.69013,0.285488\H,0,0.211699,2.00284,1.06702\H,0,
 1.43317,-2.47819,0.0837352\N,0,0.850671,1.96656,0.301483\N,0,2.45996,0

 Normal termination of Gaussian 16 at Tue Apr  8 22:13:58 2025.
