 Gaussian 16, Revision C.01,

 ----------------------------------------------------------------------
 #t hf aug-cc-pvdz symm=none int=(grid=ultrafine) guess=(read,tcheck) s
 table=(opt,rrhf)
 ----------------------------------------------------------------------
 -----
 title
 -----
 Symbolic Z-matrix:
 Charge =  0 Multiplicity = 1

 SCF Done:  E(RHF) =  -700.889968203     A.U. after   14 cycles
 Normal termination of Gaussian 16 at Tue Apr  8 20:31:53 2025.
 Gaussian 16:  ES64L-G16RevC.01  3-Jul-2019

 ----------------------------------------------------------------------
 #t hf aug-cc-pvdz iop(5/13=1,5/36=2,99/5=2) pseudo=read geom=check gue
 ss=(read,tcheck) scf=(maxcycle=1)
 ----------------------------------------------------------------------
 -----
 title
 -----
 Structure from the checkpoint file:  "ANI1ccx_1633_conf1_mol1.chk"
 Charge =  0 Multiplicity = 1

                         Standard orientation:
 ---------------------------------------------------------------------
 Center     Atomic      Atomic             Coordinates (Angstroms)
 Number     Number       Type             X           Y           Z
 ---------------------------------------------------------------------
      1          6           0        0.388622    0.832218    0.591115
      2          6           0       -0.969786    0.958510   -0.089449
      3          6           0        1.479721    0.921456   -0.486526
      4          6           0        2.925491    1.193820   -0.011570
      5          6           0        3.651401    0.076355    0.771085
      6          6           0        3.729491   -1.295070    0.084972
      7          6           0       -2.763719   -0.190438   -1.137080
      8          6           0       -3.748999   -0.643160   -0.082503
      9          1           0       -3.768269   -1.174439    1.672390
     10          1           0       -3.046499    0.830981   -1.403300
     11          1           0       -2.830869   -0.733946   -2.059820
     12          1           0       -1.030139   -1.074040   -0.314703
     13          1           0        4.594351   -2.128480   -1.564240
     14          1           0        4.011741   -0.664744   -1.814220
     15          1           0        4.126561   -2.014640    0.757134
     16          1           0        2.708221   -1.604400   -0.179547
     17          1           0        3.263141    0.002877    1.796890
     18          1           0        3.495721    1.486260   -0.868849
     19          1           0        2.882661    2.022340    0.679069
     20          1           0        1.474521    0.125311   -1.227280
     21          1           0        1.240331    1.782420   -1.107770
     22          1           0        0.444363    1.740610    1.230570
     23          1           0        1.334501   -0.448748    1.847390
     24          1           0       -0.357418   -0.611773    1.943980
     25          1           0        4.681871    0.406142    0.975099
     26          7           0        0.451371   -0.403739    1.348960
     27          7           0        4.550211   -1.203830   -1.123050
     28          7           0       -1.404379   -0.171407   -0.676690
     29          8           0       -4.922149   -0.769336   -0.324037
     30          8           0       -1.525629    2.029510   -0.157769
     31          8           0       -3.122039   -0.836554    1.100860
 ---------------------------------------------------------------------

 SCF Done:  E(RHF) =  -701.612920169     A.U. after    2 cycles

 The electronic state is 1-A.
 Alpha  occ. eigenvalues --  -20.62200 -20.55257 -20.51354 -15.53121 -15.50263
 Alpha  occ. eigenvalues --  -15.49107 -11.40942 -11.35107 -11.28761 -11.27937
 Alpha  occ. eigenvalues --  -11.25458 -11.23911 -11.23475 -11.23409  -1.57304
 Alpha  occ. eigenvalues --   -1.47604  -1.47043  -1.26376  -1.20114  -1.18560
 Alpha  occ. eigenvalues --   -1.07415  -1.03752  -0.99941  -0.93226  -0.87444
 Alpha  occ. eigenvalues --   -0.85388  -0.82586  -0.78668  -0.75772  -0.73419
 Alpha  occ. eigenvalues --   -0.72152  -0.70254  -0.69064  -0.67637  -0.66082
 Alpha  occ. eigenvalues --   -0.65602  -0.64533  -0.61908  -0.61214  -0.60312
 Alpha  occ. eigenvalues --   -0.60005  -0.57673  -0.56847  -0.56255  -0.54570
 Alpha  occ. eigenvalues --   -0.53704  -0.49742  -0.49054  -0.48551  -0.47587
 Alpha  occ. eigenvalues --   -0.46990  -0.43993  -0.42840  -0.42491  -0.41873
 Alpha virt. eigenvalues --    0.02672   0.02930   0.03483   0.03930   0.04051
 Alpha virt. eigenvalues --    0.05012   0.05262   0.05418   0.06033   0.07163
 Alpha virt. eigenvalues --    0.07414   0.07899   0.08130   0.08713   0.09908

 Mulliken charges:
               1
     1  C   -1.301200
     2  C    0.689776
     3  C    0.034091
     4  C   -0.339841
     5  C   -0.356676
     6  C   -0.615839
     7  C   -0.840214
     8  C    2.257484
     9  H    0.416129
    10  H    0.235295
    11  H    0.082005
    12  H    0.342536
    13  H    0.187744
    14  H    0.124075
    15  H   -0.071931
    16  H    0.192302
    17  H    0.104139
    18  H    0.124243
    19  H    0.172032
    20  H    0.105620
    21  H    0.186910
    22  H    0.102718
    23  H   -0.014199
    24  H    0.202751
    25  H    0.153390
    26  N    0.644665
    27  N    0.288067
    28  N    1.046886
    29  O   -1.298482
    30  O   -1.521649
    31  O   -1.332827
 Sum of Mulliken charges =   0.00000

 Dipole moment (field-independent basis, Debye):
    X=              1.6976    Y=             -3.0791    Z=              1.5041  Tot=              3.8242

 Test job not archived.
 1\1\GINC-SE051\SP\RHF\Aug-CC-pVDZ\C8H17N3O3\OHZDE\08-Apr-2025\0\\#t hf
  aug-cc-pvdz iop(5/13=1,5/36=2,99/5=2) pseudo=read geom=check guess=(r
 ead,tcheck) scf=(maxcycle=1)\\title\\0,1\C,0,0.388621,0.832218,0.59111
 5\C,0,-0.969787,0.95851,-0.0894489\C,0,1.47972,0.921456,-0.486526\C,0,
 2.92549,1.19382,-0.0115695\C,0,3.6514,0.0763555,0.771085\C,0,3.72949,-
 1.29507,0.0849726\C,0,-2.76372,-0.190439,-1.13708\C,0,-3.749,-0.643161
 ,-0.0825024\H,0,-3.76827,-1.17444,1.67239\H,0,-3.0465,0.83098,-1.4033\
 H,0,-2.83087,-0.733947,-2.05982\H,0,-1.03014,-1.07404,-0.314703\H,0,4.

 Normal termination of Gaussian 16 at Tue Apr  8 20:32:28 2025.
