 Gaussian 16, Revision C.01,

 ----------------------------------------------------------------------
 #t hf aug-cc-pvdz symm=none int=(grid=ultrafine) guess=(read,tcheck) s
 table=(opt,rrhf)
 ----------------------------------------------------------------------
 -----
 title
 -----
 Symbolic Z-matrix:
 Charge =  0 Multiplicity = 1

 SCF Done:  E(RHF) =  -848.840395353     A.U. after   15 cycles
 Normal termination of Gaussian 16 at Tue Apr  8 21:24:42 2025.
 Gaussian 16:  ES64L-G16RevC.01  3-Jul-2019

 ----------------------------------------------------------------------
 #t hf aug-cc-pvdz iop(5/13=1,5/36=2,99/5=2) pseudo=read geom=check gue
 ss=(read,tcheck) scf=(maxcycle=1)
 ----------------------------------------------------------------------
 -----
 title
 -----
 Structure from the checkpoint file:  "ANI1ccx_1786_conf16_mol2.chk"
 Charge =  0 Multiplicity = 1

                         Standard orientation:
 ---------------------------------------------------------------------
 Center     Atomic      Atomic             Coordinates (Angstroms)
 Number     Number       Type             X           Y           Z
 ---------------------------------------------------------------------
      1          6           0        2.121467   -1.259247    0.554035
      2          6           0       -2.192612   -0.794526   -0.641181
      3          6           0       -1.688674   -1.515666    0.653464
      4          6           0       -0.392604    2.500040    0.051130
      5          6           0       -2.539503   -1.180603    1.866190
      6          6           0        2.609124    1.284641   -0.051785
      7          6           0        2.392651    0.220285    1.059650
      8          6           0        0.712855   -1.656693    0.182273
      9          6           0        1.509815    1.447565   -1.083230
     10          1           0       -2.366954    1.902936   -0.465872
     11          1           0       -0.923605   -1.941998   -1.475060
     12          1           0       -2.152164   -1.639355    2.796030
     13          1           0       -3.601264   -1.429370    1.777760
     14          1           0       -2.452910   -0.099970    2.036420
     15          1           0       -1.674527   -2.601686    0.498657
     16          1           0       -0.159401   -0.116281    1.049740
     17          1           0       -2.070700    3.429685    0.201081
     18          1           0        1.062629    3.037036    1.188830
     19          1           0        1.657067    2.336864   -1.748380
     20          1           0        3.995835   -1.653243   -0.117458
     21          1           0        1.622482    0.560459   -1.748180
     22          1           0        3.556544    1.130909   -0.609642
     23          1           0        2.719937    2.287561    0.423889
     24          1           0        1.630352    0.541868    1.786620
     25          1           0        3.363761    0.172132    1.592340
     26          1           0        2.380555   -1.926238    1.417970
     27          1           0        2.754193   -2.493769   -0.899435
     28          1           0       -0.471649    1.029980   -1.327420
     29          7           0        3.057846   -1.608180   -0.516845
     30          7           0        0.131324    1.401759   -0.598530
     31          7           0        0.108882    3.286599    0.916872
     32          7           0       -1.706012    2.692014   -0.382508
     33          7           0       -0.283479   -1.123540    0.949065
     34          8           0       -2.985569    0.119201   -0.629212
     35          8           0        0.444061   -2.509252   -0.688130
     36          8           0       -1.611643   -1.277806   -1.744850
 ---------------------------------------------------------------------

 SCF Done:  E(RHF) =  -849.709086526     A.U. after    2 cycles

 The electronic state is 1-A.
 Alpha  occ. eigenvalues --  -20.59695 -20.55824 -20.55272 -15.55494 -15.51937
 Alpha  occ. eigenvalues --  -15.50768 -15.48729 -15.45707 -11.41077 -11.39946
 Alpha  occ. eigenvalues --  -11.34095 -11.31665 -11.31018 -11.27987 -11.27338
 Alpha  occ. eigenvalues --  -11.25424 -11.25040  -1.55070  -1.49857  -1.46705
 Alpha  occ. eigenvalues --   -1.29817  -1.27442  -1.21445  -1.18589  -1.13773
 Alpha  occ. eigenvalues --   -1.08149  -1.06684  -0.99568  -0.93906  -0.91138
 Alpha  occ. eigenvalues --   -0.86122  -0.83361  -0.82731  -0.80098  -0.78108
 Alpha  occ. eigenvalues --   -0.76339  -0.75044  -0.71785  -0.70997  -0.69846
 Alpha  occ. eigenvalues --   -0.68534  -0.68385  -0.66627  -0.65127  -0.63516
 Alpha  occ. eigenvalues --   -0.62834  -0.62737  -0.61230  -0.60162  -0.58906
 Alpha  occ. eigenvalues --   -0.57637  -0.57288  -0.55249  -0.54812  -0.53521
 Alpha  occ. eigenvalues --   -0.52734  -0.51970  -0.50214  -0.49497  -0.48168
 Alpha  occ. eigenvalues --   -0.46919  -0.45957  -0.44959  -0.43999  -0.43407
 Alpha  occ. eigenvalues --   -0.40267
 Alpha virt. eigenvalues --    0.02148   0.02963   0.03452   0.03650   0.04008
 Alpha virt. eigenvalues --    0.04834   0.04923   0.05629   0.05898   0.07050
 Alpha virt. eigenvalues --    0.07432   0.07972   0.08219   0.08483   0.08648

 Mulliken charges:
               1
     1  C   -1.550390
     2  C    2.547210
     3  C   -1.230470
     4  C   -3.832293
     5  C    0.010657
     6  C   -0.175820
     7  C   -0.003927
     8  C    0.024167
     9  C   -1.045531
    10  H    0.093703
    11  H    0.665363
    12  H    0.204589
    13  H    0.110638
    14  H    0.168744
    15  H   -0.002999
    16  H    0.393424
    17  H    0.208344
    18  H    0.120586
    19  H    0.108698
    20  H    0.256158
    21  H    0.248132
    22  H    0.214223
    23  H    0.237624
    24  H    0.192530
    25  H    0.158035
    26  H    0.314259
    27  H    0.266042
    28  H    0.233400
    29  N    0.498938
    30  N    0.707643
    31  N    1.495408
    32  N    1.084433
    33  N    1.982777
    34  O   -1.548835
    35  O   -1.673657
    36  O   -1.481803
 Sum of Mulliken charges =  -0.00000

 Dipole moment (field-independent basis, Debye):
    X=              3.6397    Y=             -4.1239    Z=              2.4671  Tot=              6.0283

 Test job not archived.
 1\1\GINC-SE105\SP\RHF\Aug-CC-pVDZ\C9H19N5O3\OHZDE\08-Apr-2025\0\\#t hf
  aug-cc-pvdz iop(5/13=1,5/36=2,99/5=2) pseudo=read geom=check guess=(r
 ead,tcheck) scf=(maxcycle=1)\\title\\0,1\C,0,2.12147,-1.25924,0.554035
 \C,0,-2.19261,-0.794531,-0.641181\C,0,-1.68867,-1.51567,0.653464\C,0,-
 0.392612,2.50004,0.0511304\C,0,-2.5395,-1.18061,1.86619\C,0,2.60912,1.
 28465,-0.0517852\C,0,2.39265,0.220293,1.05965\C,0,0.71286,-1.65669,0.1
 82273\C,0,1.50981,1.44757,-1.08323\H,0,-2.36696,1.90293,-0.465872\H,0,
 -0.9236,-1.942,-1.47506\H,0,-2.15216,-1.63936,2.79603\H,0,-3.60126,-1.

 Normal termination of Gaussian 16 at Tue Apr  8 21:25:47 2025.
