 Gaussian 16, Revision C.01,

 ----------------------------------------------------------------------
 #t hf aug-cc-pvdz symm=none int=(grid=ultrafine) guess=(read,tcheck) s
 table=(opt,rrhf)
 ----------------------------------------------------------------------
 -----
 title
 -----
 Symbolic Z-matrix:
 Charge =  0 Multiplicity = 1

 SCF Done:  E(RHF) =  -311.842414843     A.U. after   15 cycles
 Normal termination of Gaussian 16 at Tue Apr  8 21:35:42 2025.
 Gaussian 16:  ES64L-G16RevC.01  3-Jul-2019

 ----------------------------------------------------------------------
 #t hf aug-cc-pvdz iop(5/13=1,5/36=2,99/5=2) pseudo=read geom=check gue
 ss=(read,tcheck) scf=(maxcycle=1)
 ----------------------------------------------------------------------
 -----
 title
 -----
 Structure from the checkpoint file:  "ANI1ccx_392_conf8_mol1.chk"
 Charge =  0 Multiplicity = 1

                         Standard orientation:
 ---------------------------------------------------------------------
 Center     Atomic      Atomic             Coordinates (Angstroms)
 Number     Number       Type             X           Y           Z
 ---------------------------------------------------------------------
      1          6           0       -0.599607   -0.007777   -0.059708
      2          1           0       -2.431761    0.852502    0.089530
      3          1           0       -2.496320   -0.843912   -0.018596
      4          1           0        2.122720   -1.084378    0.036196
      5          7           0       -1.967970   -0.027995    0.049716
      6          7           0        0.113897    1.107791   -0.032843
      7          7           0        1.344929    0.738891    0.009423
      8          7           0        1.297450   -0.551098    0.060206
      9          7           0        0.126408   -1.107239   -0.050627
 ---------------------------------------------------------------------

 SCF Done:  E(RHF) =  -312.164872358     A.U. after    2 cycles

 The electronic state is 1-A.
 Alpha  occ. eigenvalues --  -15.63464 -15.60622 -15.54415 -15.53193 -15.51770
 Alpha  occ. eigenvalues --  -11.33718  -1.52077  -1.29508  -1.26332  -1.17223
 Alpha  occ. eigenvalues --   -0.97964  -0.92901  -0.84753  -0.75888  -0.74763
 Alpha  occ. eigenvalues --   -0.71118  -0.63631  -0.55891  -0.55624  -0.52350
 Alpha  occ. eigenvalues --   -0.50530  -0.39660
 Alpha virt. eigenvalues --    0.02875   0.04608   0.05981   0.07749   0.09759
 Alpha virt. eigenvalues --    0.11696   0.11958   0.13189   0.13730   0.14148
 Alpha virt. eigenvalues --    0.15429   0.15943   0.17167   0.17451   0.20089

 Mulliken charges:
               1
     1  C   -1.129226
     2  H    0.099550
     3  H    0.041565
     4  H    0.060094
     5  N    0.535879
     6  N    0.203356
     7  N   -0.165437
     8  N    0.066473
     9  N    0.287746
 Sum of Mulliken charges =  -0.00000

 Dipole moment (field-independent basis, Debye):
    X=             -0.9608    Y=             -1.8327    Z=             -0.0426  Tot=              2.0698

 Test job not archived.
 1\1\GINC-SE127\SP\RHF\Aug-CC-pVDZ\C1H3N5\OHZDE\08-Apr-2025\0\\#t hf au
 g-cc-pvdz iop(5/13=1,5/36=2,99/5=2) pseudo=read geom=check guess=(read
 ,tcheck) scf=(maxcycle=1)\\title\\0,1\C,0,-0.599607,-0.00777748,-0.059
 7078\H,0,-2.43176,0.852503,0.0895299\H,0,-2.49632,-0.843911,-0.0185965
 \H,0,2.12272,-1.08438,0.0361955\N,0,-1.96797,-0.027994,0.0497157\N,0,0
 .113898,1.10779,-0.0328435\N,0,1.34493,0.73889,0.00942284\N,0,1.29745,
 -0.551099,0.0602058\N,0,0.126408,-1.10724,-0.0506269\\Version=ES64L-G1
 6RevC.01\State=1-A\HF=-312.1648724\RMSD=4.852e-02\Dipole=-0.3780099,-0

 Normal termination of Gaussian 16 at Tue Apr  8 21:35:46 2025.
