 Gaussian 16, Revision C.01,

 ----------------------------------------------------------------------
 #t hf aug-cc-pvdz symm=none int=(grid=ultrafine) guess=(read,tcheck) s
 table=(opt,rrhf)
 ----------------------------------------------------------------------
 -----
 title
 -----
 Symbolic Z-matrix:
 Charge =  0 Multiplicity = 1

 SCF Done:  E(RHF) =  -428.573321641     A.U. after   13 cycles
 Normal termination of Gaussian 16 at Tue Apr  8 21:37:52 2025.
 Gaussian 16:  ES64L-G16RevC.01  3-Jul-2019

 ----------------------------------------------------------------------
 #t hf aug-cc-pvdz iop(5/13=1,5/36=2,99/5=2) pseudo=read geom=check gue
 ss=(read,tcheck) scf=(maxcycle=1)
 ----------------------------------------------------------------------
 -----
 title
 -----
 Structure from the checkpoint file:  "ANI1ccx_419_conf4_mol1.chk"
 Charge =  0 Multiplicity = 1

                         Standard orientation:
 ---------------------------------------------------------------------
 Center     Atomic      Atomic             Coordinates (Angstroms)
 Number     Number       Type             X           Y           Z
 ---------------------------------------------------------------------
      1          6           0       -0.144894   -0.239737    0.165206
      2          1           0        2.021970    1.156519   -0.150035
      3          1           0       -0.577462    1.689879   -0.252850
      4          1           0       -1.667729   -1.529011    0.182178
      5          1           0       -2.946530    0.595242    0.207425
      6          1           0        2.424871   -1.750911   -0.141078
      7          7           0        0.205937    1.024399   -0.314365
      8          7           0       -1.506359   -0.542002    0.492646
      9          7           0        0.608856   -1.276151    0.121322
     10          8           0        1.294170    1.638439    0.326800
     11          8           0       -2.349310    0.152986   -0.404767
     12          8           0        1.862041   -0.937304   -0.288794
 ---------------------------------------------------------------------

 SCF Done:  E(RHF) =  -429.001455175     A.U. after    2 cycles

 The electronic state is 1-A.
 Alpha  occ. eigenvalues --  -20.60622 -20.59527 -20.59338 -15.58592 -15.57541
 Alpha  occ. eigenvalues --  -15.54842 -11.35043  -1.53035  -1.51892  -1.49665
 Alpha  occ. eigenvalues --   -1.24886  -1.12980  -1.09849  -0.84275  -0.79493
 Alpha  occ. eigenvalues --   -0.75186  -0.72943  -0.69399  -0.68215  -0.65922
 Alpha  occ. eigenvalues --   -0.64906  -0.63033  -0.54772  -0.52115  -0.51160
 Alpha  occ. eigenvalues --   -0.48060  -0.45359  -0.38308
 Alpha virt. eigenvalues --    0.03225   0.04715   0.05521   0.05804   0.06673
 Alpha virt. eigenvalues --    0.10885   0.12284   0.12411   0.12797   0.14696
 Alpha virt. eigenvalues --    0.15140   0.16615   0.16817   0.17885   0.19036

 Mulliken charges:
               1
     1  C   -1.454044
     2  H    0.399246
     3  H    0.191317
     4  H    0.311150
     5  H    0.311303
     6  H    0.341357
     7  N    1.105238
     8  N    0.992466
     9  N    1.362618
    10  O   -1.164441
    11  O   -1.121964
    12  O   -1.274247
 Sum of Mulliken charges =  -0.00000

 Dipole moment (field-independent basis, Debye):
    X=             -0.7795    Y=             -0.0433    Z=              0.1491  Tot=              0.7948

 Test job not archived.
 1\1\GINC-SE458\SP\RHF\Aug-CC-pVDZ\C1H5N3O3\OHZDE\08-Apr-2025\0\\#t hf
 aug-cc-pvdz iop(5/13=1,5/36=2,99/5=2) pseudo=read geom=check guess=(re
 ad,tcheck) scf=(maxcycle=1)\\title\\0,1\C,0,-0.144895,-0.239736,0.1652
 06\H,0,2.02197,1.15652,-0.150035\H,0,-0.577462,1.68988,-0.25285\H,0,-1
 .66773,-1.52901,0.182178\H,0,-2.94653,0.595243,0.207425\H,0,2.42487,-1
 .75091,-0.141078\N,0,0.205937,1.0244,-0.314365\N,0,-1.50636,-0.542001,
 0.492646\N,0,0.608855,-1.27615,0.121322\O,0,1.29417,1.63844,0.3268\O,0
 ,-2.34931,0.152987,-0.404767\O,0,1.86204,-0.937303,-0.288794\\Version=

 Normal termination of Gaussian 16 at Tue Apr  8 21:37:56 2025.
