 Gaussian 16, Revision C.01,

 ----------------------------------------------------------------------
 #t hf aug-cc-pvdz symm=none int=(grid=ultrafine) guess=(read,tcheck) s
 table=(opt,rrhf)
 ----------------------------------------------------------------------
 -----
 title
 -----
 Symbolic Z-matrix:
 Charge =  0 Multiplicity = 1

 SCF Done:  E(RHF) =  -785.608324492     A.U. after   14 cycles
 Normal termination of Gaussian 16 at Tue Apr  8 19:27:52 2025.
 Gaussian 16:  ES64L-G16RevC.01  3-Jul-2019

 ----------------------------------------------------------------------
 #t hf aug-cc-pvdz iop(5/13=1,5/36=2,99/5=2) pseudo=read geom=check gue
 ss=(read,tcheck) scf=(maxcycle=1)
 ----------------------------------------------------------------------
 -----
 title
 -----
 Structure from the checkpoint file:  "ANI1ccx_1221_conf10_mol1.chk"
 Charge =  0 Multiplicity = 1

                         Standard orientation:
 ---------------------------------------------------------------------
 Center     Atomic      Atomic             Coordinates (Angstroms)
 Number     Number       Type             X           Y           Z
 ---------------------------------------------------------------------
      1          6           0        1.562849    2.766671    0.248767
      2          6           0       -0.017490    0.956415    0.015912
      3          6           0       -1.499540   -0.705854   -0.265383
      4          6           0       -3.918680   -0.229006   -0.255403
      5          6           0        0.697171   -1.214289   -0.213274
      6          6           0        3.071331   -1.792388   -0.056313
      7          1           0        2.719880   -0.510628    1.409041
      8          1           0        3.750821   -2.652288   -0.182833
      9          1           0        3.459451   -1.032968   -0.755217
     10          1           0        1.512112   -2.995519   -0.930617
     11          1           0       -4.797420   -0.814202   -0.593382
     12          1           0       -3.288140    0.887642    1.154881
     13          1           0       -3.000509   -2.097231   -0.394309
     14          1           0       -0.428336    2.818510   -0.306353
     15          1           0        1.436418    3.827591    0.535891
     16          1           0        2.184599    2.253282    0.997928
     17          1           0        2.301879    1.666532   -1.101059
     18          1           0       -3.784850    0.646781   -0.939270
     19          7           0        0.176303    2.274031    0.342033
     20          7           0       -1.349270    0.618086    0.058090
     21          7           0       -2.777779   -1.113911   -0.477185
     22          7           0       -0.535605   -1.628370   -0.429074
     23          7           0        1.705761   -2.147369   -0.311772
     24          7           0        1.030090    0.114349   -0.083859
     25          8           0       -4.040410    0.241033    1.083071
     26          8           0        2.102949    2.612692   -1.058689
     27          8           0        3.289181   -1.291788    1.297101
 ---------------------------------------------------------------------

 SCF Done:  E(RHF) =  -786.397477272     A.U. after    2 cycles

 The electronic state is 1-A.
 Alpha  occ. eigenvalues --  -20.55961 -20.55556 -20.55222 -15.54914 -15.53704
 Alpha  occ. eigenvalues --  -15.53391 -15.51347 -15.50762 -15.50013 -11.38973
 Alpha  occ. eigenvalues --  -11.38227 -11.38094 -11.34094 -11.33518 -11.33510
 Alpha  occ. eigenvalues --   -1.46508  -1.44853  -1.44494  -1.36627  -1.28551
 Alpha  occ. eigenvalues --   -1.28121  -1.22030  -1.18406  -1.17752  -0.99283
 Alpha  occ. eigenvalues --   -0.97021  -0.94413  -0.89416  -0.86457  -0.82703
 Alpha  occ. eigenvalues --   -0.79459  -0.75221  -0.72931  -0.72009  -0.70131
 Alpha  occ. eigenvalues --   -0.69481  -0.68642  -0.67184  -0.66307  -0.65602
 Alpha  occ. eigenvalues --   -0.64047  -0.62313  -0.61356  -0.59369  -0.57536
 Alpha  occ. eigenvalues --   -0.56337  -0.53763  -0.52292  -0.51279  -0.49479
 Alpha  occ. eigenvalues --   -0.48961  -0.47830  -0.47100  -0.46395  -0.45598
 Alpha  occ. eigenvalues --   -0.42778  -0.42284
 Alpha virt. eigenvalues --    0.02912   0.03571   0.03786   0.04235   0.04853
 Alpha virt. eigenvalues --    0.05082   0.05500   0.05989   0.06848   0.07647
 Alpha virt. eigenvalues --    0.08375   0.08716   0.09291   0.09439   0.10172

 Mulliken charges:
               1
     1  C    0.729720
     2  C   -1.545435
     3  C   -1.853550
     4  C    0.630881
     5  C   -1.603171
     6  C    0.685796
     7  H    0.467388
     8  H    0.015889
     9  H    0.171283
    10  H    0.225828
    11  H    0.042295
    12  H    0.476071
    13  H    0.183546
    14  H    0.424633
    15  H    0.064811
    16  H    0.190409
    17  H    0.463170
    18  H    0.236562
    19  N    0.534359
    20  N    0.507827
    21  N    0.700394
    22  N    1.151662
    23  N    0.595532
    24  N    0.045010
    25  O   -1.155514
    26  O   -1.184774
    27  O   -1.200622
 Sum of Mulliken charges =  -0.00000

 Dipole moment (field-independent basis, Debye):
    X=              0.1500    Y=             -0.8517    Z=             -2.6449  Tot=              2.7827

 Test job not archived.
 1\1\GINC-SE402\SP\RHF\Aug-CC-pVDZ\C6H12N6O3\OHZDE\08-Apr-2025\0\\#t hf
  aug-cc-pvdz iop(5/13=1,5/36=2,99/5=2) pseudo=read geom=check guess=(r
 ead,tcheck) scf=(maxcycle=1)\\title\\0,1\C,0,1.56285,2.76667,0.248766\
 C,0,-0.0174895,0.956414,0.0159111\C,0,-1.49954,-0.705854,-0.265384\C,0
 ,-3.91868,-0.229005,-0.255404\C,0,0.69717,-1.21429,-0.213275\C,0,3.071
 33,-1.79239,-0.0563135\H,0,2.71988,-0.51063,1.40904\H,0,3.75082,-2.652
 29,-0.182834\H,0,3.45945,-1.03297,-0.755218\H,0,1.51211,-2.99552,-0.93
 0618\H,0,-4.79742,-0.8142,-0.593383\H,0,-3.28814,0.887643,1.15488\H,0,

 Normal termination of Gaussian 16 at Tue Apr  8 19:28:19 2025.
