 Gaussian 16, Revision C.01,

 ----------------------------------------------------------------------
 #t hf aug-cc-pvdz symm=none int=(grid=ultrafine) guess=(read,tcheck) s
 table=(opt,rrhf)
 ----------------------------------------------------------------------
 -----
 title
 -----
 Symbolic Z-matrix:
 Charge =  0 Multiplicity = 1

 SCF Done:  E(RHF) =  -833.496577213     A.U. after   14 cycles
 Normal termination of Gaussian 16 at Tue Apr  8 20:59:41 2025.
 Gaussian 16:  ES64L-G16RevC.01  3-Jul-2019

 ----------------------------------------------------------------------
 #t hf aug-cc-pvdz iop(5/13=1,5/36=2,99/5=2) pseudo=read geom=check gue
 ss=(read,tcheck) scf=(maxcycle=1)
 ----------------------------------------------------------------------
 -----
 title
 -----
 Structure from the checkpoint file:  "ANI1ccx_1760_conf14_mol2.chk"
 Charge =  0 Multiplicity = 1

                         Standard orientation:
 ---------------------------------------------------------------------
 Center     Atomic      Atomic             Coordinates (Angstroms)
 Number     Number       Type             X           Y           Z
 ---------------------------------------------------------------------
      1          6           0        2.323498   -1.093393    0.298491
      2          6           0       -2.273120    0.059759    1.952070
      3          6           0       -2.384831   -0.910237    0.822048
      4          6           0       -1.724439    0.905183   -0.852617
      5          6           0       -3.850522   -1.158505    0.318536
      6          6           0        2.147722    1.462367    0.365665
      7          6           0        2.922130    0.265024   -0.141868
      8          6           0        0.970960   -1.292772   -0.345611
      9          6           0       -1.380431   -0.519154   -0.357736
     10          1           0       -1.246960    0.318902    2.282090
     11          1           0       -2.648698    1.850363   -2.060620
     12          1           0       -4.436800   -0.227307    0.253714
     13          1           0       -3.895792   -1.634895   -0.698543
     14          1           0       -4.418993   -1.825104    0.909154
     15          1           0       -2.842031   -0.327462    2.786730
     16          1           0       -2.691509    1.043073    1.739600
     17          1           0       -2.001753   -1.923608    1.127330
     18          1           0        0.120425    0.210891    0.880184
     19          1           0        1.937434    3.280597   -0.023959
     20          1           0        3.938060    0.274668    0.216307
     21          1           0        3.089640    0.326651   -1.205070
     22          1           0        2.100308   -1.046243    1.364610
     23          1           0        2.974446   -2.656684   -0.869097
     24          1           0        3.165166   -2.821265    0.750906
     25          1           0       -1.512712   -1.260948   -1.126830
     26          7           0        3.247777   -2.153895   -0.030941
     27          7           0       -0.062016   -0.522882    0.202666
     28          8           0       -1.499248    1.951902   -0.278392
     29          8           0        0.822905   -1.961871   -1.321860
     30          8           0        1.580182    1.469798    1.469470
     31          8           0        2.325043    2.501297   -0.448595
     32          8           0       -2.533429    0.894648   -1.905930
 ---------------------------------------------------------------------

 SCF Done:  E(RHF) =  -834.337286034     A.U. after    2 cycles

 The electronic state is 1-A.
 Alpha  occ. eigenvalues --  -20.62591 -20.60923 -20.55235 -20.54362 -20.52235
 Alpha  occ. eigenvalues --  -15.52045 -15.49659 -11.41832 -11.39924 -11.36014
 Alpha  occ. eigenvalues --  -11.29414 -11.28677 -11.26155 -11.25984 -11.23374
 Alpha  occ. eigenvalues --  -11.22184  -1.56832  -1.56636  -1.48833  -1.45955
 Alpha  occ. eigenvalues --   -1.45366  -1.24623  -1.20581  -1.08998  -1.06296
 Alpha  occ. eigenvalues --   -0.99317  -0.94453  -0.93324  -0.85827  -0.84288
 Alpha  occ. eigenvalues --   -0.81471  -0.78557  -0.75191  -0.73277  -0.72796
 Alpha  occ. eigenvalues --   -0.71849  -0.70032  -0.67799  -0.67284  -0.65966
 Alpha  occ. eigenvalues --   -0.65537  -0.63343  -0.62629  -0.61236  -0.60962
 Alpha  occ. eigenvalues --   -0.59406  -0.58526  -0.57779  -0.55658  -0.54784
 Alpha  occ. eigenvalues --   -0.54414  -0.53294  -0.50993  -0.49597  -0.48723
 Alpha  occ. eigenvalues --   -0.47629  -0.47405  -0.46843  -0.45460  -0.45326
 Alpha  occ. eigenvalues --   -0.42721  -0.41009
 Alpha virt. eigenvalues --    0.03254   0.03392   0.03679   0.04177   0.04342
 Alpha virt. eigenvalues --    0.04826   0.05313   0.05645   0.06011   0.07050
 Alpha virt. eigenvalues --    0.07814   0.08260   0.08511   0.08779   0.10600

 Mulliken charges:
               1
     1  C   -2.156623
     2  C   -0.039118
     3  C   -0.439395
     4  C    3.080068
     5  C   -0.016271
     6  C    2.709414
     7  C   -0.255301
     8  C    0.988322
     9  C   -2.740981
    10  H    0.141335
    11  H    0.317657
    12  H    0.218476
    13  H    0.232787
    14  H   -0.004596
    15  H    0.108402
    16  H    0.181897
    17  H    0.252071
    18  H    0.341447
    19  H    0.367846
    20  H    0.250132
    21  H    0.139093
    22  H    0.068773
    23  H    0.226194
    24  H    0.336294
    25  H   -0.230296
    26  N    0.867563
    27  N    2.117004
    28  O   -1.414593
    29  O   -1.469104
    30  O   -1.439879
    31  O   -1.406173
    32  O   -1.332443
 Sum of Mulliken charges =  -0.00000

 Dipole moment (field-independent basis, Debye):
    X=             -0.6185    Y=              0.6912    Z=              0.4631  Tot=              1.0367

 Test job not archived.
 1\1\GINC-SE127\SP\RHF\Aug-CC-pVDZ\C9H16N2O5\OHZDE\08-Apr-2025\0\\#t hf
  aug-cc-pvdz iop(5/13=1,5/36=2,99/5=2) pseudo=read geom=check guess=(r
 ead,tcheck) scf=(maxcycle=1)\\title\\0,1\C,0,2.3235,-1.09339,0.298491\
 C,0,-2.27312,0.0597567,1.95207\C,0,-2.38483,-0.91024,0.822048\C,0,-1.7
 2444,0.905181,-0.852617\C,0,-3.85052,-1.15851,0.318536\C,0,2.14772,1.4
 6237,0.365665\C,0,2.92213,0.265028,-0.141868\C,0,0.970962,-1.29277,-0.
 345611\C,0,-1.38043,-0.519155,-0.357736\H,0,-1.24696,0.318901,2.28209\
 H,0,-2.6487,1.85036,-2.06062\H,0,-4.4368,-0.227313,0.253714\H,0,-3.895

 Normal termination of Gaussian 16 at Tue Apr  8 21:00:26 2025.
