 Gaussian 16, Revision C.01,

 ----------------------------------------------------------------------
 #t hf aug-cc-pvdz symm=none int=(grid=ultrafine) guess=(read,tcheck) s
 table=(opt,rrhf)
 ----------------------------------------------------------------------
 -----
 title
 -----
 Symbolic Z-matrix:
 Charge =  0 Multiplicity = 1

 SCF Done:  E(RHF) =  -427.250282510     A.U. after   16 cycles
 Normal termination of Gaussian 16 at Tue Apr  8 21:49:00 2025.
 Gaussian 16:  ES64L-G16RevC.01  3-Jul-2019

 ----------------------------------------------------------------------
 #t hf aug-cc-pvdz iop(5/13=1,5/36=2,99/5=2) pseudo=read geom=check gue
 ss=(read,tcheck) scf=(maxcycle=1)
 ----------------------------------------------------------------------
 -----
 title
 -----
 Structure from the checkpoint file:  "ANI1ccx_649_conf1_mol2.chk"
 Charge =  0 Multiplicity = 1

                         Standard orientation:
 ---------------------------------------------------------------------
 Center     Atomic      Atomic             Coordinates (Angstroms)
 Number     Number       Type             X           Y           Z
 ---------------------------------------------------------------------
      1          6           0        1.467339   -0.213400    0.001932
      2          6           0       -0.699989    0.097392    0.055399
      3          6           0       -2.111921   -0.141033   -0.053980
      4          1           0        0.219694   -1.868920   -0.019157
      5          7           0        0.256512   -0.845969    0.052612
      6          7           0       -0.251298    1.293080   -0.005883
      7          7           0       -3.218781   -0.388569   -0.007930
      8          8           0        2.601119   -0.676428   -0.037503
      9          8           0        1.191720    1.051599    0.003436
 ---------------------------------------------------------------------

 SCF Done:  E(RHF) =  -427.662175693     A.U. after    2 cycles

 The electronic state is 1-A.
 Alpha  occ. eigenvalues --  -20.67130 -20.55260 -15.64276 -15.62887 -15.58684
 Alpha  occ. eigenvalues --  -11.45717 -11.43311 -11.34502  -1.64687  -1.48300
 Alpha  occ. eigenvalues --   -1.37526  -1.31042  -1.25930  -1.01708  -0.95450
 Alpha  occ. eigenvalues --   -0.90155  -0.79997  -0.77581  -0.68914  -0.67279
 Alpha  occ. eigenvalues --   -0.64504  -0.62730  -0.62601  -0.58734  -0.57915
 Alpha  occ. eigenvalues --   -0.55404  -0.48774  -0.45066
 Alpha virt. eigenvalues --    0.01383   0.01864   0.05838   0.07370   0.08275
 Alpha virt. eigenvalues --    0.08344   0.09270   0.09642   0.10169   0.10821
 Alpha virt. eigenvalues --    0.13355   0.14017   0.14690   0.15187   0.16355

 Mulliken charges:
               1
     1  C    1.585962
     2  C   -0.806318
     3  C   -1.701038
     4  H    0.102302
     5  N    0.861440
     6  N    1.334642
     7  N    1.164844
     8  O   -1.222237
     9  O   -1.319598
 Sum of Mulliken charges =  -0.00000

 Dipole moment (field-independent basis, Debye):
    X=             -1.0238    Y=             -2.3754    Z=              0.0231  Tot=              2.5867

 Test job not archived.
 1\1\GINC-SE049\SP\RHF\Aug-CC-pVDZ\C3H1N3O2\OHZDE\08-Apr-2025\0\\#t hf
 aug-cc-pvdz iop(5/13=1,5/36=2,99/5=2) pseudo=read geom=check guess=(re
 ad,tcheck) scf=(maxcycle=1)\\title\\0,1\C,0,1.46734,-0.213399,0.001932
 4\C,0,-0.699988,0.0973915,0.0553988\C,0,-2.11192,-0.141034,-0.0539804\
 H,0,0.219696,-1.86892,-0.019157\N,0,0.256513,-0.845969,0.0526119\N,0,-
 0.251298,1.29308,-0.00588251\N,0,-3.21878,-0.388571,-0.00793045\O,0,2.
 60112,-0.676427,-0.0375034\O,0,1.19172,1.0516,0.0034359\\Version=ES64L
 -G16RevC.01\State=1-A\HF=-427.6621757\RMSD=6.748e-02\Dipole=-0.4027978

 Normal termination of Gaussian 16 at Tue Apr  8 21:49:05 2025.
