 Gaussian 16, Revision C.01,

 ----------------------------------------------------------------------
 #t hf aug-cc-pvdz symm=none int=(grid=ultrafine) guess=(read,tcheck) s
 table=(opt,rrhf)
 ----------------------------------------------------------------------
 -----
 title
 -----
 Symbolic Z-matrix:
 Charge =  0 Multiplicity = 1

 SCF Done:  E(RHF) =  -381.950831460     A.U. after   13 cycles

 1\1\GINC-SE250\Stability\RHF\Aug-CC-pVDZ\C4H10O3\OHZDE\08-Apr-2025\0\\
 #t hf aug-cc-pvdz symm=none int=(grid=ultrafine) guess=(read,tcheck) s
 table=(opt,rrhf)\\title\\0,1\C,0,-1.70323,-1.58019,0.622043\C,0,-1.885
 76,-0.632758,-0.515358\C,0,-1.53003,0.837403,-0.267713\C,0,-0.0483129,
 0.853776,-0.0466513\H,0,1.31732,1.87792,0.687956\H,0,-2.09959,1.24352,
 0.618683\H,0,-1.74645,1.47017,-1.12696\H,0,-2.94867,-0.79943,-0.785058
 \H,0,-1.34882,-1.01993,-1.36467\H,0,-2.39185,-1.44806,1.44893\H,0,-0.7
 33479,-1.52559,1.13203\H,0,-1.80427,-2.61858,0.34154\H,0,2.5138,-1.177

 Normal termination of Gaussian 16 at Tue Apr  8 21:56:24 2025.
 Gaussian 16:  ES64L-G16RevC.01  3-Jul-2019

 ----------------------------------------------------------------------
 #t hf aug-cc-pvdz iop(5/13=1,5/36=2,99/5=2) pseudo=read geom=check gue
 ss=(read,tcheck) scf=(maxcycle=1)
 ----------------------------------------------------------------------
 -----
 title
 -----
 Structure from the checkpoint file:  "ANI1ccx_813_conf2_mol1.chk"
 Charge =  0 Multiplicity = 1

                         Standard orientation:
 ---------------------------------------------------------------------
 Center     Atomic      Atomic             Coordinates (Angstroms)
 Number     Number       Type             X           Y           Z
 ---------------------------------------------------------------------
      1          6           0       -1.703229   -1.580190    0.622043
      2          6           0       -1.885759   -0.632758   -0.515358
      3          6           0       -1.530030    0.837403   -0.267713
      4          6           0       -0.048313    0.853776   -0.046651
      5          1           0        1.317320    1.877920    0.687956
      6          1           0       -2.099590    1.243520    0.618683
      7          1           0       -1.746450    1.470170   -1.126960
      8          1           0       -2.948669   -0.799430   -0.785058
      9          1           0       -1.348819   -1.019930   -1.364670
     10          1           0       -2.391849   -1.448060    1.448930
     11          1           0       -0.733478   -1.525590    1.132030
     12          1           0       -1.804269   -2.618580    0.341540
     13          1           0        2.513801   -1.177209    0.181184
     14          1           0        3.499721   -0.349737   -0.765399
     15          8           0        3.440051   -1.003659    0.009708
     16          8           0        0.397899    1.964300    0.493977
     17          8           0        0.755334   -0.025948   -0.393956
 ---------------------------------------------------------------------

 SCF Done:  E(RHF) =  -382.346112846     A.U. after    2 cycles

 The electronic state is 1-A.
 Alpha  occ. eigenvalues --  -20.61467 -20.54288 -20.53006 -11.41068 -11.27330
 Alpha  occ. eigenvalues --  -11.24093 -11.22326  -1.57748  -1.44860  -1.39507
 Alpha  occ. eigenvalues --   -1.10173  -0.99717  -0.87888  -0.80813  -0.72929
 Alpha  occ. eigenvalues --   -0.71199  -0.68096  -0.67237  -0.62301  -0.60680
 Alpha  occ. eigenvalues --   -0.58070  -0.57055  -0.53595  -0.52508  -0.50033
 Alpha  occ. eigenvalues --   -0.48712  -0.47378  -0.46832  -0.45373
 Alpha virt. eigenvalues --    0.03143   0.03595   0.03755   0.04327   0.05892
 Alpha virt. eigenvalues --    0.06414   0.06601   0.07501   0.07678   0.10492
 Alpha virt. eigenvalues --    0.11792   0.12673   0.13222   0.13999   0.14481

 Mulliken charges:
               1
     1  C   -0.218342
     2  C   -0.266818
     3  C   -0.538340
     4  C    2.171612
     5  H    0.323556
     6  H    0.269835
     7  H    0.253164
     8  H    0.170355
     9  H    0.107013
    10  H    0.078204
    11  H    0.115835
    12  H    0.077453
    13  H    0.536014
    14  H    0.415400
    15  O   -0.912155
    16  O   -1.244946
    17  O   -1.337841
 Sum of Mulliken charges =  -0.00000

 Dipole moment (field-independent basis, Debye):
    X=             -3.2744    Y=              2.2381    Z=             -0.2888  Tot=              3.9767

 Test job not archived.
 1\1\GINC-SE250\SP\RHF\Aug-CC-pVDZ\C4H10O3\OHZDE\08-Apr-2025\0\\#t hf a
 ug-cc-pvdz iop(5/13=1,5/36=2,99/5=2) pseudo=read geom=check guess=(rea
 d,tcheck) scf=(maxcycle=1)\\title\\0,1\C,0,-1.70323,-1.58019,0.622043\
 C,0,-1.88576,-0.632758,-0.515358\C,0,-1.53003,0.837403,-0.267713\C,0,-
 0.0483129,0.853776,-0.0466513\H,0,1.31732,1.87792,0.687956\H,0,-2.0995
 9,1.24352,0.618683\H,0,-1.74645,1.47017,-1.12696\H,0,-2.94867,-0.79943
 ,-0.785058\H,0,-1.34882,-1.01993,-1.36467\H,0,-2.39185,-1.44806,1.4489
 3\H,0,-0.733479,-1.52559,1.13203\H,0,-1.80427,-2.61858,0.34154\H,0,2.5

 Normal termination of Gaussian 16 at Tue Apr  8 21:56:30 2025.
