 Gaussian 16, Revision C.01,

 ----------------------------------------------------------------------
 #t hf aug-cc-pvdz symm=none int=(grid=ultrafine) guess=(read,tcheck) s
 table=(opt,rrhf)
 ----------------------------------------------------------------------
 -----
 title
 -----
 Symbolic Z-matrix:
 Charge =  0 Multiplicity = 1

 SCF Done:  E(RHF) =  -791.986042899     A.U. after   14 cycles
 Normal termination of Gaussian 16 at Tue Apr  8 19:32:06 2025.
 Gaussian 16:  ES64L-G16RevC.01  3-Jul-2019

 ----------------------------------------------------------------------
 #t hf aug-cc-pvdz iop(5/13=1,5/36=2,99/5=2) pseudo=read geom=check gue
 ss=(read,tcheck) scf=(maxcycle=1)
 ----------------------------------------------------------------------
 -----
 title
 -----
 Structure from the checkpoint file:  "ANI1ccx_1216_conf15_mol1.chk"
 Charge =  0 Multiplicity = 1

                         Standard orientation:
 ---------------------------------------------------------------------
 Center     Atomic      Atomic             Coordinates (Angstroms)
 Number     Number       Type             X           Y           Z
 ---------------------------------------------------------------------
      1          6           0       -1.194098    1.415411   -1.037459
      2          6           0        1.598821    1.349259    0.644989
      3          6           0        0.798785   -0.697591    1.811981
      4          6           0       -2.166160   -0.180340    0.461273
      5          6           0       -0.983931   -1.040369   -1.509949
      6          6           0        2.020300   -0.794607   -0.455390
      7          1           0        2.940360   -0.271657   -0.769026
      8          1           0        2.328889   -1.809442   -0.014740
      9          1           0       -1.835581   -1.763768   -1.420059
     10          1           0       -0.790948   -0.640780   -2.490509
     11          1           0       -2.582291   -1.132858    0.350257
     12          1           0       -2.965419    0.578950    0.594438
     13          1           0        1.312289   -1.665831    1.979221
     14          1           0        1.195652    1.729529    1.617401
     15          1           0        2.662192    1.730758    0.535190
     16          1           0       -0.941373    1.628211   -2.034989
     17          1           0       -2.128278    1.942422   -0.968310
     18          1           0        0.764612    0.081543    2.653861
     19          7           0        1.412890   -0.061885    0.658812
     20          7           0       -1.448110    0.041125   -0.747714
     21          8           0        0.109505   -1.789070   -1.156029
     22          8           0       -0.403242    2.114980   -0.135338
     23          8           0        0.995305    1.946659   -0.425597
     24          8           0       -0.487661   -1.240159    1.762991
     25          8           0       -1.443760   -0.123963    1.667831
     26          8           0        1.210369   -0.979990   -1.576739
 ---------------------------------------------------------------------

 SCF Done:  E(RHF) =  -792.769995552     A.U. after    2 cycles

 The electronic state is 1-A.
 Alpha  occ. eigenvalues --  -20.61400 -20.61383 -20.61110 -20.60751 -20.60599
 Alpha  occ. eigenvalues --  -20.60300 -15.50380 -15.50173 -11.33812 -11.33788
 Alpha  occ. eigenvalues --  -11.32650 -11.32335 -11.32065 -11.31691  -1.62033
 Alpha  occ. eigenvalues --   -1.60601  -1.57910  -1.36037  -1.33077  -1.32804
 Alpha  occ. eigenvalues --   -1.24652  -1.20595  -0.98071  -0.97506  -0.94924
 Alpha  occ. eigenvalues --   -0.93350  -0.84590  -0.82876  -0.76395  -0.74823
 Alpha  occ. eigenvalues --   -0.73985  -0.72350  -0.71791  -0.70365  -0.68843
 Alpha  occ. eigenvalues --   -0.67313  -0.66504  -0.64696  -0.63003  -0.61971
 Alpha  occ. eigenvalues --   -0.60919  -0.57282  -0.56875  -0.56281  -0.55238
 Alpha  occ. eigenvalues --   -0.51488  -0.49923  -0.49174  -0.48850  -0.47588
 Alpha  occ. eigenvalues --   -0.46043  -0.44227  -0.43308  -0.42641  -0.40995
 Alpha virt. eigenvalues --    0.03891   0.03997   0.04667   0.04772   0.04908
 Alpha virt. eigenvalues --    0.05043   0.05506   0.05678   0.07348   0.08013
 Alpha virt. eigenvalues --    0.08852   0.09595   0.10002   0.10677   0.11677

 Mulliken charges:
               1
     1  C    0.569618
     2  C    0.335155
     3  C    0.404780
     4  C    0.607100
     5  C    0.420931
     6  C    0.262603
     7  H   -0.008421
     8  H    0.237059
     9  H    0.135261
    10  H    0.144349
    11  H   -0.059416
    12  H    0.083031
    13  H    0.003533
    14  H    0.067118
    15  H    0.057167
    16  H   -0.154859
    17  H    0.023536
    18  H    0.278759
    19  N    1.371636
    20  N    1.114010
    21  O   -1.004015
    22  O   -0.987845
    23  O   -0.904703
    24  O   -0.967604
    25  O   -0.996682
    26  O   -1.032101
 Sum of Mulliken charges =   0.00000

 Dipole moment (field-independent basis, Debye):
    X=              0.1750    Y=              0.2104    Z=             -0.3579  Tot=              0.4506

 Test job not archived.
 1\1\GINC-SE039\SP\RHF\Aug-CC-pVDZ\C6H12N2O6\OHZDE\08-Apr-2025\0\\#t hf
  aug-cc-pvdz iop(5/13=1,5/36=2,99/5=2) pseudo=read geom=check guess=(r
 ead,tcheck) scf=(maxcycle=1)\\title\\0,1\C,0,-1.1941,1.41541,-1.03746\
 C,0,1.59882,1.34926,0.644988\C,0,0.798785,-0.69759,1.81198\C,0,-2.1661
 6,-0.180342,0.461272\C,0,-0.98393,-1.04037,-1.50995\C,0,2.0203,-0.7946
 05,-0.455391\H,0,2.94036,-0.271655,-0.769027\H,0,2.32889,-1.80944,-0.0
 147408\H,0,-1.83558,-1.76377,-1.42006\H,0,-0.790948,-0.640781,-2.49051
 \H,0,-2.58229,-1.13286,0.350256\H,0,-2.96542,0.578947,0.594437\H,0,1.3

 Normal termination of Gaussian 16 at Tue Apr  8 19:32:42 2025.
