 Gaussian 16, Revision C.01,

 ----------------------------------------------------------------------
 #t hf aug-cc-pvdz symm=none int=(grid=ultrafine) guess=(read,tcheck) s
 table=(opt,rrhf)
 ----------------------------------------------------------------------
 -----
 title
 -----
 Symbolic Z-matrix:
 Charge =  0 Multiplicity = 1

 SCF Done:  E(RHF) =  -504.991285781     A.U. after   16 cycles
 Normal termination of Gaussian 16 at Tue Apr  8 21:40:50 2025.
 Gaussian 16:  ES64L-G16RevC.01  3-Jul-2019

 ----------------------------------------------------------------------
 #t hf aug-cc-pvdz iop(5/13=1,5/36=2,99/5=2) pseudo=read geom=check gue
 ss=(read,tcheck) scf=(maxcycle=1)
 ----------------------------------------------------------------------
 -----
 title
 -----
 Structure from the checkpoint file:  "ANI1ccx_471_conf32_mol1.chk"
 Charge =  0 Multiplicity = 1

                         Standard orientation:
 ---------------------------------------------------------------------
 Center     Atomic      Atomic             Coordinates (Angstroms)
 Number     Number       Type             X           Y           Z
 ---------------------------------------------------------------------
      1          6           0        1.407249   -0.109039   -0.088728
      2          6           0       -0.686872    0.813557    0.091216
      3          1           0       -2.227579   -1.606384    0.778543
      4          7           0       -0.706392   -0.616688    0.383382
      5          8           0       -1.877000   -1.117043   -0.115462
      6          8           0        0.590256   -1.161061   -0.326118
      7          8           0        2.628019    0.016684    0.167210
      8          8           0        0.582424    0.989586   -0.056047
      9          8           0       -1.567442    1.483847   -0.104227
 ---------------------------------------------------------------------

 SCF Done:  E(RHF) =  -505.468895390     A.U. after    2 cycles

 The electronic state is 1-A.
 Alpha  occ. eigenvalues --  -20.69113 -20.67698 -20.66637 -20.60566 -20.59417
 Alpha  occ. eigenvalues --  -15.70247 -11.51389 -11.47456  -1.69918  -1.60234
 Alpha  occ. eigenvalues --   -1.58803  -1.52706  -1.48710  -1.17626  -0.98517
 Alpha  occ. eigenvalues --   -0.89942  -0.81849  -0.78898  -0.76379  -0.73946
 Alpha  occ. eigenvalues --   -0.72321  -0.69128  -0.65702  -0.63241  -0.58132
 Alpha  occ. eigenvalues --   -0.57561  -0.53875  -0.51831  -0.50676  -0.49217
 Alpha virt. eigenvalues --    0.02153   0.06178   0.07741   0.08135   0.08573
 Alpha virt. eigenvalues --    0.09898   0.10711   0.10990   0.11433   0.11563
 Alpha virt. eigenvalues --    0.13542   0.14772   0.17859   0.18697   0.20547

 Mulliken charges:
               1
     1  C    2.171815
     2  C    1.287213
     3  H    0.437774
     4  N    1.503111
     5  O   -1.233993
     6  O   -1.098724
     7  O   -1.051627
     8  O   -1.088555
     9  O   -0.927014
 Sum of Mulliken charges =  -0.00000

 Dipole moment (field-independent basis, Debye):
    X=             -2.7549    Y=             -1.8012    Z=              1.1251  Tot=              3.4784

 Test job not archived.
 1\1\GINC-SE331\SP\RHF\Aug-CC-pVDZ\C2H1N1O5\OHZDE\08-Apr-2025\0\\#t hf
 aug-cc-pvdz iop(5/13=1,5/36=2,99/5=2) pseudo=read geom=check guess=(re
 ad,tcheck) scf=(maxcycle=1)\\title\\0,1\C,0,1.40725,-0.109038,-0.08872
 76\C,0,-0.686871,0.813559,0.0912156\H,0,-2.22758,-1.60638,0.778543\N,0
 ,-0.706392,-0.616686,0.383382\O,0,-1.877,-1.11704,-0.115462\O,0,0.5902
 56,-1.16106,-0.326118\O,0,2.62802,0.0166837,0.16721\O,0,0.582425,0.989
 587,-0.0560466\O,0,-1.56744,1.48385,-0.104227\\Version=ES64L-G16RevC.0
 1\State=1-A\HF=-505.4688954\RMSD=1.141e-02\Dipole=-1.0838613,-0.708638

 Normal termination of Gaussian 16 at Tue Apr  8 21:40:53 2025.
