 Gaussian 16, Revision C.01,

 ----------------------------------------------------------------------
 #t hf aug-cc-pvdz symm=none int=(grid=ultrafine) guess=(read,tcheck) s
 table=(opt,rrhf)
 ----------------------------------------------------------------------
 -----
 title
 -----
 Symbolic Z-matrix:
 Charge =  0 Multiplicity = 1

 SCF Done:  E(RHF) =  -389.480530150     A.U. after   15 cycles
 Normal termination of Gaussian 16 at Tue Apr  8 21:40:45 2025.
 Gaussian 16:  ES64L-G16RevC.01  3-Jul-2019

 ----------------------------------------------------------------------
 #t hf aug-cc-pvdz iop(5/13=1,5/36=2,99/5=2) pseudo=read geom=check gue
 ss=(read,tcheck) scf=(maxcycle=1)
 ----------------------------------------------------------------------
 -----
 title
 -----
 Structure from the checkpoint file:  "ANI1ccx_473_conf10_mol1.chk"
 Charge =  0 Multiplicity = 1

                         Standard orientation:
 ---------------------------------------------------------------------
 Center     Atomic      Atomic             Coordinates (Angstroms)
 Number     Number       Type             X           Y           Z
 ---------------------------------------------------------------------
      1          6           0       -0.878491    1.068069    0.024340
      2          6           0       -1.514029   -1.108682    0.046054
      3          1           0       -2.447818   -1.629013    0.188377
      4          7           0       -1.786250    0.256478    0.039725
      5          7           0        2.836370   -0.543389   -0.054233
      6          7           0        1.984930    0.142451    0.152358
      7          8           0       -0.124050    1.965670   -0.087569
      8          8           0       -0.431251   -1.605181   -0.109393
 ---------------------------------------------------------------------

 SCF Done:  E(RHF) =  -389.849890269     A.U. after    2 cycles

 The electronic state is 1-A.
 Alpha  occ. eigenvalues --  -20.64626 -20.57346 -15.61712 -15.61555 -15.56017
 Alpha  occ. eigenvalues --  -11.46249 -11.41035  -1.57832  -1.51939  -1.47297
 Alpha  occ. eigenvalues --   -1.32693  -0.99403  -0.81964  -0.78411  -0.76482
 Alpha  occ. eigenvalues --   -0.72227  -0.70435  -0.68472  -0.65627  -0.65444
 Alpha  occ. eigenvalues --   -0.64557  -0.59175  -0.55005  -0.48295  -0.47739
 Alpha virt. eigenvalues --    0.03316   0.06699   0.07106   0.08204   0.08336
 Alpha virt. eigenvalues --    0.09362   0.09859   0.10209   0.10718   0.11998
 Alpha virt. eigenvalues --    0.12326   0.12979   0.15365   0.17130   0.17886

 Mulliken charges:
               1
     1  C    0.172293
     2  C    0.812080
     3  H    0.111191
     4  N    0.630394
     5  N   -0.310361
     6  N    0.262687
     7  O   -0.735413
     8  O   -0.942871
 Sum of Mulliken charges =  -0.00000

 Dipole moment (field-independent basis, Debye):
    X=             -1.7144    Y=              0.1562    Z=              0.4595  Tot=              1.7817

 Test job not archived.
 1\1\GINC-SE364\SP\RHF\Aug-CC-pVDZ\C2H1N3O2\OHZDE\08-Apr-2025\0\\#t hf
 aug-cc-pvdz iop(5/13=1,5/36=2,99/5=2) pseudo=read geom=check guess=(re
 ad,tcheck) scf=(maxcycle=1)\\title\\0,1\C,0,-0.87849,1.06807,0.0243399
 \C,0,-1.51403,-1.10868,0.0460535\H,0,-2.44782,-1.62901,0.188377\N,0,-1
 .78625,0.25648,0.0397253\N,0,2.83637,-0.543391,-0.0542329\N,0,1.98493,
 0.142449,0.152358\O,0,-0.124048,1.96567,-0.0875687\O,0,-0.431253,-1.60
 518,-0.109393\\Version=ES64L-G16RevC.01\State=1-A\HF=-389.8498903\RMSD
 =3.293e-02\Dipole=-0.6744875,0.0614536,0.1807724\Quadrupole=1.269945,-

 Normal termination of Gaussian 16 at Tue Apr  8 21:40:48 2025.
