 Gaussian 16, Revision C.01,

 ----------------------------------------------------------------------
 #t hf aug-cc-pvdz symm=none int=(grid=ultrafine) guess=(read,tcheck) s
 table=(opt,rrhf)
 ----------------------------------------------------------------------
 -----
 title
 -----
 Symbolic Z-matrix:
 Charge =  0 Multiplicity = 1

 SCF Done:  E(RHF) =  -869.309850160     A.U. after   15 cycles
 Normal termination of Gaussian 16 at Tue Apr  8 20:20:48 2025.
 Gaussian 16:  ES64L-G16RevC.01  3-Jul-2019

 ----------------------------------------------------------------------
 #t hf aug-cc-pvdz iop(5/13=1,5/36=2,99/5=2) pseudo=read geom=check gue
 ss=(read,tcheck) scf=(maxcycle=1)
 ----------------------------------------------------------------------
 -----
 title
 -----
 Structure from the checkpoint file:  "ANI1ccx_1593_conf7_mol1.chk"
 Charge =  0 Multiplicity = 1

                         Standard orientation:
 ---------------------------------------------------------------------
 Center     Atomic      Atomic             Coordinates (Angstroms)
 Number     Number       Type             X           Y           Z
 ---------------------------------------------------------------------
      1          6           0        1.765229    1.129153    0.333952
      2          6           0        0.573034    1.951751   -0.112712
      3          6           0        2.264230    0.310131   -0.859850
      4          6           0        2.537502   -1.119826   -0.424122
      5          6           0       -0.984786   -0.039493   -0.070955
      6          6           0       -1.916969   -0.383630   -1.283789
      7          6           0       -1.620319   -0.342970    1.266571
      8          6           0       -2.833261    0.623803    1.584931
      9          1           0       -1.979077   -1.997112   -0.382690
     10          1           0       -3.620961    0.715726    0.805736
     11          1           0       -2.453902    1.608917    1.775611
     12          1           0       -3.460290    0.270906    2.486231
     13          1           0       -2.723357   -1.913463    1.692361
     14          1           0       -0.861964   -0.114621    2.062551
     15          1           0       -0.103911   -0.687054   -0.212654
     16          1           0       -1.350702    1.910849   -0.592770
     17          1           0        3.776013   -2.210895    0.510700
     18          1           0        1.565640    0.255865   -1.734169
     19          1           0        3.181389    0.720485   -1.234999
     20          1           0        2.499208    1.848754    0.662832
     21          1           0        2.178251   -0.290446    1.735041
     22          1           0        1.298049    0.966826    2.313341
     23          7           0        1.388410    0.355074    1.515911
     24          7           0       -0.639963    1.354890   -0.178681
     25          8           0        0.723247    3.098361   -0.358885
     26          8           0        1.706633   -2.035107   -0.505413
     27          8           0        3.674682   -1.281875    0.249743
     28          8           0       -2.268620    0.420405   -2.114599
     29          8           0       -1.858028   -1.770882    1.299721
     30          8           0       -2.214348   -1.659402   -1.302049
 ---------------------------------------------------------------------

 SCF Done:  E(RHF) =  -870.180083138     A.U. after    2 cycles

 The electronic state is 1-A.
 Alpha  occ. eigenvalues --  -20.63316 -20.59339 -20.58389 -20.55619 -20.52861
 Alpha  occ. eigenvalues --  -20.51322 -15.52243 -15.51847 -11.42273 -11.38643
 Alpha  occ. eigenvalues --  -11.35528 -11.32319 -11.29977 -11.29646 -11.28593
 Alpha  occ. eigenvalues --  -11.26368  -1.57870  -1.54358  -1.48994  -1.48939
 Alpha  occ. eigenvalues --   -1.45854  -1.44679  -1.26298  -1.22161  -1.08098
 Alpha  occ. eigenvalues --   -1.07062  -0.98466  -0.95910  -0.87752  -0.85271
 Alpha  occ. eigenvalues --   -0.83235  -0.81073  -0.77893  -0.75564  -0.73345
 Alpha  occ. eigenvalues --   -0.71512  -0.70315  -0.69358  -0.68362  -0.67512
 Alpha  occ. eigenvalues --   -0.66289  -0.65631  -0.64760  -0.63622  -0.61866
 Alpha  occ. eigenvalues --   -0.60580  -0.59227  -0.58860  -0.58276  -0.57671
 Alpha  occ. eigenvalues --   -0.56280  -0.55677  -0.53906  -0.51570  -0.48760
 Alpha  occ. eigenvalues --   -0.48683  -0.47319  -0.45886  -0.45195  -0.43714
 Alpha  occ. eigenvalues --   -0.42200  -0.41536
 Alpha virt. eigenvalues --    0.02292   0.02678   0.03393   0.03771   0.04281
 Alpha virt. eigenvalues --    0.04749   0.05732   0.06335   0.07179   0.07888
 Alpha virt. eigenvalues --    0.08463   0.08511   0.09307   0.10085   0.10467

 Mulliken charges:
               1
     1  C   -0.768201
     2  C    1.028593
     3  C   -0.496022
     4  C    2.822351
     5  C   -1.910680
     6  C    2.632263
     7  C    1.248849
     8  C   -0.428656
     9  H    0.665257
    10  H    0.189790
    11  H    0.136405
    12  H    0.180296
    13  H    0.413814
    14  H    0.217330
    15  H    0.204666
    16  H    0.309132
    17  H    0.350237
    18  H    0.294558
    19  H    0.068293
    20  H   -0.053958
    21  H    0.367292
    22  H    0.336711
    23  N   -0.013088
    24  N    0.914023
    25  O   -1.453745
    26  O   -1.431655
    27  O   -1.403326
    28  O   -1.391476
    29  O   -1.623910
    30  O   -1.405141
 Sum of Mulliken charges =   0.00000

 Dipole moment (field-independent basis, Debye):
    X=              2.8736    Y=             -2.2298    Z=              6.0414  Tot=              7.0518

 Test job not archived.
 1\1\GINC-SE364\SP\RHF\Aug-CC-pVDZ\C8H14N2O6\OHZDE\08-Apr-2025\0\\#t hf
  aug-cc-pvdz iop(5/13=1,5/36=2,99/5=2) pseudo=read geom=check guess=(r
 ead,tcheck) scf=(maxcycle=1)\\title\\0,1\C,0,1.76523,1.12915,0.333951\
 C,0,0.573036,1.95175,-0.112713\C,0,2.26423,0.310128,-0.859851\C,0,2.53
 75,-1.11983,-0.424123\C,0,-0.984786,-0.0394926,-0.0709553\C,0,-1.91697
 ,-0.383628,-1.28379\C,0,-1.62032,-0.342968,1.26657\C,0,-2.83326,0.6238
 06,1.58493\H,0,-1.97908,-1.99711,-0.382691\H,0,-3.62096,0.71573,0.8057
 35\H,0,-2.4539,1.60892,1.77561\H,0,-3.46029,0.27091,2.48623\H,0,-2.723

 Normal termination of Gaussian 16 at Tue Apr  8 20:21:26 2025.
