 Gaussian 16, Revision C.01,

 ----------------------------------------------------------------------
 #t hf aug-cc-pvdz symm=none int=(grid=ultrafine) guess=(read,tcheck) s
 table=(opt,rrhf)
 ----------------------------------------------------------------------
 -----
 title
 -----
 Symbolic Z-matrix:
 Charge =  0 Multiplicity = 1

 SCF Done:  E(RHF) =  -717.495395803     A.U. after   15 cycles
 Normal termination of Gaussian 16 at Tue Apr  8 19:26:04 2025.
 Gaussian 16:  ES64L-G16RevC.01  3-Jul-2019

 ----------------------------------------------------------------------
 #t hf aug-cc-pvdz iop(5/13=1,5/36=2,99/5=2) pseudo=read geom=check gue
 ss=(read,tcheck) scf=(maxcycle=1)
 ----------------------------------------------------------------------
 -----
 title
 -----
 Structure from the checkpoint file:  "ANI1ccx_1215_conf5_mol1.chk"
 Charge =  0 Multiplicity = 1

                         Standard orientation:
 ---------------------------------------------------------------------
 Center     Atomic      Atomic             Coordinates (Angstroms)
 Number     Number       Type             X           Y           Z
 ---------------------------------------------------------------------
      1          6           0        1.379659    0.207221   -0.111647
      2          6           0        0.720398   -0.146272    1.181770
      3          6           0        2.477928   -0.829942   -0.372744
      4          6           0       -1.776610    0.329182    0.463661
      5          6           0       -2.101772   -0.963094   -0.274018
      6          6           0       -1.640799    1.379452   -0.706313
      7          1           0       -1.908444   -2.723278   -0.432072
      8          1           0       -0.065160    2.303980   -0.205054
      9          1           0       -0.946270    0.935741   -1.456420
     10          1           0       -2.631089    1.551553   -1.102320
     11          1           0       -2.670350    0.648726    1.012570
     12          1           0       -0.742975    0.395464    2.285230
     13          1           0        2.044917   -1.855532   -0.253120
     14          1           0        3.229468   -0.674063    0.434377
     15          1           0        0.666531    0.004114   -0.956801
     16          1           0        2.410681    1.627418   -0.977483
     17          1           0        2.415741    1.799678    0.620019
     18          1           0        2.562778   -0.924791   -2.276880
     19          7           0        1.812321    1.577568   -0.162716
     20          7           0       -0.595151    0.216344    1.313910
     21          8           0       -1.046118    2.533182   -0.229762
     22          8           0        1.333389   -0.628158    2.093440
     23          8           0        3.196528   -0.802020   -1.577800
     24          8           0       -2.879182   -0.984504   -1.185960
     25          8           0       -1.509473   -2.056708    0.170748
 ---------------------------------------------------------------------

 SCF Done:  E(RHF) =  -718.216970991     A.U. after    2 cycles

 The electronic state is 1-A.
 Alpha  occ. eigenvalues --  -20.62722 -20.57174 -20.55381 -20.54215 -20.53688
 Alpha  occ. eigenvalues --  -15.53478 -15.53092 -11.40910 -11.37808 -11.31890
 Alpha  occ. eigenvalues --  -11.30051 -11.29955 -11.29900  -1.58704  -1.49780
 Alpha  occ. eigenvalues --   -1.47896  -1.47754  -1.45227  -1.26107  -1.23540
 Alpha  occ. eigenvalues --   -1.06608  -1.03338  -0.92078  -0.90069  -0.85141
 Alpha  occ. eigenvalues --   -0.80070  -0.76670  -0.76153  -0.73963  -0.73016
 Alpha  occ. eigenvalues --   -0.71664  -0.68607  -0.68157  -0.65985  -0.65166
 Alpha  occ. eigenvalues --   -0.64521  -0.64309  -0.63028  -0.60310  -0.59545
 Alpha  occ. eigenvalues --   -0.58141  -0.54959  -0.53482  -0.51033  -0.49382
 Alpha  occ. eigenvalues --   -0.48446  -0.48068  -0.45157  -0.45058  -0.43670
 Alpha  occ. eigenvalues --   -0.41521
 Alpha virt. eigenvalues --    0.02662   0.03267   0.03520   0.04395   0.04963
 Alpha virt. eigenvalues --    0.05370   0.06052   0.06570   0.06952   0.08316
 Alpha virt. eigenvalues --    0.08974   0.09993   0.10551   0.10926   0.11559

 Mulliken charges:
               1
     1  C   -1.801571
     2  C    1.082134
     3  C    0.960130
     4  C   -2.019323
     5  C    2.879926
     6  C    1.093161
     7  H    0.335646
     8  H    0.632682
     9  H    0.201695
    10  H    0.029274
    11  H    0.251360
    12  H    0.260116
    13  H    0.234626
    14  H    0.187367
    15  H    0.273091
    16  H    0.409500
    17  H    0.447960
    18  H    0.261258
    19  N   -0.026879
    20  N    1.131398
    21  O   -1.427865
    22  O   -1.458957
    23  O   -1.237946
    24  O   -1.375629
    25  O   -1.323153
 Sum of Mulliken charges =   0.00000

 Dipole moment (field-independent basis, Debye):
    X=             -0.2250    Y=             -1.0010    Z=             -0.9867  Tot=              1.4235

 Test job not archived.
 1\1\GINC-SE195\SP\RHF\Aug-CC-pVDZ\C6H12N2O5\OHZDE\08-Apr-2025\0\\#t hf
  aug-cc-pvdz iop(5/13=1,5/36=2,99/5=2) pseudo=read geom=check guess=(r
 ead,tcheck) scf=(maxcycle=1)\\title\\0,1\C,0,1.37966,0.207222,-0.11164
 7\C,0,0.720399,-0.146272,1.18177\C,0,2.47793,-0.82994,-0.372744\C,0,-1
 .77661,0.32918,0.463661\C,0,-2.10177,-0.963097,-0.274018\C,0,-1.6408,1
 .37945,-0.706313\H,0,-1.90844,-2.72328,-0.432072\H,0,-0.0651614,2.3039
 8,-0.205054\H,0,-0.94627,0.93574,-1.45642\H,0,-2.63109,1.55155,-1.1023
 2\H,0,-2.67035,0.648723,1.01257\H,0,-0.742975,0.395463,2.28523\H,0,2.0

 Normal termination of Gaussian 16 at Tue Apr  8 19:26:26 2025.
