 Gaussian 16, Revision C.01,

 ----------------------------------------------------------------------
 #t hf aug-cc-pvdz symm=none int=(grid=ultrafine) guess=(read,tcheck) s
 table=(opt,rrhf)
 ----------------------------------------------------------------------
 -----
 title
 -----
 Symbolic Z-matrix:
 Charge =  0 Multiplicity = 1

 SCF Done:  E(RHF) =  -1018.12656340     A.U. after   15 cycles
 Normal termination of Gaussian 16 at Tue Apr  8 20:48:56 2025.
 Gaussian 16:  ES64L-G16RevC.01  3-Jul-2019

 ----------------------------------------------------------------------
 #t hf aug-cc-pvdz iop(5/13=1,5/36=2,99/5=2) pseudo=read geom=check gue
 ss=(read,tcheck) scf=(maxcycle=1)
 ----------------------------------------------------------------------
 -----
 title
 -----
 Structure from the checkpoint file:  "ANI1ccx_171_conf12_mol1.chk"
 Charge =  0 Multiplicity = 1

                         Standard orientation:
 ---------------------------------------------------------------------
 Center     Atomic      Atomic             Coordinates (Angstroms)
 Number     Number       Type             X           Y           Z
 ---------------------------------------------------------------------
      1          6           0       -1.738918    1.667291   -0.137979
      2          6           0        3.337401   -0.757906   -0.957567
      3          6           0        1.411341   -1.329980    0.640444
      4          6           0        1.256891    0.718312    1.921110
      5          6           0        0.623185   -0.061095    0.788219
      6          6           0        2.970111   -1.184851    0.413718
      7          6           0       -3.633679   -1.251679    0.543846
      8          6           0       -2.742709   -0.614077   -0.276288
      9          6           0       -2.805439    0.778399   -0.758363
     10          6           0       -0.418952    1.521610   -0.919300
     11          6           0       -2.182000   -2.693769   -0.252254
     12          1           0       -0.422016   -0.218342    1.144730
     13          1           0        1.700032    2.269720    2.684930
     14          1           0        3.737761   -1.424171   -2.713220
     15          1           0        3.408181   -0.484042    1.197210
     16          1           0        3.414740   -2.201561    0.511978
     17          1           0        1.048200   -2.011150   -0.173112
     18          1           0        1.325921   -1.759260    1.649450
     19          1           0        1.273241    0.680338   -1.169710
     20          1           0       -1.613660   -3.649879   -0.324749
     21          1           0       -4.424889   -0.871204    1.178140
     22          1           0       -2.784329    0.852255   -1.857080
     23          1           0       -3.738168    1.350682   -0.427600
     24          1           0       -1.595738    1.373121    0.906973
     25          1           0       -2.183308    3.252411   -1.269750
     26          1           0       -1.541908    3.672351    0.168356
     27          1           0       -3.691030   -3.234059    1.103620
     28          7           0       -2.228678    3.042611   -0.300391
     29          7           0       -1.910789   -1.556579   -0.813345
     30          7           0       -3.253010   -2.594709    0.535121
     31          7           0        0.511952    0.672447   -0.435033
     32          8           0        3.487371   -1.762821   -1.837910
     33          8           0       -0.174918    2.276360   -1.853260
     34          8           0        1.568521    0.164394    2.952750
     35          8           0        3.398281    0.412596   -1.241390
     36          8           0        1.444152    1.997330    1.786300
 ---------------------------------------------------------------------

 SCF Done:  E(RHF) =  -1019.14872516     A.U. after    2 cycles

 The electronic state is 1-A.
 Alpha  occ. eigenvalues --  -20.61737 -20.61569 -20.54261 -20.53931 -20.49521
 Alpha  occ. eigenvalues --  -15.56735 -15.51533 -15.48929 -15.47766 -11.40198
 Alpha  occ. eigenvalues --  -11.39860 -11.34130 -11.31585 -11.31241 -11.27266
 Alpha  occ. eigenvalues --  -11.27101 -11.26947 -11.26897 -11.26164 -11.24074
 Alpha  occ. eigenvalues --   -1.58556  -1.55967  -1.46529  -1.46028  -1.44414
 Alpha  occ. eigenvalues --   -1.36172  -1.24785  -1.19761  -1.18467  -1.10486
 Alpha  occ. eigenvalues --   -1.06393  -1.02891  -0.99654  -0.91824  -0.90230
 Alpha  occ. eigenvalues --   -0.88564  -0.85368  -0.82729  -0.81756  -0.79252
 Alpha  occ. eigenvalues --   -0.77195  -0.74905  -0.73001  -0.72327  -0.71526
 Alpha  occ. eigenvalues --   -0.69705  -0.67925  -0.66622  -0.66461  -0.65457
 Alpha  occ. eigenvalues --   -0.64722  -0.63480  -0.63436  -0.62616  -0.61896
 Alpha  occ. eigenvalues --   -0.60551  -0.59890  -0.58798  -0.57506  -0.55428
 Alpha  occ. eigenvalues --   -0.54925  -0.53983  -0.52428  -0.52088  -0.51511
 Alpha  occ. eigenvalues --   -0.48289  -0.48134  -0.47485  -0.46623  -0.44820
 Alpha  occ. eigenvalues --   -0.44493  -0.44250  -0.40463  -0.39878  -0.34328
 Alpha virt. eigenvalues --    0.01965   0.03066   0.03479   0.03698   0.04366
 Alpha virt. eigenvalues --    0.04492   0.04977   0.05491   0.06026   0.07004
 Alpha virt. eigenvalues --    0.07339   0.07630   0.08684   0.09200   0.09458

 Mulliken charges:
               1
     1  C   -2.382763
     2  C    2.975942
     3  C   -0.477850
     4  C    3.536595
     5  C   -2.029109
     6  C   -0.829163
     7  C   -0.280038
     8  C    0.139807
     9  C   -0.299334
    10  C    0.475236
    11  C   -1.208698
    12  H    0.463144
    13  H    0.315158
    14  H    0.366138
    15  H    0.353951
    16  H    0.225479
    17  H    0.226068
    18  H    0.278968
    19  H    0.072960
    20  H   -0.125745
    21  H   -0.284977
    22  H    0.257071
    23  H    0.380074
    24  H    0.009499
    25  H    0.244333
    26  H    0.190942
    27  H   -0.111973
    28  N    1.020859
    29  N    1.397272
    30  N    0.897621
    31  N    1.456930
    32  O   -1.388047
    33  O   -1.521466
    34  O   -1.481771
    35  O   -1.433011
    36  O   -1.430102
 Sum of Mulliken charges =   0.00000

 Dipole moment (field-independent basis, Debye):
    X=             -1.4199    Y=             -5.4470    Z=              3.2347  Tot=              6.4922

 Test job not archived.
 1\1\GINC-SE455\SP\RHF\Aug-CC-pVDZ\C11H16N4O5\OHZDE\08-Apr-2025\0\\#t h
 f aug-cc-pvdz iop(5/13=1,5/36=2,99/5=2) pseudo=read geom=check guess=(
 read,tcheck) scf=(maxcycle=1)\\title\\0,1\C,0,-1.73892,1.66729,-0.1379
 79\C,0,3.3374,-0.757905,-0.957567\C,0,1.41134,-1.32998,0.640444\C,0,1.
 25689,0.718312,1.92111\C,0,0.623184,-0.0610951,0.788219\C,0,2.97011,-1
 .18485,0.413718\C,0,-3.63368,-1.25168,0.543846\C,0,-2.74271,-0.614078,
 -0.276288\C,0,-2.80544,0.778398,-0.758363\C,0,-0.418954,1.52161,-0.919
 3\C,0,-2.182,-2.69377,-0.252254\H,0,-0.422017,-0.218342,1.14473\H,0,1.

 Normal termination of Gaussian 16 at Tue Apr  8 20:50:09 2025.
