 Gaussian 16, Revision C.01,

 ----------------------------------------------------------------------
 #t hf aug-cc-pvdz symm=none int=(grid=ultrafine) guess=(read,tcheck) s
 table=(opt,rrhf)
 ----------------------------------------------------------------------
 -----
 title
 -----
 Symbolic Z-matrix:
 Charge =  0 Multiplicity = 1

 SCF Done:  E(RHF) =  -428.535690399     A.U. after   15 cycles
 Normal termination of Gaussian 16 at Tue Apr  8 21:50:00 2025.
 Gaussian 16:  ES64L-G16RevC.01  3-Jul-2019

 ----------------------------------------------------------------------
 #t hf aug-cc-pvdz iop(5/13=1,5/36=2,99/5=2) pseudo=read geom=check gue
 ss=(read,tcheck) scf=(maxcycle=1)
 ----------------------------------------------------------------------
 -----
 title
 -----
 Structure from the checkpoint file:  "ANI1ccx_676_conf2_mol1.chk"
 Charge =  0 Multiplicity = 1

                         Standard orientation:
 ---------------------------------------------------------------------
 Center     Atomic      Atomic             Coordinates (Angstroms)
 Number     Number       Type             X           Y           Z
 ---------------------------------------------------------------------
      1          6           0        2.450950   -0.967599   -0.477063
      2          6           0        1.246580   -0.370511    0.172380
      3          6           0       -0.028323    1.634119   -0.007440
      4          1           0        2.614320   -1.992201   -0.125040
      5          1           0        2.293990   -0.995888   -1.515110
      6          1           0        3.317500   -0.310912   -0.319869
      7          7           0        0.971803    0.921148   -0.251720
      8          7           0       -2.120360   -0.746576   -0.443530
      9          7           0       -2.763470   -1.578920   -0.072674
     10          8           0       -0.960847    2.312309    0.099646
     11          8           0        0.603738   -0.893136    1.051380
 ---------------------------------------------------------------------

 SCF Done:  E(RHF) =  -428.945752553     A.U. after    2 cycles

 The electronic state is 1-A.
 Alpha  occ. eigenvalues --  -20.64842 -20.54768 -15.62516 -15.62431 -15.54908
 Alpha  occ. eigenvalues --  -11.46190 -11.39796 -11.25942  -1.59321  -1.49821
 Alpha  occ. eigenvalues --   -1.47708  -1.29077  -1.06164  -0.92642  -0.82466
 Alpha  occ. eigenvalues --   -0.77721  -0.71951  -0.70664  -0.70185  -0.68032
 Alpha  occ. eigenvalues --   -0.66017  -0.65948  -0.64066  -0.63239  -0.59236
 Alpha  occ. eigenvalues --   -0.54875  -0.53064  -0.46685  -0.45215
 Alpha virt. eigenvalues --    0.03342   0.05022   0.05181   0.06573   0.08467
 Alpha virt. eigenvalues --    0.08791   0.09387   0.09758   0.09938   0.10277
 Alpha virt. eigenvalues --    0.12025   0.12382   0.12829   0.13498   0.14537

 Mulliken charges:
               1
     1  C   -0.230165
     2  C    0.534925
     3  C    0.189602
     4  H    0.225851
     5  H    0.161279
     6  H    0.287044
     7  N    0.804794
     8  N    0.163455
     9  N   -0.226442
    10  O   -0.748778
    11  O   -1.161565
 Sum of Mulliken charges =   0.00000

 Dipole moment (field-independent basis, Debye):
    X=              1.6644    Y=              0.2164    Z=             -1.6031  Tot=              2.3209

 Test job not archived.
 1\1\GINC-SE455\SP\RHF\Aug-CC-pVDZ\C3H3N3O2\OHZDE\08-Apr-2025\0\\#t hf
 aug-cc-pvdz iop(5/13=1,5/36=2,99/5=2) pseudo=read geom=check guess=(re
 ad,tcheck) scf=(maxcycle=1)\\title\\0,1\C,0,2.45095,-0.967598,-0.47706
 3\C,0,1.24658,-0.37051,0.17238\C,0,-0.0283236,1.63412,-0.00744068\H,0,
 2.61432,-1.9922,-0.12504\H,0,2.29399,-0.995887,-1.51511\H,0,3.3175,-0.
 310911,-0.319869\N,0,0.971802,0.921149,-0.25172\N,0,-2.12036,-0.746576
 ,-0.44353\N,0,-2.76347,-1.57892,-0.072674\O,0,-0.960848,2.31231,0.0996
 454\O,0,0.603738,-0.893135,1.05138\\Version=ES64L-G16RevC.01\State=1-A

 Normal termination of Gaussian 16 at Tue Apr  8 21:50:05 2025.
