 Gaussian 16, Revision C.01,

 ----------------------------------------------------------------------
 #t hf aug-cc-pvdz symm=none int=(grid=ultrafine) guess=(read,tcheck) s
 table=(opt,rrhf)
 ----------------------------------------------------------------------
 -----
 title
 -----
 Symbolic Z-matrix:
 Charge =  0 Multiplicity = 1

 SCF Done:  E(RHF) =  -485.845424968     A.U. after   14 cycles
 Normal termination of Gaussian 16 at Tue Apr  8 21:55:42 2025.
 Gaussian 16:  ES64L-G16RevC.01  3-Jul-2019

 ----------------------------------------------------------------------
 #t hf aug-cc-pvdz iop(5/13=1,5/36=2,99/5=2) pseudo=read geom=check gue
 ss=(read,tcheck) scf=(maxcycle=1)
 ----------------------------------------------------------------------
 -----
 title
 -----
 Structure from the checkpoint file:  "ANI1ccx_768_conf2_mol2.chk"
 Charge =  0 Multiplicity = 1

                         Standard orientation:
 ---------------------------------------------------------------------
 Center     Atomic      Atomic             Coordinates (Angstroms)
 Number     Number       Type             X           Y           Z
 ---------------------------------------------------------------------
      1          6           0       -1.906320    0.057854    0.014405
      2          6           0        1.431450   -0.856182    0.681243
      3          6           0        2.152010    0.227739   -0.096267
      4          1           0        0.556192    1.235999    0.098789
      5          1           0        1.978530   -1.784031    0.552187
      6          1           0       -0.327181   -1.854911    0.702847
      7          1           0        1.460510   -0.612502    1.752770
      8          1           0       -2.382740    1.777089    0.879731
      9          1           0       -1.588410   -1.404831   -1.317840
     10          1           0       -3.205640   -0.810383   -1.327970
     11          1           0       -3.360470    1.402339   -0.427856
     12          7           0       -2.333920   -0.927170   -0.819137
     13          7           0       -2.829290    1.022469    0.349660
     14          7           0       -0.742838    0.075048    0.572500
     15          7           0        0.050480   -1.044761    0.196883
     16          8           0        1.454740    1.358859   -0.306085
     17          8           0        3.269680    0.090598   -0.519950
 ---------------------------------------------------------------------

 SCF Done:  E(RHF) =  -486.339048706     A.U. after    2 cycles

 The electronic state is 1-A.
 Alpha  occ. eigenvalues --  -20.56686 -20.51217 -15.54853 -15.54530 -15.54194
 Alpha  occ. eigenvalues --  -15.51070 -11.37618 -11.37202 -11.27953  -1.51588
 Alpha  occ. eigenvalues --   -1.42902  -1.34889  -1.26219  -1.20615  -1.12015
 Alpha  occ. eigenvalues --   -0.96721  -0.86923  -0.80965  -0.80361  -0.78800
 Alpha  occ. eigenvalues --   -0.73008  -0.70417  -0.69592  -0.68603  -0.64266
 Alpha  occ. eigenvalues --   -0.62770  -0.60818  -0.58531  -0.55274  -0.54009
 Alpha  occ. eigenvalues --   -0.50580  -0.47510  -0.44427  -0.42604  -0.39262
 Alpha virt. eigenvalues --    0.01590   0.03585   0.04189   0.04955   0.05401
 Alpha virt. eigenvalues --    0.06151   0.07153   0.07539   0.10001   0.10364
 Alpha virt. eigenvalues --    0.11842   0.12038   0.13110   0.13775   0.14329

 Mulliken charges:
               1
     1  C   -1.689173
     2  C   -0.633494
     3  C    2.079157
     4  H    0.670806
     5  H    0.007673
     6  H    0.330423
     7  H    0.179775
     8  H    0.232170
     9  H    0.270052
    10  H    0.065708
    11  H    0.154477
    12  N    0.601042
    13  N    0.540689
    14  N    0.097877
    15  N   -0.331837
    16  O   -1.365369
    17  O   -1.209976
 Sum of Mulliken charges =  -0.00000

 Dipole moment (field-independent basis, Debye):
    X=             -7.2615    Y=             -1.1731    Z=              0.0239  Tot=              7.3557

 Test job not archived.
 1\1\GINC-SE105\SP\RHF\Aug-CC-pVDZ\C3H8N4O2\OHZDE\08-Apr-2025\0\\#t hf
 aug-cc-pvdz iop(5/13=1,5/36=2,99/5=2) pseudo=read geom=check guess=(re
 ad,tcheck) scf=(maxcycle=1)\\title\\0,1\C,0,-1.90632,0.0578546,0.01440
 51\C,0,1.43145,-0.856181,0.681243\C,0,2.15201,0.22774,-0.0962672\H,0,0
 .556192,1.236,0.0987895\H,0,1.97853,-1.78403,0.552187\H,0,-0.327181,-1
 .85491,0.702847\H,0,1.46051,-0.612501,1.75277\H,0,-2.38274,1.77709,0.8
 79731\H,0,-1.58841,-1.40483,-1.31784\H,0,-3.20564,-0.810382,-1.32797\H
 ,0,-3.36047,1.40234,-0.427856\N,0,-2.33392,-0.927169,-0.819137\N,0,-2.

 Normal termination of Gaussian 16 at Tue Apr  8 21:55:49 2025.
