 Gaussian 16, Revision C.01,

 ----------------------------------------------------------------------
 #t hf aug-cc-pvdz symm=none int=(grid=ultrafine) guess=(read,tcheck) s
 table=(opt,rrhf)
 ----------------------------------------------------------------------
 -----
 title
 -----
 Symbolic Z-matrix:
 Charge =  0 Multiplicity = 1

 SCF Done:  E(RHF) =  -615.380772957     A.U. after   17 cycles
 Normal termination of Gaussian 16 at Tue Apr  8 19:18:44 2025.
 Gaussian 16:  ES64L-G16RevC.01  3-Jul-2019

 ----------------------------------------------------------------------
 #t hf aug-cc-pvdz iop(5/13=1,5/36=2,99/5=2) pseudo=read geom=check gue
 ss=(read,tcheck) scf=(maxcycle=1)
 ----------------------------------------------------------------------
 -----
 title
 -----
 Structure from the checkpoint file:  "ANI1ccx_1144_conf15_mol1.chk"
 Charge =  0 Multiplicity = 1

                         Standard orientation:
 ---------------------------------------------------------------------
 Center     Atomic      Atomic             Coordinates (Angstroms)
 Number     Number       Type             X           Y           Z
 ---------------------------------------------------------------------
      1          6           0        2.533519   -2.105012    0.106918
      2          6           0        0.212507   -0.948431   -0.094111
      3          6           0       -1.965270   -0.435974    0.062549
      4          6           0       -0.593641    1.293680    0.022095
      5          6           0        0.569094    0.402942   -0.041608
      6          1           0        0.763888    2.724799   -0.030668
      7          1           0       -3.898820   -0.011630   -0.031306
      8          1           0        0.617815   -2.880841   -0.013628
      9          1           0       -3.406301   -1.860178   -0.478534
     10          1           0        2.860619   -1.385052    0.945727
     11          1           0        3.150829   -1.861082   -0.837377
     12          1           0        2.627888   -3.194432    0.517579
     13          7           0        1.057619   -1.996021   -0.099199
     14          7           0       -1.046711   -1.389079   -0.041853
     15          7           0       -3.236420   -0.870064   -0.001425
     16          7           0       -1.839999    0.959822    0.198852
     17          7           0        1.856731    0.800107   -0.019012
     18          8           0       -0.255056    2.562210   -0.049282
     19          8           0        2.156092    2.024268   -0.034265
 ---------------------------------------------------------------------

 SCF Done:  E(RHF) =  -615.989260289     A.U. after    2 cycles

 The electronic state is 1-A.
 Alpha  occ. eigenvalues --  -20.57592 -20.57459 -15.63876 -15.55538 -15.54603
 Alpha  occ. eigenvalues --  -15.51197 -15.50197 -11.38746 -11.38580 -11.36883
 Alpha  occ. eigenvalues --  -11.31175 -11.27495  -1.54791  -1.50155  -1.35225
 Alpha  occ. eigenvalues --   -1.28483  -1.22105  -1.19580  -1.15926  -1.00204
 Alpha  occ. eigenvalues --   -0.95336  -0.90858  -0.87417  -0.83416  -0.78775
 Alpha  occ. eigenvalues --   -0.76086  -0.72732  -0.70521  -0.68423  -0.67086
 Alpha  occ. eigenvalues --   -0.64493  -0.63127  -0.62448  -0.61361  -0.58429
 Alpha  occ. eigenvalues --   -0.57408  -0.56021  -0.55833  -0.53319  -0.48463
 Alpha  occ. eigenvalues --   -0.45737  -0.42534  -0.41096  -0.37379
 Alpha virt. eigenvalues --    0.02534   0.02895   0.03508   0.04539   0.05119
 Alpha virt. eigenvalues --    0.05603   0.06162   0.07238   0.09367   0.09855
 Alpha virt. eigenvalues --    0.10158   0.10726   0.11683   0.12062   0.12791

 Mulliken charges:
               1
     1  C   -0.504003
     2  C   -2.187454
     3  C   -0.927880
     4  C    0.786485
     5  C   -0.598534
     6  H    0.635253
     7  H    0.285972
     8  H    0.098457
     9  H    0.204418
    10  H    0.276869
    11  H    0.251004
    12  H    0.196002
    13  N    0.819184
    14  N    0.697704
    15  N    0.606681
    16  N    0.774274
    17  N    1.805246
    18  O   -1.782254
    19  O   -1.437425
 Sum of Mulliken charges =   0.00000

 Dipole moment (field-independent basis, Debye):
    X=             -1.0010    Y=             -4.5982    Z=             -0.6808  Tot=              4.7549

 Test job not archived.
 1\1\GINC-SE362\SP\RHF\Aug-CC-pVDZ\C5H7N5O2\OHZDE\08-Apr-2025\0\\#t hf
 aug-cc-pvdz iop(5/13=1,5/36=2,99/5=2) pseudo=read geom=check guess=(re
 ad,tcheck) scf=(maxcycle=1)\\title\\0,1\C,0,2.53352,-2.10501,0.106918\
 C,0,0.212507,-0.948431,-0.0941107\C,0,-1.96527,-0.435975,0.0625488\C,0
 ,-0.593642,1.29368,0.0220946\C,0,0.569093,0.402943,-0.0416082\H,0,0.76
 3886,2.7248,-0.0306681\H,0,-3.89882,-0.0116325,-0.0313064\H,0,0.617817
 ,-2.88084,-0.0136279\H,0,-3.4063,-1.86018,-0.478534\H,0,2.86062,-1.385
 05,0.945727\H,0,3.15083,-1.86108,-0.837377\H,0,2.62789,-3.19443,0.5175

 Normal termination of Gaussian 16 at Tue Apr  8 19:18:55 2025.
