 Gaussian 16, Revision C.01,

 ----------------------------------------------------------------------
 #t hf aug-cc-pvdz symm=none int=(grid=ultrafine) guess=(read,tcheck) s
 table=(opt,rrhf)
 ----------------------------------------------------------------------
 -----
 title
 -----
 Symbolic Z-matrix:
 Charge =  0 Multiplicity = 1

 SCF Done:  E(RHF) =  -927.486086255     A.U. after   15 cycles
 Normal termination of Gaussian 16 at Tue Apr  8 22:21:20 2025.
 Gaussian 16:  ES64L-G16RevC.01  3-Jul-2019

 ----------------------------------------------------------------------
 #t hf aug-cc-pvdz iop(5/13=1,5/36=2,99/5=2) pseudo=read geom=check gue
 ss=(read,tcheck) scf=(maxcycle=1)
 ----------------------------------------------------------------------
 -----
 title
 -----
 Structure from the checkpoint file:  "ANI1ccx_79_conf11_mol1.chk"
 Charge =  0 Multiplicity = 1

                         Standard orientation:
 ---------------------------------------------------------------------
 Center     Atomic      Atomic             Coordinates (Angstroms)
 Number     Number       Type             X           Y           Z
 ---------------------------------------------------------------------
      1          6           0        2.239539   -0.093734   -0.826940
      2          6           0       -2.460221    1.217651   -0.517626
      3          6           0       -2.798951   -0.321183   -0.673471
      4          6           0       -1.672241   -1.321739   -0.981390
      5          6           0       -0.751738   -1.439129    1.320580
      6          6           0       -3.782100    2.065112   -0.694938
      7          6           0        3.013170    1.788150    0.730210
      8          6           0        2.293219    0.419617    0.590257
      9          6           0        1.848659   -1.627980   -0.944310
     10          6           0       -0.438914   -1.152719   -0.037920
     11          1           0       -3.494041   -0.319226   -1.499650
     12          1           0       -1.438281   -0.968889    2.925130
     13          1           0       -5.646820    1.778142    0.194611
     14          1           0       -4.330121    1.342492    1.039610
     15          1           0       -3.697580    3.128502   -0.182246
     16          1           0       -4.059680    2.154422   -1.760740
     17          1           0       -1.923830    1.446341    0.431461
     18          1           0       -1.796970    1.444891   -1.404300
     19          1           0       -3.378161   -0.523936    0.178747
     20          1           0       -1.437131   -1.394679   -2.016800
     21          1           0        0.495510    0.623040   -1.611730
     22          1           0       -0.054866   -0.130892    0.037113
     23          1           0        0.574165   -2.978169   -0.250803
     24          1           0        1.945280    2.259540   -0.839686
     25          1           0        1.231139    0.464784    1.019420
     26          1           0        2.787289   -0.218082    1.378680
     27          1           0        3.282299   -0.068067   -1.262710
     28          1           0        1.777109    0.834307   -2.647980
     29          1           0       -2.135932   -2.304979   -0.712515
     30          7           0        1.468879    0.834604   -1.657590
     31          7           0        0.644356   -2.013909   -0.460815
     32          7           0       -4.767111    1.234872    0.131673
     33          8           0        2.394480    2.736730   -0.066703
     34          8           0       -0.793534   -2.510949    1.915910
     35          8           0        2.651848   -2.427200   -1.327400
     36          8           0        3.889160    2.080930    1.479490
     37          8           0       -1.275051   -0.399859    2.136800
 ---------------------------------------------------------------------

 SCF Done:  E(RHF) =  -928.427122582     A.U. after    2 cycles

 The electronic state is 1-A.
 Alpha  occ. eigenvalues --  -20.61737 -20.57471 -20.56240 -20.53836 -20.53632
 Alpha  occ. eigenvalues --  -15.55400 -15.55313 -15.50496 -11.43049 -11.39346
 Alpha  occ. eigenvalues --  -11.38535 -11.33696 -11.32785 -11.29579 -11.28832
 Alpha  occ. eigenvalues --  -11.28139 -11.26247 -11.24415  -1.56491  -1.51737
 Alpha  occ. eigenvalues --   -1.49946  -1.45284  -1.43779  -1.29488  -1.25004
 Alpha  occ. eigenvalues --   -1.19090  -1.12520  -1.07214  -1.05282  -0.97911
 Alpha  occ. eigenvalues --   -0.94126  -0.89169  -0.86722  -0.84660  -0.80687
 Alpha  occ. eigenvalues --   -0.80425  -0.76654  -0.75617  -0.74877  -0.72573
 Alpha  occ. eigenvalues --   -0.71066  -0.70908  -0.69767  -0.68464  -0.67274
 Alpha  occ. eigenvalues --   -0.66198  -0.65354  -0.64134  -0.63730  -0.62478
 Alpha  occ. eigenvalues --   -0.61967  -0.60352  -0.59543  -0.58668  -0.58619
 Alpha  occ. eigenvalues --   -0.56932  -0.55683  -0.55286  -0.52329  -0.50831
 Alpha  occ. eigenvalues --   -0.50505  -0.50250  -0.49196  -0.48969  -0.47703
 Alpha  occ. eigenvalues --   -0.46133  -0.45108  -0.44827  -0.44135  -0.42196
 Alpha virt. eigenvalues --    0.01709   0.02359   0.02879   0.03287   0.04218
 Alpha virt. eigenvalues --    0.04555   0.05093   0.05312   0.05618   0.06308
 Alpha virt. eigenvalues --    0.06992   0.07174   0.07953   0.08326   0.08553

 Mulliken charges:
               1
     1  C   -0.949882
     2  C   -0.234484
     3  C   -0.118050
     4  C   -0.440083
     5  C    2.964534
     6  C   -0.568786
     7  C    2.200820
     8  C   -0.173456
     9  C    0.899167
    10  C   -1.822918
    11  H    0.130762
    12  H    0.374664
    13  H    0.090280
    14  H    0.172472
    15  H    0.252458
    16  H    0.025367
    17  H    0.126622
    18  H    0.217725
    19  H    0.109059
    20  H    0.026528
    21  H    0.035379
    22  H    0.149665
    23  H    0.255592
    24  H    0.830829
    25  H    0.281788
    26  H    0.109232
    27  H    0.119477
    28  H    0.435147
    29  H    0.412782
    30  N    0.074870
    31  N    1.055116
    32  N    0.169627
    33  O   -1.484086
    34  O   -1.554096
    35  O   -1.417022
    36  O   -1.300884
    37  O   -1.456214
 Sum of Mulliken charges =  -0.00000

 Dipole moment (field-independent basis, Debye):
    X=             -6.5313    Y=              0.2239    Z=             -2.9237  Tot=              7.1593

 Test job not archived.
 1\1\GINC-SE126\SP\RHF\Aug-CC-pVDZ\C10H19N3O5\OHZDE\08-Apr-2025\0\\#t h
 f aug-cc-pvdz iop(5/13=1,5/36=2,99/5=2) pseudo=read geom=check guess=(
 read,tcheck) scf=(maxcycle=1)\\title\\0,1\C,0,2.23954,-0.0937338,-0.82
 694\C,0,-2.46022,1.21765,-0.517626\C,0,-2.79895,-0.321185,-0.673471\C,
 0,-1.67224,-1.32174,-0.98139\C,0,-0.751737,-1.43913,1.32058\C,0,-3.782
 1,2.06511,-0.694938\C,0,3.01317,1.78815,0.73021\C,0,2.29322,0.419617,0
 .590257\C,0,1.84866,-1.62798,-0.94431\C,0,-0.438913,-1.15272,-0.037920
 1\H,0,-3.49404,-0.319228,-1.49965\H,0,-1.43828,-0.96889,2.92513\H,0,-5

 Normal termination of Gaussian 16 at Tue Apr  8 22:22:28 2025.
