 Gaussian 16, Revision C.01,

 ----------------------------------------------------------------------
 #t hf aug-cc-pvdz symm=none int=(grid=ultrafine) guess=(read,tcheck) s
 table=(opt,rrhf)
 ----------------------------------------------------------------------
 -----
 title
 -----
 Symbolic Z-matrix:
 Charge =  0 Multiplicity = 1

 SCF Done:  E(RHF) =  -537.860863019     A.U. after   16 cycles
 Normal termination of Gaussian 16 at Tue Apr  8 22:18:37 2025.
 Gaussian 16:  ES64L-G16RevC.01  3-Jul-2019

 ----------------------------------------------------------------------
 #t hf aug-cc-pvdz iop(5/13=1,5/36=2,99/5=2) pseudo=read geom=check gue
 ss=(read,tcheck) scf=(maxcycle=1)
 ----------------------------------------------------------------------
 -----
 title
 -----
 Structure from the checkpoint file:  "ANI1ccx_988_conf6_mol1.chk"
 Charge =  0 Multiplicity = 1

                         Standard orientation:
 ---------------------------------------------------------------------
 Center     Atomic      Atomic             Coordinates (Angstroms)
 Number     Number       Type             X           Y           Z
 ---------------------------------------------------------------------
      1          6           0        2.067101   -0.397509   -0.021101
      2          6           0        0.757068    1.708320    0.518533
      3          6           0       -0.713834    1.809211    0.138327
      4          6           0       -1.400629    0.505581   -0.082281
      5          1           0       -0.097909   -1.126579    0.688106
      6          1           0       -0.787959    2.441651   -0.764952
      7          1           0       -1.308729    2.341251    0.943657
      8          1           0        1.202781    2.660890    0.568096
      9          1           0        0.766899    1.407930    1.609640
     10          1           0        2.036550   -2.124280    0.716761
     11          1           0        3.736131   -1.566130   -0.565280
     12          1           0        3.756031   -0.034090   -1.161790
     13          1           0        1.902261    1.365790   -1.103380
     14          7           0       -2.036989   -1.535899    0.193870
     15          7           0        3.153991   -0.761052   -0.797141
     16          7           0        1.620161   -1.217590    0.884482
     17          7           0        1.607731    0.862530   -0.255803
     18          7           0       -2.588749    0.397142   -0.598073
     19          7           0       -2.933489   -0.899716   -0.437727
     20          7           0       -1.031839   -0.719708    0.403001
 ---------------------------------------------------------------------

 SCF Done:  E(RHF) =  -538.412301173     A.U. after    2 cycles

 The electronic state is 1-A.
 Alpha  occ. eigenvalues --  -15.56463 -15.56004 -15.55628 -15.55063 -15.54067
 Alpha  occ. eigenvalues --  -15.50431 -15.48140 -11.39680 -11.30606 -11.30230
 Alpha  occ. eigenvalues --  -11.27369  -1.46027  -1.33586  -1.23515  -1.23373
 Alpha  occ. eigenvalues --   -1.18956  -1.17317  -1.06849  -0.95828  -0.90875
 Alpha  occ. eigenvalues --   -0.88126  -0.85391  -0.81871  -0.77574  -0.76097
 Alpha  occ. eigenvalues --   -0.70646  -0.69829  -0.69664  -0.66527  -0.64546
 Alpha  occ. eigenvalues --   -0.61218  -0.59324  -0.56674  -0.52875  -0.51325
 Alpha  occ. eigenvalues --   -0.49873  -0.49075  -0.47665  -0.46583  -0.43127
 Alpha  occ. eigenvalues --   -0.41458
 Alpha virt. eigenvalues --    0.01155   0.02555   0.03286   0.03957   0.05066
 Alpha virt. eigenvalues --    0.05091   0.06722   0.07253   0.08572   0.09278
 Alpha virt. eigenvalues --    0.10850   0.11229   0.12302   0.12958   0.13486

 Mulliken charges:
               1
     1  C   -2.045697
     2  C   -0.633493
     3  C   -0.146415
     4  C   -1.298483
     5  H    0.201663
     6  H    0.216737
     7  H    0.368585
     8  H   -0.023379
     9  H    0.208471
    10  H    0.165383
    11  H    0.141522
    12  H    0.031946
    13  H    0.310423
    14  N   -0.147854
    15  N    0.547048
    16  N    0.666079
    17  N    0.628912
    18  N    0.596045
    19  N   -0.393562
    20  N    0.606068
 Sum of Mulliken charges =  -0.00000

 Dipole moment (field-independent basis, Debye):
    X=             10.0010    Y=              4.1381    Z=             -0.4812  Tot=             10.8339

 Test job not archived.
 1\1\GINC-SE043\SP\RHF\Aug-CC-pVDZ\C4H9N7\OHZDE\08-Apr-2025\0\\#t hf au
 g-cc-pvdz iop(5/13=1,5/36=2,99/5=2) pseudo=read geom=check guess=(read
 ,tcheck) scf=(maxcycle=1)\\title\\0,1\C,0,2.0671,-0.397509,-0.0211015\
 C,0,0.757067,1.70832,0.518533\C,0,-0.713835,1.80921,0.138327\C,0,-1.40
 063,0.50558,-0.0822808\H,0,-0.0979099,-1.12658,0.688106\H,0,-0.78796,2
 .44165,-0.764952\H,0,-1.30873,2.34125,0.943657\H,0,1.20278,2.66089,0.5
 68096\H,0,0.766898,1.40793,1.60964\H,0,2.03655,-2.12428,0.716761\H,0,3
 .73613,-1.56613,-0.56528\H,0,3.75603,-0.0340902,-1.16179\H,0,1.90226,1

 Normal termination of Gaussian 16 at Tue Apr  8 22:18:51 2025.
