 Gaussian 16, Revision C.01,

 ----------------------------------------------------------------------
 #t hf aug-cc-pvdz symm=none int=(grid=ultrafine) guess=(read,tcheck) s
 table=(opt,rrhf)
 ----------------------------------------------------------------------
 -----
 title
 -----
 Symbolic Z-matrix:
 Charge =  0 Multiplicity = 1

 SCF Done:  E(RHF) =  -563.414616473     A.U. after   15 cycles
 Normal termination of Gaussian 16 at Tue Apr  8 22:09:06 2025.
 Gaussian 16:  ES64L-G16RevC.01  3-Jul-2019

 ----------------------------------------------------------------------
 #t hf aug-cc-pvdz iop(5/13=1,5/36=2,99/5=2) pseudo=read geom=check gue
 ss=(read,tcheck) scf=(maxcycle=1)
 ----------------------------------------------------------------------
 -----
 title
 -----
 Structure from the checkpoint file:  "ANI1ccx_918_conf4_mol1.chk"
 Charge =  0 Multiplicity = 1

                         Standard orientation:
 ---------------------------------------------------------------------
 Center     Atomic      Atomic             Coordinates (Angstroms)
 Number     Number       Type             X           Y           Z
 ---------------------------------------------------------------------
      1          6           0        1.132969   -0.126503   -0.009603
      2          6           0       -1.014561   -1.186420   -0.078723
      3          6           0       -1.529741    0.087043    0.441697
      4          6           0       -0.811647    1.317970   -0.041289
      5          1           0        3.156879   -0.181388   -0.192198
      6          1           0        2.390659    0.489117   -1.535530
      7          1           0        1.706839    0.729372    1.755650
      8          1           0        0.714774   -0.575983    1.944880
      9          1           0       -2.583301    0.166744    0.191264
     10          1           0       -1.435701    0.124123    1.529320
     11          7           0        2.329009   -0.159125   -0.767160
     12          7           0        1.467089   -0.192196    1.403710
     13          8           0        0.351062   -1.217270   -0.371148
     14          8           0       -1.689741   -2.148050   -0.293216
     15          8           0       -1.330850    2.406260   -0.245925
     16          8           0        0.521410    1.103400   -0.342426
 ---------------------------------------------------------------------

 SCF Done:  E(RHF) =  -563.970925434     A.U. after    2 cycles

 The electronic state is 1-A.
 Alpha  occ. eigenvalues --  -20.62306 -20.62061 -20.57199 -20.57162 -15.53514
 Alpha  occ. eigenvalues --  -15.51030 -11.45381 -11.43741 -11.43151 -11.30878
 Alpha  occ. eigenvalues --   -1.60697  -1.55383  -1.50213  -1.47284  -1.25761
 Alpha  occ. eigenvalues --   -1.18822  -1.11680  -0.95333  -0.90536  -0.81109
 Alpha  occ. eigenvalues --   -0.80535  -0.77743  -0.75705  -0.72494  -0.69864
 Alpha  occ. eigenvalues --   -0.69280  -0.67993  -0.66545  -0.63283  -0.61213
 Alpha  occ. eigenvalues --   -0.58131  -0.56813  -0.52744  -0.50129  -0.49307
 Alpha  occ. eigenvalues --   -0.48872  -0.47718  -0.45426
 Alpha virt. eigenvalues --    0.02137   0.03836   0.04453   0.05207   0.06053
 Alpha virt. eigenvalues --    0.06265   0.08921   0.09598   0.09710   0.10568
 Alpha virt. eigenvalues --    0.11396   0.12043   0.12578   0.13006   0.13647

 Mulliken charges:
               1
     1  C    0.249696
     2  C    1.840506
     3  C   -0.560948
     4  C    1.834535
     5  H    0.277705
     6  H    0.208433
     7  H    0.252108
     8  H    0.142697
     9  H    0.127747
    10  H    0.476434
    11  N    0.623415
    12  N    0.349085
    13  O   -1.562247
    14  O   -1.318701
    15  O   -1.365993
    16  O   -1.574472
 Sum of Mulliken charges =  -0.00000

 Dipole moment (field-independent basis, Debye):
    X=              1.4592    Y=              1.4002    Z=              2.8926  Tot=              3.5294

 Test job not archived.
 1\1\GINC-SE334\SP\RHF\Aug-CC-pVDZ\C4H6N2O4\OHZDE\08-Apr-2025\0\\#t hf
 aug-cc-pvdz iop(5/13=1,5/36=2,99/5=2) pseudo=read geom=check guess=(re
 ad,tcheck) scf=(maxcycle=1)\\title\\0,1\C,0,1.13297,-0.126503,-0.00960
 334\C,0,-1.01456,-1.18642,-0.0787225\C,0,-1.52974,0.0870429,0.441697\C
 ,0,-0.811647,1.31797,-0.0412888\H,0,3.15688,-0.181387,-0.192198\H,0,2.
 39066,0.489118,-1.53553\H,0,1.70684,0.729373,1.75565\H,0,0.714775,-0.5
 75983,1.94488\H,0,-2.5833,0.166743,0.191264\H,0,-1.4357,0.124123,1.529
 32\N,0,2.32901,-0.159124,-0.76716\N,0,1.46709,-0.192196,1.40371\O,0,0.

 Normal termination of Gaussian 16 at Tue Apr  8 22:09:14 2025.
