 Gaussian 16, Revision C.01,

 ----------------------------------------------------------------------
 #t hf aug-cc-pvdz symm=none int=(grid=ultrafine) guess=(read,tcheck) s
 table=(opt,rrhf)
 ----------------------------------------------------------------------
 -----
 title
 -----
 Symbolic Z-matrix:
 Charge =  0 Multiplicity = 1

 SCF Done:  E(RHF) =  -717.488037323     A.U. after   14 cycles
 Normal termination of Gaussian 16 at Tue Apr  8 19:24:36 2025.
 Gaussian 16:  ES64L-G16RevC.01  3-Jul-2019

 ----------------------------------------------------------------------
 #t hf aug-cc-pvdz iop(5/13=1,5/36=2,99/5=2) pseudo=read geom=check gue
 ss=(read,tcheck) scf=(maxcycle=1)
 ----------------------------------------------------------------------
 -----
 title
 -----
 Structure from the checkpoint file:  "ANI1ccx_1215_conf7_mol1.chk"
 Charge =  0 Multiplicity = 1

                         Standard orientation:
 ---------------------------------------------------------------------
 Center     Atomic      Atomic             Coordinates (Angstroms)
 Number     Number       Type             X           Y           Z
 ---------------------------------------------------------------------
      1          6           0        1.262801   -0.173957   -0.061737
      2          6           0        0.686632    0.069013    1.316490
      3          6           0        2.563811   -0.881716   -0.172544
      4          6           0       -1.773640    0.418826    0.301147
      5          6           0       -2.063598   -1.085173   -0.128496
      6          6           0       -1.544251    1.234378   -0.982731
      7          1           0       -1.209496   -2.855112   -0.150404
      8          1           0       -0.059782    2.339689   -0.409410
      9          1           0       -0.824469    0.787092   -1.707260
     10          1           0       -2.550641    1.395556   -1.413580
     11          1           0       -2.657110    0.825246    0.802362
     12          1           0       -0.999692    0.718299    2.264260
     13          1           0        2.461813   -1.915658    0.006480
     14          1           0        3.406831   -0.462374    0.424378
     15          1           0        0.492452   -0.726860   -0.630353
     16          1           0        1.901619    1.328691   -1.425400
     17          1           0        2.051049    1.695201    0.136411
     18          1           0        2.459912   -1.155178   -2.146020
     19          7           0        1.467299    1.251281   -0.546641
     20          7           0       -0.689541    0.485419    1.326580
     21          8           0       -0.994372    2.511108   -0.650850
     22          8           0        1.348940    0.190614    2.317640
     23          8           0        3.093651   -0.768570   -1.515690
     24          8           0       -3.024148   -1.451314   -0.694668
     25          8           0       -1.012487   -1.934302    0.188095
 ---------------------------------------------------------------------

 SCF Done:  E(RHF) =  -718.206522147     A.U. after    2 cycles

 The electronic state is 1-A.
 Alpha  occ. eigenvalues --  -20.62235 -20.56922 -20.56666 -20.53783 -20.52825
 Alpha  occ. eigenvalues --  -15.53418 -15.51326 -11.41938 -11.38378 -11.32678
 Alpha  occ. eigenvalues --  -11.30586 -11.30063 -11.30020  -1.56838  -1.48866
 Alpha  occ. eigenvalues --   -1.48331  -1.45804  -1.43027  -1.23412  -1.20803
 Alpha  occ. eigenvalues --   -1.05035  -1.03424  -0.92374  -0.89699  -0.84344
 Alpha  occ. eigenvalues --   -0.79352  -0.75989  -0.74541  -0.72475  -0.71237
 Alpha  occ. eigenvalues --   -0.70911  -0.68308  -0.67930  -0.66569  -0.65615
 Alpha  occ. eigenvalues --   -0.62930  -0.62784  -0.62012  -0.58439  -0.58241
 Alpha  occ. eigenvalues --   -0.57265  -0.55949  -0.52307  -0.51739  -0.50466
 Alpha  occ. eigenvalues --   -0.48270  -0.47861  -0.45805  -0.44400  -0.43872
 Alpha  occ. eigenvalues --   -0.41803
 Alpha virt. eigenvalues --    0.02184   0.03303   0.03785   0.04453   0.05029
 Alpha virt. eigenvalues --    0.05056   0.06282   0.06421   0.07037   0.08510
 Alpha virt. eigenvalues --    0.09154   0.09604   0.10280   0.10613   0.11559

 Mulliken charges:
               1
     1  C   -0.843181
     2  C    0.894535
     3  C    1.013500
     4  C   -1.646309
     5  C    2.831894
     6  C    0.895074
     7  H    0.466481
     8  H    0.597294
     9  H    0.214177
    10  H    0.091676
    11  H    0.180472
    12  H    0.266750
    13  H    0.014405
    14  H    0.150510
    15  H    0.196497
    16  H    0.192289
    17  H    0.322900
    18  H    0.347757
    19  N   -0.104115
    20  N    0.786413
    21  O   -1.408417
    22  O   -1.409035
    23  O   -1.225478
    24  O   -1.365041
    25  O   -1.461050
 Sum of Mulliken charges =  -0.00000

 Dipole moment (field-independent basis, Debye):
    X=             -0.0127    Y=             -2.8133    Z=             -1.3001  Tot=              3.0992

 Test job not archived.
 1\1\GINC-SE366\SP\RHF\Aug-CC-pVDZ\C6H12N2O5\OHZDE\08-Apr-2025\0\\#t hf
  aug-cc-pvdz iop(5/13=1,5/36=2,99/5=2) pseudo=read geom=check guess=(r
 ead,tcheck) scf=(maxcycle=1)\\title\\0,1\C,0,1.2628,-0.173958,-0.06173
 65\C,0,0.686632,0.0690133,1.31649\C,0,2.56381,-0.881718,-0.172544\C,0,
 -1.77364,0.418829,0.301147\C,0,-2.0636,-1.08517,-0.128496\C,0,-1.54425
 ,1.23438,-0.982731\H,0,-1.2095,-2.85511,-0.150404\H,0,-0.0597798,2.339
 69,-0.40941\H,0,-0.824469,0.787094,-1.70726\H,0,-2.55064,1.39556,-1.41
 358\H,0,-2.65711,0.82525,0.802362\H,0,-0.999692,0.718301,2.26426\H,0,2

 Normal termination of Gaussian 16 at Tue Apr  8 19:24:54 2025.
