 Gaussian 16, Revision C.01,

 ----------------------------------------------------------------------
 #t hf aug-cc-pvdz symm=none int=(grid=ultrafine) guess=(read,tcheck) s
 table=(opt,rrhf)
 ----------------------------------------------------------------------
 -----
 title
 -----
 Symbolic Z-matrix:
 Charge =  0 Multiplicity = 1

 SCF Done:  E(RHF) =  -413.898351035     A.U. after   13 cycles
 Normal termination of Gaussian 16 at Tue Apr  8 21:48:00 2025.
 Gaussian 16:  ES64L-G16RevC.01  3-Jul-2019

 ----------------------------------------------------------------------
 #t hf aug-cc-pvdz iop(5/13=1,5/36=2,99/5=2) pseudo=read geom=check gue
 ss=(read,tcheck) scf=(maxcycle=1)
 ----------------------------------------------------------------------
 -----
 title
 -----
 Structure from the checkpoint file:  "ANI1ccx_583_conf1_mol1.chk"
 Charge =  0 Multiplicity = 1

                         Standard orientation:
 ---------------------------------------------------------------------
 Center     Atomic      Atomic             Coordinates (Angstroms)
 Number     Number       Type             X           Y           Z
 ---------------------------------------------------------------------
      1          6           0       -1.217940    1.812091    0.303271
      2          6           0       -0.915858   -0.413296   -0.192816
      3          1           0        3.099969    0.346514   -0.024303
      4          1           0        1.789869    1.239280   -0.067207
      5          1           0       -1.724870    1.949371   -0.693278
      6          1           0       -0.675711    2.747691    0.566020
      7          1           0       -1.882540    1.563161    1.128130
      8          1           0       -0.609161   -2.369039   -0.328183
      9          1           0        1.885168   -2.183530    0.021794
     10          1           0        1.109998   -1.742360    1.454150
     11          7           0       -0.085501   -1.470169   -0.165810
     12          7           0        1.148908   -1.576420    0.407939
     13          8           0        2.736339    1.181209   -0.390462
     14          8           0       -0.292431    0.709962    0.215663
     15          8           0       -2.148131   -0.468388   -0.377046
 ---------------------------------------------------------------------

 SCF Done:  E(RHF) =  -414.317219176     A.U. after    2 cycles

 The electronic state is 1-A.
 Alpha  occ. eigenvalues --  -20.60138 -20.53338 -20.52346 -15.57807 -15.55980
 Alpha  occ. eigenvalues --  -11.42539 -11.30567  -1.55339  -1.43444  -1.39581
 Alpha  occ. eigenvalues --   -1.32901  -1.12265  -0.97044  -0.84490  -0.80071
 Alpha  occ. eigenvalues --   -0.75786  -0.74225  -0.68504  -0.66996  -0.65825
 Alpha  occ. eigenvalues --   -0.61303  -0.58380  -0.55063  -0.52527  -0.50626
 Alpha  occ. eigenvalues --   -0.47369  -0.46454  -0.45638  -0.43717
 Alpha virt. eigenvalues --    0.02121   0.04315   0.04855   0.05124   0.06045
 Alpha virt. eigenvalues --    0.06263   0.06999   0.09395   0.11820   0.12078
 Alpha virt. eigenvalues --    0.12871   0.13231   0.13955   0.14983   0.16138

 Mulliken charges:
               1
     1  C    0.034627
     2  C    1.138783
     3  H    0.384858
     4  H    0.619233
     5  H    0.269206
     6  H    0.008021
     7  H    0.178105
     8  H    0.286459
     9  H    0.105998
    10  H    0.252308
    11  N    0.236146
    12  N   -0.214425
    13  O   -0.959662
    14  O   -1.232554
    15  O   -1.107101
 Sum of Mulliken charges =  -0.00000

 Dipole moment (field-independent basis, Debye):
    X=              0.7195    Y=             -2.7206    Z=              2.4200  Tot=              3.7116

 Test job not archived.
 1\1\GINC-SE096\SP\RHF\Aug-CC-pVDZ\C2H8N2O3\OHZDE\08-Apr-2025\0\\#t hf
 aug-cc-pvdz iop(5/13=1,5/36=2,99/5=2) pseudo=read geom=check guess=(re
 ad,tcheck) scf=(maxcycle=1)\\title\\0,1\C,0,-1.21794,1.81209,0.303271\
 C,0,-0.915857,-0.413297,-0.192816\H,0,3.09997,0.346515,-0.0243026\H,0,
 1.78987,1.23928,-0.0672072\H,0,-1.72487,1.94937,-0.693278\H,0,-0.67571
 1,2.74769,0.56602\H,0,-1.88254,1.56316,1.12813\H,0,-0.609159,-2.36904,
 -0.328183\H,0,1.88517,-2.18353,0.0217939\H,0,1.11,-1.74236,1.45415\N,0
 ,-0.0854994,-1.47017,-0.16581\N,0,1.14891,-1.57642,0.407939\O,0,2.7363

 Normal termination of Gaussian 16 at Tue Apr  8 21:48:06 2025.
