 Gaussian 16, Revision C.01,

 ----------------------------------------------------------------------
 #t hf aug-cc-pvdz symm=none int=(grid=ultrafine) guess=(read,tcheck) s
 table=(opt,rrhf)
 ----------------------------------------------------------------------
 -----
 title
 -----
 Symbolic Z-matrix:
 Charge =  0 Multiplicity = 1

 SCF Done:  E(RHF) =  -451.826990891     A.U. after   13 cycles
 Normal termination of Gaussian 16 at Tue Apr  8 21:54:20 2025.
 Gaussian 16:  ES64L-G16RevC.01  3-Jul-2019

 ----------------------------------------------------------------------
 #t hf aug-cc-pvdz iop(5/13=1,5/36=2,99/5=2) pseudo=read geom=check gue
 ss=(read,tcheck) scf=(maxcycle=1)
 ----------------------------------------------------------------------
 -----
 title
 -----
 Structure from the checkpoint file:  "ANI1ccx_764_conf10_mol1.chk"
 Charge =  0 Multiplicity = 1

                         Standard orientation:
 ---------------------------------------------------------------------
 Center     Atomic      Atomic             Coordinates (Angstroms)
 Number     Number       Type             X           Y           Z
 ---------------------------------------------------------------------
      1          6           0       -1.908150   -0.742304    0.520882
      2          6           0       -0.098847    0.754187    0.085341
      3          6           0        2.337601    0.054082    0.214867
      4          1           0       -2.343119    0.369188   -0.967387
      5          1           0       -2.111090   -1.731619    0.972642
      6          1           0       -2.392340   -0.102403    1.238210
      7          1           0        0.235129   -1.240270    0.451617
      8          1           0        1.450811    1.908439   -0.391222
      9          1           0        3.281221    0.502086   -0.082195
     10          1           0        2.352130   -0.132662    1.318620
     11          1           0        2.022970   -1.192871   -1.234060
     12          7           0       -0.488847   -0.505079    0.395781
     13          7           0        1.241971    0.917397   -0.185413
     14          8           0       -2.535230   -0.581138   -0.704203
     15          8           0       -0.913581    1.646120    0.032651
     16          8           0        2.229910   -1.272721   -0.291616
 ---------------------------------------------------------------------

 SCF Done:  E(RHF) =  -452.283200695     A.U. after    2 cycles

 The electronic state is 1-A.
 Alpha  occ. eigenvalues --  -20.58395 -20.53884 -20.50876 -15.54119 -15.52093
 Alpha  occ. eigenvalues --  -11.38731 -11.35830 -11.31637  -1.49254  -1.48112
 Alpha  occ. eigenvalues --   -1.44596  -1.26651  -1.21096  -0.98049  -0.93654
 Alpha  occ. eigenvalues --   -0.82791  -0.80023  -0.75844  -0.70443  -0.69479
 Alpha  occ. eigenvalues --   -0.67635  -0.66711  -0.64072  -0.61405  -0.59364
 Alpha  occ. eigenvalues --   -0.56189  -0.51938  -0.49866  -0.46134  -0.44765
 Alpha  occ. eigenvalues --   -0.44235  -0.43303
 Alpha virt. eigenvalues --    0.02780   0.04147   0.04439   0.04939   0.05461
 Alpha virt. eigenvalues --    0.05980   0.07066   0.08679   0.10121   0.10296
 Alpha virt. eigenvalues --    0.12341   0.12921   0.13388   0.14802   0.15095

 Mulliken charges:
               1
     1  C    0.818070
     2  C   -0.082900
     3  C    0.464542
     4  H    0.382870
     5  H    0.025369
     6  H    0.007616
     7  H    0.122076
     8  H    0.300998
     9  H   -0.014606
    10  H    0.154677
    11  H    0.311347
    12  N    0.479056
    13  N    0.502221
    14  O   -1.182980
    15  O   -1.207886
    16  O   -1.080469
 Sum of Mulliken charges =  -0.00000

 Dipole moment (field-independent basis, Debye):
    X=              3.9134    Y=             -0.1870    Z=              0.4508  Tot=              3.9438

 Test job not archived.
 1\1\GINC-SE163\SP\RHF\Aug-CC-pVDZ\C3H8N2O3\OHZDE\08-Apr-2025\0\\#t hf
 aug-cc-pvdz iop(5/13=1,5/36=2,99/5=2) pseudo=read geom=check guess=(re
 ad,tcheck) scf=(maxcycle=1)\\title\\0,1\C,0,-1.90815,-0.742304,0.52088
 2\C,0,-0.0988478,0.754187,0.0853405\C,0,2.3376,0.0540833,0.214867\H,0,
 -2.34312,0.369187,-0.967387\H,0,-2.11109,-1.73162,0.972642\H,0,-2.3923
 4,-0.102404,1.23821\H,0,0.235129,-1.24027,0.451617\H,0,1.45081,1.90844
 ,-0.391222\H,0,3.28122,0.502087,-0.0821946\H,0,2.35213,-0.132661,1.318
 62\H,0,2.02297,-1.19287,-1.23406\N,0,-0.488847,-0.505079,0.395781\N,0,

 Normal termination of Gaussian 16 at Tue Apr  8 21:54:27 2025.
