 Gaussian 16, Revision C.01,

 ----------------------------------------------------------------------
 #t hf aug-cc-pvdz symm=none int=(grid=ultrafine) guess=(read,tcheck) s
 table=(opt,rrhf)
 ----------------------------------------------------------------------
 -----
 title
 -----
 Symbolic Z-matrix:
 Charge =  0 Multiplicity = 1

 SCF Done:  E(RHF) =  -406.486841642     A.U. after   16 cycles
 Normal termination of Gaussian 16 at Tue Apr  8 21:33:37 2025.
 Gaussian 16:  ES64L-G16RevC.01  3-Jul-2019

 ----------------------------------------------------------------------
 #t hf aug-cc-pvdz iop(5/13=1,5/36=2,99/5=2) pseudo=read geom=check gue
 ss=(read,tcheck) scf=(maxcycle=1)
 ----------------------------------------------------------------------
 -----
 title
 -----
 Structure from the checkpoint file:  "ANI1ccx_379_conf2_mol1.chk"
 Charge =  0 Multiplicity = 1

                         Standard orientation:
 ---------------------------------------------------------------------
 Center     Atomic      Atomic             Coordinates (Angstroms)
 Number     Number       Type             X           Y           Z
 ---------------------------------------------------------------------
      1          6           0       -0.083004    0.806622    0.040859
      2          1           0       -2.206740   -0.428299   -0.735687
      3          1           0       -2.167620   -1.040748    0.919040
      4          7           0       -1.701770   -1.021898   -0.068776
      5          7           0       -0.423003   -0.514540    0.045582
      6          7           0        0.679911   -1.304752   -0.020151
      7          7           0        1.683180   -0.546189   -0.001426
      8          8           0        1.242762    0.796221   -0.016760
      9          8           0       -0.842243    1.746400    0.002371
 ---------------------------------------------------------------------

 SCF Done:  E(RHF) =  -406.882965225     A.U. after    2 cycles

 The electronic state is 1-A.
 Alpha  occ. eigenvalues --  -20.67579 -20.55513 -15.67340 -15.66721 -15.64718
 Alpha  occ. eigenvalues --  -15.59415 -11.45079  -1.66084  -1.50302  -1.44906
 Alpha  occ. eigenvalues --   -1.33805  -1.17603  -1.01296  -0.94538  -0.83313
 Alpha  occ. eigenvalues --   -0.81563  -0.73985  -0.72357  -0.68595  -0.65001
 Alpha  occ. eigenvalues --   -0.61147  -0.60281  -0.58144  -0.53741  -0.48432
 Alpha  occ. eigenvalues --   -0.45074
 Alpha virt. eigenvalues --    0.02459   0.03923   0.05567   0.08563   0.09431
 Alpha virt. eigenvalues --    0.09555   0.10004   0.11879   0.12514   0.14296
 Alpha virt. eigenvalues --    0.16206   0.16501   0.17058   0.17576   0.19640

 Mulliken charges:
               1
     1  C    1.392132
     2  H    0.169079
     3  H    0.263144
     4  N    0.425909
     5  N   -0.403803
     6  N   -0.702344
     7  N    1.177152
     8  O   -1.290660
     9  O   -1.030609
 Sum of Mulliken charges =  -0.00000

 Dipole moment (field-independent basis, Debye):
    X=             -2.1676    Y=             -1.1575    Z=              0.5551  Tot=              2.5192

 Test job not archived.
 1\1\GINC-SE016\SP\RHF\Aug-CC-pVDZ\C1H2N4O2\OHZDE\08-Apr-2025\0\\#t hf
 aug-cc-pvdz iop(5/13=1,5/36=2,99/5=2) pseudo=read geom=check guess=(re
 ad,tcheck) scf=(maxcycle=1)\\title\\0,1\C,0,-0.0830062,0.806623,0.0408
 586\H,0,-2.20674,-0.428301,-0.735687\H,0,-2.16762,-1.04075,0.91904\N,0
 ,-1.70177,-1.0219,-0.068776\N,0,-0.423003,-0.51454,0.0455821\N,0,0.679
 912,-1.30475,-0.0201505\N,0,1.68318,-0.546186,-0.00142577\O,0,1.24276,
 0.796223,-0.0167598\O,0,-0.842246,1.7464,0.00237067\\Version=ES64L-G16
 RevC.01\State=1-A\HF=-406.8829652\RMSD=3.978e-02\Dipole=-0.852792,-0.4

 Normal termination of Gaussian 16 at Tue Apr  8 21:33:40 2025.
