 Gaussian 16, Revision C.01,

 ----------------------------------------------------------------------
 #t hf aug-cc-pvdz symm=none int=(grid=ultrafine) guess=(read,tcheck) s
 table=(opt,rrhf)
 ----------------------------------------------------------------------
 -----
 title
 -----
 Symbolic Z-matrix:
 Charge =  0 Multiplicity = 1

 SCF Done:  E(RHF) =  -239.966037994     A.U. after   13 cycles
 Normal termination of Gaussian 16 at Tue Apr  8 21:11:18 2025.
 Gaussian 16:  ES64L-G16RevC.01  3-Jul-2019

 ----------------------------------------------------------------------
 #t hf aug-cc-pvdz iop(5/13=1,5/36=2,99/5=2) pseudo=read geom=check gue
 ss=(read,tcheck) scf=(maxcycle=1)
 ----------------------------------------------------------------------
 -----
 title
 -----
 Structure from the checkpoint file:  "ANI1ccx_1874_conf9_mol1.chk"
 Charge =  0 Multiplicity = 1

                         Standard orientation:
 ---------------------------------------------------------------------
 Center     Atomic      Atomic             Coordinates (Angstroms)
 Number     Number       Type             X           Y           Z
 ---------------------------------------------------------------------
      1          1           0        0.530400    1.007310   -0.199838
      2          1           0        2.459701   -0.813626   -0.380473
      3          1           0        1.587521   -0.939810    1.019860
      4          7           0       -1.809519   -0.192668   -0.535005
      5          7           0       -2.027939    0.095856    0.498927
      6          7           0        1.510461   -0.629586    0.007342
      7          8           0        1.463921    0.728864   -0.029799
 ---------------------------------------------------------------------

 SCF Done:  E(RHF) =  -240.201772211     A.U. after    2 cycles

 The electronic state is 1-A.
 Alpha  occ. eigenvalues --  -20.57432 -15.62805 -15.62621 -15.55066  -1.50494
 Alpha  occ. eigenvalues --   -1.50171  -1.07958  -0.82601  -0.72939  -0.69367
 Alpha  occ. eigenvalues --   -0.68618  -0.67945  -0.67869  -0.65365  -0.48724
 Alpha  occ. eigenvalues --   -0.43372
 Alpha virt. eigenvalues --    0.04103   0.05980   0.06329   0.08826   0.09317
 Alpha virt. eigenvalues --    0.12099   0.12639   0.14360   0.16515   0.17382
 Alpha virt. eigenvalues --    0.18044   0.19648   0.20450   0.21033   0.22219

 Mulliken charges:
               1
     1  H    0.360443
     2  H    0.100025
     3  H    0.138214
     4  N   -0.035259
     5  N    0.015625
     6  N    0.465961
     7  O   -1.045008
 Sum of Mulliken charges =  -0.00000

 Dipole moment (field-independent basis, Debye):
    X=             -0.0871    Y=             -0.3623    Z=              0.6162  Tot=              0.7201

 Test job not archived.
 1\1\GINC-SE366\SP\RHF\Aug-CC-pVDZ\H3N3O1\OHZDE\08-Apr-2025\0\\#t hf au
 g-cc-pvdz iop(5/13=1,5/36=2,99/5=2) pseudo=read geom=check guess=(read
 ,tcheck) scf=(maxcycle=1)\\title\\0,1\H,0,0.530399,1.00731,-0.199838\H
 ,0,2.4597,-0.813626,-0.380473\H,0,1.58752,-0.93981,1.01986\N,0,-1.8095
 2,-0.192668,-0.535005\N,0,-2.02794,0.0958563,0.498927\N,0,1.51046,-0.6
 29586,0.00734147\O,0,1.46392,0.728864,-0.0297994\\Version=ES64L-G16Rev
 C.01\State=1-A\HF=-240.2017722\RMSD=3.663e-02\Dipole=-0.0342756,-0.142
 546,0.2424263\Quadrupole=1.1641969,-0.6077162,-0.5564807,-2.8100979,0.

 Normal termination of Gaussian 16 at Tue Apr  8 21:11:20 2025.
