 Gaussian 16, Revision C.01,

 ----------------------------------------------------------------------
 #t hf aug-cc-pvdz symm=none int=(grid=ultrafine) guess=(read,tcheck) s
 table=(opt,rrhf)
 ----------------------------------------------------------------------
 -----
 title
 -----
 Symbolic Z-matrix:
 Charge =  0 Multiplicity = 1

 SCF Done:  E(RHF) =  -872.528505232     A.U. after   14 cycles
 Normal termination of Gaussian 16 at Tue Apr  8 22:11:57 2025.
 Gaussian 16:  ES64L-G16RevC.01  3-Jul-2019

 ----------------------------------------------------------------------
 #t hf aug-cc-pvdz iop(5/13=1,5/36=2,99/5=2) pseudo=read geom=check gue
 ss=(read,tcheck) scf=(maxcycle=1)
 ----------------------------------------------------------------------
 -----
 title
 -----
 Structure from the checkpoint file:  "ANI1ccx_68_conf3_mol1.chk"
 Charge =  0 Multiplicity = 1

                         Standard orientation:
 ---------------------------------------------------------------------
 Center     Atomic      Atomic             Coordinates (Angstroms)
 Number     Number       Type             X           Y           Z
 ---------------------------------------------------------------------
      1          6           0       -0.862938    2.010280    0.529723
      2          6           0        4.093641    0.950054    0.014600
      3          6           0        3.233170   -0.364877    0.172142
      4          6           0        1.165740   -1.521581   -0.554620
      5          6           0        1.859900   -0.239710   -0.380360
      6          6           0        3.242550   -0.861547    1.595330
      7          6           0       -2.530189    0.291438   -0.187597
      8          6           0       -1.741909    0.810880    0.978152
      9          6           0        0.245881    1.577259   -0.371589
     10          6           0       -3.167500   -1.042029    0.025723
     11          1           0        3.750320   -1.138443   -0.416979
     12          1           0       -0.352298   -2.624750   -0.357752
     13          1           0        4.293280   -1.013403    1.946770
     14          1           0        2.817030   -0.136624    2.286630
     15          1           0        2.636439   -1.744592    1.696930
     16          1           0        3.667081    1.764787    0.646755
     17          1           0        4.116771    1.313697   -1.036030
     18          1           0        5.107111    0.817009    0.382915
     19          1           0        1.977280    0.071331   -1.430550
     20          1           0       -4.713791   -1.887638    0.501512
     21          1           0       -3.375039    1.004682   -0.415326
     22          1           0       -1.926199    0.242760   -1.104690
     23          1           0       -2.480939    1.185841    1.716920
     24          1           0       -1.167180    0.002087    1.393320
     25          1           0       -0.395379    2.438090    1.437490
     26          1           0       -2.416778    3.457601    0.263908
     27          1           0       -1.616228    2.981921   -1.156700
     28          1           0        0.937964    0.611011    1.282840
     29          7           0       -1.519118    3.106200   -0.161918
     30          7           0        1.112991    0.752807    0.293923
     31          8           0        1.703999   -2.401981   -1.186950
     32          8           0        0.241929    1.760479   -1.572180
     33          8           0       -2.640181   -2.125259   -0.166619
     34          8           0       -4.461410   -0.968556    0.447730
     35          8           0       -0.000166   -1.767110    0.041642
 ---------------------------------------------------------------------

 SCF Done:  E(RHF) =  -873.411835785     A.U. after    2 cycles

 The electronic state is 1-A.
 Alpha  occ. eigenvalues --  -20.61197 -20.60087 -20.54855 -20.52963 -20.52565
 Alpha  occ. eigenvalues --  -15.53563 -15.49517 -11.40862 -11.38631 -11.36762
 Alpha  occ. eigenvalues --  -11.29315 -11.28661 -11.26459 -11.26403 -11.24855
 Alpha  occ. eigenvalues --  -11.23702 -11.23597  -1.55928  -1.55091  -1.48027
 Alpha  occ. eigenvalues --   -1.45703  -1.44117  -1.27709  -1.19911  -1.11329
 Alpha  occ. eigenvalues --   -1.09544  -1.01964  -0.97787  -0.94330  -0.90613
 Alpha  occ. eigenvalues --   -0.85266  -0.83845  -0.81434  -0.80020  -0.75470
 Alpha  occ. eigenvalues --   -0.74222  -0.72642  -0.70767  -0.70513  -0.67837
 Alpha  occ. eigenvalues --   -0.66666  -0.66439  -0.64725  -0.64079  -0.63015
 Alpha  occ. eigenvalues --   -0.62177  -0.61979  -0.60284  -0.59510  -0.58351
 Alpha  occ. eigenvalues --   -0.57841  -0.56265  -0.54670  -0.54257  -0.53576
 Alpha  occ. eigenvalues --   -0.52257  -0.51086  -0.49721  -0.48290  -0.47970
 Alpha  occ. eigenvalues --   -0.46985  -0.46041  -0.44946  -0.43985  -0.43178
 Alpha  occ. eigenvalues --   -0.41648
 Alpha virt. eigenvalues --    0.02445   0.03157   0.03434   0.03700   0.04318
 Alpha virt. eigenvalues --    0.04400   0.05149   0.05839   0.05962   0.06879
 Alpha virt. eigenvalues --    0.07295   0.07438   0.07884   0.08856   0.09598

 Mulliken charges:
               1
     1  C   -2.120100
     2  C   -0.222928
     3  C   -0.599808
     4  C    3.136712
     5  C   -2.281541
     6  C   -0.127913
     7  C   -0.732080
     8  C   -0.265879
     9  C    1.252905
    10  C    2.800635
    11  H    0.128886
    12  H    0.490812
    13  H    0.167960
    14  H    0.173308
    15  H    0.157057
    16  H    0.362179
    17  H    0.229877
    18  H    0.057326
    19  H    0.268490
    20  H    0.345279
    21  H    0.241366
    22  H    0.198611
    23  H    0.182512
    24  H    0.267917
    25  H    0.099615
    26  H    0.182001
    27  H    0.188454
    28  H    0.400909
    29  N    0.997293
    30  N    1.321966
    31  O   -1.498857
    32  O   -1.521157
    33  O   -1.419341
    34  O   -1.325004
    35  O   -1.537460
 Sum of Mulliken charges =  -0.00000

 Dipole moment (field-independent basis, Debye):
    X=             -2.0716    Y=              0.9084    Z=              3.9835  Tot=              4.5810

 Test job not archived.
 1\1\GINC-SE127\SP\RHF\Aug-CC-pVDZ\C10H18N2O5\OHZDE\08-Apr-2025\0\\#t h
 f aug-cc-pvdz iop(5/13=1,5/36=2,99/5=2) pseudo=read geom=check guess=(
 read,tcheck) scf=(maxcycle=1)\\title\\0,1\C,0,-0.86294,2.01028,0.52972
 3\C,0,4.09364,0.950057,0.0146001\C,0,3.23317,-0.364875,0.172142\C,0,1.
 16574,-1.52158,-0.55462\C,0,1.8599,-0.239709,-0.38036\C,0,3.24255,-0.8
 61545,1.59533\C,0,-2.53019,0.291437,-0.187597\C,0,-1.74191,0.810879,0.
 978152\C,0,0.24588,1.57726,-0.371589\C,0,-3.1675,-1.04203,0.0257229\H,
 0,3.75032,-1.13844,-0.416979\H,0,-0.352297,-2.62475,-0.357752\H,0,4.29

 Normal termination of Gaussian 16 at Tue Apr  8 22:12:54 2025.
