 Gaussian 16, Revision C.01,

 ----------------------------------------------------------------------
 #t hf aug-cc-pvdz symm=none int=(grid=ultrafine) guess=(read,tcheck) s
 table=(opt,rrhf)
 ----------------------------------------------------------------------
 -----
 title
 -----
 Symbolic Z-matrix:
 Charge =  0 Multiplicity = 1

 SCF Done:  E(RHF) =  -634.175729785     A.U. after   16 cycles
 Normal termination of Gaussian 16 at Tue Apr  8 19:18:32 2025.
 Gaussian 16:  ES64L-G16RevC.01  3-Jul-2019

 ----------------------------------------------------------------------
 #t hf aug-cc-pvdz iop(5/13=1,5/36=2,99/5=2) pseudo=read geom=check gue
 ss=(read,tcheck) scf=(maxcycle=1)
 ----------------------------------------------------------------------
 -----
 title
 -----
 Structure from the checkpoint file:  "ANI1ccx_1093_conf5_mol1.chk"
 Charge =  0 Multiplicity = 1

                         Standard orientation:
 ---------------------------------------------------------------------
 Center     Atomic      Atomic             Coordinates (Angstroms)
 Number     Number       Type             X           Y           Z
 ---------------------------------------------------------------------
      1          6           0       -0.869509    1.300911   -0.021581
      2          6           0        0.286193    0.606015   -0.016522
      3          6           0        2.445839   -0.204072    0.007962
      4          6           0        0.266808   -0.815912   -0.058315
      5          6           0       -1.954071   -0.943644   -0.024391
      6          1           0       -1.767778    2.887872    0.551870
      7          1           0        2.004021    1.848759   -0.064019
      8          1           0        1.716488   -2.271331   -0.100141
      9          1           0       -2.910370    0.905827   -0.024949
     10          7           0        1.665000    0.930200    0.045588
     11          7           0        1.557269   -1.256481   -0.027132
     12          7           0       -0.774187   -1.587439   -0.140950
     13          7           0       -1.988310    0.484470   -0.050377
     14          8           0       -1.060228    2.616012   -0.073383
     15          8           0        3.689339   -0.229527    0.091200
     16          8           0       -3.043152   -1.514757    0.172734
 ---------------------------------------------------------------------

 SCF Done:  E(RHF) =  -634.797918675     A.U. after    2 cycles

 The electronic state is 1-A.
 Alpha  occ. eigenvalues --  -20.65918 -20.53427 -20.50482 -15.59239 -15.58335
 Alpha  occ. eigenvalues --  -15.57503 -15.51753 -11.42950 -11.42126 -11.40045
 Alpha  occ. eigenvalues --  -11.38251 -11.31386  -1.58344  -1.47443  -1.44991
 Alpha  occ. eigenvalues --   -1.38299  -1.31130  -1.27023  -1.23146  -1.09674
 Alpha  occ. eigenvalues --   -0.97715  -0.96142  -0.92263  -0.84497  -0.83607
 Alpha  occ. eigenvalues --   -0.82286  -0.76341  -0.74012  -0.73114  -0.71401
 Alpha  occ. eigenvalues --   -0.69325  -0.65122  -0.64235  -0.62813  -0.59848
 Alpha  occ. eigenvalues --   -0.56569  -0.52385  -0.51970  -0.49890  -0.46848
 Alpha  occ. eigenvalues --   -0.44213  -0.43573  -0.35421
 Alpha virt. eigenvalues --    0.00931   0.03356   0.04179   0.05056   0.05409
 Alpha virt. eigenvalues --    0.07181   0.08205   0.08630   0.09312   0.09562
 Alpha virt. eigenvalues --    0.10479   0.10785   0.11773   0.12436   0.12929

 Mulliken charges:
               1
     1  C    2.094682
     2  C   -1.162072
     3  C    0.494969
     4  C   -1.878963
     5  C    0.732740
     6  H    0.289212
     7  H   -0.003848
     8  H    0.106161
     9  H    0.168750
    10  N    0.891664
    11  N    0.833321
    12  N    1.199079
    13  N    0.501724
    14  O   -1.595304
    15  O   -1.300468
    16  O   -1.371648
 Sum of Mulliken charges =  -0.00000

 Dipole moment (field-independent basis, Debye):
    X=             -0.7782    Y=              5.9941    Z=              0.3405  Tot=              6.0540

 Test job not archived.
 1\1\GINC-SE120\SP\RHF\Aug-CC-pVDZ\C5H4N4O3\OHZDE\08-Apr-2025\0\\#t hf
 aug-cc-pvdz iop(5/13=1,5/36=2,99/5=2) pseudo=read geom=check guess=(re
 ad,tcheck) scf=(maxcycle=1)\\title\\0,1\C,0,-0.86951,1.30091,-0.021580
 5\C,0,0.286193,0.606015,-0.016522\C,0,2.44584,-0.204071,0.00796201\C,0
 ,0.266809,-0.815913,-0.058315\C,0,-1.95407,-0.943646,-0.0243913\H,0,-1
 .76778,2.88787,0.55187\H,0,2.00402,1.84876,-0.064019\H,0,1.71649,-2.27
 133,-0.100141\H,0,-2.91037,0.905824,-0.0249493\N,0,1.665,0.930201,0.04
 55882\N,0,1.55727,-1.25648,-0.0271316\N,0,-0.774185,-1.58744,-0.14095\

 Normal termination of Gaussian 16 at Tue Apr  8 19:18:41 2025.
