 Gaussian 16, Revision C.01,

 ----------------------------------------------------------------------
 #t hf aug-cc-pvdz symm=none int=(grid=ultrafine) guess=(read,tcheck) s
 table=(opt,rrhf)
 ----------------------------------------------------------------------
 -----
 title
 -----
 Symbolic Z-matrix:
 Charge =  0 Multiplicity = 1

 SCF Done:  E(RHF) =  -380.210728301     A.U. after   11 cycles
 Normal termination of Gaussian 16 at Tue Apr  8 21:00:26 2025.
 Gaussian 16:  ES64L-G16RevC.01  3-Jul-2019

 ----------------------------------------------------------------------
 #t hf aug-cc-pvdz iop(5/13=1,5/36=2,99/5=2) pseudo=read geom=check gue
 ss=(read,tcheck) scf=(maxcycle=1)
 ----------------------------------------------------------------------
 -----
 title
 -----
 Structure from the checkpoint file:  "ANI1ccx_1843_conf120_mol1.chk"
 Charge =  0 Multiplicity = 1

                         Standard orientation:
 ---------------------------------------------------------------------
 Center     Atomic      Atomic             Coordinates (Angstroms)
 Number     Number       Type             X           Y           Z
 ---------------------------------------------------------------------
      1          1           0       -1.849199   -0.447264   -0.317039
      2          1           0       -2.501049   -1.804500    0.167278
      3          1           0       -0.922667    1.629911   -0.173119
      4          1           0       -2.486450    1.722690    0.116790
      5          1           0        1.205280    1.899341    1.313150
      6          1           0        0.518305    0.546720    0.802249
      7          1           0        1.174411   -1.116739    0.380122
      8          1           0       -0.277494   -1.389959    0.664398
      9          1           0        3.188981   -0.381698   -0.868020
     10          1           0        1.929251    0.516214   -0.753751
     11          8           0       -1.734029   -1.419339   -0.326050
     12          8           0       -1.826640    1.287490   -0.439770
     13          8           0        0.857497    1.488191    0.465574
     14          8           0        0.521439   -1.067789    1.094180
     15          8           0        2.184311   -0.435393   -0.960440
 ---------------------------------------------------------------------

 SCF Done:  E(RHF) =  -380.604721611     A.U. after    2 cycles

 The electronic state is 1-A.
 Alpha  occ. eigenvalues --  -20.56721 -20.56706 -20.56184 -20.54604 -20.52929
 Alpha  occ. eigenvalues --   -1.45088  -1.43959  -1.42500  -1.41567  -1.40873
 Alpha  occ. eigenvalues --   -0.72874  -0.71662  -0.70668  -0.68910  -0.67383
 Alpha  occ. eigenvalues --   -0.61160  -0.59829  -0.58301  -0.57215  -0.54950
 Alpha  occ. eigenvalues --   -0.50717  -0.50040  -0.48585  -0.48298  -0.47064
 Alpha virt. eigenvalues --    0.03016   0.03667   0.05004   0.05861   0.07110
 Alpha virt. eigenvalues --    0.08275   0.09067   0.09856   0.10578   0.12046
 Alpha virt. eigenvalues --    0.17732   0.17793   0.19492   0.20650   0.20808

 Mulliken charges:
               1
     1  H    0.731506
     2  H    0.364771
     3  H    0.572238
     4  H    0.395038
     5  H    0.361124
     6  H    0.934186
     7  H    0.653147
     8  H    0.555789
     9  H    0.435139
    10  H    0.561368
    11  O   -1.028061
    12  O   -1.041148
    13  O   -1.292443
    14  O   -1.206976
    15  O   -0.995677
 Sum of Mulliken charges =  -0.00000

 Dipole moment (field-independent basis, Debye):
    X=             -0.1467    Y=              2.4839    Z=              2.4500  Tot=              3.4920

 Test job not archived.
 1\1\GINC-SE212\SP\RHF\Aug-CC-pVDZ\H10O5\OHZDE\08-Apr-2025\0\\#t hf aug
 -cc-pvdz iop(5/13=1,5/36=2,99/5=2) pseudo=read geom=check guess=(read,
 tcheck) scf=(maxcycle=1)\\title\\0,1\H,0,-1.8492,-0.447264,-0.317039\H
 ,0,-2.50105,-1.8045,0.167278\H,0,-0.922667,1.62991,-0.173119\H,0,-2.48
 645,1.72269,0.11679\H,0,1.20528,1.89934,1.31315\H,0,0.518304,0.546719,
 0.802249\H,0,1.17441,-1.11674,0.380122\H,0,-0.277495,-1.38996,0.664398
 \H,0,3.18898,-0.3817,-0.86802\H,0,1.92925,0.516212,-0.753751\O,0,-1.73
 403,-1.41934,-0.32605\O,0,-1.82664,1.28749,-0.43977\O,0,0.857497,1.488

 Normal termination of Gaussian 16 at Tue Apr  8 21:00:30 2025.
