 Gaussian 16, Revision C.01,

 ----------------------------------------------------------------------
 #t hf aug-cc-pvdz symm=none int=(grid=ultrafine) guess=(read,tcheck) s
 table=(opt,rrhf)
 ----------------------------------------------------------------------
 -----
 title
 -----
 Symbolic Z-matrix:
 Charge =  0 Multiplicity = 1

 SCF Done:  E(RHF) =  -962.234741887     A.U. after   14 cycles
 Normal termination of Gaussian 16 at Tue Apr  8 20:56:25 2025.
 Gaussian 16:  ES64L-G16RevC.01  3-Jul-2019

 ----------------------------------------------------------------------
 #t hf aug-cc-pvdz iop(5/13=1,5/36=2,99/5=2) pseudo=read geom=check gue
 ss=(read,tcheck) scf=(maxcycle=1)
 ----------------------------------------------------------------------
 -----
 title
 -----
 Structure from the checkpoint file:  "ANI1ccx_1756_conf16_mol1.chk"
 Charge =  0 Multiplicity = 1

                         Standard orientation:
 ---------------------------------------------------------------------
 Center     Atomic      Atomic             Coordinates (Angstroms)
 Number     Number       Type             X           Y           Z
 ---------------------------------------------------------------------
      1          6           0       -0.788343   -1.003880   -0.051153
      2          6           0        0.448962   -1.467430    0.744678
      3          6           0       -2.052899   -1.664521    0.570956
      4          6           0       -3.242099   -1.182451   -0.229578
      5          6           0       -3.402780    0.316951   -0.285616
      6          6           0        2.072330    0.285587   -0.178137
      7          6           0        3.525730    0.032174   -0.611644
      8          6           0        1.802780    1.564360    0.648623
      9          6           0        0.289085    1.915290    0.517981
     10          1           0        2.935741   -1.687670   -1.108949
     11          1           0       -1.369950    1.551659    1.476361
     12          1           0        2.441800    2.347250    0.261788
     13          1           0        2.048660    1.321850    1.777991
     14          1           0        1.593460    0.329955   -1.178839
     15          1           0        2.200571   -1.181200    1.368701
     16          1           0       -4.460700    1.719379   -1.246119
     17          1           0       -4.579940    0.138775   -1.903749
     18          1           0       -3.243999   -1.547181   -1.233199
     19          1           0       -4.190789   -1.500171    0.160068
     20          1           0       -2.243499   -1.368361    1.629111
     21          1           0       -1.984759   -2.749511    0.589489
     22          1           0       -1.037120    0.036448    0.064538
     23          1           0       -1.225910   -0.772079   -2.053709
     24          1           0       -0.354214   -2.172630   -1.674639
     25          7           0       -0.473845   -1.187650   -1.459359
     26          7           0       -3.999160    0.832611   -1.445349
     27          7           0        1.742590   -0.946270    0.509108
     28          8           0        0.351107   -2.266870    1.652721
     29          8           0       -2.863790    1.088539    0.518690
     30          8           0        4.345890    0.925964   -0.588336
     31          8           0       -0.151327    2.521180   -0.457193
     32          8           0       -0.391270    1.667390    1.615301
     33          8           0        3.792761   -1.202930   -1.105719
 ---------------------------------------------------------------------

 SCF Done:  E(RHF) =  -963.193961297     A.U. after    2 cycles

 The electronic state is 1-A.
 Alpha  occ. eigenvalues --  -20.60417 -20.59190 -20.55632 -20.53750 -20.53584
 Alpha  occ. eigenvalues --  -20.53025 -15.56384 -15.54180 -15.53059 -11.40463
 Alpha  occ. eigenvalues --  -11.39703 -11.39702 -11.37883 -11.31645 -11.29973
 Alpha  occ. eigenvalues --  -11.27800 -11.27468 -11.26354  -1.54348  -1.53850
 Alpha  occ. eigenvalues --   -1.49531  -1.48931  -1.45079  -1.43559  -1.26190
 Alpha  occ. eigenvalues --   -1.25156  -1.22490  -1.10403  -1.07050  -1.00121
 Alpha  occ. eigenvalues --   -0.96810  -0.90541  -0.84634  -0.82963  -0.81918
 Alpha  occ. eigenvalues --   -0.81506  -0.77012  -0.76452  -0.75908  -0.73227
 Alpha  occ. eigenvalues --   -0.70710  -0.70414  -0.69256  -0.68510  -0.67780
 Alpha  occ. eigenvalues --   -0.66847  -0.65880  -0.63963  -0.63501  -0.61749
 Alpha  occ. eigenvalues --   -0.61596  -0.61186  -0.60199  -0.57372  -0.56394
 Alpha  occ. eigenvalues --   -0.55838  -0.55702  -0.53851  -0.53243  -0.52773
 Alpha  occ. eigenvalues --   -0.48742  -0.47688  -0.47122  -0.46496  -0.45575
 Alpha  occ. eigenvalues --   -0.45367  -0.44866  -0.43630  -0.41815
 Alpha virt. eigenvalues --    0.01004   0.02491   0.02806   0.03964   0.04876
 Alpha virt. eigenvalues --    0.05046   0.05326   0.05917   0.06153   0.06908
 Alpha virt. eigenvalues --    0.07450   0.08157   0.08684   0.09275   0.09551

 Mulliken charges:
               1
     1  C   -0.827379
     2  C   -0.015158
     3  C   -0.117438
     4  C   -0.025634
     5  C    0.220457
     6  C   -1.350000
     7  C    2.403324
     8  C   -0.707354
     9  C    3.175738
    10  H    0.520154
    11  H    0.680752
    12  H    0.183080
    13  H    0.355998
    14  H    0.232541
    15  H    0.345897
    16  H    0.198157
    17  H    0.190557
    18  H    0.086578
    19  H    0.163159
    20  H    0.233982
    21  H    0.015975
    22  H    0.086190
    23  H    0.321724
    24  H    0.310974
    25  N    0.384990
    26  N    0.629420
    27  N    1.031374
    28  O   -1.394017
    29  O   -1.557993
    30  O   -1.307329
    31  O   -1.476254
    32  O   -1.565567
    33  O   -1.426895
 Sum of Mulliken charges =   0.00000

 Dipole moment (field-independent basis, Debye):
    X=             -9.0272    Y=             -3.7887    Z=             -1.7037  Tot=              9.9372

 Test job not archived.
 1\1\GINC-SE221\SP\RHF\Aug-CC-pVDZ\C9H15N3O6\OHZDE\08-Apr-2025\0\\#t hf
  aug-cc-pvdz iop(5/13=1,5/36=2,99/5=2) pseudo=read geom=check guess=(r
 ead,tcheck) scf=(maxcycle=1)\\title\\0,1\C,0,-0.788343,-1.00388,-0.051
 1542\C,0,0.448961,-1.46743,0.744677\C,0,-2.0529,-1.66452,0.570955\C,0,
 -3.2421,-1.18245,-0.229579\C,0,-3.40278,0.316952,-0.285617\C,0,2.07233
 ,0.285587,-0.178138\C,0,3.52573,0.0321733,-0.611645\C,0,1.80278,1.5643
 6,0.648622\C,0,0.289085,1.91529,0.51798\H,0,2.93574,-1.68767,-1.10895\
 H,0,-1.36995,1.55166,1.47636\H,0,2.4418,2.34725,0.261787\H,0,2.04866,1

 Normal termination of Gaussian 16 at Tue Apr  8 20:57:20 2025.
