 Gaussian 16, Revision C.01,

 ----------------------------------------------------------------------
 #t hf aug-cc-pvdz symm=none int=(grid=ultrafine) guess=(read,tcheck) s
 table=(opt,rrhf)
 ----------------------------------------------------------------------
 -----
 title
 -----
 Symbolic Z-matrix:
 Charge =  0 Multiplicity = 1

 SCF Done:  E(RHF) =  -689.352208247     A.U. after   14 cycles
 Normal termination of Gaussian 16 at Tue Apr  8 21:54:45 2025.
 Gaussian 16:  ES64L-G16RevC.01  3-Jul-2019

 ----------------------------------------------------------------------
 #t hf aug-cc-pvdz iop(5/13=1,5/36=2,99/5=2) pseudo=read geom=check gue
 ss=(read,tcheck) scf=(maxcycle=1)
 ----------------------------------------------------------------------
 -----
 title
 -----
 Structure from the checkpoint file:  "ANI1ccx_756_conf6_mol2.chk"
 Charge =  0 Multiplicity = 1

                         Standard orientation:
 ---------------------------------------------------------------------
 Center     Atomic      Atomic             Coordinates (Angstroms)
 Number     Number       Type             X           Y           Z
 ---------------------------------------------------------------------
      1          6           0       -2.728520   -0.160712   -0.207487
      2          6           0        0.122720    1.483280    0.496206
      3          6           0        1.965060    0.118144    0.094026
      4          1           0        3.878930    0.954645    0.267182
      5          1           0       -0.385270    2.195770    1.159770
      6          1           0       -0.224449    0.243887   -1.044100
      7          1           0        3.223591   -1.428839   -0.863948
      8          1           0       -2.700449   -1.950730    0.567278
      9          1           0       -0.190302   -1.254060    0.690596
     10          1           0       -2.496650    1.574170   -1.063250
     11          7           0       -2.019819   -1.267290    0.236576
     12          7           0       -1.994210    1.031350   -0.365381
     13          7           0       -0.605577    1.018410   -0.529208
     14          7           0        1.339510    1.219790    0.711616
     15          7           0        3.278720    0.171790    0.072672
     16          8           0        1.354131   -0.891466   -0.409677
     17          8           0       -1.037989   -1.088000    1.179720
     18          8           0       -3.918360   -0.224811   -0.535981
     19          8           0        3.945801   -0.820405   -0.595802
 ---------------------------------------------------------------------

 SCF Done:  E(RHF) =  -690.038936855     A.U. after    2 cycles

 The electronic state is 1-A.
 Alpha  occ. eigenvalues --  -20.61544 -20.60233 -20.54767 -20.53414 -15.61373
 Alpha  occ. eigenvalues --  -15.58902 -15.58866 -15.58383 -15.51470 -11.42274
 Alpha  occ. eigenvalues --  -11.41088 -11.37154  -1.55795  -1.53287  -1.47421
 Alpha  occ. eigenvalues --   -1.46724  -1.37104  -1.28225  -1.21956  -1.18193
 Alpha  occ. eigenvalues --   -1.13983  -0.96049  -0.91498  -0.89694  -0.83875
 Alpha  occ. eigenvalues --   -0.82655  -0.76821  -0.75534  -0.72635  -0.71580
 Alpha  occ. eigenvalues --   -0.69879  -0.68511  -0.67199  -0.64887  -0.62333
 Alpha  occ. eigenvalues --   -0.61828  -0.60299  -0.56723  -0.53465  -0.51922
 Alpha  occ. eigenvalues --   -0.49168  -0.47819  -0.46625  -0.45039  -0.44106
 Alpha  occ. eigenvalues --   -0.42705
 Alpha virt. eigenvalues --    0.03107   0.04205   0.05005   0.05168   0.05331
 Alpha virt. eigenvalues --    0.06079   0.06887   0.07840   0.09081   0.09730
 Alpha virt. eigenvalues --    0.10357   0.12051   0.12384   0.13450   0.13747

 Mulliken charges:
               1
     1  C    0.327392
     2  C   -1.169351
     3  C   -0.022375
     4  H    0.110478
     5  H   -0.125652
     6  H    0.131670
     7  H    0.403149
     8  H    0.201665
     9  H    0.526610
    10  H    0.244677
    11  N    1.114412
    12  N    0.057714
    13  N    0.685997
    14  N    1.076446
    15  N    1.537226
    16  O   -1.347197
    17  O   -1.303654
    18  O   -1.207463
    19  O   -1.241744
 Sum of Mulliken charges =  -0.00000

 Dipole moment (field-independent basis, Debye):
    X=              2.0981    Y=              1.7010    Z=             -0.4755  Tot=              2.7425

 Test job not archived.
 1\1\GINC-SE365\SP\RHF\Aug-CC-pVDZ\C3H7N5O4\OHZDE\08-Apr-2025\0\\#t hf
 aug-cc-pvdz iop(5/13=1,5/36=2,99/5=2) pseudo=read geom=check guess=(re
 ad,tcheck) scf=(maxcycle=1)\\title\\0,1\C,0,-2.72852,-0.160712,-0.2074
 87\C,0,0.12272,1.48328,0.496206\C,0,1.96506,0.118144,0.094026\H,0,3.87
 893,0.954644,0.267182\H,0,-0.38527,2.19577,1.15977\H,0,-0.224449,0.243
 887,-1.0441\H,0,3.22359,-1.42884,-0.863948\H,0,-2.70045,-1.95073,0.567
 278\H,0,-0.190303,-1.25406,0.690596\H,0,-2.49665,1.57417,-1.06325\N,0,
 -2.01982,-1.26729,0.236576\N,0,-1.99421,1.03135,-0.365381\N,0,-0.60557

 Normal termination of Gaussian 16 at Tue Apr  8 21:54:55 2025.
