 Gaussian 16, Revision C.01,

 ----------------------------------------------------------------------
 #t hf aug-cc-pvdz symm=none int=(grid=ultrafine) guess=(read,tcheck) s
 table=(opt,rrhf)
 ----------------------------------------------------------------------
 -----
 title
 -----
 Symbolic Z-matrix:
 Charge =  0 Multiplicity = 1

 SCF Done:  E(RHF) =  -380.220723517     A.U. after   11 cycles
 Normal termination of Gaussian 16 at Tue Apr  8 21:04:35 2025.
 Gaussian 16:  ES64L-G16RevC.01  3-Jul-2019

 ----------------------------------------------------------------------
 #t hf aug-cc-pvdz iop(5/13=1,5/36=2,99/5=2) pseudo=read geom=check gue
 ss=(read,tcheck) scf=(maxcycle=1)
 ----------------------------------------------------------------------
 -----
 title
 -----
 Structure from the checkpoint file:  "ANI1ccx_1843_conf55_mol1.chk"
 Charge =  0 Multiplicity = 1

                         Standard orientation:
 ---------------------------------------------------------------------
 Center     Atomic      Atomic             Coordinates (Angstroms)
 Number     Number       Type             X           Y           Z
 ---------------------------------------------------------------------
      1          1           0        0.228004   -1.324019    0.279614
      2          1           0       -0.548546   -1.914369    1.575630
      3          1           0        1.925640   -0.337890   -0.302413
      4          1           0        1.755651   -1.571318   -1.262320
      5          1           0        2.323179    1.676192    0.432308
      6          1           0        0.875329    1.450632   -0.125192
      7          1           0       -1.393551    1.261581    0.034403
      8          1           0       -0.625011    0.633119    1.148510
      9          1           0       -3.280240   -0.208152   -0.735489
     10          1           0       -1.839010   -0.688307   -0.402679
     11          8           0       -0.605758   -1.249939    0.833571
     12          8           0        1.829711   -1.351708   -0.309246
     13          8           0        1.837599    1.274772   -0.336558
     14          8           0       -0.656773    1.479611    0.658598
     15          8           0       -2.332460   -0.024920   -0.926663
 ---------------------------------------------------------------------

 SCF Done:  E(RHF) =  -380.615245334     A.U. after    2 cycles

 The electronic state is 1-A.
 Alpha  occ. eigenvalues --  -20.56880 -20.55904 -20.55716 -20.55115 -20.53970
 Alpha  occ. eigenvalues --   -1.45381  -1.43816  -1.43266  -1.42019  -1.40869
 Alpha  occ. eigenvalues --   -0.73006  -0.71330  -0.70237  -0.70112  -0.68466
 Alpha  occ. eigenvalues --   -0.62476  -0.59960  -0.59108  -0.57093  -0.54453
 Alpha  occ. eigenvalues --   -0.50758  -0.49323  -0.49099  -0.48720  -0.47731
 Alpha virt. eigenvalues --    0.03153   0.04427   0.04987   0.05172   0.07832
 Alpha virt. eigenvalues --    0.08139   0.08624   0.09261   0.10527   0.11210
 Alpha virt. eigenvalues --    0.17235   0.18136   0.19762   0.20011   0.20815

 Mulliken charges:
               1
     1  H    0.902863
     2  H    0.432251
     3  H    0.809038
     4  H    0.337431
     5  H    0.377540
     6  H    0.736024
     7  H    0.587582
     8  H    0.654147
     9  H    0.388632
    10  H    0.616554
    11  O   -1.428546
    12  O   -1.104933
    13  O   -1.148079
    14  O   -1.256776
    15  O   -0.903727
 Sum of Mulliken charges =  -0.00000

 Dipole moment (field-independent basis, Debye):
    X=             -1.0905    Y=             -2.0186    Z=              1.3313  Tot=              2.6526

 Test job not archived.
 1\1\GINC-SE015\SP\RHF\Aug-CC-pVDZ\H10O5\OHZDE\08-Apr-2025\0\\#t hf aug
 -cc-pvdz iop(5/13=1,5/36=2,99/5=2) pseudo=read geom=check guess=(read,
 tcheck) scf=(maxcycle=1)\\title\\0,1\H,0,0.228003,-1.32402,0.279614\H,
 0,-0.548547,-1.91437,1.57563\H,0,1.92564,-0.337892,-0.302413\H,0,1.755
 65,-1.57132,-1.26232\H,0,2.32318,1.67619,0.432308\H,0,0.87533,1.45063,
 -0.125192\H,0,-1.39355,1.26158,0.0344031\H,0,-0.625011,0.633118,1.1485
 1\H,0,-3.28024,-0.208152,-0.735489\H,0,-1.83901,-0.688307,-0.402679\O,
 0,-0.605758,-1.24994,0.833571\O,0,1.82971,-1.35171,-0.309246\O,0,1.837

 Normal termination of Gaussian 16 at Tue Apr  8 21:04:39 2025.
