 Gaussian 16, Revision C.01,

 ----------------------------------------------------------------------
 #t hf aug-cc-pvdz symm=none int=(grid=ultrafine) guess=(read,tcheck) s
 table=(opt,rrhf)
 ----------------------------------------------------------------------
 -----
 title
 -----
 Symbolic Z-matrix:
 Charge =  0 Multiplicity = 1

 SCF Done:  E(RHF) =  -370.444881135     A.U. after   16 cycles
 Normal termination of Gaussian 16 at Tue Apr  8 21:57:05 2025.
 Gaussian 16:  ES64L-G16RevC.01  3-Jul-2019

 ----------------------------------------------------------------------
 #t hf aug-cc-pvdz iop(5/13=1,5/36=2,99/5=2) pseudo=read geom=check gue
 ss=(read,tcheck) scf=(maxcycle=1)
 ----------------------------------------------------------------------
 -----
 title
 -----
 Structure from the checkpoint file:  "ANI1ccx_855_conf4_mol1.chk"
 Charge =  0 Multiplicity = 1

                         Standard orientation:
 ---------------------------------------------------------------------
 Center     Atomic      Atomic             Coordinates (Angstroms)
 Number     Number       Type             X           Y           Z
 ---------------------------------------------------------------------
      1          6           0        1.914880    0.061600    0.007308
      2          6           0        0.518218    0.056119   -0.023468
      3          6           0       -1.460171    1.114079    0.025518
      4          6           0       -1.340250   -1.163071   -0.061279
      5          1           0       -2.016571    2.041908    0.018736
      6          1           0       -1.890039   -2.076862   -0.041399
      7          7           0        3.093370   -0.020426    0.045924
      8          7           0       -0.128345    1.194929   -0.085052
      9          7           0       -2.103920   -0.090158    0.094441
     10          7           0        0.011831   -1.138261   -0.007573
 ---------------------------------------------------------------------

 SCF Done:  E(RHF) =  -370.803571644     A.U. after    2 cycles

 The electronic state is 1-A.
 Alpha  occ. eigenvalues --  -15.55816 -15.55704 -15.55657 -15.55630 -11.39076
 Alpha  occ. eigenvalues --  -11.38301 -11.37444 -11.30982  -1.40068  -1.26515
 Alpha  occ. eigenvalues --   -1.25851  -1.23621  -1.03338  -1.00197  -0.86798
 Alpha  occ. eigenvalues --   -0.83659  -0.72884  -0.68605  -0.68047  -0.65335
 Alpha  occ. eigenvalues --   -0.63330  -0.55566  -0.52960  -0.51770  -0.51418
 Alpha  occ. eigenvalues --   -0.50364  -0.47992
 Alpha virt. eigenvalues --    0.00124   0.02337   0.02875   0.04047   0.06821
 Alpha virt. eigenvalues --    0.07854   0.08095   0.08756   0.08950   0.10902
 Alpha virt. eigenvalues --    0.11942   0.13121   0.13298   0.13776   0.14530

 Mulliken charges:
               1
     1  C   -1.734556
     2  C   -1.009537
     3  C   -0.409151
     4  C   -0.455982
     5  H   -0.021010
     6  H   -0.052567
     7  N    1.044199
     8  N    1.015063
     9  N    0.581396
    10  N    1.042145
 Sum of Mulliken charges =  -0.00000

 Dipole moment (field-independent basis, Debye):
    X=             -4.7980    Y=              0.2617    Z=             -0.2113  Tot=              4.8098

 Test job not archived.
 1\1\GINC-SE331\SP\RHF\Aug-CC-pVDZ\C4H2N4\OHZDE\08-Apr-2025\0\\#t hf au
 g-cc-pvdz iop(5/13=1,5/36=2,99/5=2) pseudo=read geom=check guess=(read
 ,tcheck) scf=(maxcycle=1)\\title\\0,1\C,0,1.91488,0.0616003,0.00730826
 \C,0,0.518218,0.0561193,-0.0234683\C,0,-1.46017,1.11408,0.0255185\C,0,
 -1.34025,-1.16307,-0.0612786\H,0,-2.01657,2.04191,0.0187363\H,0,-1.890
 04,-2.07686,-0.041399\N,0,3.09337,-0.020426,0.0459244\N,0,-0.128344,1.
 19493,-0.0850517\N,0,-2.10392,-0.0901562,0.094441\N,0,0.0118303,-1.138
 26,-0.00757314\\Version=ES64L-G16RevC.01\State=1-A\HF=-370.8035716\RMS

 Normal termination of Gaussian 16 at Tue Apr  8 21:57:09 2025.
