 Gaussian 16, Revision C.01,

 ----------------------------------------------------------------------
 #t hf aug-cc-pvdz symm=none int=(grid=ultrafine) guess=(read,tcheck) s
 table=(opt,rrhf)
 ----------------------------------------------------------------------
 -----
 title
 -----
 Symbolic Z-matrix:
 Charge =  0 Multiplicity = 1

 SCF Done:  E(RHF) =  -443.094979472     A.U. after   18 cycles
 Normal termination of Gaussian 16 at Tue Apr  8 21:47:56 2025.
 Gaussian 16:  ES64L-G16RevC.01  3-Jul-2019

 ----------------------------------------------------------------------
 #t hf aug-cc-pvdz iop(5/13=1,5/36=2,99/5=2) pseudo=read geom=check gue
 ss=(read,tcheck) scf=(maxcycle=1)
 ----------------------------------------------------------------------
 -----
 title
 -----
 Structure from the checkpoint file:  "ANI1ccx_609_conf12_mol2.chk"
 Charge =  0 Multiplicity = 1

                         Standard orientation:
 ---------------------------------------------------------------------
 Center     Atomic      Atomic             Coordinates (Angstroms)
 Number     Number       Type             X           Y           Z
 ---------------------------------------------------------------------
      1          6           0       -0.002265   -0.679425   -0.025101
      2          6           0        0.005110    0.759197   -0.003181
      3          7           0        2.149759   -0.349218    0.027247
      4          7           0        1.265560   -1.126241    0.001759
      5          7           0       -1.258650   -1.146802   -0.009627
      6          7           0       -2.138431   -0.336065    0.011042
      7          8           0       -1.169711    1.250978    0.015915
      8          8           0        1.151619    1.277729   -0.021322
 ---------------------------------------------------------------------

 SCF Done:  E(RHF) =  -443.515909170     A.U. after    2 cycles

 The electronic state is 1-A.
 Alpha  occ. eigenvalues --  -20.60045 -20.59229 -15.71866 -15.71325 -15.69461
 Alpha  occ. eigenvalues --  -15.68682 -11.40985 -11.35683  -1.57292  -1.53304
 Alpha  occ. eigenvalues --   -1.49247  -1.44451  -1.19879  -1.04678  -0.93348
 Alpha  occ. eigenvalues --   -0.84725  -0.80330  -0.77422  -0.74704  -0.73580
 Alpha  occ. eigenvalues --   -0.71262  -0.67283  -0.62470  -0.61654  -0.51265
 Alpha  occ. eigenvalues --   -0.48714  -0.47966  -0.43021
 Alpha virt. eigenvalues --   -0.02158   0.00541   0.02237   0.05119   0.08183
 Alpha virt. eigenvalues --    0.08479   0.08848   0.10462   0.10875   0.10976
 Alpha virt. eigenvalues --    0.11164   0.12284   0.15215   0.16067   0.17058

 Mulliken charges:
               1
     1  C   -1.703109
     2  C    2.358745
     3  N    0.867256
     4  N   -0.025963
     5  N    0.044562
     6  N    0.803354
     7  O   -1.165947
     8  O   -1.178899
 Sum of Mulliken charges =   0.00000

 Dipole moment (field-independent basis, Debye):
    X=              0.2555    Y=             -2.6245    Z=             -0.0046  Tot=              2.6369

 Test job not archived.
 1\1\GINC-SE071\SP\RHF\Aug-CC-pVDZ\C2N4O2\OHZDE\08-Apr-2025\0\\#t hf au
 g-cc-pvdz iop(5/13=1,5/36=2,99/5=2) pseudo=read geom=check guess=(read
 ,tcheck) scf=(maxcycle=1)\\title\\0,1\C,0,-0.00226461,-0.679423,-0.025
 1008\C,0,0.00511108,0.759199,-0.0031813\N,0,2.14976,-0.349217,0.027246
 6\N,0,1.26556,-1.12624,0.00175855\N,0,-1.25865,-1.1468,-0.00962651\N,0
 ,-2.13843,-0.336063,0.0110417\O,0,-1.16971,1.25098,0.0159155\O,0,1.151
 62,1.27773,-0.0213217\\Version=ES64L-G16RevC.01\State=1-A\HF=-443.5159
 092\RMSD=5.646e-02\Dipole=0.1005159,-1.0325718,-0.001813\Quadrupole=-1

 Normal termination of Gaussian 16 at Tue Apr  8 21:47:59 2025.
