 Gaussian 16, Revision C.01,

 ----------------------------------------------------------------------
 #t hf aug-cc-pvdz symm=none int=(grid=ultrafine) guess=(read,tcheck) s
 table=(opt,rrhf)
 ----------------------------------------------------------------------
 -----
 title
 -----
 Symbolic Z-matrix:
 Charge =  0 Multiplicity = 1

 SCF Done:  E(RHF) =  -380.147079050     A.U. after   12 cycles
 Normal termination of Gaussian 16 at Tue Apr  8 21:05:27 2025.
 Gaussian 16:  ES64L-G16RevC.01  3-Jul-2019

 ----------------------------------------------------------------------
 #t hf aug-cc-pvdz iop(5/13=1,5/36=2,99/5=2) pseudo=read geom=check gue
 ss=(read,tcheck) scf=(maxcycle=1)
 ----------------------------------------------------------------------
 -----
 title
 -----
 Structure from the checkpoint file:  "ANI1ccx_1843_conf574_mol1.chk"
 Charge =  0 Multiplicity = 1

                         Standard orientation:
 ---------------------------------------------------------------------
 Center     Atomic      Atomic             Coordinates (Angstroms)
 Number     Number       Type             X           Y           Z
 ---------------------------------------------------------------------
      1          1           0       -1.763011   -0.448377   -0.413430
      2          1           0       -1.986896   -1.787965   -1.200810
      3          1           0       -0.727558    1.813171    0.064780
      4          1           0       -2.134082    2.377466   -0.047697
      5          1           0        1.373125    1.696454    1.198410
      6          1           0        0.640887    0.508152    0.787355
      7          1           0        0.976864   -1.236904    0.574190
      8          1           0       -0.598147   -1.525459    0.612011
      9          1           0        3.172959   -0.478577   -1.231540
     10          1           0        1.929261    0.412070   -0.716892
     11          8           0       -1.749834   -1.386996   -0.284276
     12          8           0       -1.570895    1.498934   -0.383739
     13          8           0        0.945151    1.351306    0.411548
     14          8           0        0.174955   -1.100752    1.123030
     15          8           0        2.090198   -0.528746   -0.819860
 ---------------------------------------------------------------------

 SCF Done:  E(RHF) =  -380.538789682     A.U. after    2 cycles

 The electronic state is 1-A.
 Alpha  occ. eigenvalues --  -20.56242 -20.56179 -20.56168 -20.56134 -20.50192
 Alpha  occ. eigenvalues --   -1.46727  -1.44965  -1.40185  -1.39624  -1.37627
 Alpha  occ. eigenvalues --   -0.73005  -0.71715  -0.69325  -0.67162  -0.65361
 Alpha  occ. eigenvalues --   -0.60192  -0.59487  -0.58050  -0.55281  -0.53302
 Alpha  occ. eigenvalues --   -0.50549  -0.48898  -0.48006  -0.47860  -0.44622
 Alpha virt. eigenvalues --    0.03146   0.03985   0.04469   0.05802   0.07186
 Alpha virt. eigenvalues --    0.08249   0.09476   0.09914   0.10548   0.11354
 Alpha virt. eigenvalues --    0.17780   0.18625   0.19273   0.20206   0.20596

 Mulliken charges:
               1
     1  H    0.613026
     2  H    0.424480
     3  H    0.633692
     4  H    0.494191
     5  H    0.325534
     6  H    0.826210
     7  H    0.577787
     8  H    0.762575
     9  H    0.506130
    10  H    0.586674
    11  O   -1.144708
    12  O   -1.056405
    13  O   -1.294930
    14  O   -1.242130
    15  O   -1.012124
 Sum of Mulliken charges =  -0.00000

 Dipole moment (field-independent basis, Debye):
    X=              1.1622    Y=              2.4878    Z=             -1.1501  Tot=              2.9770

 Test job not archived.
 1\1\GINC-SE083\SP\RHF\Aug-CC-pVDZ\H10O5\OHZDE\08-Apr-2025\0\\#t hf aug
 -cc-pvdz iop(5/13=1,5/36=2,99/5=2) pseudo=read geom=check guess=(read,
 tcheck) scf=(maxcycle=1)\\title\\0,1\H,0,-1.76301,-0.448381,-0.41343\H
 ,0,-1.98689,-1.78797,-1.20081\H,0,-0.727564,1.81317,0.0647796\H,0,-2.1
 3409,2.37746,-0.0476966\H,0,1.37312,1.69646,1.19841\H,0,0.640885,0.508
 155,0.787355\H,0,0.976868,-1.2369,0.57419\H,0,-0.598142,-1.52546,0.612
 011\H,0,3.17296,-0.478566,-1.23154\H,0,1.92926,0.412077,-0.716892\O,0,
 -1.74983,-1.387,-0.284276\O,0,-1.5709,1.49893,-0.383739\O,0,0.945147,1

 Normal termination of Gaussian 16 at Tue Apr  8 21:05:32 2025.
