 Gaussian 16, Revision C.01,

 ----------------------------------------------------------------------
 #t hf aug-cc-pvdz symm=none int=(grid=ultrafine) guess=(read,tcheck) s
 table=(opt,rrhf)
 ----------------------------------------------------------------------
 -----
 title
 -----
 Symbolic Z-matrix:
 Charge =  0 Multiplicity = 1

 SCF Done:  E(RHF) =  -423.356066406     A.U. after   19 cycles
 Normal termination of Gaussian 16 at Tue Apr  8 21:42:13 2025.
 Gaussian 16:  ES64L-G16RevC.01  3-Jul-2019

 ----------------------------------------------------------------------
 #t hf aug-cc-pvdz iop(5/13=1,5/36=2,99/5=2) pseudo=read geom=check gue
 ss=(read,tcheck) scf=(maxcycle=1)
 ----------------------------------------------------------------------
 -----
 title
 -----
 Structure from the checkpoint file:  "ANI1ccx_477_conf6_mol1.chk"
 Charge =  0 Multiplicity = 1

                         Standard orientation:
 ---------------------------------------------------------------------
 Center     Atomic      Atomic             Coordinates (Angstroms)
 Number     Number       Type             X           Y           Z
 ---------------------------------------------------------------------
      1          6           0       -0.410529   -0.154361   -0.062240
      2          6           0        0.624308    0.798234   -0.011243
      3          1           0        2.714849    0.233871    0.088170
      4          7           0        1.407881   -1.335228    0.055265
      5          7           0        0.144902   -1.462510   -0.079203
      6          7           0       -1.716401   -0.030097   -0.036517
      7          7           0       -2.841101   -0.043493    0.086452
      8          7           0        1.749129   -0.021608    0.045142
      9          8           0        0.598950    2.019181   -0.018156
 ---------------------------------------------------------------------

 SCF Done:  E(RHF) =  -423.759200117     A.U. after    2 cycles

 The electronic state is 1-A.
 Alpha  occ. eigenvalues --  -20.53054 -15.75013 -15.69800 -15.63177 -15.59591
 Alpha  occ. eigenvalues --  -15.59297 -11.39502 -11.34185  -1.55604  -1.48642
 Alpha  occ. eigenvalues --   -1.44992  -1.25764  -1.21533  -1.04981  -0.93974
 Alpha  occ. eigenvalues --   -0.86358  -0.80786  -0.78855  -0.78162  -0.72873
 Alpha  occ. eigenvalues --   -0.70762  -0.66286  -0.62126  -0.56201  -0.55125
 Alpha  occ. eigenvalues --   -0.49481  -0.44590  -0.38316
 Alpha virt. eigenvalues --   -0.00674   0.00287   0.03232   0.06055   0.08998
 Alpha virt. eigenvalues --    0.09530   0.09936   0.10137   0.10781   0.11021
 Alpha virt. eigenvalues --    0.11440   0.12701   0.15601   0.16145   0.17007

 Mulliken charges:
               1
     1  C   -0.540460
     2  C    1.115761
     3  H    0.020972
     4  N   -0.372456
     5  N    0.112593
     6  N   -0.383018
     7  N    0.944060
     8  N    0.488387
     9  O   -1.385839
 Sum of Mulliken charges =  -0.00000

 Dipole moment (field-independent basis, Debye):
    X=             -0.1799    Y=             -0.2995    Z=              0.0621  Tot=              0.3549

 Test job not archived.
 1\1\GINC-SE453\SP\RHF\Aug-CC-pVDZ\C2H1N5O1\OHZDE\08-Apr-2025\0\\#t hf
 aug-cc-pvdz iop(5/13=1,5/36=2,99/5=2) pseudo=read geom=check guess=(re
 ad,tcheck) scf=(maxcycle=1)\\title\\0,1\C,0,-0.410528,-0.154361,-0.062
 2398\C,0,0.624309,0.798233,-0.0112425\H,0,2.71485,0.233868,0.08817\N,0
 ,1.40788,-1.33523,0.0552648\N,0,0.144901,-1.46251,-0.0792033\N,0,-1.71
 64,-0.030095,-0.0365168\N,0,-2.8411,-0.0434907,0.0864518\N,0,1.74913,-
 0.0216099,0.0451419\O,0,0.598953,2.01918,-0.0181556\\Version=ES64L-G16
 RevC.01\State=1-A\HF=-423.7592001\RMSD=6.992e-02\Dipole=-0.0707951,-0.

 Normal termination of Gaussian 16 at Tue Apr  8 21:42:16 2025.
