 Gaussian 16, Revision C.01,

 ----------------------------------------------------------------------
 #t hf aug-cc-pvdz symm=none int=(grid=ultrafine) guess=(read,tcheck) s
 table=(opt,rrhf)
 ----------------------------------------------------------------------
 -----
 title
 -----
 Symbolic Z-matrix:
 Charge =  0 Multiplicity = 1

 SCF Done:  E(RHF) =  -446.816115279     A.U. after   14 cycles
 Normal termination of Gaussian 16 at Tue Apr  8 21:47:24 2025.
 Gaussian 16:  ES64L-G16RevC.01  3-Jul-2019

 ----------------------------------------------------------------------
 #t hf aug-cc-pvdz iop(5/13=1,5/36=2,99/5=2) pseudo=read geom=check gue
 ss=(read,tcheck) scf=(maxcycle=1)
 ----------------------------------------------------------------------
 -----
 title
 -----
 Structure from the checkpoint file:  "ANI1ccx_555_conf6_mol1.chk"
 Charge =  0 Multiplicity = 1

                         Standard orientation:
 ---------------------------------------------------------------------
 Center     Atomic      Atomic             Coordinates (Angstroms)
 Number     Number       Type             X           Y           Z
 ---------------------------------------------------------------------
      1          6           0       -1.546470   -0.146694    0.188514
      2          6           0        1.629730    0.010524   -0.029474
      3          1           0       -3.494660    0.597012    0.039633
      4          1           0       -2.324990    1.082640   -1.161240
      5          1           0       -0.713994   -0.298611   -1.699990
      6          1           0        1.009700   -1.756120   -0.681112
      7          1           0        0.358355    1.603150   -0.215257
      8          1           0        2.079120    1.918960    0.433780
      9          7           0       -2.668910    0.342049   -0.490034
     10          7           0       -0.514341   -0.337798   -0.747130
     11          7           0        0.637642   -0.891952   -0.239245
     12          7           0        1.295320    1.346060    0.154187
     13          8           0       -1.389770   -0.376252    1.387090
     14          8           0        2.807140   -0.316062    0.061096
 ---------------------------------------------------------------------

 SCF Done:  E(RHF) =  -447.263601501     A.U. after    2 cycles

 The electronic state is 1-A.
 Alpha  occ. eigenvalues --  -20.53150 -20.49601 -15.58066 -15.57329 -15.55712
 Alpha  occ. eigenvalues --  -15.52422 -11.41309 -11.37950  -1.47711  -1.45697
 Alpha  occ. eigenvalues --   -1.35605  -1.25177  -1.20180  -1.13942  -0.90340
 Alpha  occ. eigenvalues --   -0.86176  -0.84507  -0.77879  -0.76986  -0.73532
 Alpha  occ. eigenvalues --   -0.71024  -0.65874  -0.62706  -0.62108  -0.60532
 Alpha  occ. eigenvalues --   -0.51313  -0.49132  -0.46955  -0.45664  -0.42924
 Alpha  occ. eigenvalues --   -0.42465
 Alpha virt. eigenvalues --    0.01358   0.03636   0.04274   0.04728   0.05653
 Alpha virt. eigenvalues --    0.07304   0.09653   0.10477   0.11256   0.11406
 Alpha virt. eigenvalues --    0.12833   0.13071   0.14212   0.15177   0.15481

 Mulliken charges:
               1
     1  C    0.148772
     2  C    0.177741
     3  H    0.118938
     4  H    0.184145
     5  H    0.009484
     6  H    0.291724
     7  H    0.130395
     8  H    0.150563
     9  N    0.450491
    10  N    0.611550
    11  N   -0.358655
    12  N    0.421497
    13  O   -1.118121
    14  O   -1.218523
 Sum of Mulliken charges =  -0.00000

 Dipole moment (field-independent basis, Debye):
    X=             -4.0937    Y=              2.6710    Z=             -4.6574  Tot=              6.7516

 Test job not archived.
 1\1\GINC-SE094\SP\RHF\Aug-CC-pVDZ\C2H6N4O2\OHZDE\08-Apr-2025\0\\#t hf
 aug-cc-pvdz iop(5/13=1,5/36=2,99/5=2) pseudo=read geom=check guess=(re
 ad,tcheck) scf=(maxcycle=1)\\title\\0,1\C,0,-1.54647,-0.146694,0.18851
 4\C,0,1.62973,0.0105237,-0.0294737\H,0,-3.49466,0.597012,0.039633\H,0,
 -2.32499,1.08264,-1.16124\H,0,-0.713994,-0.298611,-1.69999\H,0,1.0097,
 -1.75612,-0.681112\H,0,0.358355,1.60315,-0.215257\H,0,2.07912,1.91896,
 0.43378\N,0,-2.66891,0.342049,-0.490034\N,0,-0.514341,-0.337798,-0.747
 13\N,0,0.637642,-0.891952,-0.239245\N,0,1.29532,1.34606,0.154187\O,0,-

 Normal termination of Gaussian 16 at Tue Apr  8 21:47:29 2025.
