 Gaussian 16, Revision C.01,

 ----------------------------------------------------------------------
 #t hf aug-cc-pvdz symm=none int=(grid=ultrafine) guess=(read,tcheck) s
 table=(opt,rrhf)
 ----------------------------------------------------------------------
 -----
 title
 -----
 Symbolic Z-matrix:
 Charge =  0 Multiplicity = 1

 SCF Done:  E(RHF) =  -540.215866444     A.U. after   15 cycles
 Normal termination of Gaussian 16 at Tue Apr  8 21:44:03 2025.
 Gaussian 16:  ES64L-G16RevC.01  3-Jul-2019

 ----------------------------------------------------------------------
 #t hf aug-cc-pvdz iop(5/13=1,5/36=2,99/5=2) pseudo=read geom=check gue
 ss=(read,tcheck) scf=(maxcycle=1)
 ----------------------------------------------------------------------
 -----
 title
 -----
 Structure from the checkpoint file:  "ANI1ccx_504_conf3_mol1.chk"
 Charge =  0 Multiplicity = 1

                         Standard orientation:
 ---------------------------------------------------------------------
 Center     Atomic      Atomic             Coordinates (Angstroms)
 Number     Number       Type             X           Y           Z
 ---------------------------------------------------------------------
      1          6           0        1.143629   -0.645657    0.097338
      2          6           0       -1.118432   -0.736002    0.126214
      3          1           0       -2.131893    1.901956    0.351583
      4          1           0        1.963407    1.989573    0.382057
      5          1           0        0.073194   -2.428151   -0.285702
      6          7           0       -0.716237    0.593652    0.384179
      7          7           0        0.686709    0.651364    0.440193
      8          7           0        0.042921   -1.522851    0.175210
      9          8           0       -1.442804    1.613404   -0.282810
     10          8           0        1.357826    1.626405   -0.290244
     11          8           0        2.220277   -1.024708   -0.263057
     12          8           0       -2.154003   -1.118674   -0.262178
 ---------------------------------------------------------------------

 SCF Done:  E(RHF) =  -540.740035227     A.U. after    2 cycles

 The electronic state is 1-A.
 Alpha  occ. eigenvalues --  -20.64655 -20.64225 -20.55608 -20.55488 -15.64920
 Alpha  occ. eigenvalues --  -15.63842 -15.57597 -11.42757 -11.42601  -1.57883
 Alpha  occ. eigenvalues --   -1.54242  -1.52184  -1.50931  -1.36425  -1.24167
 Alpha  occ. eigenvalues --   -1.10852  -0.94397  -0.88767  -0.82710  -0.79929
 Alpha  occ. eigenvalues --   -0.75881  -0.73609  -0.70779  -0.69864  -0.67368
 Alpha  occ. eigenvalues --   -0.66690  -0.59511  -0.56392  -0.55537  -0.55446
 Alpha  occ. eigenvalues --   -0.51550  -0.47836  -0.47241  -0.42420
 Alpha virt. eigenvalues --    0.02886   0.04176   0.04783   0.08538   0.08948
 Alpha virt. eigenvalues --    0.09851   0.10262   0.10354   0.11588   0.12244
 Alpha virt. eigenvalues --    0.12931   0.13221   0.16132   0.16366   0.16852

 Mulliken charges:
               1
     1  C    0.769054
     2  C    0.721949
     3  H    0.325191
     4  H    0.314051
     5  H    0.155732
     6  N    0.878427
     7  N    0.892042
     8  N    0.451583
     9  O   -1.123458
    10  O   -1.158944
    11  O   -1.133733
    12  O   -1.091893
 Sum of Mulliken charges =  -0.00000

 Dipole moment (field-independent basis, Debye):
    X=             -0.2840    Y=              1.7727    Z=              1.8430  Tot=              2.5729

 Test job not archived.
 1\1\GINC-SE453\SP\RHF\Aug-CC-pVDZ\C2H3N3O4\OHZDE\08-Apr-2025\0\\#t hf
 aug-cc-pvdz iop(5/13=1,5/36=2,99/5=2) pseudo=read geom=check guess=(re
 ad,tcheck) scf=(maxcycle=1)\\title\\0,1\C,0,1.14363,-0.645653,0.097338
 \C,0,-1.11843,-0.736005,0.126214\H,0,-2.1319,1.90195,0.351583\H,0,1.96
 34,1.98958,0.382057\H,0,0.0732012,-2.42815,-0.285702\N,0,-0.71624,0.59
 365,0.384179\N,0,0.686706,0.651367,0.440193\N,0,0.0429251,-1.52285,0.1
 7521\O,0,-1.44281,1.6134,-0.28281\O,0,1.35782,1.62641,-0.290244\O,0,2.
 22028,-1.0247,-0.263057\O,0,-2.154,-1.11868,-0.262178\\Version=ES64L-G

 Normal termination of Gaussian 16 at Tue Apr  8 21:44:08 2025.
