 Gaussian 16, Revision C.01,

 ----------------------------------------------------------------------
 #t hf aug-cc-pvdz symm=none int=(grid=ultrafine) guess=(read,tcheck) s
 table=(opt,rrhf)
 ----------------------------------------------------------------------
 -----
 title
 -----
 Symbolic Z-matrix:
 Charge =  0 Multiplicity = 1

 SCF Done:  E(RHF) =  -903.320593023     A.U. after   15 cycles
 Normal termination of Gaussian 16 at Tue Apr  8 20:29:54 2025.
 Gaussian 16:  ES64L-G16RevC.01  3-Jul-2019

 ----------------------------------------------------------------------
 #t hf aug-cc-pvdz iop(5/13=1,5/36=2,99/5=2) pseudo=read geom=check gue
 ss=(read,tcheck) scf=(maxcycle=1)
 ----------------------------------------------------------------------
 -----
 title
 -----
 Structure from the checkpoint file:  "ANI1ccx_1597_conf25_mol1.chk"
 Charge =  0 Multiplicity = 1

                         Standard orientation:
 ---------------------------------------------------------------------
 Center     Atomic      Atomic             Coordinates (Angstroms)
 Number     Number       Type             X           Y           Z
 ---------------------------------------------------------------------
      1          6           0       -1.563520   -1.131870   -0.541969
      2          6           0       -0.712627   -0.869994    0.644665
      3          6           0       -3.056820   -0.711718   -0.178557
      4          6           0       -3.207090    0.789458    0.016305
      5          6           0        1.437410    0.734450    0.998912
      6          6           0        1.891470    1.881160    0.006648
      7          6           0        2.284830   -0.521046    0.999461
      8          6           0        2.654790   -0.878206   -0.392514
      9          1           0        1.314320    2.656820   -1.673420
     10          1           0        4.366500   -1.560020    0.568547
     11          1           0        4.107160   -2.321830   -0.956351
     12          1           0        1.650210   -1.391700    1.393630
     13          1           0        3.209490   -0.466360    1.560910
     14          1           0        1.490980    1.308860    1.917560
     15          1           0       -0.434427    1.099060    0.070302
     16          1           0       -5.118870    0.264262   -0.203096
     17          1           0       -3.842780   -1.006920   -0.924076
     18          1           0       -3.318090   -1.263120    0.684745
     19          1           0       -1.239970   -0.575967   -1.429290
     20          1           0       -0.561546   -2.926140   -1.018920
     21          1           0       -2.035690   -2.971810   -0.096563
     22          1           0       -5.008220    1.967910   -0.084306
     23          7           0       -1.576650   -2.546410   -0.917809
     24          7           0       -4.532370    1.101410   -0.246688
     25          7           0       -0.028431    0.292720    0.581703
     26          7           0        3.862550   -1.567970   -0.363495
     27          8           0        1.978040   -0.740401   -1.389370
     28          8           0       -0.654664   -1.679700    1.608460
     29          8           0       -2.294460    1.562400    0.286515
     30          8           0        2.980160    2.352130    0.006045
     31          8           0        0.862746    2.314980   -0.824565
 ---------------------------------------------------------------------

 SCF Done:  E(RHF) =  -904.215066760     A.U. after    2 cycles

 The electronic state is 1-A.
 Alpha  occ. eigenvalues --  -20.60338 -20.55808 -20.53016 -20.52665 -20.50541
 Alpha  occ. eigenvalues --  -15.54199 -15.53317 -15.50311 -15.49706 -11.41221
 Alpha  occ. eigenvalues --  -11.38241 -11.37267 -11.35134 -11.32602 -11.27806
 Alpha  occ. eigenvalues --  -11.26867 -11.26310  -1.54445  -1.47586  -1.47131
 Alpha  occ. eigenvalues --   -1.46158  -1.42758  -1.23752  -1.22441  -1.21293
 Alpha  occ. eigenvalues --   -1.18134  -1.08267  -1.03449  -0.97102  -0.91405
 Alpha  occ. eigenvalues --   -0.84511  -0.83939  -0.79783  -0.78491  -0.75921
 Alpha  occ. eigenvalues --   -0.74632  -0.72956  -0.71632  -0.71113  -0.70506
 Alpha  occ. eigenvalues --   -0.69400  -0.66990  -0.66083  -0.64956  -0.63526
 Alpha  occ. eigenvalues --   -0.62583  -0.61758  -0.60834  -0.60314  -0.57840
 Alpha  occ. eigenvalues --   -0.56361  -0.55920  -0.54628  -0.53935  -0.52537
 Alpha  occ. eigenvalues --   -0.49468  -0.48668  -0.46347  -0.45852  -0.45632
 Alpha  occ. eigenvalues --   -0.45062  -0.43938  -0.43855  -0.41251  -0.39258
 Alpha virt. eigenvalues --    0.02398   0.02793   0.04255   0.04421   0.04659
 Alpha virt. eigenvalues --    0.05360   0.05452   0.05902   0.06810   0.07234
 Alpha virt. eigenvalues --    0.07479   0.08637   0.09109   0.10167   0.11119

 Mulliken charges:
               1
     1  C   -1.968881
     2  C    0.889262
     3  C    0.027813
     4  C    0.435379
     5  C   -1.080491
     6  C    2.933590
     7  C    0.105908
     8  C   -0.020398
     9  H    0.455870
    10  H    0.159747
    11  H    0.003821
    12  H    0.412177
    13  H    0.047983
    14  H    0.122151
    15  H    0.331222
    16  H    0.186105
    17  H    0.274082
    18  H    0.094892
    19  H   -0.078511
    20  H    0.211582
    21  H    0.330031
    22  H    0.012305
    23  N    0.809114
    24  N    0.712937
    25  N    1.052517
    26  N    0.856997
    27  O   -1.331472
    28  O   -1.643045
    29  O   -1.433772
    30  O   -1.404537
    31  O   -1.504378
 Sum of Mulliken charges =  -0.00000

 Dipole moment (field-independent basis, Debye):
    X=             -1.3650    Y=             -0.8330    Z=              0.4381  Tot=              1.6580

 Test job not archived.
 1\1\GINC-SE364\SP\RHF\Aug-CC-pVDZ\C8H14N4O5\OHZDE\08-Apr-2025\0\\#t hf
  aug-cc-pvdz iop(5/13=1,5/36=2,99/5=2) pseudo=read geom=check guess=(r
 ead,tcheck) scf=(maxcycle=1)\\title\\0,1\C,0,-1.56352,-1.13187,-0.5419
 69\C,0,-0.712627,-0.869994,0.644665\C,0,-3.05682,-0.711718,-0.178557\C
 ,0,-3.20709,0.789458,0.0163049\C,0,1.43741,0.73445,0.998912\C,0,1.8914
 7,1.88116,0.00664857\C,0,2.28483,-0.521046,0.999461\C,0,2.65479,-0.878
 206,-0.392514\H,0,1.31432,2.65682,-1.67342\H,0,4.3665,-1.56002,0.56854
 7\H,0,4.10716,-2.32183,-0.956351\H,0,1.65021,-1.3917,1.39363\H,0,3.209

 Normal termination of Gaussian 16 at Tue Apr  8 20:30:38 2025.
