 Gaussian 16, Revision C.01,

 ----------------------------------------------------------------------
 #t hf aug-cc-pvdz symm=none int=(grid=ultrafine) guess=(read,tcheck) s
 table=(opt,rrhf)
 ----------------------------------------------------------------------
 -----
 title
 -----
 Symbolic Z-matrix:
 Charge =  0 Multiplicity = 1

 SCF Done:  E(RHF) =  -487.428235659     A.U. after   14 cycles
 Normal termination of Gaussian 16 at Tue Apr  8 22:00:26 2025.
 Gaussian 16:  ES64L-G16RevC.01  3-Jul-2019

 ----------------------------------------------------------------------
 #t hf aug-cc-pvdz iop(5/13=1,5/36=2,99/5=2) pseudo=read geom=check gue
 ss=(read,tcheck) scf=(maxcycle=1)
 ----------------------------------------------------------------------
 -----
 title
 -----
 Structure from the checkpoint file:  "ANI1ccx_877_conf4_mol2.chk"
 Charge =  0 Multiplicity = 1

                         Standard orientation:
 ---------------------------------------------------------------------
 Center     Atomic      Atomic             Coordinates (Angstroms)
 Number     Number       Type             X           Y           Z
 ---------------------------------------------------------------------
      1          6           0       -1.342937   -0.553509    0.009860
      2          6           0       -0.158070   -1.497053    0.005620
      3          6           0        1.193990   -0.817213   -0.015287
      4          6           0        0.159171    1.428615    0.032816
      5          1           0       -0.177078   -2.130564    0.900477
      6          1           0       -0.276001   -2.167126   -0.850059
      7          1           0        2.114305    0.982350   -0.196655
      8          1           0       -1.879615    1.385374    0.162088
      9          7           0        1.234436    0.532549    0.031662
     10          7           0       -1.110730    0.794971    0.018864
     11          8           0       -2.473447   -0.970308   -0.037513
     12          8           0        2.195476   -1.472855    0.001417
     13          8           0        0.307912    2.602198   -0.034852
 ---------------------------------------------------------------------

 SCF Done:  E(RHF) =  -487.907097854     A.U. after    2 cycles

 The electronic state is 1-A.
 Alpha  occ. eigenvalues --  -20.56925 -20.55345 -20.55328 -15.58792 -15.58510
 Alpha  occ. eigenvalues --  -11.44976 -11.40709 -11.40520 -11.29982  -1.54508
 Alpha  occ. eigenvalues --   -1.51622  -1.50948  -1.33401  -1.27522  -1.09462
 Alpha  occ. eigenvalues --   -0.97093  -0.93734  -0.86999  -0.81156  -0.74360
 Alpha  occ. eigenvalues --   -0.72191  -0.71550  -0.67492  -0.65369  -0.64918
 Alpha  occ. eigenvalues --   -0.64237  -0.63216  -0.54427  -0.51608  -0.49619
 Alpha  occ. eigenvalues --   -0.48304  -0.46981  -0.44450
 Alpha virt. eigenvalues --    0.02827   0.04555   0.04669   0.04785   0.07997
 Alpha virt. eigenvalues --    0.08282   0.08630   0.09328   0.09877   0.10617
 Alpha virt. eigenvalues --    0.12883   0.13007   0.13621   0.13838   0.14247

 Mulliken charges:
               1
     1  C    0.779431
     2  C   -0.477089
     3  C    0.758015
     4  C    0.428584
     5  H    0.350618
     6  H    0.328125
     7  H    0.272278
     8  H    0.187358
     9  N    0.635109
    10  N    0.618049
    11  O   -1.350572
    12  O   -1.350553
    13  O   -1.179353
 Sum of Mulliken charges =  -0.00000

 Dipole moment (field-independent basis, Debye):
    X=              0.0850    Y=              0.0881    Z=              0.0822  Tot=              0.1474

 Test job not archived.
 1\1\GINC-SE365\SP\RHF\Aug-CC-pVDZ\C4H4N2O3\OHZDE\08-Apr-2025\0\\#t hf
 aug-cc-pvdz iop(5/13=1,5/36=2,99/5=2) pseudo=read geom=check guess=(re
 ad,tcheck) scf=(maxcycle=1)\\title\\0,1\C,0,-1.34295,-0.553476,0.00985
 99\C,0,-0.158107,-1.49705,0.00561998\C,0,1.19397,-0.817243,-0.0152873\
 C,0,0.159207,1.42861,0.0328157\H,0,-0.17713,-2.13056,0.900477\H,0,-0.2
 76054,-2.16712,-0.850059\H,0,2.11433,0.982297,-0.196655\H,0,-1.87958,1
 .38542,0.162088\N,0,1.23445,0.532518,0.0316617\N,0,-1.11071,0.794998,0
 .0188643\O,0,-2.47347,-0.970247,-0.0375127\O,0,2.19544,-1.47291,0.0014

 Normal termination of Gaussian 16 at Tue Apr  8 22:00:31 2025.
