 Gaussian 16, Revision C.01,

 ----------------------------------------------------------------------
 #t hf aug-cc-pvdz symm=none int=(grid=ultrafine) guess=(read,tcheck) s
 table=(opt,rrhf)
 ----------------------------------------------------------------------
 -----
 title
 -----
 Symbolic Z-matrix:
 Charge =  0 Multiplicity = 1

 SCF Done:  E(RHF) =  -256.787574186     A.U. after   15 cycles
 Normal termination of Gaussian 16 at Tue Apr  8 21:30:30 2025.
 Gaussian 16:  ES64L-G16RevC.01  3-Jul-2019

 ----------------------------------------------------------------------
 #t hf aug-cc-pvdz iop(5/13=1,5/36=2,99/5=2) pseudo=read geom=check gue
 ss=(read,tcheck) scf=(maxcycle=1)
 ----------------------------------------------------------------------
 -----
 title
 -----
 Structure from the checkpoint file:  "ANI1ccx_377_conf46_mol1.chk"
 Charge =  0 Multiplicity = 1

                         Standard orientation:
 ---------------------------------------------------------------------
 Center     Atomic      Atomic             Coordinates (Angstroms)
 Number     Number       Type             X           Y           Z
 ---------------------------------------------------------------------
      1          6           0       -1.057951   -0.333989   -0.002763
      2          1           0       -2.043250   -0.708843    0.071681
      3          1           0        1.956030   -0.552485   -0.028366
      4          7           0       -0.722962    0.940405    0.011000
      5          7           0        0.643068    0.961413   -0.032793
      6          7           0        1.005909   -0.299652    0.054812
      7          7           0       -0.006741   -1.135699   -0.036838
 ---------------------------------------------------------------------

 SCF Done:  E(RHF) =  -257.043142152     A.U. after    2 cycles

 The electronic state is 1-A.
 Alpha  occ. eigenvalues --  -15.65876 -15.61723 -15.56835 -15.55667 -11.31048
 Alpha  occ. eigenvalues --   -1.50029  -1.27030  -1.22578  -0.98800  -0.93524
 Alpha  occ. eigenvalues --   -0.84003  -0.73632  -0.70275  -0.62326  -0.56061
 Alpha  occ. eigenvalues --   -0.53589  -0.49783  -0.46340
 Alpha virt. eigenvalues --    0.02726   0.05071   0.05272   0.08493   0.09356
 Alpha virt. eigenvalues --    0.09834   0.11739   0.14286   0.15218   0.16004
 Alpha virt. eigenvalues --    0.16494   0.16996   0.17943   0.20041   0.21438

 Mulliken charges:
               1
     1  C   -0.111063
     2  H   -0.058579
     3  H    0.070963
     4  N    0.268038
     5  N   -0.224317
     6  N    0.042870
     7  N    0.012088
 Sum of Mulliken charges =  -0.00000

 Dipole moment (field-independent basis, Debye):
    X=              0.9494    Y=             -2.0052    Z=              0.0189  Tot=              2.2187

 Test job not archived.
 1\1\GINC-SE127\SP\RHF\Aug-CC-pVDZ\C1H2N4\OHZDE\08-Apr-2025\0\\#t hf au
 g-cc-pvdz iop(5/13=1,5/36=2,99/5=2) pseudo=read geom=check guess=(read
 ,tcheck) scf=(maxcycle=1)\\title\\0,1\C,0,-1.05795,-0.333988,-0.002763
 44\H,0,-2.04325,-0.70884,0.0716813\H,0,1.95603,-0.552489,-0.0283656\N,
 0,-0.722959,0.940405,0.0109999\N,0,0.643071,0.961411,-0.0327934\N,0,1.
 00591,-0.299655,0.0548124\N,0,-0.00674183,-1.1357,-0.0368382\\Version=
 ES64L-G16RevC.01\State=1-A\HF=-257.0431422\RMSD=4.586e-02\Dipole=0.373
 5229,-0.7889058,0.0074248\Quadrupole=6.2270669,-5.1254242,-1.1016427,0

 Normal termination of Gaussian 16 at Tue Apr  8 21:30:32 2025.
