 Gaussian 16, Revision C.01,

 ----------------------------------------------------------------------
 #t hf aug-cc-pvdz symm=none int=(grid=ultrafine) guess=(read,tcheck) s
 table=(opt,rrhf)
 ----------------------------------------------------------------------
 -----
 title
 -----
 Symbolic Z-matrix:
 Charge =  0 Multiplicity = 1

 SCF Done:  E(RHF) =  -423.360642521     A.U. after   17 cycles
 Normal termination of Gaussian 16 at Tue Apr  8 21:42:12 2025.
 Gaussian 16:  ES64L-G16RevC.01  3-Jul-2019

 ----------------------------------------------------------------------
 #t hf aug-cc-pvdz iop(5/13=1,5/36=2,99/5=2) pseudo=read geom=check gue
 ss=(read,tcheck) scf=(maxcycle=1)
 ----------------------------------------------------------------------
 -----
 title
 -----
 Structure from the checkpoint file:  "ANI1ccx_477_conf1_mol1.chk"
 Charge =  0 Multiplicity = 1

                         Standard orientation:
 ---------------------------------------------------------------------
 Center     Atomic      Atomic             Coordinates (Angstroms)
 Number     Number       Type             X           Y           Z
 ---------------------------------------------------------------------
      1          6           0       -0.392481   -0.298280   -0.017908
      2          6           0        0.555165    0.840581    0.007845
      3          1           0        2.671990    0.452680   -0.006339
      4          7           0        1.499249   -1.265222   -0.004806
      5          7           0        0.239505   -1.485511    0.006624
      6          7           0       -1.691500   -0.159469    0.024309
      7          7           0       -2.799210   -0.051040   -0.014637
      8          7           0        1.731060    0.080065   -0.000554
      9          8           0        0.437273    2.057719   -0.001228
 ---------------------------------------------------------------------

 SCF Done:  E(RHF) =  -423.766142256     A.U. after    2 cycles

 The electronic state is 1-A.
 Alpha  occ. eigenvalues --  -20.53828 -15.74674 -15.69335 -15.62715 -15.59493
 Alpha  occ. eigenvalues --  -15.59061 -11.40161 -11.34167  -1.57188  -1.48579
 Alpha  occ. eigenvalues --   -1.45252  -1.26260  -1.21613  -1.04773  -0.93754
 Alpha  occ. eigenvalues --   -0.87186  -0.80272  -0.79684  -0.77852  -0.71849
 Alpha  occ. eigenvalues --   -0.70617  -0.66732  -0.62153  -0.56348  -0.55729
 Alpha  occ. eigenvalues --   -0.49743  -0.44813  -0.37902
 Alpha virt. eigenvalues --   -0.00432   0.01205   0.03279   0.05996   0.09019
 Alpha virt. eigenvalues --    0.09767   0.09837   0.10251   0.10588   0.11403
 Alpha virt. eigenvalues --    0.11590   0.12509   0.15786   0.16175   0.16337

 Mulliken charges:
               1
     1  C   -0.761438
     2  C    1.055121
     3  H    0.033430
     4  N   -0.295004
     5  N    0.235220
     6  N   -0.517784
     7  N    1.065097
     8  N    0.520705
     9  O   -1.335346
 Sum of Mulliken charges =  -0.00000

 Dipole moment (field-independent basis, Debye):
    X=             -0.3823    Y=             -0.2684    Z=              0.0424  Tot=              0.4690

 Test job not archived.
 1\1\GINC-SE340\SP\RHF\Aug-CC-pVDZ\C2H1N5O1\OHZDE\08-Apr-2025\0\\#t hf
 aug-cc-pvdz iop(5/13=1,5/36=2,99/5=2) pseudo=read geom=check guess=(re
 ad,tcheck) scf=(maxcycle=1)\\title\\0,1\C,0,-0.392481,-0.298279,-0.017
 9084\C,0,0.555164,0.840583,0.00784483\H,0,2.67199,0.452683,-0.00633854
 \N,0,1.49925,-1.26522,-0.00480592\N,0,0.239506,-1.48551,0.00662364\N,0
 ,-1.6915,-0.159469,0.024309\N,0,-2.79921,-0.0510415,-0.0146374\N,0,1.7
 3106,0.0800681,-0.00055444\O,0,0.437271,2.05772,-0.00122811\\Version=E
 S64L-G16RevC.01\State=1-A\HF=-423.7661423\RMSD=6.637e-02\Dipole=-0.150

 Normal termination of Gaussian 16 at Tue Apr  8 21:42:16 2025.
