 Gaussian 16, Revision C.01,

 ----------------------------------------------------------------------
 #t hf aug-cc-pvdz symm=none int=(grid=ultrafine) guess=(read,tcheck) s
 table=(opt,rrhf)
 ----------------------------------------------------------------------
 -----
 title
 -----
 Symbolic Z-matrix:
 Charge =  0 Multiplicity = 1

 SCF Done:  E(RHF) =  -848.827299823     A.U. after   14 cycles
 Normal termination of Gaussian 16 at Tue Apr  8 21:14:23 2025.
 Gaussian 16:  ES64L-G16RevC.01  3-Jul-2019

 ----------------------------------------------------------------------
 #t hf aug-cc-pvdz iop(5/13=1,5/36=2,99/5=2) pseudo=read geom=check gue
 ss=(read,tcheck) scf=(maxcycle=1)
 ----------------------------------------------------------------------
 -----
 title
 -----
 Structure from the checkpoint file:  "ANI1ccx_1786_conf4_mol1.chk"
 Charge =  0 Multiplicity = 1

                         Standard orientation:
 ---------------------------------------------------------------------
 Center     Atomic      Atomic             Coordinates (Angstroms)
 Number     Number       Type             X           Y           Z
 ---------------------------------------------------------------------
      1          6           0        1.156278    2.163551   -0.096451
      2          6           0       -2.727289   -0.842839    0.765314
      3          6           0       -2.314340    0.350024   -0.086807
      4          6           0        1.427212   -2.257568   -0.597880
      5          6           0       -2.677350    0.050525   -1.559600
      6          6           0        2.188910    0.202213    1.324770
      7          6           0        1.739369    1.645982    1.226020
      8          6           0       -0.367781    1.872380   -0.341688
      9          6           0        2.864911   -0.410429    0.113360
     10          1           0        3.162373   -3.058487   -0.976089
     11          1           0       -1.069198   -1.621871    0.367556
     12          1           0       -2.156169   -0.838010   -1.954460
     13          1           0       -2.583871    0.971799   -2.161850
     14          1           0       -3.727129   -0.302294   -1.732740
     15          1           0       -2.845931    1.219548    0.319728
     16          1           0       -0.361657    0.160323    0.812584
     17          1           0        1.955484   -4.164098   -0.481579
     18          1           0       -0.083584   -3.400940   -0.291678
     19          1           0        3.663191   -1.118837    0.399246
     20          1           0        0.884608    4.037271    0.694245
     21          1           0        3.477750    0.306583   -0.470570
     22          1           0        1.369941   -0.458811    1.668320
     23          1           0        2.865890    0.127443    2.191050
     24          1           0        2.596838    2.332213    1.375820
     25          1           0        1.020909    1.934731    2.014880
     26          1           0        1.658209    1.667662   -0.959669
     27          1           0        0.852190    3.925001   -0.970969
     28          1           0        1.137451   -0.431535   -0.937323
     29          7           0        1.326047    3.622251   -0.126788
     30          7           0        1.949101   -1.020348   -0.836292
     31          7           0        0.138430   -2.431810   -0.586568
     32          7           0        2.346293   -3.251118   -0.400998
     33          7           0       -0.863121    0.602973    0.031111
     34          8           0       -3.847749   -0.970184    1.180310
     35          8           0       -1.086132    2.687249   -0.934355
     36          8           0       -1.795378   -1.790111    1.010050
 ---------------------------------------------------------------------

 SCF Done:  E(RHF) =  -849.697625828     A.U. after    2 cycles

 The electronic state is 1-A.
 Alpha  occ. eigenvalues --  -20.56875 -20.53176 -20.51536 -15.54830 -15.54449
 Alpha  occ. eigenvalues --  -15.53452 -15.49701 -15.48641 -11.37621 -11.37566
 Alpha  occ. eigenvalues --  -11.37558 -11.30242 -11.30137 -11.29749 -11.26725
 Alpha  occ. eigenvalues --  -11.26444 -11.23601  -1.52212  -1.46509  -1.43357
 Alpha  occ. eigenvalues --   -1.33961  -1.24515  -1.23162  -1.20427  -1.17312
 Alpha  occ. eigenvalues --   -1.09263  -1.04826  -0.99730  -0.93780  -0.90085
 Alpha  occ. eigenvalues --   -0.87126  -0.85234  -0.81446  -0.80567  -0.78216
 Alpha  occ. eigenvalues --   -0.76683  -0.74842  -0.71618  -0.70632  -0.69730
 Alpha  occ. eigenvalues --   -0.69253  -0.67992  -0.65867  -0.64536  -0.64138
 Alpha  occ. eigenvalues --   -0.63116  -0.61634  -0.61062  -0.59833  -0.59553
 Alpha  occ. eigenvalues --   -0.58500  -0.57605  -0.54472  -0.53473  -0.52248
 Alpha  occ. eigenvalues --   -0.51683  -0.51096  -0.50694  -0.49685  -0.48254
 Alpha  occ. eigenvalues --   -0.46406  -0.45245  -0.44309  -0.43010  -0.42680
 Alpha  occ. eigenvalues --   -0.41447
 Alpha virt. eigenvalues --    0.01807   0.02584   0.03114   0.03539   0.04305
 Alpha virt. eigenvalues --    0.04659   0.05162   0.05380   0.05679   0.06585
 Alpha virt. eigenvalues --    0.07167   0.07578   0.08339   0.08531   0.08663

 Mulliken charges:
               1
     1  C   -2.488958
     2  C    2.578039
     3  C   -1.500314
     4  C   -2.944256
     5  C   -0.160128
     6  C    0.083931
     7  C   -0.050376
     8  C    0.591039
     9  C   -0.711976
    10  H    0.243743
    11  H    0.960779
    12  H    0.163929
    13  H    0.165231
    14  H    0.113948
    15  H   -0.034990
    16  H    0.077429
    17  H    0.142116
    18  H    0.107286
    19  H   -0.010683
    20  H    0.176599
    21  H    0.123103
    22  H    0.166372
    23  H    0.072171
    24  H    0.196053
    25  H    0.226036
    26  H    0.188321
    27  H    0.231933
    28  H    0.438862
    29  N    0.999983
    30  N    1.146645
    31  N    0.883761
    32  N    0.686813
    33  N    1.520497
    34  O   -1.411699
    35  O   -1.397430
    36  O   -1.573811
 Sum of Mulliken charges =  -0.00000

 Dipole moment (field-independent basis, Debye):
    X=              7.8929    Y=             -1.9529    Z=             -0.3272  Tot=              8.1375

 Test job not archived.
 1\1\GINC-SE252\SP\RHF\Aug-CC-pVDZ\C9H19N5O3\OHZDE\08-Apr-2025\0\\#t hf
  aug-cc-pvdz iop(5/13=1,5/36=2,99/5=2) pseudo=read geom=check guess=(r
 ead,tcheck) scf=(maxcycle=1)\\title\\0,1\C,0,1.15628,2.16355,-0.096450
 5\C,0,-2.72729,-0.842837,0.765314\C,0,-2.31434,0.350026,-0.0868071\C,0
 ,1.42721,-2.25757,-0.59788\C,0,-2.67735,0.050527,-1.5596\C,0,2.18891,0
 .202211,1.32477\C,0,1.73937,1.64598,1.22602\C,0,-0.36778,1.87238,-0.34
 1688\C,0,2.86491,-0.410432,0.11336\H,0,3.16237,-3.05849,-0.976089\H,0,
 -1.0692,-1.62187,0.367556\H,0,-2.15617,-0.838008,-1.95446\H,0,-2.58387

 Normal termination of Gaussian 16 at Tue Apr  8 21:15:20 2025.
