 Gaussian 16, Revision C.01,

 ----------------------------------------------------------------------
 #t hf aug-cc-pvdz symm=none int=(grid=ultrafine) guess=(read,tcheck) s
 table=(opt,rrhf)
 ----------------------------------------------------------------------
 -----
 title
 -----
 Symbolic Z-matrix:
 Charge =  0 Multiplicity = 1

 SCF Done:  E(RHF) =  -464.286136404     A.U. after   16 cycles
 Normal termination of Gaussian 16 at Tue Apr  8 21:42:16 2025.
 Gaussian 16:  ES64L-G16RevC.01  3-Jul-2019

 ----------------------------------------------------------------------
 #t hf aug-cc-pvdz iop(5/13=1,5/36=2,99/5=2) pseudo=read geom=check gue
 ss=(read,tcheck) scf=(maxcycle=1)
 ----------------------------------------------------------------------
 -----
 title
 -----
 Structure from the checkpoint file:  "ANI1ccx_474_conf44_mol1.chk"
 Charge =  0 Multiplicity = 1

                         Standard orientation:
 ---------------------------------------------------------------------
 Center     Atomic      Atomic             Coordinates (Angstroms)
 Number     Number       Type             X           Y           Z
 ---------------------------------------------------------------------
      1          6           0        1.303398   -0.113145    0.187194
      2          6           0       -0.655280    1.417293   -0.007321
      3          1           0        2.077850    0.354302   -1.480120
      4          7           0        0.332150    0.700855   -0.559887
      5          7           0       -1.362196   -1.300124   -0.527724
      6          7           0       -1.947898   -2.100842    0.016951
      7          8           0        2.299828   -0.240632   -0.695502
      8          8           0       -1.622974    2.115346    0.224658
      9          8           0        1.183027   -0.534515    1.457780
 ---------------------------------------------------------------------

 SCF Done:  E(RHF) =  -464.715860114     A.U. after    2 cycles

 The electronic state is 1-A.
 Alpha  occ. eigenvalues --  -20.68480 -20.65126 -20.56972 -15.64197 -15.63630
 Alpha  occ. eigenvalues --  -15.59386 -11.51159 -11.49508  -1.58297  -1.57395
 Alpha  occ. eigenvalues --   -1.47406  -1.41704  -1.26985  -0.95492  -0.84357
 Alpha  occ. eigenvalues --   -0.84103  -0.78614  -0.71659  -0.70808  -0.67801
 Alpha  occ. eigenvalues --   -0.66533  -0.66086  -0.65252  -0.64732  -0.61506
 Alpha  occ. eigenvalues --   -0.56677  -0.51410  -0.47101  -0.46650
 Alpha virt. eigenvalues --    0.02593   0.05464   0.05795   0.06936   0.07449
 Alpha virt. eigenvalues --    0.08496   0.08553   0.09445   0.09914   0.10557
 Alpha virt. eigenvalues --    0.11696   0.12679   0.12873   0.15186   0.17106

 Mulliken charges:
               1
     1  C    1.713949
     2  C    0.354216
     3  H    0.477928
     4  N    0.535260
     5  N    0.109726
     6  N   -0.216378
     7  O   -1.103548
     8  O   -0.753539
     9  O   -1.117614
 Sum of Mulliken charges =  -0.00000

 Dipole moment (field-independent basis, Debye):
    X=             -0.5582    Y=              1.9996    Z=             -2.9155  Tot=              3.5791

 Test job not archived.
 1\1\GINC-SE220\SP\RHF\Aug-CC-pVDZ\C2H1N3O3\OHZDE\08-Apr-2025\0\\#t hf
 aug-cc-pvdz iop(5/13=1,5/36=2,99/5=2) pseudo=read geom=check guess=(re
 ad,tcheck) scf=(maxcycle=1)\\title\\0,1\C,0,1.3034,-0.113142,0.187194\
 C,0,-0.655284,1.41729,-0.00732089\H,0,2.07785,0.354308,-1.48012\N,0,0.
 332149,0.700855,-0.559887\N,0,-1.36219,-1.30013,-0.527724\N,0,-1.94789
 ,-2.10085,0.0169502\O,0,2.29983,-0.240625,-0.695502\O,0,-1.62298,2.115
 34,0.224658\O,0,1.18303,-0.534512,1.45778\\Version=ES64L-G16RevC.01\St
 ate=1-A\HF=-464.7158601\RMSD=3.088e-02\Dipole=-0.2196019,0.7867221,-1.

 Normal termination of Gaussian 16 at Tue Apr  8 21:42:20 2025.
