 Gaussian 16, Revision C.01,

 ----------------------------------------------------------------------
 #t hf aug-cc-pvdz symm=none int=(grid=ultrafine) guess=(read,tcheck) s
 table=(opt,rrhf)
 ----------------------------------------------------------------------
 -----
 title
 -----
 Symbolic Z-matrix:
 Charge =  0 Multiplicity = 1

 SCF Done:  E(RHF) =  -304.170316750     A.U. after   11 cycles
 Normal termination of Gaussian 16 at Tue Apr  8 21:13:23 2025.
 Gaussian 16:  ES64L-G16RevC.01  3-Jul-2019

 ----------------------------------------------------------------------
 #t hf aug-cc-pvdz iop(5/13=1,5/36=2,99/5=2) pseudo=read geom=check gue
 ss=(read,tcheck) scf=(maxcycle=1)
 ----------------------------------------------------------------------
 -----
 title
 -----
 Structure from the checkpoint file:  "ANI1ccx_1904_conf27_mol1.chk"
 Charge =  0 Multiplicity = 1

                         Standard orientation:
 ---------------------------------------------------------------------
 Center     Atomic      Atomic             Coordinates (Angstroms)
 Number     Number       Type             X           Y           Z
 ---------------------------------------------------------------------
      1          1           0        2.675528    0.554282   -0.580297
      2          1           0        1.292247    0.986866    0.139241
      3          1           0        0.976991   -1.098979   -0.136882
      4          1           0        0.452603   -2.216130    0.800618
      5          1           0       -1.210359   -0.939074   -0.156716
      6          1           0       -2.189300   -0.416544    0.886910
      7          1           0       -0.975420    1.043687   -0.068865
      8          1           0       -0.447608    2.334688   -0.695645
      9          8           0        1.986608    0.277269    0.082235
     10          8           0        0.296076   -1.824440   -0.108214
     11          8           0       -1.980980   -0.293807   -0.114635
     12          8           0       -0.373539    1.809878    0.117069
 ---------------------------------------------------------------------

 SCF Done:  E(RHF) =  -304.484793386     A.U. after    2 cycles

 The electronic state is 1-A.
 Alpha  occ. eigenvalues --  -20.56568 -20.56212 -20.55903 -20.54845  -1.44680
 Alpha  occ. eigenvalues --   -1.43172  -1.42673  -1.40943  -0.72074  -0.70263
 Alpha  occ. eigenvalues --   -0.69669  -0.68151  -0.61449  -0.59350  -0.57916
 Alpha  occ. eigenvalues --   -0.55696  -0.50388  -0.49388  -0.48765  -0.48522
 Alpha virt. eigenvalues --    0.03298   0.03988   0.05021   0.06784   0.07285
 Alpha virt. eigenvalues --    0.08511   0.09547   0.10999   0.17281   0.17555
 Alpha virt. eigenvalues --    0.18657   0.20328   0.21303   0.22423   0.23250

 Mulliken charges:
               1
     1  H    0.403418
     2  H    0.622713
     3  H    0.732551
     4  H    0.387721
     5  H    0.694734
     6  H    0.408988
     7  H    0.710878
     8  H    0.335468
     9  O   -1.069285
    10  O   -1.083932
    11  O   -1.165031
    12  O   -0.978223
 Sum of Mulliken charges =  -0.00000

 Dipole moment (field-independent basis, Debye):
    X=              1.2816    Y=              0.4108    Z=              0.2285  Tot=              1.3651

 Test job not archived.
 1\1\GINC-SE338\SP\RHF\Aug-CC-pVDZ\H8O4\OHZDE\08-Apr-2025\0\\#t hf aug-
 cc-pvdz iop(5/13=1,5/36=2,99/5=2) pseudo=read geom=check guess=(read,t
 check) scf=(maxcycle=1)\\title\\0,1\H,0,2.67553,0.554277,-0.580297\H,0
 ,1.29225,0.986864,0.139241\H,0,0.97699,-1.09898,-0.136882\H,0,0.4526,-
 2.21613,0.800618\H,0,-1.21036,-0.939071,-0.156716\H,0,-2.1893,-0.41653
 9,0.88691\H,0,-0.975417,1.04369,-0.0688644\H,0,-0.447602,2.33469,-0.69
 5645\O,0,1.98661,0.277266,0.0822353\O,0,0.296073,-1.82444,-0.108214\O,
 0,-1.98098,-0.293802,-0.114635\O,0,-0.373534,1.80988,0.117069\\Version

 Normal termination of Gaussian 16 at Tue Apr  8 21:13:26 2025.
