 Gaussian 16, Revision C.01,

 ----------------------------------------------------------------------
 #t hf aug-cc-pvdz symm=none int=(grid=ultrafine) guess=(read,tcheck) s
 table=(opt,rrhf)
 ----------------------------------------------------------------------
 -----
 title
 -----
 Symbolic Z-matrix:
 Charge =  0 Multiplicity = 1

 SCF Done:  E(RHF) =  -830.225785075     A.U. after   14 cycles
 Normal termination of Gaussian 16 at Tue Apr  8 19:46:15 2025.
 Gaussian 16:  ES64L-G16RevC.01  3-Jul-2019

 ----------------------------------------------------------------------
 #t hf aug-cc-pvdz iop(5/13=1,5/36=2,99/5=2) pseudo=read geom=check gue
 ss=(read,tcheck) scf=(maxcycle=1)
 ----------------------------------------------------------------------
 -----
 title
 -----
 Structure from the checkpoint file:  "ANI1ccx_1406_conf27_mol1.chk"
 Charge =  0 Multiplicity = 1

                         Standard orientation:
 ---------------------------------------------------------------------
 Center     Atomic      Atomic             Coordinates (Angstroms)
 Number     Number       Type             X           Y           Z
 ---------------------------------------------------------------------
      1          6           0       -2.469909   -0.799140   -0.391932
      2          6           0       -1.352750   -0.231747    0.500823
      3          6           0       -3.374890    0.376560   -0.683208
      4          6           0        0.952484    0.420656    0.690328
      5          6           0        1.585359    1.792561    0.260073
      6          6           0        2.075290   -0.622235    0.850994
      7          6           0        2.267041   -1.459559   -0.426832
      8          1           0        3.112218    2.501142   -0.314739
      9          1           0        2.569252   -3.035458    0.714192
     10          1           0        3.018430   -0.046389    1.049360
     11          1           0        1.828891   -1.458529    1.559990
     12          1           0        0.614866    0.650787    1.766140
     13          1           0        0.064785   -0.091273   -1.092070
     14          1           0       -3.923120    0.034296   -1.589090
     15          1           0       -4.215870    0.446971    0.071419
     16          1           0       -2.137599   -1.368072   -1.365200
     17          1           0       -2.606488   -2.561312    0.669886
     18          1           0       -3.738299   -1.523063    1.160640
     19          1           0       -2.412331    2.026018   -0.152770
     20          7           0       -3.270339   -1.825352    0.302812
     21          7           0       -0.200962   -0.021331   -0.120482
     22          8           0        2.455872   -2.726438   -0.277545
     23          8           0       -1.469550    0.099903    1.716820
     24          8           0       -2.821151    1.637238   -0.955481
     25          8           0        1.065008    2.825491    0.008411
     26          8           0        2.142271   -0.876409   -1.513180
     27          8           0        2.881129    1.601352   -0.048468
 ---------------------------------------------------------------------

 SCF Done:  E(RHF) =  -831.048924070     A.U. after    2 cycles

 The electronic state is 1-A.
 Alpha  occ. eigenvalues --  -20.64567 -20.61123 -20.55762 -20.55710 -20.54186
 Alpha  occ. eigenvalues --  -20.52126 -15.55530 -15.50838 -11.41578 -11.41106
 Alpha  occ. eigenvalues --  -11.37566 -11.32722 -11.30243 -11.29757 -11.29008
 Alpha  occ. eigenvalues --   -1.58104  -1.58000  -1.47619  -1.45899  -1.45348
 Alpha  occ. eigenvalues --   -1.44653  -1.27016  -1.19720  -1.09717  -1.01351
 Alpha  occ. eigenvalues --   -0.96888  -0.90299  -0.86871  -0.85140  -0.82806
 Alpha  occ. eigenvalues --   -0.76089  -0.74013  -0.73464  -0.72023  -0.71422
 Alpha  occ. eigenvalues --   -0.69322  -0.67547  -0.66517  -0.65887  -0.64801
 Alpha  occ. eigenvalues --   -0.64040  -0.62585  -0.61687  -0.60521  -0.58487
 Alpha  occ. eigenvalues --   -0.57634  -0.56301  -0.55540  -0.54555  -0.49432
 Alpha  occ. eigenvalues --   -0.48679  -0.48018  -0.47122  -0.46135  -0.45135
 Alpha  occ. eigenvalues --   -0.44565  -0.43000  -0.42256
 Alpha virt. eigenvalues --    0.01449   0.03322   0.03861   0.04321   0.04901
 Alpha virt. eigenvalues --    0.05294   0.05836   0.05963   0.07187   0.07656
 Alpha virt. eigenvalues --    0.08162   0.09029   0.09881   0.10679   0.11127

 Mulliken charges:
               1
     1  C   -1.726249
     2  C    0.813102
     3  C    1.092397
     4  C   -1.833821
     5  C    2.850836
     6  C   -0.391362
     7  C    2.379381
     8  H    0.423686
     9  H    0.465796
    10  H    0.375403
    11  H    0.073714
    12  H    0.355323
    13  H    0.104093
    14  H    0.126844
    15  H    0.232479
    16  H    0.180284
    17  H    0.184244
    18  H    0.206142
    19  H    0.365443
    20  N    0.504530
    21  N    1.363487
    22  O   -1.366051
    23  O   -1.500150
    24  O   -1.233121
    25  O   -1.382558
    26  O   -1.334208
    27  O   -1.329665
 Sum of Mulliken charges =  -0.00000

 Dipole moment (field-independent basis, Debye):
    X=              3.3700    Y=             -3.0679    Z=              3.5147  Tot=              5.7552

 Test job not archived.
 1\1\GINC-SE095\SP\RHF\Aug-CC-pVDZ\C7H12N2O6\OHZDE\08-Apr-2025\0\\#t hf
  aug-cc-pvdz iop(5/13=1,5/36=2,99/5=2) pseudo=read geom=check guess=(r
 ead,tcheck) scf=(maxcycle=1)\\title\\0,1\C,0,-2.46991,-0.799138,-0.391
 932\C,0,-1.35275,-0.231746,0.500823\C,0,-3.37489,0.376562,-0.683208\C,
 0,0.952484,0.420655,0.690328\C,0,1.58536,1.79256,0.260073\C,0,2.07529,
 -0.622236,0.850994\C,0,2.26704,-1.45956,-0.426832\H,0,3.11222,2.50114,
 -0.314739\H,0,2.56925,-3.03546,0.714192\H,0,3.01843,-0.0463912,1.04936
 \H,0,1.82889,-1.45853,1.55999\H,0,0.614866,0.650787,1.76614\H,0,0.0647

 Normal termination of Gaussian 16 at Tue Apr  8 19:46:45 2025.
