 Gaussian 16, Revision C.01,

 ----------------------------------------------------------------------
 #t hf aug-cc-pvdz symm=none int=(grid=ultrafine) guess=(read,tcheck) s
 table=(opt,rrhf)
 ----------------------------------------------------------------------
 -----
 title
 -----
 Symbolic Z-matrix:
 Charge =  0 Multiplicity = 1

 SCF Done:  E(RHF) =  -449.529478385     A.U. after   14 cycles
 Normal termination of Gaussian 16 at Tue Apr  8 21:50:47 2025.
 Gaussian 16:  ES64L-G16RevC.01  3-Jul-2019

 ----------------------------------------------------------------------
 #t hf aug-cc-pvdz iop(5/13=1,5/36=2,99/5=2) pseudo=read geom=check gue
 ss=(read,tcheck) scf=(maxcycle=1)
 ----------------------------------------------------------------------
 -----
 title
 -----
 Structure from the checkpoint file:  "ANI1ccx_686_conf1_mol2.chk"
 Charge =  0 Multiplicity = 1

                         Standard orientation:
 ---------------------------------------------------------------------
 Center     Atomic      Atomic             Coordinates (Angstroms)
 Number     Number       Type             X           Y           Z
 ---------------------------------------------------------------------
      1          6           0        2.158810   -0.615843   -0.020986
      2          6           0        0.184942    0.903316    0.009993
      3          6           0       -2.047090   -0.074762   -0.028345
      4          1           0        3.280600   -0.546816   -0.061386
      5          1           0        2.101499    1.487860   -0.076136
      6          1           0       -0.162435   -1.079530   -0.056872
      7          1           0       -2.373311    0.987270   -0.078495
      8          7           0        1.540449    0.632649   -0.034082
      9          7           0       -0.646713   -0.172775   -0.046124
     10          8           0        1.585880   -1.672240    0.057107
     11          8           0       -0.178989    2.063870    0.058452
     12          8           0       -2.767200   -1.059651    0.018235
 ---------------------------------------------------------------------

 SCF Done:  E(RHF) =  -449.968069681     A.U. after    2 cycles

 The electronic state is 1-A.
 Alpha  occ. eigenvalues --  -20.58424 -20.55176 -20.54411 -15.59501 -15.56524
 Alpha  occ. eigenvalues --  -11.43203 -11.42738 -11.39195  -1.53762  -1.50772
 Alpha  occ. eigenvalues --   -1.48055  -1.31469  -1.26573  -0.99801  -0.92659
 Alpha  occ. eigenvalues --   -0.86533  -0.81353  -0.77823  -0.72300  -0.70084
 Alpha  occ. eigenvalues --   -0.68117  -0.66604  -0.64311  -0.61956  -0.56086
 Alpha  occ. eigenvalues --   -0.50368  -0.49101  -0.48708  -0.45289  -0.44891
 Alpha virt. eigenvalues --    0.01868   0.04352   0.05168   0.06338   0.06730
 Alpha virt. eigenvalues --    0.08376   0.09095   0.09179   0.09817   0.11852
 Alpha virt. eigenvalues --    0.12774   0.13200   0.14053   0.14726   0.14860

 Mulliken charges:
               1
     1  C    0.578834
     2  C    0.000767
     3  C    0.750371
     4  H    0.122303
     5  H    0.276538
     6  H    0.136484
     7  H    0.145624
     8  N    0.733857
     9  N    0.622309
    10  O   -1.077978
    11  O   -1.198783
    12  O   -1.090327
 Sum of Mulliken charges =  -0.00000

 Dipole moment (field-independent basis, Debye):
    X=              5.0657    Y=              1.5897    Z=             -0.4132  Tot=              5.3253

 Test job not archived.
 1\1\GINC-SE044\SP\RHF\Aug-CC-pVDZ\C3H4N2O3\OHZDE\08-Apr-2025\0\\#t hf
 aug-cc-pvdz iop(5/13=1,5/36=2,99/5=2) pseudo=read geom=check guess=(re
 ad,tcheck) scf=(maxcycle=1)\\title\\0,1\C,0,2.15881,-0.615843,-0.02098
 63\C,0,0.184943,0.903316,0.00999269\C,0,-2.04709,-0.0747617,-0.0283452
 \H,0,3.2806,-0.546817,-0.0613855\H,0,2.1015,1.48786,-0.0761355\H,0,-0.
 162435,-1.07953,-0.0568715\H,0,-2.37331,0.987271,-0.0784945\N,0,1.5404
 5,0.632649,-0.0340816\N,0,-0.646713,-0.172775,-0.046124\O,0,1.58588,-1
 .67224,0.0571074\O,0,-0.178988,2.06387,0.0584523\O,0,-2.7672,-1.05965,

 Normal termination of Gaussian 16 at Tue Apr  8 21:50:52 2025.
