 Gaussian 16, Revision C.01,

 ----------------------------------------------------------------------
 #t hf aug-cc-pvdz symm=none int=(grid=ultrafine) guess=(read,tcheck) s
 table=(opt,rrhf)
 ----------------------------------------------------------------------
 -----
 title
 -----
 Symbolic Z-matrix:
 Charge =  0 Multiplicity = 1

 SCF Done:  E(RHF) =  -406.497738700     A.U. after   16 cycles
 Normal termination of Gaussian 16 at Tue Apr  8 21:32:40 2025.
 Gaussian 16:  ES64L-G16RevC.01  3-Jul-2019

 ----------------------------------------------------------------------
 #t hf aug-cc-pvdz iop(5/13=1,5/36=2,99/5=2) pseudo=read geom=check gue
 ss=(read,tcheck) scf=(maxcycle=1)
 ----------------------------------------------------------------------
 -----
 title
 -----
 Structure from the checkpoint file:  "ANI1ccx_379_conf13_mol2.chk"
 Charge =  0 Multiplicity = 1

                         Standard orientation:
 ---------------------------------------------------------------------
 Center     Atomic      Atomic             Coordinates (Angstroms)
 Number     Number       Type             X           Y           Z
 ---------------------------------------------------------------------
      1          6           0        0.032888    0.825139    0.000424
      2          1           0        2.239439   -0.568223    0.834588
      3          1           0        2.247749   -0.587229   -0.821596
      4          7           0        1.775197   -0.929696    0.005551
      5          7           0        0.478414   -0.483798   -0.015022
      6          7           0       -0.561296   -1.338008    0.001991
      7          7           0       -1.617202   -0.686244    0.004851
      8          8           0       -1.316107    0.687698   -0.001250
      9          8           0        0.664818    1.845908    0.001608
 ---------------------------------------------------------------------

 SCF Done:  E(RHF) =  -406.898379070     A.U. after    2 cycles

 The electronic state is 1-A.
 Alpha  occ. eigenvalues --  -20.67172 -20.56254 -15.66666 -15.65967 -15.64816
 Alpha  occ. eigenvalues --  -15.58912 -11.45579  -1.65319  -1.51214  -1.45129
 Alpha  occ. eigenvalues --   -1.34621  -1.18601  -1.00943  -0.94494  -0.84411
 Alpha  occ. eigenvalues --   -0.82430  -0.74433  -0.72709  -0.69209  -0.64803
 Alpha  occ. eigenvalues --   -0.61122  -0.59748  -0.57449  -0.55337  -0.48436
 Alpha  occ. eigenvalues --   -0.45594
 Alpha virt. eigenvalues --    0.02506   0.04723   0.05741   0.08547   0.09485
 Alpha virt. eigenvalues --    0.09694   0.09736   0.12025   0.12672   0.14282
 Alpha virt. eigenvalues --    0.16279   0.16567   0.16721   0.17686   0.19791

 Mulliken charges:
               1
     1  C    1.432551
     2  H    0.191358
     3  H    0.190214
     4  N    0.540274
     5  N   -0.444014
     6  N   -0.834342
     7  N    1.241705
     8  O   -1.313981
     9  O   -1.003765
 Sum of Mulliken charges =  -0.00000

 Dipole moment (field-independent basis, Debye):
    X=              2.4899    Y=             -0.7667    Z=              0.0100  Tot=              2.6053

 Test job not archived.
 1\1\GINC-SE455\SP\RHF\Aug-CC-pVDZ\C1H2N4O2\OHZDE\08-Apr-2025\0\\#t hf
 aug-cc-pvdz iop(5/13=1,5/36=2,99/5=2) pseudo=read geom=check guess=(re
 ad,tcheck) scf=(maxcycle=1)\\title\\0,1\C,0,0.0328839,0.825139,0.00042
 372\H,0,2.23944,-0.568215,0.834588\H,0,2.24775,-0.587221,-0.821596\N,0
 ,1.7752,-0.92969,0.00555104\N,0,0.478415,-0.483796,-0.0150217\N,0,-0.5
 61292,-1.33801,0.0019908\N,0,-1.6172,-0.68625,0.00485136\O,0,-1.31611,
 0.687693,-0.00125029\O,0,0.664811,1.84591,0.0016084\\Version=ES64L-G16
 RevC.01\State=1-A\HF=-406.8983791\RMSD=4.376e-02\Dipole=0.9796039,-0.3

 Normal termination of Gaussian 16 at Tue Apr  8 21:32:43 2025.
