 Gaussian 16, Revision C.01,

 ----------------------------------------------------------------------
 #t hf aug-cc-pvdz symm=none int=(grid=ultrafine) guess=(read,tcheck) s
 table=(opt,rrhf)
 ----------------------------------------------------------------------
 -----
 title
 -----
 Symbolic Z-matrix:
 Charge =  0 Multiplicity = 1

 SCF Done:  E(RHF) =  -276.586256319     A.U. after   15 cycles
 Normal termination of Gaussian 16 at Tue Apr  8 21:21:26 2025.
 Gaussian 16:  ES64L-G16RevC.01  3-Jul-2019

 ----------------------------------------------------------------------
 #t hf aug-cc-pvdz iop(5/13=1,5/36=2,99/5=2) pseudo=read geom=check gue
 ss=(read,tcheck) scf=(maxcycle=1)
 ----------------------------------------------------------------------
 -----
 title
 -----
 Structure from the checkpoint file:  "ANI1ccx_370_conf87_mol1.chk"
 Charge =  0 Multiplicity = 1

                         Standard orientation:
 ---------------------------------------------------------------------
 Center     Atomic      Atomic             Coordinates (Angstroms)
 Number     Number       Type             X           Y           Z
 ---------------------------------------------------------------------
      1          6           0        1.027531    0.040259    0.048657
      2          1           0        2.120121   -0.132279    0.026782
      3          7           0        0.371573    1.113781   -0.041422
      4          7           0       -0.934813    0.635688    0.023866
      5          7           0       -1.031499   -0.589379    0.002301
      6          8           0        0.359733   -1.028739   -0.026492
 ---------------------------------------------------------------------

 SCF Done:  E(RHF) =  -276.858475933     A.U. after    2 cycles

 The electronic state is 1-A.
 Alpha  occ. eigenvalues --  -20.67254 -15.66385 -15.63101 -15.56513 -11.38732
 Alpha  occ. eigenvalues --   -1.66013  -1.41726  -1.28087  -0.96743  -0.94872
 Alpha  occ. eigenvalues --   -0.80657  -0.75914  -0.68040  -0.64925  -0.57752
 Alpha  occ. eigenvalues --   -0.56556  -0.54826  -0.50845
 Alpha virt. eigenvalues --    0.03113   0.05448   0.07532   0.08126   0.08744
 Alpha virt. eigenvalues --    0.12665   0.13385   0.14381   0.15338   0.16146
 Alpha virt. eigenvalues --    0.17647   0.18729   0.19558   0.21085   0.22621

 Mulliken charges:
               1
     1  C    0.356957
     2  H    0.130558
     3  N    0.394018
     4  N   -0.848748
     5  N    1.091356
     6  O   -1.124141
 Sum of Mulliken charges =  -0.00000

 Dipole moment (field-independent basis, Debye):
    X=              3.2034    Y=             -1.4981    Z=              0.1526  Tot=              3.5397

 Test job not archived.
 1\1\GINC-SE229\SP\RHF\Aug-CC-pVDZ\C1H1N3O1\OHZDE\08-Apr-2025\0\\#t hf
 aug-cc-pvdz iop(5/13=1,5/36=2,99/5=2) pseudo=read geom=check guess=(re
 ad,tcheck) scf=(maxcycle=1)\\title\\0,1\C,0,1.02753,0.0402577,0.048656
 9\H,0,2.12012,-0.132281,0.0267816\N,0,0.371573,1.11378,-0.0414216\N,0,
 -0.934813,0.635688,0.0238656\N,0,-1.0315,-0.589379,0.00230075\O,0,0.35
 9732,-1.02874,-0.026492\\Version=ES64L-G16RevC.01\State=1-A\HF=-276.85
 84759\RMSD=4.161e-02\Dipole=1.2603126,-0.5893985,0.0600561\Quadrupole=
 2.7276941,-3.2835318,0.5558377,-0.7684539,0.1636803,0.0218716\PG=C01 [

 Normal termination of Gaussian 16 at Tue Apr  8 21:21:29 2025.
