 Gaussian 16, Revision C.01,

 ----------------------------------------------------------------------
 #t hf aug-cc-pvdz symm=none int=(grid=ultrafine) guess=(read,tcheck) s
 table=(opt,rrhf)
 ----------------------------------------------------------------------
 -----
 title
 -----
 Symbolic Z-matrix:
 Charge =  0 Multiplicity = 1

 SCF Done:  E(RHF) =  -795.598328614     A.U. after   14 cycles
 Normal termination of Gaussian 16 at Tue Apr  8 20:27:49 2025.
 Gaussian 16:  ES64L-G16RevC.01  3-Jul-2019

 ----------------------------------------------------------------------
 #t hf aug-cc-pvdz iop(5/13=1,5/36=2,99/5=2) pseudo=read geom=check gue
 ss=(read,tcheck) scf=(maxcycle=1)
 ----------------------------------------------------------------------
 -----
 title
 -----
 Structure from the checkpoint file:  "ANI1ccx_1619_conf14_mol2.chk"
 Charge =  0 Multiplicity = 1

                         Standard orientation:
 ---------------------------------------------------------------------
 Center     Atomic      Atomic             Coordinates (Angstroms)
 Number     Number       Type             X           Y           Z
 ---------------------------------------------------------------------
      1          6           0       -2.070160   -0.316022   -0.524137
      2          6           0       -0.759879    0.417274   -0.022974
      3          6           0       -3.240420   -0.035492    0.476131
      4          6           0       -3.836630    1.352091    0.375032
      5          6           0        1.665740    0.060966    0.244696
      6          6           0        2.317740    1.408880   -0.275940
      7          6           0        2.657820   -1.090930   -0.080461
      8          6           0        3.731610   -1.222070    1.006580
      9          1           0        0.550925    2.203931   -0.066206
     10          1           0        3.239410   -1.406630    1.961700
     11          1           0        4.422320   -2.040770    0.791992
     12          1           0        4.301510   -0.307554    1.088070
     13          1           0        2.568020   -3.043070   -0.201462
     14          1           0        3.025800   -0.946323   -1.107850
     15          1           0        1.475880    0.245631    1.321540
     16          1           0        0.155620   -1.198939   -0.545576
     17          1           0       -3.198210    2.185591    0.691166
     18          1           0       -4.169350    1.530661   -0.660952
     19          1           0       -4.755860    1.478282    0.961618
     20          1           0       -4.804190   -0.725669   -0.562800
     21          1           0       -3.020740   -0.215187    1.531070
     22          1           0       -2.263240    0.155929   -1.507250
     23          1           0       -2.639620   -2.248109   -0.290041
     24          1           0       -1.757840   -1.989169   -1.661960
     25          7           0       -1.837520   -1.763949   -0.669232
     26          7           0        0.351647   -0.227757   -0.357745
     27          8           0       -0.783672    1.505561    0.534199
     28          8           0       -4.303820   -1.043049    0.199281
     29          8           0        3.510700    1.534350   -0.507389
     30          8           0        1.921680   -2.345379   -0.079530
     31          8           0        1.464580    2.450411   -0.365031
 ---------------------------------------------------------------------

 SCF Done:  E(RHF) =  -796.407191306     A.U. after    2 cycles

 The electronic state is 1-A.
 Alpha  occ. eigenvalues --  -20.56963 -20.56663 -20.56286 -20.54188 -20.52902
 Alpha  occ. eigenvalues --  -15.54337 -15.51172 -11.39433 -11.38034 -11.32110
 Alpha  occ. eigenvalues --  -11.31837 -11.31717 -11.30996 -11.24181 -11.23695
 Alpha  occ. eigenvalues --   -1.52062  -1.49601  -1.46160  -1.45068  -1.43198
 Alpha  occ. eigenvalues --   -1.27856  -1.20582  -1.07658  -1.05476  -0.99102
 Alpha  occ. eigenvalues --   -0.94813  -0.87087  -0.86001  -0.82562  -0.81292
 Alpha  occ. eigenvalues --   -0.75700  -0.74608  -0.72549  -0.71141  -0.68897
 Alpha  occ. eigenvalues --   -0.68140  -0.66136  -0.65105  -0.64306  -0.63090
 Alpha  occ. eigenvalues --   -0.62778  -0.60912  -0.60125  -0.58100  -0.56632
 Alpha  occ. eigenvalues --   -0.56236  -0.55912  -0.55090  -0.54203  -0.53329
 Alpha  occ. eigenvalues --   -0.50630  -0.50191  -0.49150  -0.47245  -0.46916
 Alpha  occ. eigenvalues --   -0.45727  -0.45050  -0.42737  -0.42062
 Alpha virt. eigenvalues --    0.02438   0.03202   0.03395   0.03855   0.04108
 Alpha virt. eigenvalues --    0.04416   0.05168   0.05841   0.06573   0.06750
 Alpha virt. eigenvalues --    0.07384   0.08007   0.08327   0.09529   0.09700

 Mulliken charges:
               1
     1  C   -1.562372
     2  C    0.289261
     3  C    1.092107
     4  C   -0.268689
     5  C   -1.241158
     6  C    2.322716
     7  C    1.157674
     8  C   -0.249192
     9  H    0.635520
    10  H    0.264746
    11  H    0.070569
    12  H    0.187035
    13  H    0.355313
    14  H    0.097854
    15  H    0.113992
    16  H    0.419689
    17  H    0.183081
    18  H    0.147758
    19  H    0.126528
    20  H    0.341156
    21  H    0.066417
    22  H    0.264506
    23  H    0.210956
    24  H    0.197958
    25  N    0.638589
    26  N    1.408524
    27  O   -1.580631
    28  O   -1.410874
    29  O   -1.287670
    30  O   -1.516084
    31  O   -1.475280
 Sum of Mulliken charges =   0.00000

 Dipole moment (field-independent basis, Debye):
    X=             -3.4755    Y=             -3.9574    Z=             -1.0286  Tot=              5.3663

 Test job not archived.
 1\1\GINC-SE079\SP\RHF\Aug-CC-pVDZ\C8H16N2O5\OHZDE\08-Apr-2025\0\\#t hf
  aug-cc-pvdz iop(5/13=1,5/36=2,99/5=2) pseudo=read geom=check guess=(r
 ead,tcheck) scf=(maxcycle=1)\\title\\0,1\C,0,-2.07016,-0.316023,-0.524
 137\C,0,-0.759879,0.417273,-0.0229743\C,0,-3.24042,-0.0354936,0.476131
 \C,0,-3.83663,1.35209,0.375032\C,0,1.66574,0.0609651,0.244696\C,0,2.31
 774,1.40888,-0.27594\C,0,2.65782,-1.09093,-0.0804605\C,0,3.73161,-1.22
 207,1.00658\H,0,0.550925,2.20393,-0.0662055\H,0,3.23941,-1.40663,1.961
 7\H,0,4.42232,-2.04077,0.791992\H,0,4.30151,-0.307554,1.08807\H,0,2.56

 Normal termination of Gaussian 16 at Tue Apr  8 20:28:26 2025.
