 Gaussian 16, Revision C.01,

 ----------------------------------------------------------------------
 #t hf aug-cc-pvdz symm=none int=(grid=ultrafine) guess=(read,tcheck) s
 table=(opt,rrhf)
 ----------------------------------------------------------------------
 -----
 title
 -----
 Symbolic Z-matrix:
 Charge =  0 Multiplicity = 1

 SCF Done:  E(RHF) =  -414.297456800     A.U. after   14 cycles
 Normal termination of Gaussian 16 at Tue Apr  8 21:49:55 2025.
 Gaussian 16:  ES64L-G16RevC.01  3-Jul-2019

 ----------------------------------------------------------------------
 #t hf aug-cc-pvdz iop(5/13=1,5/36=2,99/5=2) pseudo=read geom=check gue
 ss=(read,tcheck) scf=(maxcycle=1)
 ----------------------------------------------------------------------
 -----
 title
 -----
 Structure from the checkpoint file:  "ANI1ccx_666_conf7_mol2.chk"
 Charge =  0 Multiplicity = 1

                         Standard orientation:
 ---------------------------------------------------------------------
 Center     Atomic      Atomic             Coordinates (Angstroms)
 Number     Number       Type             X           Y           Z
 ---------------------------------------------------------------------
      1          6           0       -1.152839   -0.196635   -0.024919
      2          6           0       -0.605410    1.216150    0.022620
      3          6           0        1.128961   -0.178555    0.015817
      4          1           0       -1.062929    1.768540   -0.855221
      5          1           0       -0.928375    1.717440    0.927318
      6          8           0       -2.286740   -0.607392    0.029923
      7          8           0        0.803767    1.093069   -0.035042
      8          8           0        2.218860   -0.592318    0.029409
      9          8           0       -0.015008   -0.959826   -0.043441
 ---------------------------------------------------------------------

 SCF Done:  E(RHF) =  -414.696144755     A.U. after    2 cycles

 The electronic state is 1-A.
 Alpha  occ. eigenvalues --  -20.66187 -20.65617 -20.59355 -20.57364 -11.48187
 Alpha  occ. eigenvalues --  -11.45254 -11.37234  -1.67276  -1.56647  -1.53221
 Alpha  occ. eigenvalues --   -1.50578  -1.07785  -0.92841  -0.90122  -0.78084
 Alpha  occ. eigenvalues --   -0.77256  -0.72140  -0.69453  -0.65882  -0.64852
 Alpha  occ. eigenvalues --   -0.63646  -0.61005  -0.52271  -0.51372  -0.50341
 Alpha  occ. eigenvalues --   -0.48250
 Alpha virt. eigenvalues --    0.02555   0.03936   0.06578   0.07141   0.09208
 Alpha virt. eigenvalues --    0.10223   0.10727   0.11339   0.11366   0.11688
 Alpha virt. eigenvalues --    0.13351   0.14212   0.15442   0.17086   0.18616

 Mulliken charges:
               1
     1  C    1.593206
     2  C    0.339518
     3  C    2.277902
     4  H    0.300527
     5  H    0.162952
     6  O   -1.235880
     7  O   -1.080102
     8  O   -1.126163
     9  O   -1.231962
 Sum of Mulliken charges =  -0.00000

 Dipole moment (field-independent basis, Debye):
    X=             -1.4445    Y=              3.2829    Z=              0.0130  Tot=              3.5867

 Test job not archived.
 1\1\GINC-SE126\SP\RHF\Aug-CC-pVDZ\C3H2O4\OHZDE\08-Apr-2025\0\\#t hf au
 g-cc-pvdz iop(5/13=1,5/36=2,99/5=2) pseudo=read geom=check guess=(read
 ,tcheck) scf=(maxcycle=1)\\title\\0,1\C,0,-1.15284,-0.196635,-0.024919
 \C,0,-0.605411,1.21615,0.0226195\C,0,1.12896,-0.178554,0.0158174\H,0,-
 1.06293,1.76854,-0.855221\H,0,-0.928376,1.71744,0.927318\O,0,-2.28674,
 -0.607392,0.0299234\O,0,0.803766,1.09307,-0.0350424\O,0,2.21886,-0.592
 317,0.0294092\O,0,-0.0150087,-0.959825,-0.0434408\\Version=ES64L-G16Re
 vC.01\State=1-A\HF=-414.6961448\RMSD=1.158e-02\Dipole=-0.5683279,1.291

 Normal termination of Gaussian 16 at Tue Apr  8 21:49:58 2025.
