 Gaussian 16, Revision C.01,

 ----------------------------------------------------------------------
 #t hf aug-cc-pvdz symm=none int=(grid=ultrafine) guess=(read,tcheck) s
 table=(opt,rrhf)
 ----------------------------------------------------------------------
 -----
 title
 -----
 Symbolic Z-matrix:
 Charge =  0 Multiplicity = 1

 SCF Done:  E(RHF) =  -943.030614313     A.U. after   15 cycles
 Normal termination of Gaussian 16 at Tue Apr  8 20:13:31 2025.
 Gaussian 16:  ES64L-G16RevC.01  3-Jul-2019

 ----------------------------------------------------------------------
 #t hf aug-cc-pvdz iop(5/13=1,5/36=2,99/5=2) pseudo=read geom=check gue
 ss=(read,tcheck) scf=(maxcycle=1)
 ----------------------------------------------------------------------
 -----
 title
 -----
 Structure from the checkpoint file:  "ANI1ccx_1569_conf31_mol1.chk"
 Charge =  0 Multiplicity = 1

                         Standard orientation:
 ---------------------------------------------------------------------
 Center     Atomic      Atomic             Coordinates (Angstroms)
 Number     Number       Type             X           Y           Z
 ---------------------------------------------------------------------
      1          6           0        2.054759    1.319519   -0.405872
      2          6           0        0.675693    0.716638   -0.265723
      3          6           0        3.119049    0.403414    0.414392
      4          6           0        3.541729   -0.922014   -0.241191
      5          6           0       -1.577501    0.705932    0.463801
      6          6           0       -1.086701   -0.683309    0.920734
      7          6           0       -2.468961    0.633719   -0.798259
      8          6           0       -3.783171    0.028129   -0.416914
      9          1           0       -1.618611   -2.458611    1.033490
     10          1           0       -5.146501   -1.208700   -1.014000
     11          1           0       -2.023761    0.145333   -1.664250
     12          1           0       -2.692841    1.705689   -1.071190
     13          1           0       -2.094531    1.181149    1.235820
     14          1           0       -0.124954    2.335449    0.731046
     15          1           0        2.967149    0.305518    1.449420
     16          1           0        4.010209    0.988975    0.386912
     17          1           0        2.244379    1.239939   -1.523700
     18          1           0        1.948980    3.436839   -0.682751
     19          1           0        2.919330    2.939219    0.575548
     20          1           0        4.391109   -2.396281   -0.218833
     21          7           0        2.100590    2.730269    0.082985
     22          7           0       -0.344099    1.487959    0.180451
     23          8           0       -4.209321   -0.998444   -1.197560
     24          8           0        0.499740   -0.453501   -0.639166
     25          8           0        3.407829   -1.149351   -1.453440
     26          8           0        4.165239   -1.742751    0.514165
     27          8           0       -0.395864   -0.656437    1.890360
     28          8           0       -4.324631    0.407301    0.623856
     29          8           0       -1.633591   -1.776101    0.373365
 ---------------------------------------------------------------------

 SCF Done:  E(RHF) =  -943.960368037     A.U. after    2 cycles

 The electronic state is 1-A.
 Alpha  occ. eigenvalues --  -20.61784 -20.60940 -20.59114 -20.53914 -20.52353
 Alpha  occ. eigenvalues --  -20.51579 -20.51402 -15.54173 -15.51952 -11.40405
 Alpha  occ. eigenvalues --  -11.39936 -11.38968 -11.36249 -11.31324 -11.30201
 Alpha  occ. eigenvalues --  -11.27635 -11.26204  -1.58429  -1.54788  -1.53857
 Alpha  occ. eigenvalues --   -1.46547  -1.45079  -1.44640  -1.42831  -1.25540
 Alpha  occ. eigenvalues --   -1.20234  -1.08329  -1.05350  -0.97616  -0.93312
 Alpha  occ. eigenvalues --   -0.86176  -0.83303  -0.82168  -0.80489  -0.74576
 Alpha  occ. eigenvalues --   -0.73405  -0.71525  -0.71246  -0.71001  -0.70169
 Alpha  occ. eigenvalues --   -0.69637  -0.68414  -0.66812  -0.66506  -0.64916
 Alpha  occ. eigenvalues --   -0.63227  -0.62345  -0.60519  -0.59975  -0.57998
 Alpha  occ. eigenvalues --   -0.56935  -0.56683  -0.56204  -0.55478  -0.54220
 Alpha  occ. eigenvalues --   -0.51423  -0.48114  -0.47251  -0.46593  -0.45874
 Alpha  occ. eigenvalues --   -0.44753  -0.44292  -0.43458  -0.42299  -0.41541
 Alpha virt. eigenvalues --    0.02313   0.03691   0.03838   0.04252   0.04685
 Alpha virt. eigenvalues --    0.04697   0.05596   0.05917   0.06094   0.06913
 Alpha virt. eigenvalues --    0.07948   0.08850   0.10529   0.11242   0.11347

 Mulliken charges:
               1
     1  C   -1.808164
     2  C    0.704459
     3  C   -0.313277
     4  C    2.337049
     5  C   -1.115060
     6  C    3.123931
     7  C   -0.531992
     8  C    2.735770
     9  H    0.248314
    10  H    0.388570
    11  H    0.055071
    12  H    0.394070
    13  H   -0.142390
    14  H    0.230708
    15  H    0.070109
    16  H    0.225238
    17  H    0.342461
    18  H    0.203792
    19  H    0.129762
    20  H    0.358196
    21  N    0.798662
    22  N    1.219231
    23  O   -1.353967
    24  O   -1.545802
    25  O   -1.267990
    26  O   -1.273012
    27  O   -1.515584
    28  O   -1.357947
    29  O   -1.340208
 Sum of Mulliken charges =   0.00000

 Dipole moment (field-independent basis, Debye):
    X=              1.2232    Y=              2.8065    Z=             -0.4155  Tot=              3.0896

 Test job not archived.
 1\1\GINC-SE086\SP\RHF\Aug-CC-pVDZ\C8H12N2O7\OHZDE\08-Apr-2025\0\\#t hf
  aug-cc-pvdz iop(5/13=1,5/36=2,99/5=2) pseudo=read geom=check guess=(r
 ead,tcheck) scf=(maxcycle=1)\\title\\0,1\C,0,2.05476,1.31952,-0.405872
 \C,0,0.675694,0.716639,-0.265723\C,0,3.11905,0.403415,0.414392\C,0,3.5
 4173,-0.922013,-0.241191\C,0,-1.5775,0.705933,0.463801\C,0,-1.0867,-0.
 683308,0.920734\C,0,-2.46896,0.63372,-0.798259\C,0,-3.78317,0.0281291,
 -0.416914\H,0,-1.61861,-2.45861,1.03349\H,0,-5.1465,-1.2087,-1.014\H,0
 ,-2.02376,0.145334,-1.66425\H,0,-2.69284,1.70569,-1.07119\H,0,-2.09453

 Normal termination of Gaussian 16 at Tue Apr  8 20:14:10 2025.
