 Gaussian 16, Revision C.01,

 ----------------------------------------------------------------------
 #t hf aug-cc-pvdz symm=none int=(grid=ultrafine) guess=(read,tcheck) s
 table=(opt,rrhf)
 ----------------------------------------------------------------------
 -----
 title
 -----
 Symbolic Z-matrix:
 Charge =  0 Multiplicity = 1

 SCF Done:  E(RHF) =  -596.222644542     A.U. after   17 cycles
 Normal termination of Gaussian 16 at Tue Apr  8 22:02:00 2025.
 Gaussian 16:  ES64L-G16RevC.01  3-Jul-2019

 ----------------------------------------------------------------------
 #t hf aug-cc-pvdz iop(5/13=1,5/36=2,99/5=2) pseudo=read geom=check gue
 ss=(read,tcheck) scf=(maxcycle=1)
 ----------------------------------------------------------------------
 -----
 title
 -----
 Structure from the checkpoint file:  "ANI1ccx_883_conf4_mol2.chk"
 Charge =  0 Multiplicity = 1

                         Standard orientation:
 ---------------------------------------------------------------------
 Center     Atomic      Atomic             Coordinates (Angstroms)
 Number     Number       Type             X           Y           Z
 ---------------------------------------------------------------------
      1          6           0       -1.804760   -0.222203   -0.020303
      2          6           0        0.289945   -1.072089   -0.018133
      3          6           0        0.834350    0.196364   -0.077034
      4          6           0       -0.120552    1.234120   -0.005506
      5          1           0       -3.463829   -1.383573   -0.063617
      6          1           0       -3.700631    0.352117   -0.253788
      7          1           0        0.471103   -2.906869    0.173270
      8          1           0       -0.465668    2.986160    0.268365
      9          7           0       -3.103380   -0.434284    0.026617
     10          7           0       -1.009119   -1.282611    0.023572
     11          7           0        2.197679    0.618290   -0.042313
     12          7           0       -1.429951    1.058999   -0.018826
     13          8           0        1.096922   -2.140278    0.042766
     14          8           0        2.991140   -0.275031   -0.009562
     15          8           0        0.334253    2.466841    0.051580
 ---------------------------------------------------------------------

 SCF Done:  E(RHF) =  -596.807851365     A.U. after    2 cycles

 The electronic state is 1-A.
 Alpha  occ. eigenvalues --  -20.61389 -20.61171 -20.58424 -15.62951 -15.55015
 Alpha  occ. eigenvalues --  -15.51136 -15.50836 -11.38853 -11.38696 -11.38564
 Alpha  occ. eigenvalues --  -11.26092  -1.58355  -1.55390  -1.53208  -1.35977
 Alpha  occ. eigenvalues --   -1.24694  -1.22493  -1.13031  -0.98932  -0.93421
 Alpha  occ. eigenvalues --   -0.90977  -0.85456  -0.80618  -0.75456  -0.74362
 Alpha  occ. eigenvalues --   -0.73277  -0.69497  -0.69036  -0.64276  -0.62829
 Alpha  occ. eigenvalues --   -0.62174  -0.61247  -0.60351  -0.58424  -0.57644
 Alpha  occ. eigenvalues --   -0.49064  -0.48857  -0.45738  -0.40120  -0.37024
 Alpha virt. eigenvalues --    0.02244   0.03956   0.04395   0.05156   0.05779
 Alpha virt. eigenvalues --    0.08416   0.09348   0.09540   0.10538   0.11364
 Alpha virt. eigenvalues --    0.12123   0.12550   0.12837   0.13283   0.13629

 Mulliken charges:
               1
     1  C   -1.481195
     2  C    1.044747
     3  C   -0.834681
     4  C    0.729815
     5  H    0.171476
     6  H    0.233797
     7  H    0.423613
     8  H    0.384750
     9  N    0.684937
    10  N    0.639078
    11  N    1.783213
    12  N    0.639163
    13  O   -1.595365
    14  O   -1.259110
    15  O   -1.564238
 Sum of Mulliken charges =   0.00000

 Dipole moment (field-independent basis, Debye):
    X=             -5.7104    Y=             -0.9624    Z=             -0.0680  Tot=              5.7913

 Test job not archived.
 1\1\GINC-SE362\SP\RHF\Aug-CC-pVDZ\C4H4N4O3\OHZDE\08-Apr-2025\0\\#t hf
 aug-cc-pvdz iop(5/13=1,5/36=2,99/5=2) pseudo=read geom=check guess=(re
 ad,tcheck) scf=(maxcycle=1)\\title\\0,1\C,0,-1.80476,-0.222201,-0.0203
 025\C,0,0.289944,-1.07209,-0.0181326\C,0,0.83435,0.196363,-0.0770341\C
 ,0,-0.12055,1.23412,-0.0055057\H,0,-3.46383,-1.38357,-0.0636171\H,0,-3
 .70063,0.352121,-0.253788\H,0,0.4711,-2.90687,0.17327\H,0,-0.465665,2.
 98616,0.268365\N,0,-3.10338,-0.434281,0.0266175\N,0,-1.00912,-1.28261,
 0.023572\N,0,2.19768,0.618287,-0.0423131\N,0,-1.42995,1.059,-0.0188261

 Normal termination of Gaussian 16 at Tue Apr  8 22:02:07 2025.
