 Gaussian 16, Revision C.01,

 ----------------------------------------------------------------------
 #t hf aug-cc-pvdz symm=none int=(grid=ultrafine) guess=(read,tcheck) s
 table=(opt,rrhf)
 ----------------------------------------------------------------------
 -----
 title
 -----
 Symbolic Z-matrix:
 Charge =  0 Multiplicity = 1

 SCF Done:  E(RHF) =  -486.381329909     A.U. after   14 cycles
 Normal termination of Gaussian 16 at Tue Apr  8 21:44:58 2025.
 Gaussian 16:  ES64L-G16RevC.01  3-Jul-2019

 ----------------------------------------------------------------------
 #t hf aug-cc-pvdz iop(5/13=1,5/36=2,99/5=2) pseudo=read geom=check gue
 ss=(read,tcheck) scf=(maxcycle=1)
 ----------------------------------------------------------------------
 -----
 title
 -----
 Structure from the checkpoint file:  "ANI1ccx_517_conf2_mol1.chk"
 Charge =  0 Multiplicity = 1

                         Standard orientation:
 ---------------------------------------------------------------------
 Center     Atomic      Atomic             Coordinates (Angstroms)
 Number     Number       Type             X           Y           Z
 ---------------------------------------------------------------------
      1          6           0       -0.707505    0.334913   -0.036626
      2          6           0        0.688915   -0.293546   -0.042457
      3          1           0       -2.912460    0.750043    0.122229
      4          1           0       -1.469450   -1.580659    0.050085
      5          1           0        1.524100    1.615601   -0.107289
      6          1           0        2.855820   -0.807434    0.160437
      7          7           0       -1.655800   -0.594482   -0.098340
      8          7           0        1.658880    0.613145    0.028963
      9          8           0       -2.963280   -0.246995    0.115889
     10          8           0       -0.864488    1.556541   -0.044406
     11          8           0        0.874677   -1.516469   -0.038059
     12          8           0        2.964590    0.162374    0.058410
 ---------------------------------------------------------------------

 SCF Done:  E(RHF) =  -486.859138471     A.U. after    2 cycles

 The electronic state is 1-A.
 Alpha  occ. eigenvalues --  -20.63014 -20.62608 -20.55988 -20.55617 -15.61937
 Alpha  occ. eigenvalues --  -15.61890 -11.40701 -11.40450  -1.56253  -1.55463
 Alpha  occ. eigenvalues --   -1.49254  -1.48266  -1.22688  -1.21830  -0.95453
 Alpha  occ. eigenvalues --   -0.90875  -0.85864  -0.76034  -0.74025  -0.71153
 Alpha  occ. eigenvalues --   -0.69399  -0.67995  -0.64117  -0.63688  -0.61387
 Alpha  occ. eigenvalues --   -0.57312  -0.53616  -0.52889  -0.45364  -0.43827
 Alpha  occ. eigenvalues --   -0.42467
 Alpha virt. eigenvalues --    0.03502   0.04822   0.05534   0.05740   0.06728
 Alpha virt. eigenvalues --    0.09781   0.10478   0.10816   0.11541   0.11888
 Alpha virt. eigenvalues --    0.13803   0.15781   0.15884   0.16847   0.17951

 Mulliken charges:
               1
     1  C    0.509785
     2  C    0.489512
     3  H    0.379754
     4  H    0.153072
     5  H    0.147832
     6  H    0.364271
     7  N    1.654978
     8  N    1.681960
     9  O   -1.306363
    10  O   -1.384616
    11  O   -1.402912
    12  O   -1.287274
 Sum of Mulliken charges =  -0.00000

 Dipole moment (field-independent basis, Debye):
    X=             -0.1219    Y=              0.1235    Z=              0.2724  Tot=              0.3230

 Test job not archived.
 1\1\GINC-SE328\SP\RHF\Aug-CC-pVDZ\C2H4N2O4\OHZDE\08-Apr-2025\0\\#t hf
 aug-cc-pvdz iop(5/13=1,5/36=2,99/5=2) pseudo=read geom=check guess=(re
 ad,tcheck) scf=(maxcycle=1)\\title\\0,1\C,0,-0.707505,0.334912,-0.0366
 263\C,0,0.688915,-0.293547,-0.0424566\H,0,-2.91246,0.750042,0.122229\H
 ,0,-1.46945,-1.58066,0.0500848\H,0,1.5241,1.6156,-0.107289\H,0,2.85582
 ,-0.807435,0.160437\N,0,-1.6558,-0.594483,-0.0983405\N,0,1.65888,0.613
 144,0.0289633\O,0,-2.96328,-0.246996,0.115889\O,0,-0.864488,1.55654,-0
 .0444059\O,0,0.874677,-1.51647,-0.0380591\O,0,2.96459,0.162373,0.05841

 Normal termination of Gaussian 16 at Tue Apr  8 21:45:03 2025.
