 Gaussian 16, Revision C.01,

 ----------------------------------------------------------------------
 #t hf aug-cc-pvdz symm=none int=(grid=ultrafine) guess=(read,tcheck) s
 table=(opt,rrhf)
 ----------------------------------------------------------------------
 -----
 title
 -----
 Symbolic Z-matrix:
 Charge =  0 Multiplicity = 1

 SCF Done:  E(RHF) =  -699.111737665     A.U. after   14 cycles
 Normal termination of Gaussian 16 at Tue Apr  8 19:55:44 2025.
 Gaussian 16:  ES64L-G16RevC.01  3-Jul-2019

 ----------------------------------------------------------------------
 #t hf aug-cc-pvdz iop(5/13=1,5/36=2,99/5=2) pseudo=read geom=check gue
 ss=(read,tcheck) scf=(maxcycle=1)
 ----------------------------------------------------------------------
 -----
 title
 -----
 Structure from the checkpoint file:  "ANI1ccx_1533_conf5_mol1.chk"
 Charge =  0 Multiplicity = 1

                         Standard orientation:
 ---------------------------------------------------------------------
 Center     Atomic      Atomic             Coordinates (Angstroms)
 Number     Number       Type             X           Y           Z
 ---------------------------------------------------------------------
      1          6           0        4.192681    0.719000    0.546640
      2          6           0        3.506781   -0.538298    0.077247
      3          6           0        1.202741   -0.196754   -0.135432
      4          6           0       -1.913149   -1.079141    0.047700
      5          6           0       -3.240529   -0.585397    0.644406
      6          6           0       -3.133010    0.950510    0.217558
      7          6           0       -1.590260    1.206699   -0.234662
      8          1           0       -3.385510    1.837288    0.980409
      9          1           0       -3.776690    1.276708   -0.541771
     10          1           0       -3.285619   -0.742658    1.767350
     11          1           0       -4.154259   -0.972866    0.247046
     12          1           0        4.170661   -1.146839   -0.613988
     13          1           0        5.066231    0.349730    1.231390
     14          1           0        4.583530    1.206362   -0.402328
     15          1           0        3.553680    1.436291    0.979137
     16          1           0        3.238621   -1.064909    0.959667
     17          7           0       -1.061479   -0.083208   -0.354738
     18          8           0       -1.541958   -2.226441   -0.045135
     19          8           0        2.330441   -0.457905   -0.719394
     20          8           0        1.029051    0.136778    1.024480
     21          8           0        0.159398   -0.305477   -1.013040
     22          8           0       -1.068410    2.295999   -0.384974
 ---------------------------------------------------------------------

 SCF Done:  E(RHF) =  -699.801344197     A.U. after    2 cycles

 The electronic state is 1-A.
 Alpha  occ. eigenvalues --  -20.67370 -20.62097 -20.55551 -20.54698 -20.54328
 Alpha  occ. eigenvalues --  -15.63362 -11.46439 -11.40534 -11.39959 -11.31665
 Alpha  occ. eigenvalues --  -11.30242 -11.29609 -11.25281  -1.63422  -1.55732
 Alpha  occ. eigenvalues --   -1.49157  -1.48470  -1.46829  -1.28149  -1.08670
 Alpha  occ. eigenvalues --   -1.05751  -0.97249  -0.93956  -0.90200  -0.85817
 Alpha  occ. eigenvalues --   -0.78986  -0.78042  -0.72458  -0.71467  -0.69388
 Alpha  occ. eigenvalues --   -0.68820  -0.68537  -0.65815  -0.63957  -0.61636
 Alpha  occ. eigenvalues --   -0.61444  -0.59491  -0.58680  -0.57832  -0.56796
 Alpha  occ. eigenvalues --   -0.55469  -0.52712  -0.50798  -0.49947  -0.47786
 Alpha  occ. eigenvalues --   -0.46908  -0.46097  -0.45286  -0.43635
 Alpha virt. eigenvalues --    0.02967   0.03716   0.04142   0.04554   0.04814
 Alpha virt. eigenvalues --    0.04874   0.06047   0.06791   0.07759   0.08527
 Alpha virt. eigenvalues --    0.10068   0.10172   0.10562   0.11768   0.12114

 Mulliken charges:
               1
     1  C   -0.600595
     2  C    0.330215
     3  C    2.245330
     4  C    0.816993
     5  C   -0.298673
     6  C   -0.358292
     7  C    0.779837
     8  H    0.356945
     9  H    0.024270
    10  H    0.305283
    11  H    0.169172
    12  H    0.072684
    13  H    0.335644
    14  H    0.288570
    15  H    0.060346
    16  H    0.151890
    17  N    1.815775
    18  O   -1.349438
    19  O   -1.251940
    20  O   -1.019863
    21  O   -1.564173
    22  O   -1.309980
 Sum of Mulliken charges =  -0.00000

 Dipole moment (field-independent basis, Debye):
    X=             -0.9882    Y=             -0.0057    Z=              0.7049  Tot=              1.2138

 Test job not archived.
 1\1\GINC-SE058\SP\RHF\Aug-CC-pVDZ\C7H9N1O5\OHZDE\08-Apr-2025\0\\#t hf
 aug-cc-pvdz iop(5/13=1,5/36=2,99/5=2) pseudo=read geom=check guess=(re
 ad,tcheck) scf=(maxcycle=1)\\title\\0,1\C,0,4.19268,0.718999,0.54664\C
 ,0,3.50678,-0.538299,0.0772471\C,0,1.20274,-0.196754,-0.135432\C,0,-1.
 91315,-1.07914,0.0477003\C,0,-3.24053,-0.585395,0.644406\C,0,-3.13301,
 0.950512,0.217558\C,0,-1.59026,1.2067,-0.234662\H,0,-3.38551,1.83729,0
 .980409\H,0,-3.77669,1.27671,-0.541771\H,0,-3.28562,-0.742656,1.76735\
 H,0,-4.15426,-0.972864,0.247046\H,0,4.17066,-1.14684,-0.613988\H,0,5.0

 Normal termination of Gaussian 16 at Tue Apr  8 19:56:00 2025.
