 Gaussian 16, Revision C.01,

 ----------------------------------------------------------------------
 #t hf aug-cc-pvdz symm=none int=(grid=ultrafine) guess=(read,tcheck) s
 table=(opt,rrhf)
 ----------------------------------------------------------------------
 -----
 title
 -----
 Symbolic Z-matrix:
 Charge =  0 Multiplicity = 1

 SCF Done:  E(RHF) =  -908.375220920     A.U. after   14 cycles
 Normal termination of Gaussian 16 at Tue Apr  8 21:08:31 2025.
 Gaussian 16:  ES64L-G16RevC.01  3-Jul-2019

 ----------------------------------------------------------------------
 #t hf aug-cc-pvdz iop(5/13=1,5/36=2,99/5=2) pseudo=read geom=check gue
 ss=(read,tcheck) scf=(maxcycle=1)
 ----------------------------------------------------------------------
 -----
 title
 -----
 Structure from the checkpoint file:  "ANI1ccx_1761_conf17_mol1.chk"
 Charge =  0 Multiplicity = 1

                         Standard orientation:
 ---------------------------------------------------------------------
 Center     Atomic      Atomic             Coordinates (Angstroms)
 Number     Number       Type             X           Y           Z
 ---------------------------------------------------------------------
      1          6           0        2.229920   -0.067078   -0.685697
      2          6           0       -2.916990    0.961054    0.879342
      3          6           0       -2.086290   -0.135911    1.572740
      4          6           0       -2.002319   -1.570189   -0.508044
      5          6           0       -2.158950    2.007190    0.102058
      6          6           0        3.959210   -0.790476    1.066100
      7          6           0        3.221090    0.368163    0.403334
      8          6           0        1.144281   -0.992973   -0.113457
      9          6           0       -1.216759   -1.016329    0.696372
     10          1           0       -0.901343   -1.901139    1.250970
     11          1           0       -3.367049   -2.727220   -1.020780
     12          1           0       -0.682686    3.185351    0.221042
     13          1           0       -3.636420    0.534056    0.162100
     14          1           0       -3.481430    1.500250    1.686720
     15          1           0       -2.730130   -0.787504    2.243510
     16          1           0       -1.328030    0.321123    2.250920
     17          1           0        0.039011    0.551856    0.001163
     18          1           0        4.738750   -0.453384    1.748900
     19          1           0        4.468271   -1.416989    0.299056
     20          1           0        3.278891   -1.419649    1.641900
     21          1           0        4.763870    0.771790   -0.693861
     22          1           0        2.611240    0.890685    1.165760
     23          1           0        2.776400   -0.716087   -1.386970
     24          1           0        2.227630    1.803191   -1.439660
     25          1           0        1.124720    0.725884   -2.194430
     26          7           0        1.557370    1.058101   -1.336180
     27          7           0        0.033899   -0.405884    0.329344
     28          8           0        1.236991   -2.209219   -0.113858
     29          8           0        4.149970    1.277891   -0.160983
     30          8           0       -1.725759   -1.165579   -1.628450
     31          8           0       -2.618730    2.562750   -0.878331
     32          8           0       -0.928920    2.301741    0.564686
     33          8           0       -2.873519   -2.518640   -0.203686
 ---------------------------------------------------------------------

 SCF Done:  E(RHF) =  -909.288783319     A.U. after    2 cycles

 The electronic state is 1-A.
 Alpha  occ. eigenvalues --  -20.62347 -20.61249 -20.56149 -20.54300 -20.54085
 Alpha  occ. eigenvalues --  -20.49694 -15.51069 -15.49909 -11.40533 -11.40010
 Alpha  occ. eigenvalues --  -11.34227 -11.30492 -11.30014 -11.27911 -11.27879
 Alpha  occ. eigenvalues --  -11.27375 -11.23462  -1.56581  -1.55785  -1.46915
 Alpha  occ. eigenvalues --   -1.45591  -1.45311  -1.44934  -1.25634  -1.19640
 Alpha  occ. eigenvalues --   -1.10898  -1.05054  -1.02361  -0.94553  -0.91067
 Alpha  occ. eigenvalues --   -0.87180  -0.84282  -0.82202  -0.80476  -0.74805
 Alpha  occ. eigenvalues --   -0.72390  -0.72028  -0.71295  -0.70734  -0.69005
 Alpha  occ. eigenvalues --   -0.67748  -0.67378  -0.66874  -0.64887  -0.64692
 Alpha  occ. eigenvalues --   -0.62546  -0.61315  -0.60584  -0.59714  -0.59108
 Alpha  occ. eigenvalues --   -0.57296  -0.56641  -0.54690  -0.54312  -0.53771
 Alpha  occ. eigenvalues --   -0.53237  -0.51996  -0.49355  -0.48121  -0.47521
 Alpha  occ. eigenvalues --   -0.46834  -0.45078  -0.44470  -0.43775  -0.41339
 Alpha  occ. eigenvalues --   -0.40577
 Alpha virt. eigenvalues --    0.02795   0.03261   0.03519   0.03762   0.03944
 Alpha virt. eigenvalues --    0.04320   0.05423   0.05512   0.06108   0.07168
 Alpha virt. eigenvalues --    0.07507   0.08017   0.08474   0.09326   0.10200

 Mulliken charges:
               1
     1  C   -1.090968
     2  C   -0.788598
     3  C   -0.068686
     4  C    3.237307
     5  C    2.544187
     6  C   -0.240790
     7  C    0.899889
     8  C    0.893842
     9  C   -2.712984
    10  H    0.066535
    11  H    0.350859
    12  H    0.423488
    13  H    0.248028
    14  H    0.322672
    15  H    0.158838
    16  H    0.261430
    17  H    0.233259
    18  H    0.119124
    19  H    0.202479
    20  H    0.216889
    21  H    0.315134
    22  H    0.236210
    23  H    0.085698
    24  H    0.219787
    25  H    0.325415
    26  N    0.339110
    27  N    1.855758
    28  O   -1.571678
    29  O   -1.474033
    30  O   -1.331342
    31  O   -1.357566
    32  O   -1.534683
    33  O   -1.384610
 Sum of Mulliken charges =  -0.00000

 Dipole moment (field-independent basis, Debye):
    X=             -0.1433    Y=              0.7938    Z=              2.3217  Tot=              2.4578

 Test job not archived.
 1\1\GINC-SE078\SP\RHF\Aug-CC-pVDZ\C9H16N2O6\OHZDE\08-Apr-2025\0\\#t hf
  aug-cc-pvdz iop(5/13=1,5/36=2,99/5=2) pseudo=read geom=check guess=(r
 ead,tcheck) scf=(maxcycle=1)\\title\\0,1\C,0,2.22992,-0.0670788,-0.685
 697\C,0,-2.91699,0.961054,0.879342\C,0,-2.08629,-0.135911,1.57274\C,0,
 -2.00232,-1.57019,-0.508044\C,0,-2.15895,2.00719,0.102058\C,0,3.95921,
 -0.790477,1.0661\C,0,3.22109,0.368162,0.403334\C,0,1.14428,-0.992974,-
 0.113457\C,0,-1.21676,-1.01633,0.696372\H,0,-0.901344,-1.90114,1.25097
 \H,0,-3.36705,-2.72722,-1.02078\H,0,-0.682686,3.18535,0.221042\H,0,-3.

 Normal termination of Gaussian 16 at Tue Apr  8 21:09:21 2025.
