 Gaussian 16, Revision C.01,

 ----------------------------------------------------------------------
 #t hf aug-cc-pvdz symm=none int=(grid=ultrafine) guess=(read,tcheck) s
 table=(opt,rrhf)
 ----------------------------------------------------------------------
 -----
 title
 -----
 Symbolic Z-matrix:
 Charge =  0 Multiplicity = 1

 SCF Done:  E(RHF) =  -908.378201653     A.U. after   14 cycles
 Normal termination of Gaussian 16 at Tue Apr  8 21:07:34 2025.
 Gaussian 16:  ES64L-G16RevC.01  3-Jul-2019

 ----------------------------------------------------------------------
 #t hf aug-cc-pvdz iop(5/13=1,5/36=2,99/5=2) pseudo=read geom=check gue
 ss=(read,tcheck) scf=(maxcycle=1)
 ----------------------------------------------------------------------
 -----
 title
 -----
 Structure from the checkpoint file:  "ANI1ccx_1761_conf10_mol1.chk"
 Charge =  0 Multiplicity = 1

                         Standard orientation:
 ---------------------------------------------------------------------
 Center     Atomic      Atomic             Coordinates (Angstroms)
 Number     Number       Type             X           Y           Z
 ---------------------------------------------------------------------
      1          6           0       -2.250041   -0.095835    0.702244
      2          6           0        2.955519    0.886162   -0.892051
      3          6           0        2.112949   -0.163360   -1.604960
      4          6           0        1.872399   -1.549100    0.575623
      5          6           0        2.247319    1.958290   -0.099492
      6          6           0       -3.984401   -0.702635   -1.091300
      7          6           0       -3.224031    0.415982   -0.402577
      8          6           0       -1.186831   -1.006870    0.094912
      9          6           0        1.188619   -1.011980   -0.714508
     10          1           0        0.850998   -1.920830   -1.244770
     11          1           0        3.150349   -2.820620    1.101020
     12          1           0        0.627634    2.941710   -0.036480
     13          1           0        3.706839    0.485822   -0.207971
     14          1           0        3.530809    1.380720   -1.698160
     15          1           0        2.784359   -0.796098   -2.239630
     16          1           0        1.492009    0.334753   -2.372140
     17          1           0       -0.046821    0.570757    0.022960
     18          1           0       -4.735891   -0.253631   -1.772210
     19          1           0       -4.443261   -1.358751   -0.308735
     20          1           0       -3.318351   -1.364591   -1.667010
     21          1           0       -4.617431    0.731771    0.739097
     22          1           0       -2.559451    0.959970   -1.097460
     23          1           0       -2.808621   -0.658792    1.482120
     24          1           0       -2.275461    1.742020    1.625580
     25          1           0       -1.257721    0.712023    2.250420
     26          7           0       -1.585781    1.061490    1.346910
     27          7           0       -0.039268   -0.370770   -0.341069
     28          8           0       -1.296481   -2.222770    0.007841
     29          8           0       -4.119451    1.315409    0.155437
     30          8           0        1.745599   -1.144610    1.686140
     31          8           0        2.662599    2.562650    0.838617
     32          8           0        1.013059    2.219500   -0.572667
     33          8           0        2.857969   -2.468330    0.256525
 ---------------------------------------------------------------------

 SCF Done:  E(RHF) =  -909.291378443     A.U. after    2 cycles

 The electronic state is 1-A.
 Alpha  occ. eigenvalues --  -20.60284 -20.59987 -20.56822 -20.55346 -20.54196
 Alpha  occ. eigenvalues --  -20.51380 -15.51490 -15.50940 -11.40118 -11.39905
 Alpha  occ. eigenvalues --  -11.36026 -11.30873 -11.30556 -11.29125 -11.27523
 Alpha  occ. eigenvalues --  -11.27187 -11.23981  -1.56134  -1.55092  -1.48842
 Alpha  occ. eigenvalues --   -1.46290  -1.46089  -1.45764  -1.25189  -1.20275
 Alpha  occ. eigenvalues --   -1.10704  -1.05267  -1.01829  -0.95036  -0.91074
 Alpha  occ. eigenvalues --   -0.86142  -0.83940  -0.81804  -0.80135  -0.74209
 Alpha  occ. eigenvalues --   -0.71977  -0.71553  -0.71141  -0.70499  -0.69620
 Alpha  occ. eigenvalues --   -0.68193  -0.67473  -0.66772  -0.64725  -0.63967
 Alpha  occ. eigenvalues --   -0.63068  -0.61433  -0.60780  -0.60581  -0.59136
 Alpha  occ. eigenvalues --   -0.58344  -0.57448  -0.55584  -0.54756  -0.53731
 Alpha  occ. eigenvalues --   -0.53355  -0.51620  -0.50107  -0.48765  -0.48097
 Alpha  occ. eigenvalues --   -0.47217  -0.45946  -0.44889  -0.44782  -0.42304
 Alpha  occ. eigenvalues --   -0.41412
 Alpha virt. eigenvalues --    0.02967   0.03145   0.03693   0.03880   0.04046
 Alpha virt. eigenvalues --    0.04358   0.05133   0.05519   0.06043   0.07150
 Alpha virt. eigenvalues --    0.07510   0.07931   0.08452   0.09363   0.10119

 Mulliken charges:
               1
     1  C   -1.235274
     2  C   -0.731763
     3  C   -0.069384
     4  C    3.070290
     5  C    2.506657
     6  C   -0.380520
     7  C    1.105266
     8  C    0.965448
     9  C   -2.471452
    10  H    0.118969
    11  H    0.345924
    12  H    0.475425
    13  H    0.212138
    14  H    0.301141
    15  H    0.132455
    16  H    0.220575
    17  H    0.167586
    18  H    0.191915
    19  H    0.223007
    20  H    0.227922
    21  H    0.320745
    22  H    0.214823
    23  H    0.119016
    24  H    0.201635
    25  H    0.352488
    26  N    0.260947
    27  N    1.799991
    28  O   -1.544925
    29  O   -1.514465
    30  O   -1.305513
    31  O   -1.354575
    32  O   -1.553601
    33  O   -1.372892
 Sum of Mulliken charges =  -0.00000

 Dipole moment (field-independent basis, Debye):
    X=             -0.9445    Y=              0.2422    Z=             -1.3565  Tot=              1.6705

 Test job not archived.
 1\1\GINC-SE096\SP\RHF\Aug-CC-pVDZ\C9H16N2O6\OHZDE\08-Apr-2025\0\\#t hf
  aug-cc-pvdz iop(5/13=1,5/36=2,99/5=2) pseudo=read geom=check guess=(r
 ead,tcheck) scf=(maxcycle=1)\\title\\0,1\C,0,-2.25004,-0.0958344,0.702
 244\C,0,2.95552,0.886162,-0.892051\C,0,2.11295,-0.16336,-1.60496\C,0,1
 .8724,-1.5491,0.575623\C,0,2.24732,1.95829,-0.0994921\C,0,-3.9844,-0.7
 02634,-1.0913\C,0,-3.22403,0.415983,-0.402577\C,0,-1.18683,-1.00687,0.
 094912\C,0,1.18862,-1.01198,-0.714508\H,0,0.850999,-1.92083,-1.24477\H
 ,0,3.15035,-2.82062,1.10102\H,0,0.627635,2.94171,-0.0364797\H,0,3.7068

 Normal termination of Gaussian 16 at Tue Apr  8 21:08:25 2025.
