 Gaussian 16, Revision C.01,

 ----------------------------------------------------------------------
 #t hf aug-cc-pvdz symm=none int=(grid=ultrafine) guess=(read,tcheck) s
 table=(opt,rrhf)
 ----------------------------------------------------------------------
 -----
 title
 -----
 Symbolic Z-matrix:
 Charge =  0 Multiplicity = 1

 SCF Done:  E(RHF) =  -259.163392250     A.U. after   13 cycles
 Normal termination of Gaussian 16 at Tue Apr  8 21:38:43 2025.
 Gaussian 16:  ES64L-G16RevC.01  3-Jul-2019

 ----------------------------------------------------------------------
 #t hf aug-cc-pvdz iop(5/13=1,5/36=2,99/5=2) pseudo=read geom=check gue
 ss=(read,tcheck) scf=(maxcycle=1)
 ----------------------------------------------------------------------
 -----
 title
 -----
 Structure from the checkpoint file:  "ANI1ccx_430_conf29_mol2.chk"
 Charge =  0 Multiplicity = 1

                         Standard orientation:
 ---------------------------------------------------------------------
 Center     Atomic      Atomic             Coordinates (Angstroms)
 Number     Number       Type             X           Y           Z
 ---------------------------------------------------------------------
      1          6           0       -0.507883    0.131674    0.001686
      2          1           0        2.057090    0.409367   -0.821574
      3          1           0        2.063420    0.400549    0.824794
      4          1           0        0.555585   -1.675201   -0.018039
      5          1           0       -1.718330   -1.575340    0.011210
      6          1           0       -2.533380   -0.051571    0.007376
      7          1           0        0.404696    1.790299    0.003707
      8          7           0        1.915040   -0.179397   -0.000147
      9          7           0        0.619580   -0.673841    0.001675
     10          7           0       -1.680380   -0.573744   -0.002409
     11          7           0       -0.537353    1.414390   -0.001631
 ---------------------------------------------------------------------

 SCF Done:  E(RHF) =  -259.434737588     A.U. after    2 cycles

 The electronic state is 1-A.
 Alpha  occ. eigenvalues --  -15.54501 -15.53965 -15.51375 -15.44484 -11.34963
 Alpha  occ. eigenvalues --   -1.32931  -1.24012  -1.14334  -1.07734  -0.85850
 Alpha  occ. eigenvalues --   -0.79719  -0.75721  -0.73799  -0.69627  -0.65678
 Alpha  occ. eigenvalues --   -0.59262  -0.49733  -0.46886  -0.45507  -0.39569
 Alpha virt. eigenvalues --    0.02692   0.04573   0.05149   0.06325   0.06657
 Alpha virt. eigenvalues --    0.06997   0.11369   0.12366   0.13563   0.14700
 Alpha virt. eigenvalues --    0.15314   0.17118   0.17153   0.17515   0.18511

 Mulliken charges:
               1
     1  C   -1.595933
     2  H    0.166611
     3  H    0.164376
     4  H    0.017395
     5  H    0.068134
     6  H    0.116840
     7  H    0.209750
     8  N   -0.085619
     9  N   -0.186330
    10  N    0.490517
    11  N    0.634258
 Sum of Mulliken charges =  -0.00000

 Dipole moment (field-independent basis, Debye):
    X=              0.5067    Y=             -2.6711    Z=              0.0270  Tot=              2.7189

 Test job not archived.
 1\1\GINC-SE343\SP\RHF\Aug-CC-pVDZ\C1H6N4\OHZDE\08-Apr-2025\0\\#t hf au
 g-cc-pvdz iop(5/13=1,5/36=2,99/5=2) pseudo=read geom=check guess=(read
 ,tcheck) scf=(maxcycle=1)\\title\\0,1\C,0,-0.507883,0.131674,0.0016855
 1\H,0,2.05709,0.409368,-0.821574\H,0,2.06342,0.40055,0.824794\H,0,0.55
 5585,-1.6752,-0.0180386\H,0,-1.71833,-1.57534,0.0112103\H,0,-2.53338,-
 0.0515706,0.00737587\H,0,0.404696,1.7903,0.00370712\N,0,1.91504,-0.179
 396,-0.00014711\N,0,0.61958,-0.67384,0.0016747\N,0,-1.68038,-0.573744,
 -0.00240878\N,0,-0.537353,1.41439,-0.00163129\\Version=ES64L-G16RevC.0

 Normal termination of Gaussian 16 at Tue Apr  8 21:38:46 2025.
