 Gaussian 16, Revision C.01,

 ----------------------------------------------------------------------
 #t hf aug-cc-pvdz symm=none int=(grid=ultrafine) guess=(read,tcheck) s
 table=(opt,rrhf)
 ----------------------------------------------------------------------
 -----
 title
 -----
 Symbolic Z-matrix:
 Charge =  0 Multiplicity = 1

 SCF Done:  E(RHF) =  -510.378366596     A.U. after   14 cycles
 Normal termination of Gaussian 16 at Tue Apr  8 19:28:03 2025.
 Gaussian 16:  ES64L-G16RevC.01  3-Jul-2019

 ----------------------------------------------------------------------
 #t hf aug-cc-pvdz iop(5/13=1,5/36=2,99/5=2) pseudo=read geom=check gue
 ss=(read,tcheck) scf=(maxcycle=1)
 ----------------------------------------------------------------------
 -----
 title
 -----
 Structure from the checkpoint file:  "ANI1ccx_1332_conf4_mol2.chk"
 Charge =  0 Multiplicity = 1

                         Standard orientation:
 ---------------------------------------------------------------------
 Center     Atomic      Atomic             Coordinates (Angstroms)
 Number     Number       Type             X           Y           Z
 ---------------------------------------------------------------------
      1          6           0       -1.064906    1.136552    0.076892
      2          6           0       -1.105893   -1.110688   -0.072079
      3          6           0        0.316978   -0.657242   -0.365429
      4          6           0        1.634617   -1.252855    0.044169
      5          6           0        1.684194    1.201654   -0.007163
      6          6           0        0.323990    0.677940    0.384891
      7          1           0        0.351257    0.497287    1.461730
      8          1           0        1.614415    1.664275   -1.015020
      9          1           0        2.078666    1.959903    0.671241
     10          1           0        1.675306   -1.572876    1.084720
     11          1           0        1.965754   -2.071976   -0.615199
     12          1           0        0.340581   -0.428407   -1.455220
     13          1           0        3.296240   -0.048339    0.470721
     14          7           0        2.479230   -0.040827   -0.134422
     15          8           0       -1.864400    0.009511   -0.007535
     16          8           0       -1.495273    2.222704   -0.116655
     17          8           0       -1.566666   -2.192996    0.120476
 ---------------------------------------------------------------------

 SCF Done:  E(RHF) =  -510.885964638     A.U. after    2 cycles

 The electronic state is 1-A.
 Alpha  occ. eigenvalues --  -20.63484 -20.56966 -20.56296 -15.51576 -11.42230
 Alpha  occ. eigenvalues --  -11.41869 -11.29809 -11.29784 -11.29218 -11.28773
 Alpha  occ. eigenvalues --   -1.61047  -1.52192  -1.48163  -1.26264  -1.12342
 Alpha  occ. eigenvalues --   -1.03824  -0.94981  -0.90961  -0.86543  -0.78878
 Alpha  occ. eigenvalues --   -0.76510  -0.71457  -0.70561  -0.68633  -0.67589
 Alpha  occ. eigenvalues --   -0.64486  -0.62181  -0.61340  -0.60042  -0.58391
 Alpha  occ. eigenvalues --   -0.57307  -0.53651  -0.52088  -0.48654  -0.46089
 Alpha  occ. eigenvalues --   -0.45659  -0.42900
 Alpha virt. eigenvalues --    0.02399   0.03560   0.04113   0.04305   0.05284
 Alpha virt. eigenvalues --    0.05685   0.06900   0.07684   0.08923   0.11469
 Alpha virt. eigenvalues --    0.11629   0.11994   0.12440   0.13415   0.13656

 Mulliken charges:
               1
     1  C    2.298277
     2  C    2.274319
     3  C   -0.577344
     4  C   -0.399432
     5  C   -0.660612
     6  C   -0.293628
     7  H    0.160753
     8  H    0.177732
     9  H    0.085277
    10  H    0.069811
    11  H    0.107559
    12  H    0.234063
    13  H    0.281870
    14  N    0.491057
    15  O   -1.464447
    16  O   -1.394864
    17  O   -1.390392
 Sum of Mulliken charges =  -0.00000

 Dipole moment (field-independent basis, Debye):
    X=              4.5853    Y=              0.1414    Z=              1.1729  Tot=              4.7350

 Test job not archived.
 1\1\GINC-SE332\SP\RHF\Aug-CC-pVDZ\C6H7N1O3\OHZDE\08-Apr-2025\0\\#t hf
 aug-cc-pvdz iop(5/13=1,5/36=2,99/5=2) pseudo=read geom=check guess=(re
 ad,tcheck) scf=(maxcycle=1)\\title\\0,1\C,0,-1.06491,1.13655,0.0768919
 \C,0,-1.10589,-1.11069,-0.0720794\C,0,0.316979,-0.65724,-0.365429\C,0,
 1.63462,-1.25285,0.0441689\C,0,1.68419,1.20166,-0.00716303\C,0,0.32398
 8,0.677942,0.384891\H,0,0.351255,0.497289,1.46173\H,0,1.61441,1.66428,
 -1.01502\H,0,2.07866,1.95991,0.671241\H,0,1.67531,-1.57287,1.08472\H,0
 ,1.96576,-2.07197,-0.615199\H,0,0.340582,-0.428405,-1.45522\H,0,3.2962

 Normal termination of Gaussian 16 at Tue Apr  8 19:28:10 2025.
