 Gaussian 16, Revision C.01,

 ----------------------------------------------------------------------
 #t hf aug-cc-pvdz symm=none int=(grid=ultrafine) guess=(read,tcheck) s
 table=(opt,rrhf)
 ----------------------------------------------------------------------
 -----
 title
 -----
 Symbolic Z-matrix:
 Charge =  0 Multiplicity = 1

 SCF Done:  E(RHF) =  -441.370127844     A.U. after   17 cycles
 Normal termination of Gaussian 16 at Tue Apr  8 21:49:51 2025.
 Gaussian 16:  ES64L-G16RevC.01  3-Jul-2019

 ----------------------------------------------------------------------
 #t hf aug-cc-pvdz iop(5/13=1,5/36=2,99/5=2) pseudo=read geom=check gue
 ss=(read,tcheck) scf=(maxcycle=1)
 ----------------------------------------------------------------------
 -----
 title
 -----
 Structure from the checkpoint file:  "ANI1ccx_662_conf1_mol1.chk"
 Charge =  0 Multiplicity = 1

                         Standard orientation:
 ---------------------------------------------------------------------
 Center     Atomic      Atomic             Coordinates (Angstroms)
 Number     Number       Type             X           Y           Z
 ---------------------------------------------------------------------
      1          6           0       -2.194569   -0.182706   -0.041400
      2          6           0       -0.200127   -0.645304    0.181293
      3          6           0       -0.195215    0.725782    0.166980
      4          1           0       -1.932200    1.875619   -0.306000
      5          1           0       -3.220829   -0.159713   -0.265821
      6          7           0       -1.529189    0.996860    0.032510
      7          7           0       -1.346359   -1.195440   -0.048501
      8          7           0        0.927693   -1.394650   -0.041534
      9          7           0        2.020611   -0.618311   -0.022530
     10          7           0        1.976041    0.660386   -0.061044
     11          7           0        0.907275    1.393650   -0.040247
 ---------------------------------------------------------------------

 SCF Done:  E(RHF) =  -441.806626586     A.U. after    2 cycles

 The electronic state is 1-A.
 Alpha  occ. eigenvalues --  -15.61540 -15.60048 -15.59531 -15.59156 -15.58798
 Alpha  occ. eigenvalues --  -15.53187 -11.37945 -11.35570 -11.33087  -1.46737
 Alpha  occ. eigenvalues --   -1.41736  -1.32368  -1.25041  -1.20261  -1.04962
 Alpha  occ. eigenvalues --   -1.00032  -0.93220  -0.89888  -0.80408  -0.78644
 Alpha  occ. eigenvalues --   -0.73566  -0.72290  -0.66829  -0.65082  -0.61043
 Alpha  occ. eigenvalues --   -0.56655  -0.55887  -0.50025  -0.48266  -0.46829
 Alpha  occ. eigenvalues --   -0.42129
 Alpha virt. eigenvalues --   -0.01149   0.01284   0.03373   0.05317   0.06210
 Alpha virt. eigenvalues --    0.07100   0.08161   0.08785   0.10426   0.10650
 Alpha virt. eigenvalues --    0.11414   0.11858   0.13187   0.13536   0.14424

 Mulliken charges:
               1
     1  C    0.158714
     2  C   -1.540089
     3  C   -0.781847
     4  H    0.091068
     5  H   -0.077993
     6  N    0.724250
     7  N    0.973768
     8  N    0.682605
     9  N   -0.435569
    10  N   -0.623602
    11  N    0.828695
 Sum of Mulliken charges =   0.00000

 Dipole moment (field-independent basis, Debye):
    X=             -7.8564    Y=              3.5312    Z=              0.0801  Tot=              8.6139

 Test job not archived.
 1\1\GINC-SE229\SP\RHF\Aug-CC-pVDZ\C3H2N6\OHZDE\08-Apr-2025\0\\#t hf au
 g-cc-pvdz iop(5/13=1,5/36=2,99/5=2) pseudo=read geom=check guess=(read
 ,tcheck) scf=(maxcycle=1)\\title\\0,1\C,0,-2.19457,-0.182705,-0.041399
 8\C,0,-0.200128,-0.645304,0.181293\C,0,-0.195216,0.725782,0.16698\H,0,
 -1.9322,1.87562,-0.306\H,0,-3.22083,-0.159712,-0.265821\N,0,-1.52919,0
 .99686,0.0325102\N,0,-1.34636,-1.19544,-0.048501\N,0,0.927692,-1.39465
 ,-0.0415339\N,0,2.02061,-0.618311,-0.0225304\N,0,1.97604,0.660386,-0.0
 610437\N,0,0.907275,1.39365,-0.0402467\\Version=ES64L-G16RevC.01\State

 Normal termination of Gaussian 16 at Tue Apr  8 21:49:57 2025.
