 Gaussian 16, Revision C.01,

 ----------------------------------------------------------------------
 #t hf aug-cc-pvdz symm=none int=(grid=ultrafine) guess=(read,tcheck) s
 table=(opt,rrhf)
 ----------------------------------------------------------------------
 -----
 title
 -----
 Symbolic Z-matrix:
 Charge =  0 Multiplicity = 1

 SCF Done:  E(RHF) =  -717.515322063     A.U. after   14 cycles
 Normal termination of Gaussian 16 at Tue Apr  8 19:25:20 2025.
 Gaussian 16:  ES64L-G16RevC.01  3-Jul-2019

 ----------------------------------------------------------------------
 #t hf aug-cc-pvdz iop(5/13=1,5/36=2,99/5=2) pseudo=read geom=check gue
 ss=(read,tcheck) scf=(maxcycle=1)
 ----------------------------------------------------------------------
 -----
 title
 -----
 Structure from the checkpoint file:  "ANI1ccx_1215_conf13_mol2.chk"
 Charge =  0 Multiplicity = 1

                         Standard orientation:
 ---------------------------------------------------------------------
 Center     Atomic      Atomic             Coordinates (Angstroms)
 Number     Number       Type             X           Y           Z
 ---------------------------------------------------------------------
      1          6           0        1.374700    0.009688   -0.257318
      2          6           0        0.647772   -0.114016    1.133841
      3          6           0        2.593230   -0.827062   -0.143634
      4          6           0       -1.749010    0.344391    0.432901
      5          6           0       -2.128170   -0.924729   -0.366588
      6          6           0       -1.579221    1.441629   -0.572154
      7          1           0       -2.150079   -2.782302   -0.324227
      8          1           0        0.053688    2.443900   -0.223801
      9          1           0       -1.076951    1.090629   -1.476249
     10          1           0       -2.622531    1.712988   -0.867789
     11          1           0       -2.664980    0.535198    1.030941
     12          1           0       -0.914043    0.042348    2.313631
     13          1           0        2.373361   -1.855859    0.191830
     14          1           0        3.227940   -0.378915    0.618930
     15          1           0        0.825095   -0.379047   -1.086439
     16          1           0        2.232829    1.461881   -1.368849
     17          1           0        2.225549    1.790331    0.269088
     18          1           0        2.843910   -1.250459   -2.057089
     19          7           0        1.663599    1.404420   -0.504309
     20          7           0       -0.662308    0.198503    1.354401
     21          8           0       -0.902400    2.581299   -0.112252
     22          8           0        1.313420   -0.388959    2.092871
     23          8           0        3.312760   -0.808389   -1.362049
     24          8           0       -2.706200   -0.939030   -1.408299
     25          8           0       -1.807409   -2.098741    0.248121
 ---------------------------------------------------------------------

 SCF Done:  E(RHF) =  -718.237133392     A.U. after    2 cycles

 The electronic state is 1-A.
 Alpha  occ. eigenvalues --  -20.61472 -20.56358 -20.56056 -20.53115 -20.52537
 Alpha  occ. eigenvalues --  -15.53815 -15.52681 -11.41269 -11.37413 -11.31626
 Alpha  occ. eigenvalues --  -11.29799 -11.29235 -11.29161  -1.57238  -1.49429
 Alpha  occ. eigenvalues --   -1.47595  -1.47129  -1.44139  -1.26297  -1.22726
 Alpha  occ. eigenvalues --   -1.06871  -1.03021  -0.92181  -0.89964  -0.85433
 Alpha  occ. eigenvalues --   -0.80910  -0.76229  -0.75664  -0.73140  -0.72294
 Alpha  occ. eigenvalues --   -0.71870  -0.68118  -0.67790  -0.66421  -0.65181
 Alpha  occ. eigenvalues --   -0.64622  -0.62977  -0.62566  -0.59426  -0.58596
 Alpha  occ. eigenvalues --   -0.57617  -0.56081  -0.51913  -0.50575  -0.49704
 Alpha  occ. eigenvalues --   -0.48399  -0.47927  -0.45612  -0.44768  -0.43166
 Alpha  occ. eigenvalues --   -0.41787
 Alpha virt. eigenvalues --    0.02651   0.03202   0.03662   0.04565   0.04829
 Alpha virt. eigenvalues --    0.05250   0.06023   0.06598   0.06838   0.08182
 Alpha virt. eigenvalues --    0.09148   0.09814   0.10982   0.11231   0.11577

 Mulliken charges:
               1
     1  C   -0.907839
     2  C    0.793073
     3  C    0.938793
     4  C   -2.406489
     5  C    2.712460
     6  C    1.429457
     7  H    0.366181
     8  H    0.549744
     9  H    0.181689
    10  H    0.108502
    11  H    0.302124
    12  H    0.262684
    13  H    0.187113
    14  H    0.131337
    15  H   -0.086352
    16  H    0.406512
    17  H    0.397661
    18  H    0.278074
    19  N   -0.260165
    20  N    1.336989
    21  O   -1.430838
    22  O   -1.411290
    23  O   -1.215257
    24  O   -1.293237
    25  O   -1.370927
 Sum of Mulliken charges =  -0.00000

 Dipole moment (field-independent basis, Debye):
    X=             -0.3954    Y=             -2.0939    Z=             -1.2152  Tot=              2.4530

 Test job not archived.
 1\1\GINC-SE095\SP\RHF\Aug-CC-pVDZ\C6H12N2O5\OHZDE\08-Apr-2025\0\\#t hf
  aug-cc-pvdz iop(5/13=1,5/36=2,99/5=2) pseudo=read geom=check guess=(r
 ead,tcheck) scf=(maxcycle=1)\\title\\0,1\C,0,1.3747,0.00968825,-0.2573
 19\C,0,0.647772,-0.114016,1.13384\C,0,2.59323,-0.827063,-0.143635\C,0,
 -1.74901,0.344392,0.4329\C,0,-2.12817,-0.924727,-0.366589\C,0,-1.57922
 ,1.44163,-0.572155\H,0,-2.15008,-2.7823,-0.324228\H,0,0.0536896,2.4439
 ,-0.223802\H,0,-1.07695,1.09063,-1.47625\H,0,-2.62253,1.71299,-0.86779
 \H,0,-2.66498,0.5352,1.03094\H,0,-0.914043,0.0423491,2.31363\H,0,2.373

 Normal termination of Gaussian 16 at Tue Apr  8 19:25:42 2025.
