 Gaussian 16, Revision C.01,

 ----------------------------------------------------------------------
 #t hf aug-cc-pvdz symm=none int=(grid=ultrafine) guess=(read,tcheck) s
 table=(opt,rrhf)
 ----------------------------------------------------------------------
 -----
 title
 -----
 Symbolic Z-matrix:
 Charge =  0 Multiplicity = 1

 SCF Done:  E(RHF) =  -608.512133735     A.U. after   13 cycles

 1\1\GINC-SE128\Stability\RHF\Aug-CC-pVDZ\C6H12O5\OHZDE\08-Apr-2025\0\\
 #t hf aug-cc-pvdz symm=none int=(grid=ultrafine) guess=(read,tcheck) s
 table=(opt,rrhf)\\title\\0,1\C,0,-1.62871,-0.702424,-0.125931\C,0,-0.5
 1862,-1.89542,-0.237679\C,0,0.957535,-1.36972,-0.0631569\C,0,1.07054,-
 0.0529721,0.813692\C,0,0.143988,1.0609,0.466614\C,0,-0.972857,0.586804
 ,-0.551209\H,0,-1.47851,2.30681,-0.295801\H,0,-0.47337,0.413608,-1.500
 11\H,0,1.39623,2.00585,-0.833487\H,0,-0.410734,1.31899,1.35257\H,0,2.7
 2701,0.699147,-0.00588507\H,0,0.676226,-0.3882,1.85005\H,0,2.41105,-0.

 Normal termination of Gaussian 16 at Tue Apr  8 19:25:30 2025.
 Gaussian 16:  ES64L-G16RevC.01  3-Jul-2019

 ----------------------------------------------------------------------
 #t hf aug-cc-pvdz iop(5/13=1,5/36=2,99/5=2) pseudo=read geom=check gue
 ss=(read,tcheck) scf=(maxcycle=1)
 ----------------------------------------------------------------------
 -----
 title
 -----
 Structure from the checkpoint file:  "ANI1ccx_1226_conf3_mol1.chk"
 Charge =  0 Multiplicity = 1

                         Standard orientation:
 ---------------------------------------------------------------------
 Center     Atomic      Atomic             Coordinates (Angstroms)
 Number     Number       Type             X           Y           Z
 ---------------------------------------------------------------------
      1          6           0       -1.628711   -0.702421   -0.125931
      2          6           0       -0.518624   -1.895419   -0.237679
      3          6           0        0.957533   -1.369723   -0.063157
      4          6           0        1.070541   -0.052975    0.813692
      5          6           0        0.143991    1.060899    0.466614
      6          6           0       -0.972855    0.586806   -0.551209
      7          1           0       -1.478504    2.306813   -0.295801
      8          1           0       -0.473368    0.413609   -1.500110
      9          1           0        1.396236    2.005846   -0.833487
     10          1           0       -0.410730    1.318990    1.352570
     11          1           0        2.727013    0.699140   -0.005885
     12          1           0        0.676226   -0.388202    1.850050
     13          1           0        2.411049   -0.990615   -1.265890
     14          1           0        1.537236   -2.244014    0.468754
     15          1           0       -0.724938   -2.560109    0.589976
     16          1           0       -0.584286   -2.540299   -1.106170
     17          1           0       -2.497861   -0.697156   -0.793610
     18          1           0       -2.379493   -1.560055    1.572110
     19          8           0       -2.065691   -0.695099    1.177740
     20          8           0        1.498188   -1.262934   -1.346310
     21          8           0        2.412062    0.458042    0.877436
     22          8           0        0.733737    2.245578   -0.133389
     23          8           0       -1.892025    1.563544   -0.806288
 ---------------------------------------------------------------------

 SCF Done:  E(RHF) =  -609.129734144     A.U. after    2 cycles

 The electronic state is 1-A.
 Alpha  occ. eigenvalues --  -20.57352 -20.56991 -20.56737 -20.55535 -20.54266
 Alpha  occ. eigenvalues --  -11.31906 -11.31654 -11.29773 -11.29463 -11.27853
 Alpha  occ. eigenvalues --  -11.25033  -1.48997  -1.47714  -1.46688  -1.45740
 Alpha  occ. eigenvalues --   -1.43518  -1.09368  -1.00611  -0.98619  -0.87225
 Alpha  occ. eigenvalues --   -0.84574  -0.78845  -0.73965  -0.73313  -0.70585
 Alpha  occ. eigenvalues --   -0.69895  -0.66870  -0.64697  -0.63141  -0.62494
 Alpha  occ. eigenvalues --   -0.61565  -0.59184  -0.57235  -0.55557  -0.55048
 Alpha  occ. eigenvalues --   -0.53562  -0.52646  -0.50384  -0.48675  -0.47756
 Alpha  occ. eigenvalues --   -0.45137  -0.42755  -0.42137  -0.41009
 Alpha virt. eigenvalues --    0.02544   0.02922   0.03989   0.04173   0.05622
 Alpha virt. eigenvalues --    0.05864   0.06186   0.06402   0.06719   0.08714
 Alpha virt. eigenvalues --    0.09296   0.09591   0.12391   0.12875   0.13557

 Mulliken charges:
               1
     1  C    1.445370
     2  C   -0.207463
     3  C    0.883079
     4  C    0.750786
     5  C    0.796115
     6  C    1.126246
     7  H    0.298283
     8  H    0.107831
     9  H    0.255255
    10  H    0.144134
    11  H    0.210140
    12  H    0.423884
    13  H    0.258411
    14  H    0.247493
    15  H    0.138227
    16  H    0.083901
    17  H    0.123509
    18  H    0.346953
    19  O   -1.615792
    20  O   -1.407251
    21  O   -1.420711
    22  O   -1.463242
    23  O   -1.525160
 Sum of Mulliken charges =  -0.00000

 Dipole moment (field-independent basis, Debye):
    X=              1.5281    Y=             -2.7162    Z=              0.0491  Tot=              3.1169

 Test job not archived.
 1\1\GINC-SE128\SP\RHF\Aug-CC-pVDZ\C6H12O5\OHZDE\08-Apr-2025\0\\#t hf a
 ug-cc-pvdz iop(5/13=1,5/36=2,99/5=2) pseudo=read geom=check guess=(rea
 d,tcheck) scf=(maxcycle=1)\\title\\0,1\C,0,-1.62871,-0.702424,-0.12593
 1\C,0,-0.51862,-1.89542,-0.237679\C,0,0.957535,-1.36972,-0.0631569\C,0
 ,1.07054,-0.0529721,0.813692\C,0,0.143988,1.0609,0.466614\C,0,-0.97285
 7,0.586804,-0.551209\H,0,-1.47851,2.30681,-0.295801\H,0,-0.47337,0.413
 608,-1.50011\H,0,1.39623,2.00585,-0.833487\H,0,-0.410734,1.31899,1.352
 57\H,0,2.72701,0.699147,-0.00588507\H,0,0.676226,-0.3882,1.85005\H,0,2

 Normal termination of Gaussian 16 at Tue Apr  8 19:25:47 2025.
