 Gaussian 16, Revision C.01,

 ----------------------------------------------------------------------
 #t hf aug-cc-pvdz symm=none int=(grid=ultrafine) guess=(read,tcheck) s
 table=(opt,rrhf)
 ----------------------------------------------------------------------
 -----
 title
 -----
 Symbolic Z-matrix:
 Charge =  0 Multiplicity = 1

 SCF Done:  E(RHF) =  -555.333603343     A.U. after   16 cycles
 Normal termination of Gaussian 16 at Tue Apr  8 22:02:42 2025.
 Gaussian 16:  ES64L-G16RevC.01  3-Jul-2019

 ----------------------------------------------------------------------
 #t hf aug-cc-pvdz iop(5/13=1,5/36=2,99/5=2) pseudo=read geom=check gue
 ss=(read,tcheck) scf=(maxcycle=1)
 ----------------------------------------------------------------------
 -----
 title
 -----
 Structure from the checkpoint file:  "ANI1ccx_886_conf10_mol2.chk"
 Charge =  0 Multiplicity = 1

                         Standard orientation:
 ---------------------------------------------------------------------
 Center     Atomic      Atomic             Coordinates (Angstroms)
 Number     Number       Type             X           Y           Z
 ---------------------------------------------------------------------
      1          6           0       -1.289528    0.740441   -0.007995
      2          6           0        0.933562    0.705833   -0.039086
      3          6           0        0.936085   -0.709115    0.021442
      4          6           0       -1.285530   -0.750555   -0.013069
      5          1           0       -3.212738    0.924978    0.593226
      6          1           0       -2.446637    2.375361    0.146515
      7          1           0       -2.439891   -2.359209   -0.148018
      8          1           0       -3.211380   -0.925631   -0.591987
      9          7           0       -2.510168    1.369131    0.021924
     10          7           0       -0.214321    1.458109   -0.045883
     11          7           0        2.175812    1.142907   -0.052529
     12          7           0        2.172580   -1.135683    0.064369
     13          7           0       -0.209061   -1.466561    0.032925
     14          7           0       -2.521200   -1.358859    0.003399
     15          8           0        2.910951    0.000198    0.007884
 ---------------------------------------------------------------------

 SCF Done:  E(RHF) =  -555.883152883     A.U. after    2 cycles

 The electronic state is 1-A.
 Alpha  occ. eigenvalues --  -20.65822 -15.58646 -15.58501 -15.56416 -15.56225
 Alpha  occ. eigenvalues --  -15.54344 -15.54029 -11.38187 -11.38105 -11.31990
 Alpha  occ. eigenvalues --  -11.31898  -1.61674  -1.36421  -1.30274  -1.26930
 Alpha  occ. eigenvalues --   -1.23607  -1.19148  -1.16446  -0.97415  -0.92892
 Alpha  occ. eigenvalues --   -0.90512  -0.83897  -0.81795  -0.77268  -0.75386
 Alpha  occ. eigenvalues --   -0.72816  -0.71930  -0.71011  -0.65063  -0.63240
 Alpha  occ. eigenvalues --   -0.59682  -0.57882  -0.57789  -0.53638  -0.53316
 Alpha  occ. eigenvalues --   -0.51457  -0.47907  -0.41904  -0.38946
 Alpha virt. eigenvalues --    0.00427   0.01551   0.03195   0.05125   0.05152
 Alpha virt. eigenvalues --    0.07851   0.08428   0.09467   0.09780   0.09815
 Alpha virt. eigenvalues --    0.11479   0.11960   0.12067   0.12673   0.12941

 Mulliken charges:
               1
     1  C   -1.884911
     2  C   -1.148699
     3  C   -1.120294
     4  C   -1.832405
     5  H    0.237147
     6  H    0.056871
     7  H    0.066358
     8  H    0.260387
     9  N    0.860794
    10  N    1.145846
    11  N    1.447545
    12  N    1.470109
    13  N    1.146108
    14  N    0.849604
    15  O   -1.554460
 Sum of Mulliken charges =  -0.00000

 Dipole moment (field-independent basis, Debye):
    X=             -8.6764    Y=             -0.0168    Z=             -0.1181  Tot=              8.6772

 Test job not archived.
 1\1\GINC-SE331\SP\RHF\Aug-CC-pVDZ\C4H4N6O1\OHZDE\08-Apr-2025\0\\#t hf
 aug-cc-pvdz iop(5/13=1,5/36=2,99/5=2) pseudo=read geom=check guess=(re
 ad,tcheck) scf=(maxcycle=1)\\title\\0,1\C,0,-1.28953,0.740441,-0.00799
 481\C,0,0.93356,0.705835,-0.0390858\C,0,0.936085,-0.709113,0.0214425\C
 ,0,-1.28553,-0.750555,-0.0130692\H,0,-3.21274,0.924977,0.593226\H,0,-2
 .44664,2.37536,0.146515\H,0,-2.43989,-2.35921,-0.148018\H,0,-3.21138,-
 0.925632,-0.591987\N,0,-2.51017,1.36913,0.0219236\N,0,-0.214323,1.4581
 1,-0.0458832\N,0,2.17581,1.14291,-0.0525285\N,0,2.17258,-1.13568,0.064

 Normal termination of Gaussian 16 at Tue Apr  8 22:02:50 2025.
