 Gaussian 16, Revision C.01,

 ----------------------------------------------------------------------
 #t hf aug-cc-pvdz symm=none int=(grid=ultrafine) guess=(read,tcheck) s
 table=(opt,rrhf)
 ----------------------------------------------------------------------
 -----
 title
 -----
 Symbolic Z-matrix:
 Charge =  0 Multiplicity = 1

 SCF Done:  E(RHF) =  -390.242513132     A.U. after   17 cycles
 Normal termination of Gaussian 16 at Tue Apr  8 21:56:44 2025.
 Gaussian 16:  ES64L-G16RevC.01  3-Jul-2019

 ----------------------------------------------------------------------
 #t hf aug-cc-pvdz iop(5/13=1,5/36=2,99/5=2) pseudo=read geom=check gue
 ss=(read,tcheck) scf=(maxcycle=1)
 ----------------------------------------------------------------------
 -----
 title
 -----
 Structure from the checkpoint file:  "ANI1ccx_847_conf8_mol1.chk"
 Charge =  0 Multiplicity = 1

                         Standard orientation:
 ---------------------------------------------------------------------
 Center     Atomic      Atomic             Coordinates (Angstroms)
 Number     Number       Type             X           Y           Z
 ---------------------------------------------------------------------
      1          6           0       -1.489709   -0.297433   -0.010489
      2          6           0       -1.113758    1.222040    0.019056
      3          6           0        0.633096   -0.048235   -0.029760
      4          6           0        2.040071   -0.206618    0.003623
      5          1           0       -1.891718    1.967300    0.051691
      6          7           0        0.126405    1.339649   -0.020416
      7          7           0       -0.203680   -0.935372   -0.011873
      8          7           0        3.222211   -0.326012    0.022688
      9          8           0       -2.567629   -0.816710    0.015117
 ---------------------------------------------------------------------

 SCF Done:  E(RHF) =  -390.617750877     A.U. after    2 cycles

 The electronic state is 1-A.
 Alpha  occ. eigenvalues --  -20.61591 -15.58570 -15.58051 -15.56528 -11.42464
 Alpha  occ. eigenvalues --  -11.41180 -11.36019 -11.33817  -1.54681  -1.41012
 Alpha  occ. eigenvalues --   -1.27027  -1.26110  -1.06319  -0.91326  -0.89615
 Alpha  occ. eigenvalues --   -0.82178  -0.72274  -0.72132  -0.69477  -0.65719
 Alpha  occ. eigenvalues --   -0.61308  -0.57969  -0.54921  -0.54646  -0.54526
 Alpha  occ. eigenvalues --   -0.50149  -0.48590
 Alpha virt. eigenvalues --   -0.04516   0.02575   0.05934   0.06361   0.07155
 Alpha virt. eigenvalues --    0.08014   0.09569   0.09874   0.10091   0.10940
 Alpha virt. eigenvalues --    0.11015   0.11575   0.12923   0.14255   0.15220

 Mulliken charges:
               1
     1  C    0.866052
     2  C   -0.341585
     3  C   -0.527732
     4  C   -1.679408
     5  H    0.008204
     6  N    0.762083
     7  N    1.085830
     8  N    1.021728
     9  O   -1.195172
 Sum of Mulliken charges =   0.00000

 Dipole moment (field-independent basis, Debye):
    X=             -3.1772    Y=              2.4922    Z=             -0.0398  Tot=              4.0382

 Test job not archived.
 1\1\GINC-SE163\SP\RHF\Aug-CC-pVDZ\C4H1N3O1\OHZDE\08-Apr-2025\0\\#t hf
 aug-cc-pvdz iop(5/13=1,5/36=2,99/5=2) pseudo=read geom=check guess=(re
 ad,tcheck) scf=(maxcycle=1)\\title\\0,1\C,0,-1.48971,-0.297433,-0.0104
 892\C,0,-1.11376,1.22204,0.0190564\C,0,0.633095,-0.0482337,-0.0297603\
 C,0,2.04007,-0.206617,0.00362256\H,0,-1.89172,1.9673,0.0516911\N,0,0.1
 26403,1.33965,-0.020416\N,0,-0.203681,-0.935371,-0.0118729\N,0,3.22221
 ,-0.32601,0.0226881\O,0,-2.56763,-0.81671,0.0151172\\Version=ES64L-G16
 RevC.01\State=1-A\HF=-390.6177509\RMSD=6.921e-02\Dipole=-1.2499937,0.9

 Normal termination of Gaussian 16 at Tue Apr  8 21:56:49 2025.
