 Gaussian 16, Revision C.01,

 ----------------------------------------------------------------------
 #t hf aug-cc-pvdz symm=none int=(grid=ultrafine) guess=(read,tcheck) s
 table=(opt,rrhf)
 ----------------------------------------------------------------------
 -----
 title
 -----
 Symbolic Z-matrix:
 Charge =  0 Multiplicity = 1

 SCF Done:  E(RHF) =  -466.549327990     A.U. after   14 cycles
 Normal termination of Gaussian 16 at Tue Apr  8 21:46:11 2025.
 Gaussian 16:  ES64L-G16RevC.01  3-Jul-2019

 ----------------------------------------------------------------------
 #t hf aug-cc-pvdz iop(5/13=1,5/36=2,99/5=2) pseudo=read geom=check gue
 ss=(read,tcheck) scf=(maxcycle=1)
 ----------------------------------------------------------------------
 -----
 title
 -----
 Structure from the checkpoint file:  "ANI1ccx_540_conf26_mol1.chk"
 Charge =  0 Multiplicity = 1

                         Standard orientation:
 ---------------------------------------------------------------------
 Center     Atomic      Atomic             Coordinates (Angstroms)
 Number     Number       Type             X           Y           Z
 ---------------------------------------------------------------------
      1          6           0        1.413562   -0.086337    0.076006
      2          6           0       -0.852817    0.829213    0.064191
      3          1           0        1.930972   -1.732849   -0.996034
      4          1           0        0.368025   -1.804709   -0.284594
      5          1           0        0.833920    1.638561    0.501411
      6          1           0       -2.401218   -0.153583   -0.862386
      7          1           0       -2.246298   -1.851109    1.048230
      8          7           0        1.097392   -1.320679   -0.554597
      9          7           0        0.359165    0.654133    0.764255
     10          7           0       -1.741868   -0.254923   -0.035891
     11          8           0        2.561712    0.356570    0.087328
     12          8           0       -1.089228    1.919811   -0.498762
     13          8           0       -1.454068   -1.539289    0.228411
 ---------------------------------------------------------------------

 SCF Done:  E(RHF) =  -467.008804621     A.U. after    2 cycles

 The electronic state is 1-A.
 Alpha  occ. eigenvalues --  -20.66110 -20.54270 -20.53312 -15.61218 -15.56899
 Alpha  occ. eigenvalues --  -15.52998 -11.42926 -11.42211  -1.55726  -1.48283
 Alpha  occ. eigenvalues --   -1.47032  -1.26685  -1.21755  -1.16443  -0.91244
 Alpha  occ. eigenvalues --   -0.84784  -0.82188  -0.77538  -0.74871  -0.71892
 Alpha  occ. eigenvalues --   -0.68054  -0.65470  -0.63531  -0.63323  -0.56877
 Alpha  occ. eigenvalues --   -0.55057  -0.51984  -0.47616  -0.45673  -0.44769
 Alpha  occ. eigenvalues --   -0.44233
 Alpha virt. eigenvalues --    0.01488   0.03967   0.04314   0.06533   0.06689
 Alpha virt. eigenvalues --    0.09658   0.10008   0.11240   0.11532   0.12132
 Alpha virt. eigenvalues --    0.13063   0.13741   0.14067   0.15675   0.15732

 Mulliken charges:
               1
     1  C    0.233199
     2  C    0.050761
     3  H    0.175171
     4  H   -0.058525
     5  H    0.494951
     6  H    0.230720
     7  H    0.498658
     8  N    0.576018
     9  N    0.286539
    10  N    1.257879
    11  O   -1.152902
    12  O   -1.127519
    13  O   -1.464949
 Sum of Mulliken charges =  -0.00000

 Dipole moment (field-independent basis, Debye):
    X=             -3.4567    Y=             -4.4720    Z=              0.2779  Tot=              5.6591

 Test job not archived.
 1\1\GINC-SE365\SP\RHF\Aug-CC-pVDZ\C2H5N3O3\OHZDE\08-Apr-2025\0\\#t hf
 aug-cc-pvdz iop(5/13=1,5/36=2,99/5=2) pseudo=read geom=check guess=(re
 ad,tcheck) scf=(maxcycle=1)\\title\\0,1\C,0,1.41356,-0.0863375,0.07600
 56\C,0,-0.852819,0.829212,0.0641912\H,0,1.93097,-1.73285,-0.996034\H,0
 ,0.368023,-1.80471,-0.284594\H,0,0.833918,1.63856,0.501411\H,0,-2.4012
 2,-0.153584,-0.862386\H,0,-2.2463,-1.85111,1.04823\N,0,1.09739,-1.3206
 8,-0.554597\N,0,0.359163,0.654132,0.764255\N,0,-1.74187,-0.254924,-0.0
 358911\O,0,2.56171,0.356569,0.0873281\O,0,-1.08923,1.91981,-0.498762\O

 Normal termination of Gaussian 16 at Tue Apr  8 21:46:15 2025.
