 Gaussian 16, Revision C.01,

 ----------------------------------------------------------------------
 #t hf aug-cc-pvdz symm=none int=(grid=ultrafine) guess=(read,tcheck) s
 table=(opt,rrhf)
 ----------------------------------------------------------------------
 -----
 title
 -----
 Symbolic Z-matrix:
 Charge =  0 Multiplicity = 1

 SCF Done:  E(RHF) =  -302.707888215     A.U. after   13 cycles
 Normal termination of Gaussian 16 at Tue Apr  8 21:45:48 2025.
 Gaussian 16:  ES64L-G16RevC.01  3-Jul-2019

 ----------------------------------------------------------------------
 #t hf aug-cc-pvdz iop(5/13=1,5/36=2,99/5=2) pseudo=read geom=check gue
 ss=(read,tcheck) scf=(maxcycle=1)
 ----------------------------------------------------------------------
 -----
 title
 -----
 Structure from the checkpoint file:  "ANI1ccx_528_conf38_mol2.chk"
 Charge =  0 Multiplicity = 1

                         Standard orientation:
 ---------------------------------------------------------------------
 Center     Atomic      Atomic             Coordinates (Angstroms)
 Number     Number       Type             X           Y           Z
 ---------------------------------------------------------------------
      1          6           0        0.744878   -0.763455    0.007102
      2          6           0       -0.622070   -0.096538    0.017148
      3          1           0        1.545520    1.030359    0.037032
      4          1           0        0.784066   -1.390091    0.929275
      5          1           0        0.738464   -1.425241   -0.878310
      6          1           0       -1.450890    1.581329   -0.068550
      7          8           0        1.866239    0.124868   -0.020455
      8          8           0       -0.520190    1.248889    0.011026
      9          8           0       -1.640301   -0.703308   -0.011190
 ---------------------------------------------------------------------

 SCF Done:  E(RHF) =  -303.008434221     A.U. after    2 cycles

 The electronic state is 1-A.
 Alpha  occ. eigenvalues --  -20.62826 -20.56370 -20.55659 -11.41135 -11.32067
 Alpha  occ. eigenvalues --   -1.57436  -1.48418  -1.45784  -1.01116  -0.84858
 Alpha  occ. eigenvalues --   -0.74782  -0.72420  -0.68852  -0.63168  -0.61354
 Alpha  occ. eigenvalues --   -0.60334  -0.57266  -0.50853  -0.45877  -0.45409
 Alpha virt. eigenvalues --    0.03148   0.04670   0.05398   0.05791   0.09470
 Alpha virt. eigenvalues --    0.11138   0.11803   0.12029   0.14094   0.15435
 Alpha virt. eigenvalues --    0.16104   0.16353   0.19282   0.19996   0.21344

 Mulliken charges:
               1
     1  C    0.563898
     2  C    1.723956
     3  H    0.388143
     4  H    0.262276
     5  H    0.244387
     6  H    0.393726
     7  O   -1.175629
     8  O   -1.193715
     9  O   -1.207042
 Sum of Mulliken charges =  -0.00000

 Dipole moment (field-independent basis, Debye):
    X=             -0.5384    Y=              1.5955    Z=              0.0293  Tot=              1.6841

 Test job not archived.
 1\1\GINC-SE060\SP\RHF\Aug-CC-pVDZ\C2H4O3\OHZDE\08-Apr-2025\0\\#t hf au
 g-cc-pvdz iop(5/13=1,5/36=2,99/5=2) pseudo=read geom=check guess=(read
 ,tcheck) scf=(maxcycle=1)\\title\\0,1\C,0,0.744879,-0.763454,0.0071016
 7\C,0,-0.622069,-0.096537,0.0171484\H,0,1.54552,1.03036,0.037032\H,0,0
 .784067,-1.39009,0.929275\H,0,0.738465,-1.42524,-0.87831\H,0,-1.45089,
 1.58133,-0.0685502\O,0,1.86624,0.124869,-0.0204549\O,0,-0.52019,1.2488
 9,0.011026\O,0,-1.6403,-0.703307,-0.0111896\\Version=ES64L-G16RevC.01\
 State=1-A\HF=-303.0084342\RMSD=1.097e-02\Dipole=-0.2118344,0.627699,0.

 Normal termination of Gaussian 16 at Tue Apr  8 21:45:51 2025.
