 Gaussian 16, Revision C.01,

 ----------------------------------------------------------------------
 #t hf aug-cc-pvdz symm=none int=(grid=ultrafine) guess=(read,tcheck) s
 table=(opt,rrhf)
 ----------------------------------------------------------------------
 -----
 title
 -----
 Symbolic Z-matrix:
 Charge =  0 Multiplicity = 1

 SCF Done:  E(RHF) =  -204.677436835     A.U. after   13 cycles
 Normal termination of Gaussian 16 at Tue Apr  8 21:09:14 2025.
 Gaussian 16:  ES64L-G16RevC.01  3-Jul-2019

 ----------------------------------------------------------------------
 #t hf aug-cc-pvdz iop(5/13=1,5/36=2,99/5=2) pseudo=read geom=check gue
 ss=(read,tcheck) scf=(maxcycle=1)
 ----------------------------------------------------------------------
 -----
 title
 -----
 Structure from the checkpoint file:  "ANI1ccx_1849_conf31_mol2.chk"
 Charge =  0 Multiplicity = 1

                         Standard orientation:
 ---------------------------------------------------------------------
 Center     Atomic      Atomic             Coordinates (Angstroms)
 Number     Number       Type             X           Y           Z
 ---------------------------------------------------------------------
      1          1           0       -1.677212    0.451833    0.009904
      2          7           0        0.161149    0.484621   -0.001418
      3          8           0       -1.036432   -0.260287   -0.001062
      4          8           0        1.105078   -0.220235    0.001064
 ---------------------------------------------------------------------

 SCF Done:  E(RHF) =  -204.870383448     A.U. after    2 cycles

 The electronic state is 1-A.
 Alpha  occ. eigenvalues --  -20.64800 -20.63265 -15.73588  -1.68010  -1.50974
 Alpha  occ. eigenvalues --   -0.98016  -0.80668  -0.75492  -0.70256  -0.63058
 Alpha  occ. eigenvalues --   -0.52408  -0.46921
 Alpha virt. eigenvalues --    0.03541   0.05931   0.11982   0.13025   0.15954
 Alpha virt. eigenvalues --    0.18037   0.18054   0.20142   0.21887   0.22768
 Alpha virt. eigenvalues --    0.24820   0.27389   0.31009   0.34312   0.40566

 Mulliken charges:
               1
     1  H    0.326425
     2  N    1.511701
     3  O   -0.994751
     4  O   -0.843374
 Sum of Mulliken charges =  -0.00000

 Dipole moment (field-independent basis, Debye):
    X=             -1.6264    Y=              1.0787    Z=              0.0188  Tot=              1.9517

 Test job not archived.
 1\1\GINC-SE457\SP\RHF\Aug-CC-pVDZ\H1N1O2\OHZDE\08-Apr-2025\0\\#t hf au
 g-cc-pvdz iop(5/13=1,5/36=2,99/5=2) pseudo=read geom=check guess=(read
 ,tcheck) scf=(maxcycle=1)\\title\\0,1\H,0,-1.67721,0.451834,0.00990386
 \N,0,0.161152,0.484621,-0.00141796\O,0,-1.03643,-0.260287,-0.00106153\
 O,0,1.10508,-0.220236,0.00106426\\Version=ES64L-G16RevC.01\State=1-A\H
 F=-204.8703834\RMSD=1.523e-02\Dipole=-0.6398922,0.4243967,0.0073885\Qu
 adrupole=1.481693,-1.1381712,-0.3435218,-1.6248943,-0.0294365,0.012476
 4\PG=C01 [X(H1N1O2)]\\@

 Normal termination of Gaussian 16 at Tue Apr  8 21:09:16 2025.
