 Gaussian 16, Revision C.01,

 ----------------------------------------------------------------------
 #t hf aug-cc-pvdz symm=none int=(grid=ultrafine) guess=(read,tcheck) s
 table=(opt,rrhf)
 ----------------------------------------------------------------------
 -----
 title
 -----
 Symbolic Z-matrix:
 Charge =  0 Multiplicity = 1

 SCF Done:  E(RHF) =  -660.928543422     A.U. after   16 cycles
 Normal termination of Gaussian 16 at Tue Apr  8 20:28:01 2025.
 Gaussian 16:  ES64L-G16RevC.01  3-Jul-2019

 ----------------------------------------------------------------------
 #t hf aug-cc-pvdz iop(5/13=1,5/36=2,99/5=2) pseudo=read geom=check gue
 ss=(read,tcheck) scf=(maxcycle=1)
 ----------------------------------------------------------------------
 -----
 title
 -----
 Structure from the checkpoint file:  "ANI1ccx_1675_conf2_mol1.chk"
 Charge =  0 Multiplicity = 1

                         Standard orientation:
 ---------------------------------------------------------------------
 Center     Atomic      Atomic             Coordinates (Angstroms)
 Number     Number       Type             X           Y           Z
 ---------------------------------------------------------------------
      1          6           0        1.566000   -1.097071    0.359465
      2          6           0       -0.799165   -0.806350   -0.144522
      3          6           0       -1.979230   -1.474630   -0.011336
      4          6           0       -3.176730   -0.785113    0.064131
      5          6           0       -3.113939    0.625009    0.146564
      6          6           0       -1.895579    1.269700    0.087116
      7          6           0       -0.701398    0.566281   -0.072717
      8          6           0        1.700980    0.385563    0.111785
      9          1           0        1.443271    2.610469   -0.788454
     10          1           0       -1.828409    2.365120    0.178261
     11          1           0       -4.005119    1.212041    0.261137
     12          1           0        1.387110   -1.234551    1.455860
     13          1           0       -2.014161   -2.601220   -0.030273
     14          1           0        3.414440   -1.259382    0.189347
     15          1           0       -4.130000   -1.298649    0.035894
     16          7           0        0.569887    1.058079   -0.189471
     17          8           0        0.782507    2.427009   -0.109116
     18          8           0        2.619800   -1.778672   -0.124924
     19          8           0        0.321777   -1.504761   -0.356455
     20          8           0        2.793171    0.943834    0.188197
 ---------------------------------------------------------------------

 SCF Done:  E(RHF) =  -661.584461511     A.U. after    2 cycles

 The electronic state is 1-A.
 Alpha  occ. eigenvalues --  -20.62409 -20.59272 -20.58707 -20.55056 -15.62214
 Alpha  occ. eigenvalues --  -11.39557 -11.38792 -11.31130 -11.30323 -11.26096
 Alpha  occ. eigenvalues --  -11.25614 -11.25357 -11.25346  -1.56555  -1.54126
 Alpha  occ. eigenvalues --   -1.49311  -1.47341  -1.26404  -1.16847  -1.05405
 Alpha  occ. eigenvalues --   -1.03922  -0.97516  -0.92640  -0.87489  -0.82074
 Alpha  occ. eigenvalues --   -0.79736  -0.76895  -0.74667  -0.72075  -0.70968
 Alpha  occ. eigenvalues --   -0.68720  -0.66263  -0.65817  -0.62819  -0.61199
 Alpha  occ. eigenvalues --   -0.60067  -0.59008  -0.57294  -0.54575  -0.53065
 Alpha  occ. eigenvalues --   -0.51637  -0.50700  -0.49608  -0.46905  -0.44336
 Alpha  occ. eigenvalues --   -0.35659  -0.32893
 Alpha virt. eigenvalues --    0.03305   0.03656   0.03798   0.04606   0.05275
 Alpha virt. eigenvalues --    0.05799   0.07063   0.08387   0.08803   0.09495
 Alpha virt. eigenvalues --    0.10091   0.10651   0.11361   0.12434   0.12653

 Mulliken charges:
               1
     1  C    1.639843
     2  C    2.506693
     3  C   -0.321050
     4  C    0.249888
     5  C   -0.068541
     6  C    1.436023
     7  C   -1.858645
     8  C    0.671853
     9  H    0.294583
    10  H   -0.265014
    11  H   -0.245740
    12  H    0.289635
    13  H   -0.211756
    14  H    0.333183
    15  H   -0.219328
    16  N    1.904213
    17  O   -1.302667
    18  O   -1.314248
    19  O   -2.106771
    20  O   -1.412153
 Sum of Mulliken charges =  -0.00000

 Dipole moment (field-independent basis, Debye):
    X=             -1.4952    Y=              0.5002    Z=              0.6692  Tot=              1.7128

 Test job not archived.
 1\1\GINC-SE368\SP\RHF\Aug-CC-pVDZ\C8H7N1O4\OHZDE\08-Apr-2025\0\\#t hf
 aug-cc-pvdz iop(5/13=1,5/36=2,99/5=2) pseudo=read geom=check guess=(re
 ad,tcheck) scf=(maxcycle=1)\\title\\0,1\C,0,1.566,-1.09707,0.359465\C,
 0,-0.799165,-0.80635,-0.144522\C,0,-1.97923,-1.47463,-0.0113358\C,0,-3
 .17673,-0.785114,0.0641313\C,0,-3.11394,0.625008,0.146564\C,0,-1.89558
 ,1.2697,0.0871159\C,0,-0.701399,0.566281,-0.0727169\C,0,1.70098,0.3855
 64,0.111785\H,0,1.44327,2.61047,-0.788454\H,0,-1.82841,2.36512,0.17826
 1\H,0,-4.00512,1.21204,0.261137\H,0,1.38711,-1.23455,1.45586\H,0,-2.01

 Normal termination of Gaussian 16 at Tue Apr  8 20:28:14 2025.
