 Gaussian 16, Revision C.01,

 ----------------------------------------------------------------------
 #t hf aug-cc-pvdz symm=none int=(grid=ultrafine) guess=(read,tcheck) s
 table=(opt,rrhf)
 ----------------------------------------------------------------------
 -----
 title
 -----
 Symbolic Z-matrix:
 Charge =  0 Multiplicity = 1

 SCF Done:  E(RHF) =  -460.211285195     A.U. after   19 cycles
 Normal termination of Gaussian 16 at Tue Apr  8 21:26:42 2025.
 Gaussian 16:  ES64L-G16RevC.01  3-Jul-2019

 ----------------------------------------------------------------------
 #t hf aug-cc-pvdz iop(5/13=1,5/36=2,99/5=2) pseudo=read geom=check gue
 ss=(read,tcheck) scf=(maxcycle=1)
 ----------------------------------------------------------------------
 -----
 title
 -----
 Structure from the checkpoint file:  "ANI1ccx_373_conf27_mol1.chk"
 Charge =  0 Multiplicity = 1

                         Standard orientation:
 ---------------------------------------------------------------------
 Center     Atomic      Atomic             Coordinates (Angstroms)
 Number     Number       Type             X           Y           Z
 ---------------------------------------------------------------------
      1          6           0        0.016335    0.124067   -0.093207
      2          1           0        2.784839   -1.231494    0.207103
      3          7           0       -1.396240   -0.048890   -0.146351
      4          7           0        0.852077    1.223989   -0.247976
      5          7           0        2.035841    0.670325   -0.068144
      6          7           0        1.908260   -0.616868    0.165119
      7          7           0        0.756991   -1.061961    0.181027
      8          8           0       -2.082078    1.011563    0.359127
      9          8           0       -1.915591   -1.096447   -0.213325
 ---------------------------------------------------------------------

 SCF Done:  E(RHF) =  -460.653437090     A.U. after    2 cycles

 The electronic state is 1-A.
 Alpha  occ. eigenvalues --  -20.65284 -20.57900 -15.81537 -15.71397 -15.64527
 Alpha  occ. eigenvalues --  -15.63901 -15.63357 -11.40938  -1.71125  -1.56971
 Alpha  occ. eigenvalues --   -1.45134  -1.36318  -1.25464  -1.13179  -1.00872
 Alpha  occ. eigenvalues --   -0.94354  -0.87694  -0.82071  -0.80213  -0.75791
 Alpha  occ. eigenvalues --   -0.75194  -0.68458  -0.60913  -0.58924  -0.56651
 Alpha  occ. eigenvalues --   -0.52711  -0.49467  -0.46658  -0.44644
 Alpha virt. eigenvalues --   -0.02009   0.01319   0.03751   0.07090   0.09601
 Alpha virt. eigenvalues --    0.10163   0.10875   0.10956   0.11732   0.12635
 Alpha virt. eigenvalues --    0.13037   0.13945   0.15618   0.16782   0.17780

 Mulliken charges:
               1
     1  C   -0.310903
     2  H    0.169281
     3  N    2.327860
     4  N    0.462095
     5  N   -0.388944
     6  N   -0.135057
     7  N    0.219928
     8  O   -1.179188
     9  O   -1.165073
 Sum of Mulliken charges =  -0.00000

 Dipole moment (field-independent basis, Debye):
    X=              4.4633    Y=             -3.3216    Z=             -0.2274  Tot=              5.5683

 Test job not archived.
 1\1\GINC-SE094\SP\RHF\Aug-CC-pVDZ\C1H1N5O2\OHZDE\08-Apr-2025\0\\#t hf
 aug-cc-pvdz iop(5/13=1,5/36=2,99/5=2) pseudo=read geom=check guess=(re
 ad,tcheck) scf=(maxcycle=1)\\title\\0,1\C,0,0.0163343,0.124067,-0.0932
 069\H,0,2.78484,-1.23149,0.207103\N,0,-1.39624,-0.0488921,-0.146351\N,
 0,0.852075,1.22399,-0.247976\N,0,2.03584,0.670328,-0.068144\N,0,1.9082
 6,-0.616865,0.165119\N,0,0.756992,-1.06196,0.181027\O,0,-2.08208,1.011
 56,0.359127\O,0,-1.91559,-1.09645,-0.213325\\Version=ES64L-G16RevC.01\
 State=1-A\HF=-460.6534371\RMSD=5.018e-02\Dipole=1.7560078,-1.3068241,-

 Normal termination of Gaussian 16 at Tue Apr  8 21:26:46 2025.
