 Gaussian 16, Revision C.01,

 ----------------------------------------------------------------------
 #t hf aug-cc-pvdz symm=none int=(grid=ultrafine) guess=(read,tcheck) s
 table=(opt,rrhf)
 ----------------------------------------------------------------------
 -----
 title
 -----
 Symbolic Z-matrix:
 Charge =  0 Multiplicity = 1

 SCF Done:  E(RHF) =  -318.603719696     A.U. after   17 cycles
 Normal termination of Gaussian 16 at Tue Apr  8 21:34:37 2025.
 Gaussian 16:  ES64L-G16RevC.01  3-Jul-2019

 ----------------------------------------------------------------------
 #t hf aug-cc-pvdz iop(5/13=1,5/36=2,99/5=2) pseudo=read geom=check gue
 ss=(read,tcheck) scf=(maxcycle=1)
 ----------------------------------------------------------------------
 -----
 title
 -----
 Structure from the checkpoint file:  "ANI1ccx_387_conf4_mol2.chk"
 Charge =  0 Multiplicity = 1

                         Standard orientation:
 ---------------------------------------------------------------------
 Center     Atomic      Atomic             Coordinates (Angstroms)
 Number     Number       Type             X           Y           Z
 ---------------------------------------------------------------------
      1          6           0        1.676950   -0.223247   -0.061301
      2          1           0        0.298376    1.079970    0.030350
      3          1           0        0.855857   -0.967969   -0.113815
      4          1           0       -2.429910   -1.099300    0.899980
      5          7           0       -2.243820   -0.232881    0.300322
      6          8           0        1.260050    1.015630    0.114356
      7          8           0        2.824670   -0.563222   -0.097246
      8          8           0       -3.219630    0.042209   -0.335981
 ---------------------------------------------------------------------

 SCF Done:  E(RHF) =  -318.909166690     A.U. after    2 cycles

 The electronic state is 1-A.
 Alpha  occ. eigenvalues --  -20.67040 -20.61565 -20.54362 -15.68353 -11.40182
 Alpha  occ. eigenvalues --   -1.64350  -1.56233  -1.46636  -1.04820  -0.87706
 Alpha  occ. eigenvalues --   -0.80053  -0.79838  -0.72250  -0.67166  -0.64803
 Alpha  occ. eigenvalues --   -0.63760  -0.58809  -0.48042  -0.46754  -0.45160
 Alpha virt. eigenvalues --    0.02071   0.02427   0.05346   0.05682   0.08210
 Alpha virt. eigenvalues --    0.10899   0.11813   0.13157   0.14704   0.15901
 Alpha virt. eigenvalues --    0.16625   0.17672   0.18662   0.19696   0.20896

 Mulliken charges:
               1
     1  C    1.451622
     2  H    0.457385
     3  H    0.121250
     4  H    0.068444
     5  N    0.736594
     6  O   -1.033314
     7  O   -0.992370
     8  O   -0.809611
 Sum of Mulliken charges =  -0.00000

 Dipole moment (field-independent basis, Debye):
    X=             -4.8375    Y=             -1.1512    Z=              0.9058  Tot=              5.0544

 Test job not archived.
 1\1\GINC-SE402\SP\RHF\Aug-CC-pVDZ\C1H3N1O3\OHZDE\08-Apr-2025\0\\#t hf
 aug-cc-pvdz iop(5/13=1,5/36=2,99/5=2) pseudo=read geom=check guess=(re
 ad,tcheck) scf=(maxcycle=1)\\title\\0,1\C,0,1.67695,-0.223247,-0.06130
 12\H,0,0.298376,1.07997,0.0303498\H,0,0.855857,-0.967969,-0.113815\H,0
 ,-2.42991,-1.0993,0.89998\N,0,-2.24382,-0.232881,0.300322\O,0,1.26005,
 1.01563,0.114356\O,0,2.82467,-0.563222,-0.0972462\O,0,-3.21963,0.04220
 93,-0.335981\\Version=ES64L-G16RevC.01\State=1-A\HF=-318.9091667\RMSD=
 9.278e-03\Dipole=-1.903214,-0.4529239,0.3563684\Quadrupole=-7.1413551,

 Normal termination of Gaussian 16 at Tue Apr  8 21:34:39 2025.
