 Gaussian 16, Revision C.01,

 ----------------------------------------------------------------------
 #t hf aug-cc-pvdz symm=none int=(grid=ultrafine) guess=(read,tcheck) s
 table=(opt,rrhf)
 ----------------------------------------------------------------------
 -----
 title
 -----
 Symbolic Z-matrix:
 Charge =  0 Multiplicity = 1

 SCF Done:  E(RHF) =  -221.191737935     A.U. after   15 cycles
 Normal termination of Gaussian 16 at Tue Apr  8 21:12:21 2025.
 Gaussian 16:  ES64L-G16RevC.01  3-Jul-2019

 ----------------------------------------------------------------------
 #t hf aug-cc-pvdz iop(5/13=1,5/36=2,99/5=2) pseudo=read geom=check gue
 ss=(read,tcheck) scf=(maxcycle=1)
 ----------------------------------------------------------------------
 -----
 title
 -----
 Structure from the checkpoint file:  "ANI1ccx_1899_conf12_mol1.chk"
 Charge =  0 Multiplicity = 1

                         Standard orientation:
 ---------------------------------------------------------------------
 Center     Atomic      Atomic             Coordinates (Angstroms)
 Number     Number       Type             X           Y           Z
 ---------------------------------------------------------------------
      1          1           0       -2.691440    0.859792   -0.170947
      2          1           0       -1.200350    1.397490   -0.052645
      3          1           0       -1.976609   -1.359980   -0.107162
      4          1           0       -1.521049   -0.585192    1.286560
      5          1           0        1.085650    0.994090    0.630311
      6          1           0        0.779809   -0.627303   -0.599293
      7          7           0       -1.721820    0.583345   -0.311920
      8          7           0       -1.302379   -0.663632    0.252125
      9          7           0        2.049200    0.506278    0.273834
     10          7           0        1.764140   -0.522975   -0.355013
 ---------------------------------------------------------------------

 SCF Done:  E(RHF) =  -221.419568661     A.U. after    2 cycles

 The electronic state is 1-A.
 Alpha  occ. eigenvalues --  -15.57183 -15.55573 -15.55010 -15.52879  -1.34192
 Alpha  occ. eigenvalues --   -1.27639  -1.05239  -0.92417  -0.77226  -0.74084
 Alpha  occ. eigenvalues --   -0.72574  -0.67626  -0.61132  -0.55136  -0.52537
 Alpha  occ. eigenvalues --   -0.45337  -0.42505
 Alpha virt. eigenvalues --    0.02096   0.04596   0.05258   0.05512   0.07408
 Alpha virt. eigenvalues --    0.07736   0.08252   0.13586   0.14120   0.15561
 Alpha virt. eigenvalues --    0.15948   0.16907   0.17932   0.19060   0.19400

 Mulliken charges:
               1
     1  H    0.109860
     2  H    0.046695
     3  H    0.180769
     4  H    0.265950
     5  H    0.114518
     6  H    0.060601
     7  N   -0.116800
     8  N   -0.518791
     9  N   -0.096597
    10  N   -0.046204
 Sum of Mulliken charges =  -0.00000

 Dipole moment (field-independent basis, Debye):
    X=             -5.6093    Y=              0.7620    Z=              1.7353  Tot=              5.9208

 Test job not archived.
 1\1\GINC-SE074\SP\RHF\Aug-CC-pVDZ\H6N4\OHZDE\08-Apr-2025\0\\#t hf aug-
 cc-pvdz iop(5/13=1,5/36=2,99/5=2) pseudo=read geom=check guess=(read,t
 check) scf=(maxcycle=1)\\title\\0,1\H,0,-2.69144,0.859793,-0.170947\H,
 0,-1.20035,1.39749,-0.0526448\H,0,-1.97661,-1.35998,-0.107162\H,0,-1.5
 2105,-0.585192,1.28656\H,0,1.08565,0.99409,0.630311\H,0,0.779808,-0.62
 7303,-0.599293\N,0,-1.72182,0.583345,-0.31192\N,0,-1.30238,-0.663632,0
 .252125\N,0,2.0492,0.506277,0.273834\N,0,1.76414,-0.522976,-0.355013\\
 Version=ES64L-G16RevC.01\State=1-A\HF=-221.4195687\RMSD=2.642e-02\Dipo

 Normal termination of Gaussian 16 at Tue Apr  8 21:12:24 2025.
