 Gaussian 16, Revision C.01,

 ----------------------------------------------------------------------
 #t hf aug-cc-pvdz symm=none int=(grid=ultrafine) guess=(read,tcheck) s
 table=(opt,rrhf)
 ----------------------------------------------------------------------
 -----
 title
 -----
 Symbolic Z-matrix:
 Charge =  0 Multiplicity = 1

 SCF Done:  E(RHF) =  -456.237787974     A.U. after   11 cycles
 Normal termination of Gaussian 16 at Tue Apr  8 21:07:44 2025.
 Gaussian 16:  ES64L-G16RevC.01  3-Jul-2019

 ----------------------------------------------------------------------
 #t hf aug-cc-pvdz iop(5/13=1,5/36=2,99/5=2) pseudo=read geom=check gue
 ss=(read,tcheck) scf=(maxcycle=1)
 ----------------------------------------------------------------------
 -----
 title
 -----
 Structure from the checkpoint file:  "ANI1ccx_1844_conf305_mol1.chk"
 Charge =  0 Multiplicity = 1

                         Standard orientation:
 ---------------------------------------------------------------------
 Center     Atomic      Atomic             Coordinates (Angstroms)
 Number     Number       Type             X           Y           Z
 ---------------------------------------------------------------------
      1          1           0       -0.662230    2.278013    1.417430
      2          1           0        1.955454    1.049584   -0.338445
      3          1           0        1.835440    2.702344   -0.790846
      4          1           0       -0.111013   -1.858229    0.230336
      5          1           0        0.982875   -2.083673    1.439860
      6          1           0        2.032627   -1.072807    0.307505
      7          1           0        0.025803    2.110970    0.012269
      8          1           0        3.048699   -0.464963   -0.812717
      9          1           0       -3.284347    0.779303   -0.509107
     10          1           0       -1.937166    1.036617    0.203800
     11          1           0       -2.062793   -1.155313   -0.401769
     12          1           0       -1.987629   -2.700273   -0.381920
     13          8           0        0.897864   -2.113103    0.425083
     14          8           0       -2.687258    0.353659    0.132685
     15          8           0        1.374287    1.779216   -0.667763
     16          8           0        2.789629   -0.358387    0.176508
     17          8           0       -0.862601    2.192723    0.496241
     18          8           0       -1.491386   -1.931804   -0.609804
 ---------------------------------------------------------------------

 SCF Done:  E(RHF) =  -456.709750923     A.U. after    2 cycles

 The electronic state is 1-A.
 Alpha  occ. eigenvalues --  -20.56341 -20.55817 -20.55196 -20.54312 -20.54071
 Alpha  occ. eigenvalues --  -20.54042  -1.45104  -1.44435  -1.42592  -1.41463
 Alpha  occ. eigenvalues --   -1.40691  -1.38554  -0.73449  -0.72445  -0.71106
 Alpha  occ. eigenvalues --   -0.70654  -0.69544  -0.66608  -0.61369  -0.59846
 Alpha  occ. eigenvalues --   -0.58433  -0.55682  -0.55174  -0.53546  -0.49651
 Alpha  occ. eigenvalues --   -0.49213  -0.48498  -0.48262  -0.47411  -0.47146
 Alpha virt. eigenvalues --    0.03372   0.03967   0.04783   0.05018   0.06406
 Alpha virt. eigenvalues --    0.07150   0.08554   0.09032   0.09889   0.10735
 Alpha virt. eigenvalues --    0.11158   0.11698   0.17182   0.18265   0.19389

 Mulliken charges:
               1
     1  H    0.358718
     2  H    0.720326
     3  H    0.410317
     4  H    0.856601
     5  H    0.429656
     6  H    0.846341
     7  H    0.828667
     8  H    0.397150
     9  H    0.328054
    10  H    0.848030
    11  H    0.678353
    12  H    0.296048
    13  O   -1.265461
    14  O   -1.105336
    15  O   -1.189003
    16  O   -1.203361
    17  O   -1.211074
    18  O   -1.024026
 Sum of Mulliken charges =  -0.00000

 Dipole moment (field-independent basis, Debye):
    X=             -0.4138    Y=              1.0142    Z=              0.5685  Tot=              1.2341

 Test job not archived.
 1\1\GINC-SE087\SP\RHF\Aug-CC-pVDZ\H12O6\OHZDE\08-Apr-2025\0\\#t hf aug
 -cc-pvdz iop(5/13=1,5/36=2,99/5=2) pseudo=read geom=check guess=(read,
 tcheck) scf=(maxcycle=1)\\title\\0,1\H,0,-0.662238,2.27801,1.41743\H,0
 ,1.95545,1.04959,-0.338445\H,0,1.83543,2.70235,-0.790846\H,0,-0.111007
 ,-1.85823,0.230336\H,0,0.982882,-2.08367,1.43986\H,0,2.03263,-1.0728,0
 .307505\H,0,0.0257947,2.11097,0.0122687\H,0,3.0487,-0.464953,-0.812717
 \H,0,-3.28435,0.779291,-0.509107\H,0,-1.93717,1.03661,0.2038\H,0,-2.06
 279,-1.15532,-0.401769\H,0,-1.98762,-2.70028,-0.38192\O,0,0.897871,-2.

 Normal termination of Gaussian 16 at Tue Apr  8 21:07:49 2025.
