 Gaussian 16, Revision C.01,

 ----------------------------------------------------------------------
 #t hf aug-cc-pvdz symm=none int=(grid=ultrafine) guess=(read,tcheck) s
 table=(opt,rrhf)
 ----------------------------------------------------------------------
 -----
 title
 -----
 Symbolic Z-matrix:
 Charge =  0 Multiplicity = 1

 SCF Done:  E(RHF) =  -239.963904431     A.U. after   12 cycles
 Normal termination of Gaussian 16 at Tue Apr  8 21:11:18 2025.
 Gaussian 16:  ES64L-G16RevC.01  3-Jul-2019

 ----------------------------------------------------------------------
 #t hf aug-cc-pvdz iop(5/13=1,5/36=2,99/5=2) pseudo=read geom=check gue
 ss=(read,tcheck) scf=(maxcycle=1)
 ----------------------------------------------------------------------
 -----
 title
 -----
 Structure from the checkpoint file:  "ANI1ccx_1874_conf4_mol1.chk"
 Charge =  0 Multiplicity = 1

                         Standard orientation:
 ---------------------------------------------------------------------
 Center     Atomic      Atomic             Coordinates (Angstroms)
 Number     Number       Type             X           Y           Z
 ---------------------------------------------------------------------
      1          1           0        0.888822    1.036540    0.601707
      2          1           0        2.311729   -0.793174    0.726844
      3          1           0        0.792240   -1.089010    0.216937
      4          7           0       -2.056941    0.484606    0.103747
      5          7           0       -1.831711   -0.582238   -0.108086
      6          7           0        1.659499   -0.639874   -0.054897
      7          8           0        1.451409    0.751024   -0.141354
 ---------------------------------------------------------------------

 SCF Done:  E(RHF) =  -240.199627979     A.U. after    2 cycles

 The electronic state is 1-A.
 Alpha  occ. eigenvalues --  -20.58113 -15.64060 -15.63954 -15.55160  -1.49843
 Alpha  occ. eigenvalues --   -1.48423  -1.09666  -0.83851  -0.74368  -0.71725
 Alpha  occ. eigenvalues --   -0.69913  -0.67927  -0.67816  -0.59370  -0.49563
 Alpha  occ. eigenvalues --   -0.45667
 Alpha virt. eigenvalues --    0.03693   0.05347   0.06413   0.07828   0.08088
 Alpha virt. eigenvalues --    0.12451   0.13871   0.14361   0.15789   0.16906
 Alpha virt. eigenvalues --    0.18075   0.18818   0.20085   0.20587   0.22108

 Mulliken charges:
               1
     1  H    0.283212
     2  H    0.128306
     3  H    0.064951
     4  N   -0.080160
     5  N    0.049200
     6  N    0.537663
     7  O   -0.983172
 Sum of Mulliken charges =  -0.00000

 Dipole moment (field-independent basis, Debye):
    X=             -1.3698    Y=             -0.4822    Z=              2.7908  Tot=              3.1460

 Test job not archived.
 1\1\GINC-SE028\SP\RHF\Aug-CC-pVDZ\H3N3O1\OHZDE\08-Apr-2025\0\\#t hf au
 g-cc-pvdz iop(5/13=1,5/36=2,99/5=2) pseudo=read geom=check guess=(read
 ,tcheck) scf=(maxcycle=1)\\title\\0,1\H,0,0.888822,1.03654,0.601707\H,
 0,2.31173,-0.793174,0.726844\H,0,0.792241,-1.08901,0.216937\N,0,-2.056
 94,0.484605,0.103747\N,0,-1.83171,-0.582239,-0.108086\N,0,1.6595,-0.63
 9874,-0.0548971\O,0,1.45141,0.751024,-0.141354\\Version=ES64L-G16RevC.
 01\State=1-A\HF=-240.199628\RMSD=3.671e-02\Dipole=-0.5389082,-0.189729
 3,1.097999\Quadrupole=-1.0905061,0.4681466,0.6223596,-0.8049784,3.3531

 Normal termination of Gaussian 16 at Tue Apr  8 21:11:20 2025.
