 Gaussian 16, Revision C.01,

 ----------------------------------------------------------------------
 #t hf aug-cc-pvdz symm=none int=(grid=ultrafine) guess=(read,tcheck) s
 table=(opt,rrhf)
 ----------------------------------------------------------------------
 -----
 title
 -----
 Symbolic Z-matrix:
 Charge =  0 Multiplicity = 1

 SCF Done:  E(RHF) =  -486.384971339     A.U. after   14 cycles
 Normal termination of Gaussian 16 at Tue Apr  8 21:44:59 2025.
 Gaussian 16:  ES64L-G16RevC.01  3-Jul-2019

 ----------------------------------------------------------------------
 #t hf aug-cc-pvdz iop(5/13=1,5/36=2,99/5=2) pseudo=read geom=check gue
 ss=(read,tcheck) scf=(maxcycle=1)
 ----------------------------------------------------------------------
 -----
 title
 -----
 Structure from the checkpoint file:  "ANI1ccx_517_conf1_mol1.chk"
 Charge =  0 Multiplicity = 1

                         Standard orientation:
 ---------------------------------------------------------------------
 Center     Atomic      Atomic             Coordinates (Angstroms)
 Number     Number       Type             X           Y           Z
 ---------------------------------------------------------------------
      1          6           0       -0.698046    0.302485   -0.023956
      2          6           0        0.689841   -0.286541   -0.019633
      3          1           0       -2.889771    0.763029    0.098380
      4          1           0       -1.484552   -1.623600   -0.022040
      5          1           0        1.520449    1.620599    0.027390
      6          1           0        2.866348   -0.774114   -0.068015
      7          7           0       -1.646542   -0.616298   -0.001662
      8          7           0        1.667109    0.623530   -0.033301
      9          8           0       -2.961372   -0.217247    0.041766
     10          8           0       -0.927601    1.508420   -0.030690
     11          8           0        0.903403   -1.496250   -0.023068
     12          8           0        2.972168    0.188552    0.070813
 ---------------------------------------------------------------------

 SCF Done:  E(RHF) =  -486.862741674     A.U. after    2 cycles

 The electronic state is 1-A.
 Alpha  occ. eigenvalues --  -20.62739 -20.62688 -20.55732 -20.55422 -15.61891
 Alpha  occ. eigenvalues --  -15.61714 -11.40504 -11.40251  -1.56336  -1.55651
 Alpha  occ. eigenvalues --   -1.49380  -1.48665  -1.22734  -1.21774  -0.95932
 Alpha  occ. eigenvalues --   -0.91003  -0.86437  -0.76197  -0.74346  -0.71257
 Alpha  occ. eigenvalues --   -0.69523  -0.67962  -0.64272  -0.63747  -0.61497
 Alpha  occ. eigenvalues --   -0.57356  -0.53657  -0.52743  -0.45647  -0.43702
 Alpha  occ. eigenvalues --   -0.42349
 Alpha virt. eigenvalues --    0.03505   0.04858   0.05510   0.05729   0.06710
 Alpha virt. eigenvalues --    0.09945   0.10454   0.11099   0.11291   0.11842
 Alpha virt. eigenvalues --    0.13668   0.15802   0.15885   0.16989   0.17955

 Mulliken charges:
               1
     1  C    0.450424
     2  C    0.502141
     3  H    0.367392
     4  H    0.137615
     5  H    0.117331
     6  H    0.358044
     7  N    1.757093
     8  N    1.710337
     9  O   -1.318684
    10  O   -1.404267
    11  O   -1.407273
    12  O   -1.270153
 Sum of Mulliken charges =  -0.00000

 Dipole moment (field-independent basis, Debye):
    X=             -0.0430    Y=             -0.0616    Z=              0.0105  Tot=              0.0759

 Test job not archived.
 1\1\GINC-SE247\SP\RHF\Aug-CC-pVDZ\C2H4N2O4\OHZDE\08-Apr-2025\0\\#t hf
 aug-cc-pvdz iop(5/13=1,5/36=2,99/5=2) pseudo=read geom=check guess=(re
 ad,tcheck) scf=(maxcycle=1)\\title\\0,1\C,0,-0.698044,0.302485,-0.0239
 559\C,0,0.689843,-0.286541,-0.0196335\H,0,-2.88977,0.763028,0.0983799\
 H,0,-1.48455,-1.6236,-0.02204\H,0,1.52045,1.6206,0.0273902\H,0,2.86635
 ,-0.774113,-0.0680152\N,0,-1.64654,-0.616298,-0.00166234\N,0,1.66711,0
 .623531,-0.0333009\O,0,-2.96137,-0.217248,0.0417664\O,0,-0.9276,1.5084
 2,-0.0306899\O,0,0.903405,-1.49625,-0.0230685\O,0,2.97217,0.188553,0.0

 Normal termination of Gaussian 16 at Tue Apr  8 21:45:05 2025.
