 Gaussian 16, Revision C.01,

 ----------------------------------------------------------------------
 #t hf aug-cc-pvdz symm=none int=(grid=ultrafine) guess=(read,tcheck) s
 table=(opt,rrhf)
 ----------------------------------------------------------------------
 -----
 title
 -----
 Symbolic Z-matrix:
 Charge =  0 Multiplicity = 1

 SCF Done:  E(RHF) =  -380.229632241     A.U. after   11 cycles
 Normal termination of Gaussian 16 at Tue Apr  8 21:03:27 2025.
 Gaussian 16:  ES64L-G16RevC.01  3-Jul-2019

 ----------------------------------------------------------------------
 #t hf aug-cc-pvdz iop(5/13=1,5/36=2,99/5=2) pseudo=read geom=check gue
 ss=(read,tcheck) scf=(maxcycle=1)
 ----------------------------------------------------------------------
 -----
 title
 -----
 Structure from the checkpoint file:  "ANI1ccx_1843_conf21_mol1.chk"
 Charge =  0 Multiplicity = 1

                         Standard orientation:
 ---------------------------------------------------------------------
 Center     Atomic      Atomic             Coordinates (Angstroms)
 Number     Number       Type             X           Y           Z
 ---------------------------------------------------------------------
      1          1           0        1.750849   -0.196864   -0.407628
      2          1           0        2.222519   -0.530738   -1.880930
      3          1           0        0.789085    0.866039    1.009620
      4          1           0        1.846219    0.371143    2.090390
      5          1           0        0.360141    1.297100   -0.843504
      6          1           0       -0.964554    1.391790   -0.081068
      7          1           0       -1.766081   -0.588699    0.121520
      8          1           0       -2.722221    0.118398   -0.912872
      9          1           0       -0.057311   -1.491510    0.967150
     10          1           0        0.048365   -1.544910   -0.557631
     11          8           0        1.456469   -0.273823   -1.328130
     12          8           0        1.308879    0.067702    1.351760
     13          8           0       -0.062375    1.802330   -0.125405
     14          8           0       -2.346411    0.215581   -0.017160
     15          8           0       -0.544938   -1.773260    0.180806
 ---------------------------------------------------------------------

 SCF Done:  E(RHF) =  -380.625323520     A.U. after    2 cycles

 The electronic state is 1-A.
 Alpha  occ. eigenvalues --  -20.57798 -20.56665 -20.55590 -20.54310 -20.54271
 Alpha  occ. eigenvalues --   -1.46766  -1.44578  -1.44216  -1.42590  -1.40985
 Alpha  occ. eigenvalues --   -0.75978  -0.72063  -0.70691  -0.70065  -0.69216
 Alpha  occ. eigenvalues --   -0.61981  -0.60734  -0.58483  -0.57820  -0.55201
 Alpha  occ. eigenvalues --   -0.51776  -0.51113  -0.49247  -0.48332  -0.47704
 Alpha virt. eigenvalues --    0.02869   0.03920   0.05052   0.06547   0.07767
 Alpha virt. eigenvalues --    0.08081   0.08630   0.09007   0.09377   0.11521
 Alpha virt. eigenvalues --    0.16383   0.18827   0.19606   0.20241   0.21707

 Mulliken charges:
               1
     1  H    0.678456
     2  H    0.426333
     3  H    0.703292
     4  H    0.447694
     5  H    0.559217
     6  H    0.616688
     7  H    0.732623
     8  H    0.375753
     9  H    0.577265
    10  H    0.590261
    11  O   -1.002986
    12  O   -1.193786
    13  O   -1.235003
    14  O   -1.008021
    15  O   -1.267785
 Sum of Mulliken charges =   0.00000

 Dipole moment (field-independent basis, Debye):
    X=              3.3499    Y=             -0.8358    Z=             -0.9832  Tot=              3.5899

 Test job not archived.
 1\1\GINC-SE038\SP\RHF\Aug-CC-pVDZ\H10O5\OHZDE\08-Apr-2025\0\\#t hf aug
 -cc-pvdz iop(5/13=1,5/36=2,99/5=2) pseudo=read geom=check guess=(read,
 tcheck) scf=(maxcycle=1)\\title\\0,1\H,0,1.75085,-0.196863,-0.407628\H
 ,0,2.22252,-0.530737,-1.88093\H,0,0.789086,0.866039,1.00962\H,0,1.8462
 2,0.371144,2.09039\H,0,0.360142,1.2971,-0.843504\H,0,-0.964554,1.39179
 ,-0.0810677\H,0,-1.76608,-0.5887,0.12152\H,0,-2.72222,0.118397,-0.9128
 72\H,0,-0.0573097,-1.49151,0.96715\H,0,0.0483664,-1.54491,-0.557631\O,
 0,1.45647,-0.273822,-1.32813\O,0,1.30888,0.067703,1.35176\O,0,-0.06237

 Normal termination of Gaussian 16 at Tue Apr  8 21:03:31 2025.
