 Gaussian 16, Revision C.01,

 ----------------------------------------------------------------------
 #t hf aug-cc-pvdz symm=none int=(grid=ultrafine) guess=(read,tcheck) s
 table=(opt,rrhf)
 ----------------------------------------------------------------------
 -----
 title
 -----
 Symbolic Z-matrix:
 Charge =  0 Multiplicity = 1

 SCF Done:  E(RHF) =  -965.954696926     A.U. after   15 cycles
 Normal termination of Gaussian 16 at Tue Apr  8 22:03:48 2025.
 Gaussian 16:  ES64L-G16RevC.01  3-Jul-2019

 ----------------------------------------------------------------------
 #t hf aug-cc-pvdz iop(5/13=1,5/36=2,99/5=2) pseudo=read geom=check gue
 ss=(read,tcheck) scf=(maxcycle=1)
 ----------------------------------------------------------------------
 -----
 title
 -----
 Structure from the checkpoint file:  "ANI1ccx_291_conf1_mol1.chk"
 Charge =  0 Multiplicity = 1

                         Standard orientation:
 ---------------------------------------------------------------------
 Center     Atomic      Atomic             Coordinates (Angstroms)
 Number     Number       Type             X           Y           Z
 ---------------------------------------------------------------------
      1          6           0        1.838400    1.627290   -0.237400
      2          6           0       -4.741280    1.479920   -0.394857
      3          6           0       -4.196700    0.128607   -0.824954
      4          6           0       -2.687460    0.106159   -1.170120
      5          6           0       -1.464270   -0.887365    0.874568
      6          6           0       -1.731970    0.385137   -0.001082
      7          6           0       -4.605160   -0.946375    0.202450
      8          6           0        4.058280   -0.955263   -0.075474
      9          6           0        4.166230    0.555385    0.101039
     10          6           0        2.936460    1.195150    0.760282
     11          6           0        0.457494    1.404500    0.349318
     12          6           0        1.784800   -1.785570   -0.698445
     13          1           0       -2.468650    0.873965   -1.926360
     14          1           0       -2.428670   -0.836340   -1.650500
     15          1           0       -4.708500   -0.146351   -1.769570
     16          1           0       -4.336550    1.687820    0.604054
     17          1           0       -5.838940    1.463790   -0.351588
     18          1           0       -4.257390   -0.734222    1.229840
     19          1           0       -4.246620   -1.975490   -0.032238
     20          1           0       -5.701440   -1.065440    0.252280
     21          1           0       -0.848703    0.376491    2.168170
     22          1           0       -2.121130    1.154730    0.688763
     23          1           0       -4.436100    2.278530   -1.079330
     24          1           0        0.010513    0.190322   -1.200460
     25          1           0       -0.068056   -1.961730   -1.140660
     26          1           0        2.340470   -3.038030    0.773819
     27          1           0        2.932150    3.144240   -1.057100
     28          1           0        1.326440    3.269940   -1.279150
     29          1           0        0.740903   -2.838940    0.688591
     30          1           0        2.484580    0.435588    1.427830
     31          1           0        3.203220    2.037350    1.410710
     32          1           0        1.886620    0.987331   -1.172900
     33          1           0        4.298420    1.035200   -0.881489
     34          1           0        3.878430   -1.383540    0.924475
     35          1           0        5.018930   -1.277250   -0.508266
     36          1           0        3.193230   -0.879866   -1.839320
     37          1           0        5.050720    0.775606    0.707210
     38          7           0        2.038230    3.019970   -0.595158
     39          7           0        3.049410   -1.373600   -0.955407
     40          7           0        0.820351   -1.562420   -1.493040
     41          7           0        1.626280   -2.341810    0.553094
     42          7           0       -0.423444    0.774764   -0.488813
     43          8           0       -1.449250   -2.010640    0.441655
     44          8           0        0.107282    1.696670    1.492280
     45          8           0       -1.104110   -0.565715    2.135630
 ---------------------------------------------------------------------

 SCF Done:  E(RHF) =  -966.954009956     A.U. after    2 cycles

 The electronic state is 1-A.
 Alpha  occ. eigenvalues --  -20.57528 -20.53568 -20.52564 -15.53011 -15.51970
 Alpha  occ. eigenvalues --  -15.51724 -15.50358 -15.45164 -11.39035 -11.36825
 Alpha  occ. eigenvalues --  -11.35098 -11.29538 -11.28803 -11.27993 -11.24606
 Alpha  occ. eigenvalues --  -11.24256 -11.23949 -11.23933 -11.22677 -11.22457
 Alpha  occ. eigenvalues --   -1.53087  -1.47539  -1.45012  -1.31667  -1.25751
 Alpha  occ. eigenvalues --   -1.21449  -1.20516  -1.15174  -1.10100  -1.07373
 Alpha  occ. eigenvalues --   -1.03056  -0.99133  -0.93157  -0.92747  -0.90216
 Alpha  occ. eigenvalues --   -0.86149  -0.83886  -0.81533  -0.81173  -0.77299
 Alpha  occ. eigenvalues --   -0.75628  -0.75070  -0.73021  -0.72679  -0.70703
 Alpha  occ. eigenvalues --   -0.68955  -0.68657  -0.67611  -0.66503  -0.65051
 Alpha  occ. eigenvalues --   -0.64096  -0.63060  -0.62847  -0.60980  -0.60499
 Alpha  occ. eigenvalues --   -0.59833  -0.59412  -0.58025  -0.57377  -0.56966
 Alpha  occ. eigenvalues --   -0.55151  -0.54350  -0.53407  -0.52600  -0.51438
 Alpha  occ. eigenvalues --   -0.50935  -0.49834  -0.48616  -0.48020  -0.47376
 Alpha  occ. eigenvalues --   -0.47217  -0.46506  -0.45613  -0.45029  -0.44586
 Alpha  occ. eigenvalues --   -0.42915  -0.40987  -0.39444
 Alpha virt. eigenvalues --    0.02673   0.03013   0.03283   0.03487   0.03716
 Alpha virt. eigenvalues --    0.04106   0.04468   0.05411   0.05934   0.05986
 Alpha virt. eigenvalues --    0.06471   0.07010   0.07262   0.07546   0.08202

 Mulliken charges:
               1
     1  C   -0.857401
     2  C   -0.131327
     3  C   -1.003904
     4  C    0.666107
     5  C    2.912479
     6  C   -3.221023
     7  C   -0.049354
     8  C   -0.775478
     9  C   -0.221939
    10  C    0.072601
    11  C    0.338438
    12  C   -4.520181
    13  H    0.144391
    14  H    0.105265
    15  H    0.209761
    16  H    0.297978
    17  H    0.144966
    18  H    0.251780
    19  H    0.193239
    20  H    0.028375
    21  H    0.610988
    22  H   -0.242891
    23  H    0.168766
    24  H    0.263841
    25  H    0.128178
    26  H    0.190144
    27  H    0.150516
    28  H    0.181032
    29  H    0.180161
    30  H    0.253154
    31  H    0.106783
    32  H    0.226682
    33  H    0.115987
    34  H    0.198048
    35  H    0.067586
    36  H    0.422135
    37  H    0.103964
    38  N    0.654791
    39  N    1.611559
    40  N    1.309953
    41  N    0.939012
    42  N    2.446272
    43  O   -1.527065
    44  O   -1.604124
    45  O   -1.540246
 Sum of Mulliken charges =  -0.00000

 Dipole moment (field-independent basis, Debye):
    X=              3.0047    Y=              0.2271    Z=             -2.1436  Tot=              3.6979

 Test job not archived.
 1\1\GINC-SE184\SP\RHF\Aug-CC-pVDZ\C12H25N5O3\OHZDE\08-Apr-2025\0\\#t h
 f aug-cc-pvdz iop(5/13=1,5/36=2,99/5=2) pseudo=read geom=check guess=(
 read,tcheck) scf=(maxcycle=1)\\title\\0,1\C,0,1.8384,1.62729,-0.2374\C
 ,0,-4.74128,1.47992,-0.394857\C,0,-4.1967,0.128607,-0.824954\C,0,-2.68
 746,0.106159,-1.17012\C,0,-1.46427,-0.887365,0.874568\C,0,-1.73197,0.3
 85137,-0.00108158\C,0,-4.60516,-0.946375,0.20245\C,0,4.05828,-0.955263
 ,-0.0754742\C,0,4.16623,0.555385,0.101039\C,0,2.93646,1.19515,0.760282
 \C,0,0.457494,1.4045,0.349318\C,0,1.7848,-1.78557,-0.698445\H,0,-2.468

 Normal termination of Gaussian 16 at Tue Apr  8 22:05:36 2025.
