 Gaussian 16, Revision C.01,

 ----------------------------------------------------------------------
 #t hf aug-cc-pvdz symm=none int=(grid=ultrafine) guess=(read,tcheck) s
 table=(opt,rrhf)
 ----------------------------------------------------------------------
 -----
 title
 -----
 Symbolic Z-matrix:
 Charge =  0 Multiplicity = 1

 SCF Done:  E(RHF) =  -914.438656245     A.U. after   16 cycles
 Normal termination of Gaussian 16 at Tue Apr  8 21:44:43 2025.
 Gaussian 16:  ES64L-G16RevC.01  3-Jul-2019

 ----------------------------------------------------------------------
 #t hf aug-cc-pvdz iop(5/13=1,5/36=2,99/5=2) pseudo=read geom=check gue
 ss=(read,tcheck) scf=(maxcycle=1)
 ----------------------------------------------------------------------
 -----
 title
 -----
 Structure from the checkpoint file:  "ANI1ccx_365_conf1_mol2.chk"
 Charge =  0 Multiplicity = 1

                         Standard orientation:
 ---------------------------------------------------------------------
 Center     Atomic      Atomic             Coordinates (Angstroms)
 Number     Number       Type             X           Y           Z
 ---------------------------------------------------------------------
      1          6           0       -1.847570   -0.767944    0.633351
      2          6           0        1.444180    3.394270    0.276474
      3          6           0        2.692100    2.815250    0.390294
      4          6           0        2.892280    1.589620   -0.232415
      5          6           0        0.678386    1.634290   -1.129040
      6          6           0        1.861100    0.966443   -0.926974
      7          6           0        2.020610   -0.492638   -1.423860
      8          6           0        0.443427    2.887020   -0.526413
      9          6           0        1.686500   -1.583240   -0.363213
     10          6           0       -5.135530    1.120871    0.012758
     11          6           0       -4.033710    0.471142    0.889308
     12          6           0       -3.929350   -1.702529   -0.508103
     13          6           0       -3.175900   -0.415881   -0.020027
     14          6           0       -0.747986   -1.242850   -0.308951
     15          6           0        2.804400   -1.695910    0.687030
     16          1           0        1.478640   -2.501180   -0.958160
     17          1           0        1.392020   -0.656559   -2.316510
     18          1           0        3.025060   -0.688649   -1.788610
     19          1           0       -0.111692    1.117930   -1.617520
     20          1           0        1.223921    4.298310    0.781362
     21          1           0       -0.465539    3.422450   -0.717609
     22          1           0        3.543600    3.204270    0.868096
     23          1           0        4.522030   -2.300331    0.888648
     24          1           0        0.481682   -0.895743    1.176750
     25          1           0        3.798710    1.020590   -0.155864
     26          1           0       -5.822750    1.687191    0.585976
     27          1           0       -4.072080   -2.345529    0.346515
     28          1           0       -5.699790    0.347816   -0.530612
     29          1           0       -3.353270    1.218141    1.281520
     30          1           0       -4.519310   -0.070680    1.700360
     31          1           0       -4.913760   -1.656659   -1.018980
     32          1           0       -3.257580   -2.127439   -1.180370
     33          1           0       -3.002980    0.128473   -0.960118
     34          1           0       -1.964600   -1.604710    1.382320
     35          1           0       -1.899430    0.670003    2.145160
     36          1           0       -1.353830    1.225340    0.732524
     37          1           0       -4.691850    1.772411   -0.735398
     38          7           0       -1.338100    0.423487    1.360460
     39          7           0        0.452430   -1.352840    0.315429
     40          8           0        2.803360   -1.192970    1.763640
     41          8           0       -0.932402   -1.568070   -1.477650
     42          8           0        3.872150   -2.317390    0.171265
 ---------------------------------------------------------------------

 SCF Done:  E(RHF) =  -915.380956429     A.U. after    2 cycles

 The electronic state is 1-A.
 Alpha  occ. eigenvalues --  -20.61418 -20.55510 -20.51246 -15.51352 -15.49221
 Alpha  occ. eigenvalues --  -11.40630 -11.35479 -11.30115 -11.28234 -11.24943
 Alpha  occ. eigenvalues --  -11.24401 -11.24355 -11.24012 -11.23879 -11.23777
 Alpha  occ. eigenvalues --  -11.23603 -11.23598 -11.22776 -11.22035 -11.20932
 Alpha  occ. eigenvalues --   -1.57333  -1.47700  -1.45667  -1.26193  -1.20179
 Alpha  occ. eigenvalues --   -1.16411  -1.07936  -1.07527  -1.02404  -1.02130
 Alpha  occ. eigenvalues --   -0.99599  -0.94129  -0.91702  -0.88425  -0.84771
 Alpha  occ. eigenvalues --   -0.84156  -0.82845  -0.80425  -0.78244  -0.74123
 Alpha  occ. eigenvalues --   -0.73008  -0.71725  -0.70527  -0.68083  -0.67234
 Alpha  occ. eigenvalues --   -0.66394  -0.65556  -0.64509  -0.64052  -0.63957
 Alpha  occ. eigenvalues --   -0.62065  -0.61278  -0.60706  -0.60279  -0.59441
 Alpha  occ. eigenvalues --   -0.56814  -0.56289  -0.55623  -0.54790  -0.53737
 Alpha  occ. eigenvalues --   -0.52675  -0.51514  -0.50794  -0.50304  -0.49368
 Alpha  occ. eigenvalues --   -0.48939  -0.48108  -0.47719  -0.45911  -0.45646
 Alpha  occ. eigenvalues --   -0.44560  -0.41679  -0.41233  -0.34629  -0.34352
 Alpha virt. eigenvalues --    0.02786   0.03091   0.03302   0.03519   0.03929
 Alpha virt. eigenvalues --    0.04355   0.04569   0.04944   0.05637   0.05975
 Alpha virt. eigenvalues --    0.06566   0.06948   0.07761   0.08221   0.08504

 Mulliken charges:
               1
     1  C   -0.818502
     2  C    0.531297
     3  C    0.182732
     4  C    0.306474
     5  C    0.729936
     6  C    0.706564
     7  C   -0.409894
     8  C   -0.360684
     9  C   -2.135006
    10  C   -0.285435
    11  C    0.209190
    12  C   -0.057282
    13  C   -0.822080
    14  C    0.075856
    15  C    3.250648
    16  H    0.057268
    17  H    0.162397
    18  H    0.001945
    19  H   -0.393527
    20  H   -0.295637
    21  H   -0.292751
    22  H   -0.328451
    23  H    0.401701
    24  H    0.170091
    25  H   -0.407229
    26  H    0.021053
    27  H    0.194569
    28  H    0.185219
    29  H    0.070094
    30  H    0.072120
    31  H    0.108016
    32  H    0.029117
    33  H    0.093379
    34  H    0.200448
    35  H    0.303462
    36  H    0.253697
    37  H    0.184070
    38  N    0.144617
    39  N    2.393780
    40  O   -1.365409
    41  O   -1.619732
    42  O   -1.448120
 Sum of Mulliken charges =  -0.00000

 Dipole moment (field-independent basis, Debye):
    X=              0.1484    Y=              0.9208    Z=              1.3634  Tot=              1.6519

 Test job not archived.
 1\1\GINC-SE187\SP\RHF\Aug-CC-pVDZ\C15H22N2O3\OHZDE\08-Apr-2025\0\\#t h
 f aug-cc-pvdz iop(5/13=1,5/36=2,99/5=2) pseudo=read geom=check guess=(
 read,tcheck) scf=(maxcycle=1)\\title\\0,1\C,0,-1.84757,-0.767944,0.633
 351\C,0,1.44418,3.39427,0.276474\C,0,2.6921,2.81525,0.390294\C,0,2.892
 28,1.58962,-0.232415\C,0,0.678386,1.63429,-1.12904\C,0,1.8611,0.966443
 ,-0.926974\C,0,2.02061,-0.492638,-1.42386\C,0,0.443427,2.88702,-0.5264
 13\C,0,1.6865,-1.58324,-0.363213\C,0,-5.13553,1.12087,0.0127583\C,0,-4
 .03371,0.471141,0.889308\C,0,-3.92935,-1.70253,-0.508103\C,0,-3.1759,-

 Normal termination of Gaussian 16 at Tue Apr  8 21:46:24 2025.
