 Gaussian 16, Revision C.01,

 ----------------------------------------------------------------------
 #t hf aug-cc-pvdz symm=none int=(grid=ultrafine) guess=(read,tcheck) s
 table=(opt,rrhf)
 ----------------------------------------------------------------------
 -----
 title
 -----
 Symbolic Z-matrix:
 Charge =  0 Multiplicity = 1

 SCF Done:  E(RHF) =  -907.718437759     A.U. after   14 cycles
 Normal termination of Gaussian 16 at Tue Apr  8 22:30:12 2025.
 Gaussian 16:  ES64L-G16RevC.01  3-Jul-2019

 ----------------------------------------------------------------------
 #t hf aug-cc-pvdz iop(5/13=1,5/36=2,99/5=2) pseudo=read geom=check gue
 ss=(read,tcheck) scf=(maxcycle=1)
 ----------------------------------------------------------------------
 -----
 title
 -----
 Structure from the checkpoint file:  "ANI1ccx_88_conf1_mol1.chk"
 Charge =  0 Multiplicity = 1

                         Standard orientation:
 ---------------------------------------------------------------------
 Center     Atomic      Atomic             Coordinates (Angstroms)
 Number     Number       Type             X           Y           Z
 ---------------------------------------------------------------------
      1          6           0       -1.751620    1.937659   -0.316071
      2          6           0        2.502500    0.648350   -0.365505
      3          6           0        1.142631   -0.982660    1.020360
      4          6           0        1.293221   -0.267092   -0.307080
      5          6           0       -3.337949   -2.021351   -0.450125
      6          6           0        3.816371   -0.056409   -0.649856
      7          6           0       -2.984499    0.098029    1.011810
      8          6           0       -2.778130    1.586559    0.752823
      9          6           0       -0.360261    1.428520    0.111951
     10          6           0       -3.988359   -0.675097    0.040321
     11          1           0       -2.311209   -1.540731   -2.108890
     12          1           0        2.085461   -1.486679    2.474040
     13          1           0        4.938980    1.451061    0.236670
     14          1           0        5.810931    0.148022   -0.365587
     15          1           0        2.494400    1.344871   -1.186570
     16          1           0        2.579340    1.296961    0.529339
     17          1           0        1.428501   -1.049410   -1.067210
     18          1           0       -0.486239   -0.079122   -1.270100
     19          1           0       -1.576948   -2.736621   -1.249810
     20          1           0       -4.019289   -2.598241   -1.078180
     21          1           0       -4.195439   -0.092646   -0.859394
     22          1           0       -2.343439    0.442026   -1.720220
     23          1           0       -4.949089   -0.848471    0.566292
     24          1           0       -1.955649   -0.327194    1.010100
     25          1           0       -3.310549   -0.068197    2.026000
     26          1           0       -2.486330    2.114299    1.647710
     27          1           0       -3.707690    2.114509    0.475153
     28          1           0       -1.645250    3.014879   -0.307732
     29          1           0       -2.851070    1.886569   -1.976050
     30          1           0       -3.196059   -2.648191    0.410653
     31          7           0       -2.045940    1.417789   -1.621430
     32          7           0       -2.097279   -1.878861   -1.193010
     33          7           0        0.080496    0.406160   -0.601820
     34          7           0        4.930730    0.612589   -0.255958
     35          8           0        0.196798   -1.580370    1.522210
     36          8           0        3.857281   -1.139879   -1.287090
     37          8           0        0.211764    1.833700    1.102220
     38          8           0        2.271301   -0.916012    1.716110
 ---------------------------------------------------------------------

 SCF Done:  E(RHF) =  -908.649886554     A.U. after    2 cycles

 The electronic state is 1-A.
 Alpha  occ. eigenvalues --  -20.59417 -20.52973 -20.50727 -20.49980 -15.52987
 Alpha  occ. eigenvalues --  -15.51573 -15.49326 -15.49060 -11.39135 -11.36697
 Alpha  occ. eigenvalues --  -11.34092 -11.29785 -11.26921 -11.26031 -11.25156
 Alpha  occ. eigenvalues --  -11.24205 -11.22452 -11.22197  -1.55702  -1.45905
 Alpha  occ. eigenvalues --   -1.43328  -1.43142  -1.26915  -1.23259  -1.20623
 Alpha  occ. eigenvalues --   -1.19520  -1.08004  -1.06046  -1.00090  -0.97066
 Alpha  occ. eigenvalues --   -0.92584  -0.87558  -0.84741  -0.83954  -0.80463
 Alpha  occ. eigenvalues --   -0.79963  -0.76196  -0.74756  -0.71957  -0.71560
 Alpha  occ. eigenvalues --   -0.69932  -0.69157  -0.68499  -0.66554  -0.65405
 Alpha  occ. eigenvalues --   -0.63619  -0.62783  -0.62211  -0.61437  -0.60832
 Alpha  occ. eigenvalues --   -0.59722  -0.58764  -0.58467  -0.57045  -0.55954
 Alpha  occ. eigenvalues --   -0.54466  -0.53239  -0.52620  -0.51247  -0.49819
 Alpha  occ. eigenvalues --   -0.48291  -0.47239  -0.45959  -0.44542  -0.43632
 Alpha  occ. eigenvalues --   -0.43122  -0.42784  -0.42063  -0.41313  -0.39931
 Alpha virt. eigenvalues --    0.02895   0.03090   0.03309   0.03623   0.04362
 Alpha virt. eigenvalues --    0.04547   0.04941   0.05197   0.05488   0.06374
 Alpha virt. eigenvalues --    0.06574   0.07603   0.07948   0.08522   0.08905

 Mulliken charges:
               1
     1  C   -2.152764
     2  C   -0.261627
     3  C    3.050868
     4  C   -2.636870
     5  C   -0.467752
     6  C    0.370109
     7  C    0.067879
     8  C    0.111166
     9  C    1.522341
    10  C   -0.315320
    11  H    0.194407
    12  H    0.387690
    13  H   -0.032324
    14  H    0.100662
    15  H    0.198109
    16  H    0.231295
    17  H    0.096521
    18  H    0.455921
    19  H    0.151834
    20  H    0.069797
    21  H    0.068062
    22  H   -0.016458
    23  H    0.115176
    24  H    0.078276
    25  H    0.079918
    26  H    0.121211
    27  H    0.118282
    28  H    0.135392
    29  H    0.289637
    30  H   -0.015766
    31  N    1.260808
    32  N    0.019602
    33  N    1.580589
    34  N    0.937234
    35  O   -1.429467
    36  O   -1.443076
    37  O   -1.674534
    38  O   -1.366825
 Sum of Mulliken charges =  -0.00000

 Dipole moment (field-independent basis, Debye):
    X=             -1.7823    Y=              0.7587    Z=             -0.9731  Tot=              2.1677

 Test job not archived.
 1\1\GINC-SE331\SP\RHF\Aug-CC-pVDZ\C10H20N4O4\OHZDE\08-Apr-2025\0\\#t h
 f aug-cc-pvdz iop(5/13=1,5/36=2,99/5=2) pseudo=read geom=check guess=(
 read,tcheck) scf=(maxcycle=1)\\title\\0,1\C,0,-1.75162,1.93766,-0.3160
 71\C,0,2.5025,0.648349,-0.365505\C,0,1.14263,-0.98266,1.02036\C,0,1.29
 322,-0.267092,-0.30708\C,0,-3.33795,-2.02135,-0.450125\C,0,3.81637,-0.
 05641,-0.649856\C,0,-2.9845,0.0980296,1.01181\C,0,-2.77813,1.58656,0.7
 52823\C,0,-0.360261,1.42852,0.111951\C,0,-3.98836,-0.675096,0.0403219\
 H,0,-2.31121,-1.54073,-2.10889\H,0,2.08546,-1.48668,2.47404\H,0,4.9389

 Normal termination of Gaussian 16 at Tue Apr  8 22:31:17 2025.
