 Gaussian 16, Revision C.01,

 ----------------------------------------------------------------------
 #t hf aug-cc-pvdz symm=none int=(grid=ultrafine) guess=(read,tcheck) s
 table=(opt,rrhf)
 ----------------------------------------------------------------------
 -----
 title
 -----
 Symbolic Z-matrix:
 Charge =  0 Multiplicity = 1

 SCF Done:  E(RHF) =  -833.410707901     A.U. after   14 cycles
 Normal termination of Gaussian 16 at Tue Apr  8 20:58:49 2025.
 Gaussian 16:  ES64L-G16RevC.01  3-Jul-2019

 ----------------------------------------------------------------------
 #t hf aug-cc-pvdz iop(5/13=1,5/36=2,99/5=2) pseudo=read geom=check gue
 ss=(read,tcheck) scf=(maxcycle=1)
 ----------------------------------------------------------------------
 -----
 title
 -----
 Structure from the checkpoint file:  "ANI1ccx_1760_conf52_mol1.chk"
 Charge =  0 Multiplicity = 1

                         Standard orientation:
 ---------------------------------------------------------------------
 Center     Atomic      Atomic             Coordinates (Angstroms)
 Number     Number       Type             X           Y           Z
 ---------------------------------------------------------------------
      1          6           0        1.756989    0.962858   -0.860793
      2          6           0       -1.905818   -1.956142    0.662803
      3          6           0       -2.045979   -1.156162   -0.649103
      4          6           0       -2.165801    1.010458    0.773641
      5          6           0       -3.476438   -1.547243   -1.129480
      6          6           0        3.164631   -0.973104    0.364137
      7          6           0        2.921260    0.545492    0.088114
      8          6           0        0.470058    0.321352   -0.429591
      9          6           0       -1.829390    0.400220   -0.631074
     10          1           0       -0.902984   -2.097951    1.020130
     11          1           0       -1.397112    2.224718    2.033620
     12          1           0       -3.839069   -1.075094   -2.114620
     13          1           0       -4.021669   -0.957941   -0.388643
     14          1           0       -3.696348   -2.575274   -1.058430
     15          1           0       -2.318699   -1.380912    1.519590
     16          1           0       -2.552817   -2.935423    0.674231
     17          1           0       -1.327908   -1.641991   -1.349910
     18          1           0       -0.593615    1.609469   -1.599200
     19          1           0        2.323201   -1.349108   -1.241900
     20          1           0        3.904119    1.045793   -0.153519
     21          1           0        2.786989    1.092412    1.049820
     22          1           0        1.953410    0.757612   -1.962180
     23          1           0        1.518408    2.864371   -0.004983
     24          1           0        2.261738    2.791402   -1.429980
     25          1           0       -2.688471    0.843938   -1.192900
     26          7           0        1.456438    2.399181   -0.925710
     27          7           0       -0.648391    0.712757   -1.129090
     28          8           0       -3.004540    0.623622    1.548540
     29          8           0        0.420988   -0.537421    0.482339
     30          8           0        3.880221   -1.152927    1.352380
     31          8           0        2.794922   -1.837098   -0.533349
     32          8           0       -1.391912    2.073078    1.081410
 ---------------------------------------------------------------------

 SCF Done:  E(RHF) =  -834.252676129     A.U. after    2 cycles

 The electronic state is 1-A.
 Alpha  occ. eigenvalues --  -20.62459 -20.60686 -20.54670 -20.54259 -20.52346
 Alpha  occ. eigenvalues --  -15.54847 -15.54284 -11.40510 -11.40188 -11.39056
 Alpha  occ. eigenvalues --  -11.32742 -11.30697 -11.28265 -11.24713 -11.22230
 Alpha  occ. eigenvalues --  -11.20143  -1.56809  -1.55834  -1.47839  -1.45783
 Alpha  occ. eigenvalues --   -1.44042  -1.31136  -1.24046  -1.08934  -1.05380
 Alpha  occ. eigenvalues --   -1.00794  -0.94123  -0.90765  -0.87420  -0.85621
 Alpha  occ. eigenvalues --   -0.85063  -0.78894  -0.77666  -0.76071  -0.75046
 Alpha  occ. eigenvalues --   -0.71407  -0.70426  -0.68195  -0.67551  -0.65865
 Alpha  occ. eigenvalues --   -0.64834  -0.64515  -0.61941  -0.61249  -0.60504
 Alpha  occ. eigenvalues --   -0.59739  -0.58157  -0.56568  -0.56258  -0.53945
 Alpha  occ. eigenvalues --   -0.53507  -0.52164  -0.50937  -0.49617  -0.48141
 Alpha  occ. eigenvalues --   -0.47019  -0.46401  -0.45981  -0.44904  -0.44122
 Alpha  occ. eigenvalues --   -0.42271  -0.41584
 Alpha virt. eigenvalues --    0.01354   0.02707   0.03006   0.03516   0.04062
 Alpha virt. eigenvalues --    0.04426   0.05119   0.05350   0.05958   0.07234
 Alpha virt. eigenvalues --    0.07543   0.08105   0.08456   0.08588   0.09470

 Mulliken charges:
               1
     1  C   -1.892666
     2  C   -0.234352
     3  C    0.057864
     4  C    2.773707
     5  C   -0.275687
     6  C    2.194127
     7  C   -0.122904
     8  C    0.736614
     9  C   -2.700841
    10  H    0.128304
    11  H    0.361633
    12  H    0.206943
    13  H    0.321981
    14  H   -0.039801
    15  H    0.096678
    16  H    0.275474
    17  H    0.083850
    18  H    0.478182
    19  H    0.455956
    20  H    0.271777
    21  H    0.207964
    22  H    0.178126
    23  H    0.316389
    24  H    0.371630
    25  H    0.209885
    26  N    0.451750
    27  N    1.877410
    28  O   -1.389216
    29  O   -1.401887
    30  O   -1.299455
    31  O   -1.242536
    32  O   -1.456899
 Sum of Mulliken charges =  -0.00000

 Dipole moment (field-independent basis, Debye):
    X=              0.5574    Y=              5.7168    Z=             -5.0268  Tot=              7.6329

 Test job not archived.
 1\1\GINC-SE232\SP\RHF\Aug-CC-pVDZ\C9H16N2O5\OHZDE\08-Apr-2025\0\\#t hf
  aug-cc-pvdz iop(5/13=1,5/36=2,99/5=2) pseudo=read geom=check guess=(r
 ead,tcheck) scf=(maxcycle=1)\\title\\0,1\C,0,1.75699,0.962857,-0.86079
 3\C,0,-1.90582,-1.95614,0.662803\C,0,-2.04598,-1.15616,-0.649103\C,0,-
 2.1658,1.01046,0.773641\C,0,-3.47644,-1.54724,-1.12948\C,0,3.16463,-0.
 973107,0.364137\C,0,2.92126,0.54549,0.0881137\C,0,0.470058,0.321352,-0
 .429591\C,0,-1.82939,0.400222,-0.631074\H,0,-0.902986,-2.09795,1.02013
 \H,0,-1.39711,2.22472,2.03362\H,0,-3.83907,-1.07509,-2.11462\H,0,-4.02

 Normal termination of Gaussian 16 at Tue Apr  8 20:59:34 2025.
