 Gaussian 16, Revision C.01,

 ----------------------------------------------------------------------
 #t hf aug-cc-pvdz symm=none int=(grid=ultrafine) guess=(read,tcheck) s
 table=(opt,rrhf)
 ----------------------------------------------------------------------
 -----
 title
 -----
 Symbolic Z-matrix:
 Charge =  0 Multiplicity = 1

 SCF Done:  E(RHF) =  -468.181345595     A.U. after   15 cycles
 Normal termination of Gaussian 16 at Tue Apr  8 21:48:41 2025.
 Gaussian 16:  ES64L-G16RevC.01  3-Jul-2019

 ----------------------------------------------------------------------
 #t hf aug-cc-pvdz iop(5/13=1,5/36=2,99/5=2) pseudo=read geom=check gue
 ss=(read,tcheck) scf=(maxcycle=1)
 ----------------------------------------------------------------------
 -----
 title
 -----
 Structure from the checkpoint file:  "ANI1ccx_646_conf3_mol2.chk"
 Charge =  0 Multiplicity = 1

                         Standard orientation:
 ---------------------------------------------------------------------
 Center     Atomic      Atomic             Coordinates (Angstroms)
 Number     Number       Type             X           Y           Z
 ---------------------------------------------------------------------
      1          6           0        1.356551    0.015477    0.013006
      2          6           0       -0.803622    0.748061    0.003684
      3          6           0       -0.754816   -0.782833    0.023242
      4          1           0        0.813296    2.022200    0.063713
      5          7           0        0.505494    1.071050    0.173215
      6          8           0        2.552121    0.010154   -0.130179
      7          8           0       -1.800449    1.429572   -0.094003
      8          8           0       -1.720420   -1.466269   -0.027014
      9          8           0        0.576195   -1.148930    0.061721
 ---------------------------------------------------------------------

 SCF Done:  E(RHF) =  -468.628318417     A.U. after    2 cycles

 The electronic state is 1-A.
 Alpha  occ. eigenvalues --  -20.67872 -20.61168 -20.60151 -20.59922 -15.62705
 Alpha  occ. eigenvalues --  -11.49472 -11.45655 -11.44104  -1.63960  -1.55638
 Alpha  occ. eigenvalues --   -1.53353  -1.51943  -1.35833  -1.03728  -0.97159
 Alpha  occ. eigenvalues --   -0.91788  -0.81336  -0.76721  -0.73283  -0.72362
 Alpha  occ. eigenvalues --   -0.70271  -0.67083  -0.64628  -0.61991  -0.56686
 Alpha  occ. eigenvalues --   -0.52490  -0.51554  -0.50510  -0.48066
 Alpha virt. eigenvalues --    0.02362   0.02728   0.06738   0.07550   0.08020
 Alpha virt. eigenvalues --    0.09010   0.09567   0.10163   0.10375   0.10993
 Alpha virt. eigenvalues --    0.13624   0.14259   0.14366   0.15499   0.18314

 Mulliken charges:
               1
     1  C    1.339144
     2  C    0.492754
     3  C    2.026383
     4  H    0.139402
     5  N    0.664450
     6  O   -1.083335
     7  O   -1.166616
     8  O   -1.121707
     9  O   -1.290475
 Sum of Mulliken charges =  -0.00000

 Dipole moment (field-independent basis, Debye):
    X=              1.2874    Y=              2.2120    Z=              0.2554  Tot=              2.5721

 Test job not archived.
 1\1\GINC-SE044\SP\RHF\Aug-CC-pVDZ\C3H1N1O4\OHZDE\08-Apr-2025\0\\#t hf
 aug-cc-pvdz iop(5/13=1,5/36=2,99/5=2) pseudo=read geom=check guess=(re
 ad,tcheck) scf=(maxcycle=1)\\title\\0,1\C,0,1.35655,0.015478,0.0130055
 \C,0,-0.803623,0.74806,0.00368365\C,0,-0.754816,-0.782834,0.0232424\H,
 0,0.813294,2.0222,0.0637129\N,0,0.505493,1.07105,0.173215\O,0,2.55212,
 0.0101557,-0.130179\O,0,-1.80045,1.42957,-0.0940035\O,0,-1.72042,-1.46
 627,-0.0270144\O,0,0.576195,-1.14893,0.0617209\\Version=ES64L-G16RevC.
 01\State=1-A\HF=-468.6283184\RMSD=1.686e-02\Dipole=0.5065119,0.8702531

 Normal termination of Gaussian 16 at Tue Apr  8 21:48:45 2025.
