 Gaussian 16, Revision C.01,

 ----------------------------------------------------------------------
 #t hf aug-cc-pvdz symm=none int=(grid=ultrafine) guess=(read,tcheck) s
 table=(opt,rrhf)
 ----------------------------------------------------------------------
 -----
 title
 -----
 Symbolic Z-matrix:
 Charge =  0 Multiplicity = 1

 SCF Done:  E(RHF) =  -905.331479313     A.U. after   15 cycles
 Normal termination of Gaussian 16 at Tue Apr  8 22:11:44 2025.
 Gaussian 16:  ES64L-G16RevC.01  3-Jul-2019

 ----------------------------------------------------------------------
 #t hf aug-cc-pvdz iop(5/13=1,5/36=2,99/5=2) pseudo=read geom=check gue
 ss=(read,tcheck) scf=(maxcycle=1)
 ----------------------------------------------------------------------
 -----
 title
 -----
 Structure from the checkpoint file:  "ANI1ccx_56_conf11_mol1.chk"
 Charge =  0 Multiplicity = 1

                         Standard orientation:
 ---------------------------------------------------------------------
 Center     Atomic      Atomic             Coordinates (Angstroms)
 Number     Number       Type             X           Y           Z
 ---------------------------------------------------------------------
      1          6           0        1.454370   -0.580416    0.246716
      2          6           0        0.618668    3.063701    0.669542
      3          6           0       -0.812186    1.862991   -0.431409
      4          6           0       -2.010750    0.941121   -0.612001
      5          6           0       -3.112470   -0.989658    0.402387
      6          6           0       -0.243535    2.645501   -1.322060
      7          6           0        3.352800   -1.144289   -1.209270
      8          6           0        2.834020   -1.223759    0.180837
      9          6           0        0.493010   -1.561169   -0.353306
     10          6           0       -1.767810   -0.332926    0.187124
     11          1           0       -1.375460   -0.156117    1.200580
     12          1           0       -4.232810   -2.302309   -0.319362
     13          1           0        1.159930    4.146271   -1.149390
     14          1           0        1.228060    3.423351    1.503290
     15          1           0       -0.353753    2.830681   -2.389410
     16          1           0       -2.209460    0.721584   -1.691140
     17          1           0       -2.945130    1.386851   -0.218682
     18          1           0       -1.244040   -1.855369   -1.169490
     19          1           0        2.571900   -1.595969   -1.865070
     20          1           0        3.598240   -0.160124   -1.582370
     21          1           0        3.853690   -0.935815    1.859840
     22          1           0        2.751680   -2.307689    0.481203
     23          1           0        1.480080    0.392114   -0.314187
     24          1           0        1.973460    0.091192    2.070840
     25          1           0        0.407632    0.320357    1.617150
     26          1           0        4.306850   -1.667909   -1.300420
     27          7           0        1.122510   -0.386341    1.687550
     28          7           0       -0.866354   -1.322799   -0.390306
     29          7           0       -0.215846    2.064351    0.854608
     30          7           0        0.623273    3.494971   -0.594059
     31          8           0       -4.040240   -0.358570    0.869545
     32          8           0        0.925678   -2.570099   -0.881575
     33          8           0        3.799190   -0.533191    0.962311
     34          8           0       -3.241210   -2.209259   -0.223946
 ---------------------------------------------------------------------

 SCF Done:  E(RHF) =  -906.245039512     A.U. after    2 cycles

 The electronic state is 1-A.
 Alpha  occ. eigenvalues --  -20.61818 -20.55329 -20.54393 -20.50303 -15.58031
 Alpha  occ. eigenvalues --  -15.51840 -15.50794 -15.47897 -11.40998 -11.35315
 Alpha  occ. eigenvalues --  -11.33427 -11.30823 -11.28206 -11.27795 -11.27186
 Alpha  occ. eigenvalues --  -11.27027 -11.26153 -11.19728  -1.54833  -1.46208
 Alpha  occ. eigenvalues --   -1.46033  -1.44090  -1.36107  -1.24145  -1.18998
 Alpha  occ. eigenvalues --   -1.17837  -1.09281  -1.04421  -1.03430  -0.95020
 Alpha  occ. eigenvalues --   -0.92720  -0.88884  -0.83498  -0.83130  -0.82644
 Alpha  occ. eigenvalues --   -0.78828  -0.77417  -0.73556  -0.72226  -0.71234
 Alpha  occ. eigenvalues --   -0.69178  -0.68067  -0.66726  -0.66190  -0.65077
 Alpha  occ. eigenvalues --   -0.64367  -0.64005  -0.62509  -0.61896  -0.59525
 Alpha  occ. eigenvalues --   -0.59132  -0.57962  -0.56539  -0.55891  -0.54366
 Alpha  occ. eigenvalues --   -0.53726  -0.52052  -0.50976  -0.49881  -0.48420
 Alpha  occ. eigenvalues --   -0.47903  -0.46554  -0.45181  -0.44915  -0.42843
 Alpha  occ. eigenvalues --   -0.41306  -0.40604  -0.36864
 Alpha virt. eigenvalues --    0.01671   0.02986   0.03387   0.03898   0.04507
 Alpha virt. eigenvalues --    0.04628   0.05210   0.05827   0.06055   0.06754
 Alpha virt. eigenvalues --    0.07667   0.07906   0.08730   0.09141   0.09368

 Mulliken charges:
               1
     1  C   -1.450409
     2  C   -1.261364
     3  C   -0.086107
     4  C   -0.827222
     5  C    3.218409
     6  C    0.135524
     7  C   -0.238606
     8  C    0.758503
     9  C    0.050048
    10  C   -2.045138
    11  H    0.321935
    12  H    0.409756
    13  H   -0.021557
    14  H   -0.188759
    15  H   -0.329667
    16  H    0.174025
    17  H    0.325232
    18  H    0.367783
    19  H    0.325723
    20  H    0.136741
    21  H    0.281979
    22  H    0.361380
    23  H    0.271750
    24  H    0.335279
    25  H    0.271212
    26  H    0.062165
    27  N    0.817640
    28  N    1.218906
    29  N    1.458848
    30  N    0.855692
    31  O   -1.455584
    32  O   -1.362025
    33  O   -1.444924
    34  O   -1.447168
 Sum of Mulliken charges =  -0.00000

 Dipole moment (field-independent basis, Debye):
    X=             -0.1400    Y=              5.6479    Z=             -2.9179  Tot=              6.3587

 Test job not archived.
 1\1\GINC-SE072\SP\RHF\Aug-CC-pVDZ\C10H16N4O4\OHZDE\08-Apr-2025\0\\#t h
 f aug-cc-pvdz iop(5/13=1,5/36=2,99/5=2) pseudo=read geom=check guess=(
 read,tcheck) scf=(maxcycle=1)\\title\\0,1\C,0,1.45437,-0.580417,0.2467
 16\C,0,0.618668,3.0637,0.669542\C,0,-0.812186,1.86299,-0.431409\C,0,-2
 .01075,0.94112,-0.612001\C,0,-3.11247,-0.989659,0.402387\C,0,-0.243535
 ,2.6455,-1.32206\C,0,3.3528,-1.14429,-1.20927\C,0,2.83402,-1.22376,0.1
 80837\C,0,0.49301,-1.56117,-0.353306\C,0,-1.76781,-0.332927,0.187124\H
 ,0,-1.37546,-0.156118,1.20058\H,0,-4.23281,-2.30231,-0.319362\H,0,1.15

 Normal termination of Gaussian 16 at Tue Apr  8 22:12:42 2025.
