 Gaussian 16, Revision C.01,

 ----------------------------------------------------------------------
 #t hf aug-cc-pvdz symm=none int=(grid=ultrafine) guess=(read,tcheck) s
 table=(opt,rrhf)
 ----------------------------------------------------------------------
 -----
 title
 -----
 Symbolic Z-matrix:
 Charge =  0 Multiplicity = 1

 SCF Done:  E(RHF) =  -480.052779963     A.U. after   17 cycles
 Normal termination of Gaussian 16 at Tue Apr  8 21:39:48 2025.
 Gaussian 16:  ES64L-G16RevC.01  3-Jul-2019

 ----------------------------------------------------------------------
 #t hf aug-cc-pvdz iop(5/13=1,5/36=2,99/5=2) pseudo=read geom=check gue
 ss=(read,tcheck) scf=(maxcycle=1)
 ----------------------------------------------------------------------
 -----
 title
 -----
 Structure from the checkpoint file:  "ANI1ccx_456_conf3_mol1.chk"
 Charge =  0 Multiplicity = 1

                         Standard orientation:
 ---------------------------------------------------------------------
 Center     Atomic      Atomic             Coordinates (Angstroms)
 Number     Number       Type             X           Y           Z
 ---------------------------------------------------------------------
      1          6           0        0.068526    0.096325    0.026790
      2          7           0       -1.388000   -0.005994   -0.023571
      3          7           0        0.832693    1.124769    0.246727
      4          7           0        2.129020    0.597652    0.114422
      5          7           0        2.046030   -0.623892   -0.172216
      6          8           0       -1.890560   -1.049651    0.286443
      7          8           0       -2.046180    1.023059   -0.271661
      8          8           0        0.718068   -1.001621   -0.179566
 ---------------------------------------------------------------------

 SCF Done:  E(RHF) =  -480.507308375     A.U. after    2 cycles

 The electronic state is 1-A.
 Alpha  occ. eigenvalues --  -20.73776 -20.65999 -20.64087 -15.85958 -15.70373
 Alpha  occ. eigenvalues --  -15.67490 -15.62708 -11.47859  -1.74404  -1.71690
 Alpha  occ. eigenvalues --   -1.55735  -1.44747  -1.31549  -1.15368  -1.02370
 Alpha  occ. eigenvalues --   -0.95126  -0.87860  -0.83178  -0.79982  -0.79278
 Alpha  occ. eigenvalues --   -0.78135  -0.68407  -0.62510  -0.60262  -0.59790
 Alpha  occ. eigenvalues --   -0.56623  -0.54995  -0.53257  -0.49331
 Alpha virt. eigenvalues --   -0.03326   0.03015   0.05481   0.08710   0.09413
 Alpha virt. eigenvalues --    0.09846   0.11507   0.11672   0.12120   0.13902
 Alpha virt. eigenvalues --    0.14821   0.15475   0.16313   0.17220   0.17826

 Mulliken charges:
               1
     1  C    0.332309
     2  N    2.419463
     3  N    0.462642
     4  N   -0.674748
     5  N    1.140323
     6  O   -1.196348
     7  O   -1.252508
     8  O   -1.231132
 Sum of Mulliken charges =  -0.00000

 Dipole moment (field-independent basis, Debye):
    X=              0.0207    Y=             -1.4180    Z=             -0.1849  Tot=              1.4301

 Test job not archived.
 1\1\GINC-SE457\SP\RHF\Aug-CC-pVDZ\C1N4O3\OHZDE\08-Apr-2025\0\\#t hf au
 g-cc-pvdz iop(5/13=1,5/36=2,99/5=2) pseudo=read geom=check guess=(read
 ,tcheck) scf=(maxcycle=1)\\title\\0,1\C,0,0.0685256,0.0963255,0.02679\
 N,0,-1.388,-0.00599297,-0.0235708\N,0,0.832693,1.12477,0.246727\N,0,2.
 12902,0.597653,0.114422\N,0,2.04603,-0.623891,-0.172216\O,0,-1.89056,-
 1.04965,0.286443\O,0,-2.04618,1.02306,-0.271661\O,0,0.718068,-1.00162,
 -0.179566\\Version=ES64L-G16RevC.01\State=1-A\HF=-480.5073084\RMSD=3.0
 65e-02\Dipole=0.00816,-0.5578792,-0.072764\Quadrupole=-3.0715606,-0.86

 Normal termination of Gaussian 16 at Tue Apr  8 21:39:51 2025.
