 Gaussian 16, Revision C.01,

 ----------------------------------------------------------------------
 #t hf aug-cc-pvdz symm=none int=(grid=ultrafine) guess=(read,tcheck) s
 table=(opt,rrhf)
 ----------------------------------------------------------------------
 -----
 title
 -----
 Symbolic Z-matrix:
 Charge =  0 Multiplicity = 1

 SCF Done:  E(RHF) =  -350.914078896     A.U. after   14 cycles
 Normal termination of Gaussian 16 at Tue Apr  8 21:45:55 2025.
 Gaussian 16:  ES64L-G16RevC.01  3-Jul-2019

 ----------------------------------------------------------------------
 #t hf aug-cc-pvdz iop(5/13=1,5/36=2,99/5=2) pseudo=read geom=check gue
 ss=(read,tcheck) scf=(maxcycle=1)
 ----------------------------------------------------------------------
 -----
 title
 -----
 Structure from the checkpoint file:  "ANI1ccx_542_conf5_mol1.chk"
 Charge =  0 Multiplicity = 1

                         Standard orientation:
 ---------------------------------------------------------------------
 Center     Atomic      Atomic             Coordinates (Angstroms)
 Number     Number       Type             X           Y           Z
 ---------------------------------------------------------------------
      1          6           0        1.095519   -0.004683    0.006498
      2          6           0       -1.081761   -0.060818    0.038450
      3          1           0        3.018119    0.344741   -0.181892
      4          1           0        2.658529   -1.010941    0.739675
      5          1           0       -2.620451   -1.053230   -0.690266
      6          1           0       -2.979881    0.441193   -0.093375
      7          1           0       -0.038665   -1.941981   -0.012145
      8          7           0        2.376949   -0.477709   -0.101319
      9          7           0        0.689636    1.172159    0.024964
     10          7           0       -0.680251    1.166630   -0.021817
     11          7           0       -2.408621   -0.453127    0.108906
     12          7           0        0.005114   -0.891778   -0.015259
 ---------------------------------------------------------------------

 SCF Done:  E(RHF) =  -351.274077606     A.U. after    2 cycles

 The electronic state is 1-A.
 Alpha  occ. eigenvalues --  -15.56254 -15.53842 -15.53180 -15.49551 -15.48981
 Alpha  occ. eigenvalues --  -11.33495 -11.33036  -1.40027  -1.25107  -1.22846
 Alpha  occ. eigenvalues --   -1.19499  -1.08157  -0.87239  -0.86742  -0.79889
 Alpha  occ. eigenvalues --   -0.73468  -0.73200  -0.68543  -0.66957  -0.64971
 Alpha  occ. eigenvalues --   -0.56673  -0.52082  -0.51496  -0.47872  -0.46463
 Alpha  occ. eigenvalues --   -0.36598
 Alpha virt. eigenvalues --    0.02120   0.03798   0.04159   0.05836   0.06639
 Alpha virt. eigenvalues --    0.10039   0.10188   0.11567   0.12044   0.12888
 Alpha virt. eigenvalues --    0.13953   0.14183   0.16448   0.16822   0.17159

 Mulliken charges:
               1
     1  C   -1.460320
     2  C   -1.244518
     3  H    0.291723
     4  H    0.221601
     5  H    0.197510
     6  H    0.341222
     7  H    0.071448
     8  N    0.494134
     9  N    0.304287
    10  N    0.091516
    11  N    0.449919
    12  N    0.241477
 Sum of Mulliken charges =  -0.00000

 Dipole moment (field-independent basis, Debye):
    X=              0.2275    Y=             -5.0547    Z=             -0.2300  Tot=              5.0650

 Test job not archived.
 1\1\GINC-SE339\SP\RHF\Aug-CC-pVDZ\C2H5N5\OHZDE\08-Apr-2025\0\\#t hf au
 g-cc-pvdz iop(5/13=1,5/36=2,99/5=2) pseudo=read geom=check guess=(read
 ,tcheck) scf=(maxcycle=1)\\title\\0,1\C,0,1.09552,-0.0046818,0.0064976
 5\C,0,-1.08176,-0.0608181,0.0384498\H,0,3.01812,0.344742,-0.181892\H,0
 ,2.65853,-1.01094,0.739675\H,0,-2.62045,-1.05323,-0.690266\H,0,-2.9798
 8,0.441193,-0.0933751\H,0,-0.0386638,-1.94198,-0.0121451\N,0,2.37695,-
 0.477708,-0.101319\N,0,0.689637,1.17216,0.024964\N,0,-0.68025,1.16663,
 -0.0218172\N,0,-2.40862,-0.453127,0.108906\N,0,0.00511548,-0.891777,-0

 Normal termination of Gaussian 16 at Tue Apr  8 21:45:59 2025.
