 Gaussian 16, Revision C.01,

 ----------------------------------------------------------------------
 #t hf aug-cc-pvdz symm=none int=(grid=ultrafine) guess=(read,tcheck) s
 table=(opt,rrhf)
 ----------------------------------------------------------------------
 -----
 title
 -----
 Symbolic Z-matrix:
 Charge =  0 Multiplicity = 1

 SCF Done:  E(RHF) =  -464.334382419     A.U. after   16 cycles
 Normal termination of Gaussian 16 at Tue Apr  8 21:42:16 2025.
 Gaussian 16:  ES64L-G16RevC.01  3-Jul-2019

 ----------------------------------------------------------------------
 #t hf aug-cc-pvdz iop(5/13=1,5/36=2,99/5=2) pseudo=read geom=check gue
 ss=(read,tcheck) scf=(maxcycle=1)
 ----------------------------------------------------------------------
 -----
 title
 -----
 Structure from the checkpoint file:  "ANI1ccx_474_conf34_mol1.chk"
 Charge =  0 Multiplicity = 1

                         Standard orientation:
 ---------------------------------------------------------------------
 Center     Atomic      Atomic             Coordinates (Angstroms)
 Number     Number       Type             X           Y           Z
 ---------------------------------------------------------------------
      1          6           0       -0.237599    1.123636    0.132536
      2          6           0       -1.345129   -1.103336    0.046476
      3          1           0       -1.338084    1.868854   -0.950188
      4          7           0       -1.328634    0.142417   -0.094266
      5          7           0        1.831427   -0.745363   -0.543470
      6          7           0        2.804599   -1.001319   -0.009118
      7          8           0       -0.656357    2.246902   -0.377929
      8          8           0       -1.691986   -2.229340    0.121407
      9          8           0        0.808682    1.137338    0.807034
 ---------------------------------------------------------------------

 SCF Done:  E(RHF) =  -464.767515610     A.U. after    2 cycles

 The electronic state is 1-A.
 Alpha  occ. eigenvalues --  -20.66902 -20.63611 -20.56252 -15.63256 -15.63186
 Alpha  occ. eigenvalues --  -15.59408 -11.48991 -11.47949  -1.60541  -1.59552
 Alpha  occ. eigenvalues --   -1.46688  -1.45550  -1.30918  -0.96769  -0.84444
 Alpha  occ. eigenvalues --   -0.83356  -0.78816  -0.72658  -0.72111  -0.68472
 Alpha  occ. eigenvalues --   -0.67223  -0.67089  -0.65183  -0.64916  -0.62620
 Alpha  occ. eigenvalues --   -0.56970  -0.52562  -0.48215  -0.47927
 Alpha virt. eigenvalues --    0.02866   0.05694   0.07236   0.07623   0.08381
 Alpha virt. eigenvalues --    0.08737   0.08898   0.09647   0.10068   0.10946
 Alpha virt. eigenvalues --    0.11027   0.12028   0.13814   0.16050   0.17014

 Mulliken charges:
               1
     1  C    1.679853
     2  C    0.206092
     3  H    0.433631
     4  N    0.577385
     5  N    0.083786
     6  N   -0.158098
     7  O   -1.044417
     8  O   -0.736613
     9  O   -1.041620
 Sum of Mulliken charges =  -0.00000

 Dipole moment (field-independent basis, Debye):
    X=             -2.1399    Y=             -0.9733    Z=             -1.8174  Tot=              2.9714

 Test job not archived.
 1\1\GINC-SE127\SP\RHF\Aug-CC-pVDZ\C2H1N3O3\OHZDE\08-Apr-2025\0\\#t hf
 aug-cc-pvdz iop(5/13=1,5/36=2,99/5=2) pseudo=read geom=check guess=(re
 ad,tcheck) scf=(maxcycle=1)\\title\\0,1\C,0,-0.237584,1.12364,0.132536
 \C,0,-1.34514,-1.10332,0.0464761\H,0,-1.33806,1.86887,-0.950188\N,0,-1
 .32863,0.142433,-0.0942663\N,0,1.83142,-0.745383,-0.54347\N,0,2.80459,
 -1.00135,-0.00911804\O,0,-0.656329,2.24691,-0.377929\O,0,-1.69201,-2.2
 2932,0.121407\O,0,0.808697,1.13733,0.807034\\Version=ES64L-G16RevC.01\
 State=1-A\HF=-464.7675156\RMSD=2.782e-02\Dipole=-0.8418949,-0.3829239,

 Normal termination of Gaussian 16 at Tue Apr  8 21:42:19 2025.
