 Gaussian 16, Revision C.01,

 ----------------------------------------------------------------------
 #t hf aug-cc-pvdz symm=none int=(grid=ultrafine) guess=(read,tcheck) s
 table=(opt,rrhf)
 ----------------------------------------------------------------------
 -----
 title
 -----
 Symbolic Z-matrix:
 Charge =  0 Multiplicity = 1

 SCF Done:  E(RHF) =  -452.148414101     A.U. after   16 cycles
 Normal termination of Gaussian 16 at Tue Apr  8 21:57:45 2025.
 Gaussian 16:  ES64L-G16RevC.01  3-Jul-2019

 ----------------------------------------------------------------------
 #t hf aug-cc-pvdz iop(5/13=1,5/36=2,99/5=2) pseudo=read geom=check gue
 ss=(read,tcheck) scf=(maxcycle=1)
 ----------------------------------------------------------------------
 -----
 title
 -----
 Structure from the checkpoint file:  "ANI1ccx_859_conf1_mol2.chk"
 Charge =  0 Multiplicity = 1

                         Standard orientation:
 ---------------------------------------------------------------------
 Center     Atomic      Atomic             Coordinates (Angstroms)
 Number     Number       Type             X           Y           Z
 ---------------------------------------------------------------------
      1          6           0       -1.390280   -0.001117    0.024748
      2          6           0       -0.541223    1.269890    0.099043
      3          6           0        0.847451    0.763004   -0.067185
      4          6           0        0.746294   -0.762814   -0.011127
      5          1           0       -0.705509    1.849480    1.021940
      6          1           0       -0.924143    1.988720   -0.724724
      7          8           0       -2.575680   -0.117893   -0.080957
      8          8           0        1.922591    1.274778   -0.047035
      9          8           0        1.650879   -1.508042    0.015483
     10          8           0       -0.540765   -1.080340    0.041248
 ---------------------------------------------------------------------

 SCF Done:  E(RHF) =  -452.581802348     A.U. after    2 cycles

 The electronic state is 1-A.
 Alpha  occ. eigenvalues --  -20.66567 -20.61046 -20.59589 -20.58936 -11.45621
 Alpha  occ. eigenvalues --  -11.43323 -11.40187 -11.32942  -1.64778  -1.55400
 Alpha  occ. eigenvalues --   -1.53851  -1.51284  -1.13834  -0.99546  -0.90955
 Alpha  occ. eigenvalues --   -0.82350  -0.75308  -0.74570  -0.72239  -0.70135
 Alpha  occ. eigenvalues --   -0.68069  -0.65199  -0.62954  -0.61257  -0.55720
 Alpha  occ. eigenvalues --   -0.54077  -0.50836  -0.48886  -0.45513
 Alpha virt. eigenvalues --    0.02292   0.02748   0.03995   0.06574   0.07261
 Alpha virt. eigenvalues --    0.08837   0.08892   0.10207   0.10720   0.11065
 Alpha virt. eigenvalues --    0.11678   0.12945   0.14239   0.14599   0.14976

 Mulliken charges:
               1
     1  C    1.996333
     2  C   -0.884291
     3  C    1.452838
     4  C    1.561627
     5  H    0.287186
     6  H    0.419560
     7  O   -1.258777
     8  O   -1.280102
     9  O   -1.126479
    10  O   -1.167895
 Sum of Mulliken charges =  -0.00000

 Dipole moment (field-independent basis, Debye):
    X=             -1.4181    Y=              3.0047    Z=              0.2464  Tot=              3.3316

 Test job not archived.
 1\1\GINC-SE084\SP\RHF\Aug-CC-pVDZ\C4H2O4\OHZDE\08-Apr-2025\0\\#t hf au
 g-cc-pvdz iop(5/13=1,5/36=2,99/5=2) pseudo=read geom=check guess=(read
 ,tcheck) scf=(maxcycle=1)\\title\\0,1\C,0,-1.39028,-0.0011167,0.024747
 7\C,0,-0.541224,1.26989,0.0990429\C,0,0.84745,0.763005,-0.0671846\C,0,
 0.746294,-0.762813,-0.0111269\H,0,-0.70551,1.84948,1.02194\H,0,-0.9241
 44,1.98872,-0.724724\O,0,-2.57568,-0.117894,-0.0809566\O,0,1.92259,1.2
 7478,-0.0470355\O,0,1.65088,-1.50804,0.0154825\O,0,-0.540765,-1.08034,
 0.0412482\\Version=ES64L-G16RevC.01\State=1-A\HF=-452.5818023\RMSD=1.5

 Normal termination of Gaussian 16 at Tue Apr  8 21:57:50 2025.
