 Gaussian 16, Revision C.01,

 ----------------------------------------------------------------------
 #t hf aug-cc-pvdz symm=none int=(grid=ultrafine) guess=(read,tcheck) s
 table=(opt,rrhf)
 ----------------------------------------------------------------------
 -----
 title
 -----
 Symbolic Z-matrix:
 Charge =  0 Multiplicity = 1

 SCF Done:  E(RHF) =  -348.527947029     A.U. after   16 cycles
 Normal termination of Gaussian 16 at Tue Apr  8 21:42:08 2025.
 Gaussian 16:  ES64L-G16RevC.01  3-Jul-2019

 ----------------------------------------------------------------------
 #t hf aug-cc-pvdz iop(5/13=1,5/36=2,99/5=2) pseudo=read geom=check gue
 ss=(read,tcheck) scf=(maxcycle=1)
 ----------------------------------------------------------------------
 -----
 title
 -----
 Structure from the checkpoint file:  "ANI1ccx_476_conf2_mol2.chk"
 Charge =  0 Multiplicity = 1

                         Standard orientation:
 ---------------------------------------------------------------------
 Center     Atomic      Atomic             Coordinates (Angstroms)
 Number     Number       Type             X           Y           Z
 ---------------------------------------------------------------------
      1          6           0        1.720031    0.023347   -0.038486
      2          6           0        0.294802    0.034842   -0.059429
      3          1           0       -2.444448   -1.149921    0.126492
      4          7           0        2.860541   -0.033910    0.057692
      5          7           0       -0.493850    1.138199   -0.007956
      6          7           0       -1.707939    0.714209    0.025647
      7          7           0       -1.618669   -0.601299    0.010998
      8          7           0       -0.417877   -1.102801   -0.020522
 ---------------------------------------------------------------------

 SCF Done:  E(RHF) =  -348.870972163     A.U. after    2 cycles

 The electronic state is 1-A.
 Alpha  occ. eigenvalues --  -15.68376 -15.64644 -15.62292 -15.59666 -15.54764
 Alpha  occ. eigenvalues --  -11.37323 -11.31129  -1.55077  -1.34079  -1.27351
 Alpha  occ. eigenvalues --   -1.24497  -1.02044  -1.00692  -0.89924  -0.79666
 Alpha  occ. eigenvalues --   -0.77870  -0.68605  -0.63531  -0.60452  -0.57559
 Alpha  occ. eigenvalues --   -0.57156  -0.54692  -0.53712  -0.46921
 Alpha virt. eigenvalues --    0.01906   0.02889   0.06241   0.07214   0.07906
 Alpha virt. eigenvalues --    0.09633   0.10144   0.11417   0.12160   0.12717
 Alpha virt. eigenvalues --    0.13050   0.13998   0.15523   0.15766   0.16095

 Mulliken charges:
               1
     1  C   -1.206513
     2  C   -0.312617
     3  H    0.066183
     4  N    0.889773
     5  N    0.412212
     6  N   -0.266554
     7  N   -0.082646
     8  N    0.500162
 Sum of Mulliken charges =  -0.00000

 Dipole moment (field-independent basis, Debye):
    X=             -4.5992    Y=             -1.9890    Z=             -0.0474  Tot=              5.0111

 Test job not archived.
 1\1\GINC-SE334\SP\RHF\Aug-CC-pVDZ\C2H1N5\OHZDE\08-Apr-2025\0\\#t hf au
 g-cc-pvdz iop(5/13=1,5/36=2,99/5=2) pseudo=read geom=check guess=(read
 ,tcheck) scf=(maxcycle=1)\\title\\0,1\C,0,1.72003,0.0233471,-0.0384863
 \C,0,0.294801,0.034843,-0.0594293\H,0,-2.44445,-1.14992,0.126492\N,0,2
 .86054,-0.0339096,0.0576916\N,0,-0.493851,1.1382,-0.00795643\N,0,-1.70
 794,0.71421,0.025647\N,0,-1.61867,-0.601298,0.0109976\N,0,-0.417879,-1
 .1028,-0.0205223\\Version=ES64L-G16RevC.01\State=1-A\HF=-348.8709722\R
 MSD=8.201e-02\Dipole=-1.8094809,-0.7825299,-0.0186371\Quadrupole=-1.99

 Normal termination of Gaussian 16 at Tue Apr  8 21:42:11 2025.
