 Gaussian 16, Revision C.01,

 ----------------------------------------------------------------------
 #t hf aug-cc-pvdz symm=none int=(grid=ultrafine) guess=(read,tcheck) s
 table=(opt,rrhf)
 ----------------------------------------------------------------------
 -----
 title
 -----
 Symbolic Z-matrix:
 Charge =  0 Multiplicity = 1

 SCF Done:  E(RHF) =  -911.508218875     A.U. after   15 cycles
 Normal termination of Gaussian 16 at Tue Apr  8 21:41:40 2025.
 Gaussian 16:  ES64L-G16RevC.01  3-Jul-2019

 ----------------------------------------------------------------------
 #t hf aug-cc-pvdz iop(5/13=1,5/36=2,99/5=2) pseudo=read geom=check gue
 ss=(read,tcheck) scf=(maxcycle=1)
 ----------------------------------------------------------------------
 -----
 title
 -----
 Structure from the checkpoint file:  "ANI1ccx_191_conf23_mol1.chk"
 Charge =  0 Multiplicity = 1

                         Standard orientation:
 ---------------------------------------------------------------------
 Center     Atomic      Atomic             Coordinates (Angstroms)
 Number     Number       Type             X           Y           Z
 ---------------------------------------------------------------------
      1          6           0       -1.553184    2.097766    0.269548
      2          6           0        1.716135   -2.240757    0.610466
      3          6           0        1.033161   -0.532605    2.414530
      4          6           0        1.906132   -0.822841    1.187010
      5          6           0        2.581440    0.168055   -0.961741
      6          6           0        0.341503   -2.689340    0.055229
      7          6           0       -2.539297   -1.557786   -0.543606
      8          6           0       -2.366039   -0.217755    0.218044
      9          6           0       -2.185202    1.042235   -0.634497
     10          6           0       -0.076965    2.001659    0.435477
     11          6           0        1.767240    0.355054    0.280982
     12          1           0        1.208613   -1.188168    3.204010
     13          1           0        2.843549    0.775851   -2.804730
     14          1           0       -0.518750   -2.316472    0.585165
     15          1           0        0.287249   -2.452650   -1.021880
     16          1           0        0.348155   -3.728400    0.205697
     17          1           0        2.534605   -2.535276   -0.007501
     18          1           0        1.904306   -2.903017    1.520010
     19          1           0        1.282249    0.391059    2.922390
     20          1           0       -0.047105   -0.469143    2.252560
     21          1           0        2.858162   -0.824002    1.691080
     22          1           0       -2.913433   -3.364107    0.048381
     23          1           0       -0.283733    0.120915   -0.314607
     24          1           0       -3.337319   -0.238367    0.813805
     25          1           0       -1.564329   -0.425329    0.963388
     26          1           0       -3.231582    1.352053   -0.911346
     27          1           0       -1.584601    0.791981   -1.441430
     28          1           0       -1.927913    1.906395    1.224130
     29          1           0       -1.757497    3.539396   -1.104760
     30          1           0       -1.353288    4.107687    0.425254
     31          1           0        2.282928    1.285414    0.839533
     32          7           0       -1.908086    3.412405   -0.089804
     33          7           0        0.426854    0.773306   -0.077751
     34          8           0        3.560331   -0.551690   -1.118390
     35          8           0        0.598575    2.841310    0.973372
     36          8           0       -2.125056   -1.824675   -1.653340
     37          8           0       -3.056085   -2.487657    0.338194
     38          8           0        2.220838    0.929224   -2.027950
 ---------------------------------------------------------------------

 SCF Done:  E(RHF) =  -912.434299207     A.U. after    2 cycles

 The electronic state is 1-A.
 Alpha  occ. eigenvalues --  -20.61244 -20.59244 -20.56224 -20.53260 -20.53222
 Alpha  occ. eigenvalues --  -15.53343 -15.49555 -11.41993 -11.39333 -11.36755
 Alpha  occ. eigenvalues --  -11.30681 -11.28729 -11.27795 -11.26324 -11.24884
 Alpha  occ. eigenvalues --  -11.23582 -11.22891 -11.22715  -1.55494  -1.53466
 Alpha  occ. eigenvalues --   -1.48647  -1.47034  -1.42876  -1.26087  -1.21821
 Alpha  occ. eigenvalues --   -1.11801  -1.09682  -1.02783  -1.00155  -0.97926
 Alpha  occ. eigenvalues --   -0.91545  -0.89558  -0.83931  -0.82624  -0.82267
 Alpha  occ. eigenvalues --   -0.80049  -0.74735  -0.72897  -0.71824  -0.71267
 Alpha  occ. eigenvalues --   -0.69773  -0.69362  -0.68221  -0.66709  -0.65818
 Alpha  occ. eigenvalues --   -0.64623  -0.64111  -0.63364  -0.61654  -0.60498
 Alpha  occ. eigenvalues --   -0.59751  -0.58660  -0.57339  -0.56163  -0.55340
 Alpha  occ. eigenvalues --   -0.55050  -0.54662  -0.53767  -0.53046  -0.52193
 Alpha  occ. eigenvalues --   -0.50006  -0.49348  -0.47572  -0.47376  -0.46774
 Alpha  occ. eigenvalues --   -0.46016  -0.45712  -0.45288  -0.42608  -0.41692
 Alpha virt. eigenvalues --    0.02572   0.03103   0.03280   0.03555   0.04239
 Alpha virt. eigenvalues --    0.04750   0.05037   0.05276   0.05693   0.06999
 Alpha virt. eigenvalues --    0.07624   0.07987   0.08165   0.08677   0.08706

 Mulliken charges:
               1
     1  C   -1.705320
     2  C   -0.479935
     3  C    0.158337
     4  C    0.664464
     5  C    3.396758
     6  C   -0.244561
     7  C    2.771341
     8  C   -0.657630
     9  C    0.113582
    10  C    1.034357
    11  C   -3.294114
    12  H   -0.110436
    13  H    0.477632
    14  H    0.028147
    15  H    0.323681
    16  H   -0.072672
    17  H    0.006011
    18  H    0.238043
    19  H    0.165036
    20  H   -0.053572
    21  H    0.179835
    22  H    0.396618
    23  H   -0.050808
    24  H    0.131071
    25  H    0.138265
    26  H    0.194198
    27  H    0.177831
    28  H    0.003761
    29  H    0.291537
    30  H    0.176002
    31  H    0.528525
    32  N    0.872844
    33  N    1.876827
    34  O   -1.512674
    35  O   -1.623055
    36  O   -1.449122
    37  O   -1.486144
    38  O   -1.604661
 Sum of Mulliken charges =   0.00000

 Dipole moment (field-independent basis, Debye):
    X=             -2.1551    Y=             -1.7031    Z=              1.0846  Tot=              2.9532

 Test job not archived.
 1\1\GINC-SE177\SP\RHF\Aug-CC-pVDZ\C11H20N2O5\OHZDE\08-Apr-2025\0\\#t h
 f aug-cc-pvdz iop(5/13=1,5/36=2,99/5=2) pseudo=read geom=check guess=(
 read,tcheck) scf=(maxcycle=1)\\title\\0,1\C,0,-1.55318,2.09777,0.26954
 8\C,0,1.71613,-2.24076,0.610466\C,0,1.03316,-0.532606,2.41453\C,0,1.90
 613,-0.822844,1.18701\C,0,2.58144,0.168051,-0.961741\C,0,0.341497,-2.6
 8934,0.0552288\C,0,-2.5393,-1.55778,-0.543606\C,0,-2.36604,-0.21775,0.
 218044\C,0,-2.1852,1.04224,-0.634497\C,0,-0.0769615,2.00166,0.435477\C
 ,0,1.76724,0.355051,0.280982\H,0,1.20861,-1.18817,3.20401\H,0,2.84355,

 Normal termination of Gaussian 16 at Tue Apr  8 21:43:16 2025.
