 Gaussian 16, Revision C.01,

 ----------------------------------------------------------------------
 #t hf aug-cc-pvdz symm=none int=(grid=ultrafine) guess=(read,tcheck) s
 table=(opt,rrhf)
 ----------------------------------------------------------------------
 -----
 title
 -----
 Symbolic Z-matrix:
 Charge =  0 Multiplicity = 1

 SCF Done:  E(RHF) =  -522.613651663     A.U. after   14 cycles
 Normal termination of Gaussian 16 at Tue Apr  8 22:09:57 2025.
 Gaussian 16:  ES64L-G16RevC.01  3-Jul-2019

 ----------------------------------------------------------------------
 #t hf aug-cc-pvdz iop(5/13=1,5/36=2,99/5=2) pseudo=read geom=check gue
 ss=(read,tcheck) scf=(maxcycle=1)
 ----------------------------------------------------------------------
 -----
 title
 -----
 Structure from the checkpoint file:  "ANI1ccx_922_conf8_mol1.chk"
 Charge =  0 Multiplicity = 1

                         Standard orientation:
 ---------------------------------------------------------------------
 Center     Atomic      Atomic             Coordinates (Angstroms)
 Number     Number       Type             X           Y           Z
 ---------------------------------------------------------------------
      1          6           0        1.714099   -0.188452    0.313092
      2          6           0        0.083364    0.935635   -0.900453
      3          6           0       -1.744831    0.065371    0.367289
      4          6           0       -0.089118   -0.631740   -1.119960
      5          1           0        1.758799    1.851451    0.073024
      6          1           0       -0.061941    1.530870   -1.790910
      7          1           0       -0.871265    1.946580    0.806100
      8          1           0       -1.782920   -1.707840   -0.695856
      9          1           0        0.164963   -0.887140   -2.158280
     10          1           0        1.107160   -2.115519    0.042770
     11          7           0        1.418559    1.013721   -0.365082
     12          7           0       -0.950291    1.203370    0.097710
     13          7           0       -1.449271   -0.768323   -0.719194
     14          7           0        0.904542   -1.150659   -0.204053
     15          8           0        2.518449   -0.303900    1.199070
     16          8           0       -2.463531   -0.169856    1.313140
 ---------------------------------------------------------------------

 SCF Done:  E(RHF) =  -523.133581610     A.U. after    2 cycles

 The electronic state is 1-A.
 Alpha  occ. eigenvalues --  -20.53144 -20.51699 -15.54354 -15.54144 -15.53974
 Alpha  occ. eigenvalues --  -15.53726 -11.40631 -11.39325 -11.35429 -11.34862
 Alpha  occ. eigenvalues --   -1.48371  -1.48092  -1.35615  -1.27652  -1.23949
 Alpha  occ. eigenvalues --   -1.17696  -1.02623  -0.91051  -0.90569  -0.86830
 Alpha  occ. eigenvalues --   -0.79429  -0.77220  -0.74054  -0.71358  -0.69317
 Alpha  occ. eigenvalues --   -0.67234  -0.66331  -0.63848  -0.62272  -0.59614
 Alpha  occ. eigenvalues --   -0.56775  -0.51723  -0.46876  -0.45702  -0.45352
 Alpha  occ. eigenvalues --   -0.44160  -0.43946
 Alpha virt. eigenvalues --    0.02411   0.03517   0.03622   0.04482   0.04978
 Alpha virt. eigenvalues --    0.05797   0.08822   0.09072   0.09509   0.11100
 Alpha virt. eigenvalues --    0.11441   0.12115   0.12720   0.13113   0.13520

 Mulliken charges:
               1
     1  C    0.691686
     2  C   -1.719681
     3  C    0.763524
     4  C   -1.532729
     5  H    0.236828
     6  H   -0.050512
     7  H    0.179029
     8  H    0.265964
     9  H    0.060191
    10  H    0.161461
    11  N    0.821835
    12  N    0.859835
    13  N    0.795651
    14  N    0.831783
    15  O   -1.203401
    16  O   -1.161465
 Sum of Mulliken charges =  -0.00000

 Dipole moment (field-independent basis, Debye):
    X=              0.0817    Y=              0.3182    Z=             -4.2613  Tot=              4.2739

 Test job not archived.
 1\1\GINC-SE220\SP\RHF\Aug-CC-pVDZ\C4H6N4O2\OHZDE\08-Apr-2025\0\\#t hf
 aug-cc-pvdz iop(5/13=1,5/36=2,99/5=2) pseudo=read geom=check guess=(re
 ad,tcheck) scf=(maxcycle=1)\\title\\0,1\C,0,1.7141,-0.188453,0.313092\
 C,0,0.083365,0.935635,-0.900453\C,0,-1.74483,0.0653713,0.367289\C,0,-0
 .0891174,-0.63174,-1.11996\H,0,1.7588,1.85145,0.0730241\H,0,-0.0619396
 ,1.53087,-1.79091\H,0,-0.871264,1.94658,0.8061\H,0,-1.78292,-1.70784,-
 0.695856\H,0,0.164964,-0.88714,-2.15828\H,0,1.10716,-2.11552,0.0427698
 \N,0,1.41856,1.01372,-0.365082\N,0,-0.95029,1.20337,0.0977096\N,0,-1.4

 Normal termination of Gaussian 16 at Tue Apr  8 22:10:05 2025.
