 Gaussian 16, Revision C.01,

 ----------------------------------------------------------------------
 #t hf aug-cc-pvdz symm=none int=(grid=ultrafine) guess=(read,tcheck) s
 table=(opt,rrhf)
 ----------------------------------------------------------------------
 -----
 title
 -----
 Symbolic Z-matrix:
 Charge =  0 Multiplicity = 1

 SCF Done:  E(RHF) =  -480.737492470     A.U. after   15 cycles
 Normal termination of Gaussian 16 at Tue Apr  8 21:47:31 2025.
 Gaussian 16:  ES64L-G16RevC.01  3-Jul-2019

 ----------------------------------------------------------------------
 #t hf aug-cc-pvdz iop(5/13=1,5/36=2,99/5=2) pseudo=read geom=check gue
 ss=(read,tcheck) scf=(maxcycle=1)
 ----------------------------------------------------------------------
 -----
 title
 -----
 Structure from the checkpoint file:  "ANI1ccx_558_conf3_mol1.chk"
 Charge =  0 Multiplicity = 1

                         Standard orientation:
 ---------------------------------------------------------------------
 Center     Atomic      Atomic             Coordinates (Angstroms)
 Number     Number       Type             X           Y           Z
 ---------------------------------------------------------------------
      1          6           0       -1.127199   -0.748372   -0.036259
      2          6           0        1.210091   -0.594466   -0.101341
      3          1           0        2.172085    1.949565   -0.115430
      4          1           0        1.340067    1.462893    1.253850
      5          1           0       -1.027775    2.336178    0.165029
      6          1           0       -2.502674    1.647295   -0.322008
      7          1           0        0.153327   -2.295429    0.344217
      8          1           0        2.647354   -1.805074    0.251849
      9          7           0        1.249336    1.665333    0.274148
     10          7           0        0.670438    0.647494   -0.468002
     11          7           0       -0.847418    0.545096   -0.427799
     12          7           0       -1.631134    1.528287    0.211206
     13          7           0        0.102437   -1.388279   -0.056874
     14          7           0        2.488661   -0.815913    0.089550
     15          8           0       -2.188247   -1.314064    0.236563
 ---------------------------------------------------------------------

 SCF Done:  E(RHF) =  -481.220183796     A.U. after    2 cycles

 The electronic state is 1-A.
 Alpha  occ. eigenvalues --  -20.53770 -15.61446 -15.60377 -15.56918 -15.55610
 Alpha  occ. eigenvalues --  -15.55446 -15.49982 -11.41288 -11.38865  -1.48345
 Alpha  occ. eigenvalues --   -1.41438  -1.30757  -1.29511  -1.19898  -1.13562
 Alpha  occ. eigenvalues --   -1.06261  -0.91460  -0.89315  -0.81983  -0.78170
 Alpha  occ. eigenvalues --   -0.76313  -0.74215  -0.71515  -0.69900  -0.67587
 Alpha  occ. eigenvalues --   -0.65388  -0.61168  -0.55192  -0.52166  -0.50325
 Alpha  occ. eigenvalues --   -0.50141  -0.46818  -0.43778  -0.40960
 Alpha virt. eigenvalues --    0.02585   0.04380   0.04521   0.05445   0.05876
 Alpha virt. eigenvalues --    0.06839   0.09146   0.09688   0.10762   0.11166
 Alpha virt. eigenvalues --    0.11628   0.12657   0.13064   0.13798   0.15042

 Mulliken charges:
               1
     1  C    0.550809
     2  C   -1.600577
     3  H    0.294369
     4  H    0.265708
     5  H    0.157941
     6  H    0.244643
     7  H    0.159017
     8  H    0.172223
     9  N    0.086863
    10  N   -0.488011
    11  N   -0.231364
    12  N    0.284327
    13  N    0.585563
    14  N    0.745181
    15  O   -1.226692
 Sum of Mulliken charges =   0.00000

 Dipole moment (field-independent basis, Debye):
    X=              1.2673    Y=              0.9545    Z=              0.6516  Tot=              1.7151

 Test job not archived.
 1\1\GINC-SE340\SP\RHF\Aug-CC-pVDZ\C2H6N6O1\OHZDE\08-Apr-2025\0\\#t hf
 aug-cc-pvdz iop(5/13=1,5/36=2,99/5=2) pseudo=read geom=check guess=(re
 ad,tcheck) scf=(maxcycle=1)\\title\\0,1\C,0,-1.1272,-0.74837,-0.036259
 2\C,0,1.21009,-0.594469,-0.101341\H,0,2.17209,1.94956,-0.11543\H,0,1.3
 4007,1.46289,1.25385\H,0,-1.02777,2.33618,0.165029\H,0,-2.50267,1.6473
 ,-0.322008\H,0,0.153322,-2.29543,0.344217\H,0,2.64735,-1.80508,0.25184
 9\N,0,1.24934,1.66533,0.274148\N,0,0.67044,0.647492,-0.468002\N,0,-0.8
 47417,0.545097,-0.427799\N,0,-1.63113,1.52829,0.211206\N,0,0.102434,-1

 Normal termination of Gaussian 16 at Tue Apr  8 21:47:36 2025.
