 Gaussian 16, Revision C.01,

 ----------------------------------------------------------------------
 #t hf aug-cc-pvdz symm=none int=(grid=ultrafine) guess=(read,tcheck) s
 table=(opt,rrhf)
 ----------------------------------------------------------------------
 -----
 title
 -----
 Symbolic Z-matrix:
 Charge =  0 Multiplicity = 1

 SCF Done:  E(RHF) =  -411.596592405     A.U. after   15 cycles
 Normal termination of Gaussian 16 at Tue Apr  8 21:44:56 2025.
 Gaussian 16:  ES64L-G16RevC.01  3-Jul-2019

 ----------------------------------------------------------------------
 #t hf aug-cc-pvdz iop(5/13=1,5/36=2,99/5=2) pseudo=read geom=check gue
 ss=(read,tcheck) scf=(maxcycle=1)
 ----------------------------------------------------------------------
 -----
 title
 -----
 Structure from the checkpoint file:  "ANI1ccx_516_conf1_mol2.chk"
 Charge =  0 Multiplicity = 1

                         Standard orientation:
 ---------------------------------------------------------------------
 Center     Atomic      Atomic             Coordinates (Angstroms)
 Number     Number       Type             X           Y           Z
 ---------------------------------------------------------------------
      1          6           0       -0.130069    0.782191   -0.080085
      2          6           0        0.854105   -0.399878   -0.066992
      3          1           0       -1.848969   -1.263401    1.115080
      4          1           0       -1.599559   -1.415351   -0.523864
      5          1           0       -2.062791    1.219279   -0.045660
      6          1           0        2.555451   -0.866674    0.378615
      7          7           0       -2.037150   -0.848782    0.209514
      8          7           0       -1.425350    0.435545    0.114370
      9          8           0        0.220496    1.924500   -0.239577
     10          8           0        2.025910   -0.067004    0.461941
     11          8           0        0.609738   -1.491879   -0.510977
 ---------------------------------------------------------------------

 SCF Done:  E(RHF) =  -412.001955364     A.U. after    2 cycles

 The electronic state is 1-A.
 Alpha  occ. eigenvalues --  -20.63213 -20.57938 -20.54281 -15.57180 -15.55372
 Alpha  occ. eigenvalues --  -11.43281 -11.39421  -1.59279  -1.49662  -1.49348
 Alpha  occ. eigenvalues --   -1.31221  -1.12236  -0.97734  -0.85358  -0.77373
 Alpha  occ. eigenvalues --   -0.75033  -0.74466  -0.72209  -0.68065  -0.66252
 Alpha  occ. eigenvalues --   -0.62208  -0.59552  -0.53210  -0.52069  -0.50456
 Alpha  occ. eigenvalues --   -0.44707  -0.43590
 Alpha virt. eigenvalues --    0.03046   0.03985   0.05736   0.06426   0.07886
 Alpha virt. eigenvalues --    0.09227   0.09902   0.11308   0.11451   0.11629
 Alpha virt. eigenvalues --    0.13004   0.14852   0.16262   0.17616   0.18250

 Mulliken charges:
               1
     1  C    0.411640
     2  C    2.088226
     3  H    0.136206
     4  H    0.187309
     5  H    0.137833
     6  H    0.367878
     7  N   -0.106300
     8  N    0.242415
     9  O   -1.150071
    10  O   -1.155506
    11  O   -1.159629
 Sum of Mulliken charges =  -0.00000

 Dipole moment (field-independent basis, Debye):
    X=              0.2495    Y=             -2.3986    Z=              1.0463  Tot=              2.6287

 Test job not archived.
 1\1\GINC-SE220\SP\RHF\Aug-CC-pVDZ\C2H4N2O3\OHZDE\08-Apr-2025\0\\#t hf
 aug-cc-pvdz iop(5/13=1,5/36=2,99/5=2) pseudo=read geom=check guess=(re
 ad,tcheck) scf=(maxcycle=1)\\title\\0,1\C,0,-0.130068,0.782191,-0.0800
 847\C,0,0.854105,-0.399879,-0.0669916\H,0,-1.84897,-1.2634,1.11508\H,0
 ,-1.59956,-1.41535,-0.523864\H,0,-2.06279,1.21928,-0.0456604\H,0,2.555
 45,-0.866676,0.378615\N,0,-2.03715,-0.848781,0.209514\N,0,-1.42535,0.4
 35546,0.11437\O,0,0.220497,1.9245,-0.239577\O,0,2.02591,-0.0670058,0.4
 61941\O,0,0.609737,-1.49188,-0.510977\\Version=ES64L-G16RevC.01\State=

 Normal termination of Gaussian 16 at Tue Apr  8 21:45:01 2025.
