 Gaussian 16, Revision C.01,

 ----------------------------------------------------------------------
 #t hf aug-cc-pvdz symm=none int=(grid=ultrafine) guess=(read,tcheck) s
 table=(opt,rrhf)
 ----------------------------------------------------------------------
 -----
 title
 -----
 Symbolic Z-matrix:
 Charge =  0 Multiplicity = 1

 SCF Done:  E(RHF) =  -505.016846453     A.U. after   15 cycles
 Normal termination of Gaussian 16 at Tue Apr  8 21:40:49 2025.
 Gaussian 16:  ES64L-G16RevC.01  3-Jul-2019

 ----------------------------------------------------------------------
 #t hf aug-cc-pvdz iop(5/13=1,5/36=2,99/5=2) pseudo=read geom=check gue
 ss=(read,tcheck) scf=(maxcycle=1)
 ----------------------------------------------------------------------
 -----
 title
 -----
 Structure from the checkpoint file:  "ANI1ccx_471_conf15_mol1.chk"
 Charge =  0 Multiplicity = 1

                         Standard orientation:
 ---------------------------------------------------------------------
 Center     Atomic      Atomic             Coordinates (Angstroms)
 Number     Number       Type             X           Y           Z
 ---------------------------------------------------------------------
      1          6           0        1.401280   -0.067823   -0.036880
      2          6           0       -0.673880    0.778489   -0.071726
      3          1           0       -2.078060   -1.090040    1.020350
      4          7           0       -0.756277   -0.604062   -0.454747
      5          8           0       -1.910680   -1.264950   -0.003282
      6          8           0        0.527877   -1.132530    0.161607
      7          8           0        2.559740   -0.151151    0.188906
      8          8           0        0.717621    1.082280   -0.268999
      9          8           0       -1.518610    1.598160    0.273584
 ---------------------------------------------------------------------

 SCF Done:  E(RHF) =  -505.494884391     A.U. after    2 cycles

 The electronic state is 1-A.
 Alpha  occ. eigenvalues --  -20.69696 -20.69020 -20.68097 -20.62925 -20.59241
 Alpha  occ. eigenvalues --  -15.72217 -11.50996 -11.50278  -1.67531  -1.57895
 Alpha  occ. eigenvalues --   -1.56316  -1.52188  -1.51032  -1.19897  -0.93983
 Alpha  occ. eigenvalues --   -0.92221  -0.82625  -0.79128  -0.76441  -0.73051
 Alpha  occ. eigenvalues --   -0.71512  -0.68039  -0.64870  -0.62984  -0.60936
 Alpha  occ. eigenvalues --   -0.58038  -0.54251  -0.53594  -0.51389  -0.50024
 Alpha virt. eigenvalues --    0.02467   0.06314   0.07390   0.08062   0.08472
 Alpha virt. eigenvalues --    0.09535   0.10419   0.10790   0.11415   0.13632
 Alpha virt. eigenvalues --    0.14332   0.14672   0.16588   0.18107   0.19715

 Mulliken charges:
               1
     1  C    2.208077
     2  C    1.384391
     3  H    0.401635
     4  N    1.568062
     5  O   -1.169652
     6  O   -1.138057
     7  O   -1.061319
     8  O   -1.141633
     9  O   -1.051503
 Sum of Mulliken charges =  -0.00000

 Dipole moment (field-independent basis, Debye):
    X=             -1.9996    Y=             -0.8352    Z=              1.2127  Tot=              2.4833

 Test job not archived.
 1\1\GINC-SE250\SP\RHF\Aug-CC-pVDZ\C2H1N1O5\OHZDE\08-Apr-2025\0\\#t hf
 aug-cc-pvdz iop(5/13=1,5/36=2,99/5=2) pseudo=read geom=check guess=(re
 ad,tcheck) scf=(maxcycle=1)\\title\\0,1\C,0,1.40128,-0.0678236,-0.0368
 799\C,0,-0.67388,0.778489,-0.0717263\H,0,-2.07806,-1.09004,1.02035\N,0
 ,-0.756277,-0.604062,-0.454747\O,0,-1.91068,-1.26495,-0.00328235\O,0,0
 .527877,-1.13253,0.161607\O,0,2.55974,-0.151151,0.188906\O,0,0.717621,
 1.08228,-0.268999\O,0,-1.51861,1.59816,0.273584\\Version=ES64L-G16RevC
 .01\State=1-A\HF=-505.4948844\RMSD=1.111e-02\Dipole=-0.786717,-0.32860

 Normal termination of Gaussian 16 at Tue Apr  8 21:40:52 2025.
