 Gaussian 16, Revision C.01,

 ----------------------------------------------------------------------
 #t hf aug-cc-pvdz symm=none int=(grid=ultrafine) guess=(read,tcheck) s
 table=(opt,rrhf)
 ----------------------------------------------------------------------
 -----
 title
 -----
 Symbolic Z-matrix:
 Charge =  0 Multiplicity = 1

 SCF Done:  E(RHF) =  -908.368905514     A.U. after   14 cycles
 Normal termination of Gaussian 16 at Tue Apr  8 21:09:24 2025.
 Gaussian 16:  ES64L-G16RevC.01  3-Jul-2019

 ----------------------------------------------------------------------
 #t hf aug-cc-pvdz iop(5/13=1,5/36=2,99/5=2) pseudo=read geom=check gue
 ss=(read,tcheck) scf=(maxcycle=1)
 ----------------------------------------------------------------------
 -----
 title
 -----
 Structure from the checkpoint file:  "ANI1ccx_1761_conf18_mol1.chk"
 Charge =  0 Multiplicity = 1

                         Standard orientation:
 ---------------------------------------------------------------------
 Center     Atomic      Atomic             Coordinates (Angstroms)
 Number     Number       Type             X           Y           Z
 ---------------------------------------------------------------------
      1          6           0       -2.245730   -0.147483    0.674421
      2          6           0        2.895860    0.899068   -0.846957
      3          6           0        2.012640   -0.142017   -1.553449
      4          6           0        1.956470   -1.567941    0.536402
      5          6           0        2.181751    1.998659   -0.090826
      6          6           0       -3.833110   -0.703909   -1.173839
      7          6           0       -3.205810    0.414910   -0.403605
      8          6           0       -1.140520   -1.012700    0.091098
      9          6           0        1.150960   -1.056321   -0.648070
     10          1           0        0.852445   -1.885631   -1.237519
     11          1           0        3.399789   -2.569252    1.006151
     12          1           0        0.746231    3.265069   -0.372202
     13          1           0        3.508480    0.504102   -0.042628
     14          1           0        3.622191    1.408418   -1.569709
     15          1           0        2.676880   -0.808996   -2.085579
     16          1           0        1.408780    0.389932   -2.278459
     17          1           0       -0.022375    0.522061    0.387783
     18          1           0       -4.494710   -0.269343   -1.873909
     19          1           0       -4.369680   -1.404489   -0.466161
     20          1           0       -3.064300   -1.237680   -1.739969
     21          1           0       -4.759670    0.629729    0.712363
     22          1           0       -2.597370    1.093250   -1.020399
     23          1           0       -2.835620   -0.763574    1.329911
     24          1           0       -2.450019    1.665200    1.472531
     25          1           0       -1.425400    0.672096    2.371861
     26          7           0       -1.695120    0.987441    1.442201
     27          7           0       -0.003955   -0.317185   -0.171102
     28          8           0       -1.276801   -2.244890   -0.063956
     29          8           0       -4.205900    1.246351    0.216918
     30          8           0        1.786040   -1.201111    1.645501
     31          8           0        2.702401    2.588389    0.807099
     32          8           0        0.961041    2.309409   -0.643413
     33          8           0        2.916069   -2.447681    0.162507
 ---------------------------------------------------------------------

 SCF Done:  E(RHF) =  -909.282030160     A.U. after    2 cycles

 The electronic state is 1-A.
 Alpha  occ. eigenvalues --  -20.61366 -20.60929 -20.56661 -20.55199 -20.54819
 Alpha  occ. eigenvalues --  -20.50934 -15.52026 -15.50085 -11.40119 -11.39890
 Alpha  occ. eigenvalues --  -11.35443 -11.30411 -11.30040 -11.27665 -11.27073
 Alpha  occ. eigenvalues --  -11.26212 -11.23197  -1.56631  -1.54355  -1.47617
 Alpha  occ. eigenvalues --   -1.46430  -1.46214  -1.43871  -1.25870  -1.19659
 Alpha  occ. eigenvalues --   -1.10596  -1.05771  -1.02255  -0.94783  -0.90898
 Alpha  occ. eigenvalues --   -0.86181  -0.83244  -0.81149  -0.80858  -0.74572
 Alpha  occ. eigenvalues --   -0.72657  -0.71876  -0.71217  -0.70785  -0.68894
 Alpha  occ. eigenvalues --   -0.67903  -0.67286  -0.66989  -0.65295  -0.64329
 Alpha  occ. eigenvalues --   -0.62711  -0.61428  -0.60733  -0.59674  -0.59236
 Alpha  occ. eigenvalues --   -0.57827  -0.56513  -0.54940  -0.54206  -0.53525
 Alpha  occ. eigenvalues --   -0.53379  -0.52370  -0.50261  -0.49436  -0.48420
 Alpha  occ. eigenvalues --   -0.46985  -0.45909  -0.44711  -0.44457  -0.42113
 Alpha  occ. eigenvalues --   -0.41398
 Alpha virt. eigenvalues --    0.02946   0.03334   0.03481   0.03828   0.04030
 Alpha virt. eigenvalues --    0.04315   0.05380   0.05557   0.05938   0.07274
 Alpha virt. eigenvalues --    0.07779   0.07950   0.08434   0.09065   0.10174

 Mulliken charges:
               1
     1  C   -1.041520
     2  C   -0.632553
     3  C    0.172618
     4  C    3.383613
     5  C    2.291457
     6  C   -0.321603
     7  C    0.939715
     8  C    0.877707
     9  C   -2.865830
    10  H   -0.019360
    11  H    0.332787
    12  H    0.408693
    13  H    0.177980
    14  H    0.308491
    15  H    0.101713
    16  H    0.143123
    17  H    0.211631
    18  H    0.061695
    19  H    0.270131
    20  H    0.274564
    21  H    0.320367
    22  H    0.132661
    23  H    0.027733
    24  H    0.211314
    25  H    0.269137
    26  N    0.432085
    27  N    2.050665
    28  O   -1.537639
    29  O   -1.472161
    30  O   -1.365452
    31  O   -1.335188
    32  O   -1.438786
    33  O   -1.369786
 Sum of Mulliken charges =  -0.00000

 Dipole moment (field-independent basis, Debye):
    X=             -0.2830    Y=              0.7824    Z=             -1.7120  Tot=              1.9034

 Test job not archived.
 1\1\GINC-SE099\SP\RHF\Aug-CC-pVDZ\C9H16N2O6\OHZDE\08-Apr-2025\0\\#t hf
  aug-cc-pvdz iop(5/13=1,5/36=2,99/5=2) pseudo=read geom=check guess=(r
 ead,tcheck) scf=(maxcycle=1)\\title\\0,1\C,0,-2.24573,-0.147483,0.6744
 2\C,0,2.89586,0.899069,-0.846958\C,0,2.01264,-0.142016,-1.55345\C,0,1.
 95647,-1.56794,0.536401\C,0,2.18175,1.99866,-0.0908264\C,0,-3.83311,-0
 .70391,-1.17384\C,0,-3.20581,0.41491,-0.403606\C,0,-1.14052,-1.0127,0.
 0910973\C,0,1.15096,-1.05632,-0.648071\H,0,0.852445,-1.88563,-1.23752\
 H,0,3.39979,-2.56925,1.00615\H,0,0.74623,3.26507,-0.372203\H,0,3.50848

 Normal termination of Gaussian 16 at Tue Apr  8 21:10:16 2025.
