 Gaussian 16, Revision C.01,

 ----------------------------------------------------------------------
 #t hf aug-cc-pvdz symm=none int=(grid=ultrafine) guess=(read,tcheck) s
 table=(opt,rrhf)
 ----------------------------------------------------------------------
 -----
 title
 -----
 Symbolic Z-matrix:
 Charge =  0 Multiplicity = 1

 SCF Done:  E(RHF) =  -456.211521217     A.U. after   12 cycles
 Normal termination of Gaussian 16 at Tue Apr  8 21:08:42 2025.
 Gaussian 16:  ES64L-G16RevC.01  3-Jul-2019

 ----------------------------------------------------------------------
 #t hf aug-cc-pvdz iop(5/13=1,5/36=2,99/5=2) pseudo=read geom=check gue
 ss=(read,tcheck) scf=(maxcycle=1)
 ----------------------------------------------------------------------
 -----
 title
 -----
 Structure from the checkpoint file:  "ANI1ccx_1844_conf541_mol1.chk"
 Charge =  0 Multiplicity = 1

                         Standard orientation:
 ---------------------------------------------------------------------
 Center     Atomic      Atomic             Coordinates (Angstroms)
 Number     Number       Type             X           Y           Z
 ---------------------------------------------------------------------
      1          1           0       -0.620215   -1.020431   -1.002550
      2          1           0        2.123713   -0.989610    1.965280
      3          1           0        0.581705   -0.263505    1.394340
      4          1           0        1.466373   -0.875596   -0.460967
      5          1           0        1.258981   -0.146493   -1.930560
      6          1           0        1.738063    2.320986   -0.783039
      7          1           0       -1.890645   -1.734415   -1.625330
      8          1           0        1.812787    0.984388    0.120130
      9          1           0       -0.694546    1.482178   -0.415161
     10          1           0       -2.107263    0.951724   -0.681867
     11          1           0       -1.205312    0.620945    1.366150
     12          1           0       -1.432167   -0.927773    1.089000
     13          8           0        1.120463   -1.027606   -1.382920
     14          8           0       -1.699025    1.624765   -0.116431
     15          8           0        1.635952   -0.522134    1.263920
     16          8           0        1.322766    1.477995   -0.580891
     17          8           0       -1.618776   -1.289744   -0.710964
     18          8           0       -0.890314   -0.313575    1.647860
 ---------------------------------------------------------------------

 SCF Done:  E(RHF) =  -456.684452760     A.U. after    2 cycles

 The electronic state is 1-A.
 Alpha  occ. eigenvalues --  -20.57600 -20.56566 -20.55771 -20.55584 -20.54910
 Alpha  occ. eigenvalues --  -20.54235  -1.46080  -1.44010  -1.41667  -1.40940
 Alpha  occ. eigenvalues --   -1.40143  -1.38958  -0.75837  -0.72109  -0.70401
 Alpha  occ. eigenvalues --   -0.68613  -0.67439  -0.65650  -0.62003  -0.61166
 Alpha  occ. eigenvalues --   -0.58049  -0.57533  -0.55937  -0.53069  -0.50713
 Alpha  occ. eigenvalues --   -0.49386  -0.48671  -0.48009  -0.47849  -0.47602
 Alpha virt. eigenvalues --    0.03064   0.03830   0.04413   0.06225   0.07140
 Alpha virt. eigenvalues --    0.07856   0.07908   0.08225   0.09361   0.10415
 Alpha virt. eigenvalues --    0.11434   0.11955   0.16625   0.18596   0.18734

 Mulliken charges:
               1
     1  H    0.850778
     2  H    0.393914
     3  H    1.092220
     4  H    0.848866
     5  H    0.574552
     6  H    0.459892
     7  H    0.417327
     8  H    0.698575
     9  H    0.733134
    10  H    0.477680
    11  H    0.704485
    12  H    0.677429
    13  O   -1.352826
    14  O   -1.139096
    15  O   -1.421619
    16  O   -1.217063
    17  O   -1.212058
    18  O   -1.586190
 Sum of Mulliken charges =  -0.00000

 Dipole moment (field-independent basis, Debye):
    X=              1.7956    Y=              0.9619    Z=             -1.4691  Tot=              2.5115

 Test job not archived.
 1\1\GINC-SE362\SP\RHF\Aug-CC-pVDZ\H12O6\OHZDE\08-Apr-2025\0\\#t hf aug
 -cc-pvdz iop(5/13=1,5/36=2,99/5=2) pseudo=read geom=check guess=(read,
 tcheck) scf=(maxcycle=1)\\title\\0,1\H,0,-0.620218,-1.02043,-1.00255\H
 ,0,2.12371,-0.989617,1.96528\H,0,0.581704,-0.263507,1.39434\H,0,1.4663
 7,-0.875601,-0.460967\H,0,1.25898,-0.146497,-1.93056\H,0,1.73807,2.320
 98,-0.783039\H,0,-1.89065,-1.73441,-1.62533\H,0,1.81279,0.984382,0.120
 13\H,0,-0.694542,1.48218,-0.415161\H,0,-2.10726,0.95173,-0.681867\H,0,
 -1.20531,0.620948,1.36615\H,0,-1.43217,-0.927769,1.089\O,0,1.12046,-1.

 Normal termination of Gaussian 16 at Tue Apr  8 21:08:47 2025.
