 Gaussian 16, Revision C.01,

 ----------------------------------------------------------------------
 #t hf aug-cc-pvdz symm=none int=(grid=ultrafine) guess=(read,tcheck) s
 table=(opt,rrhf)
 ----------------------------------------------------------------------
 -----
 title
 -----
 Symbolic Z-matrix:
 Charge =  0 Multiplicity = 1

 SCF Done:  E(RHF) =  -351.485217948     A.U. after   15 cycles
 Normal termination of Gaussian 16 at Tue Apr  8 21:23:30 2025.
 Gaussian 16:  ES64L-G16RevC.01  3-Jul-2019

 ----------------------------------------------------------------------
 #t hf aug-cc-pvdz iop(5/13=1,5/36=2,99/5=2) pseudo=read geom=check gue
 ss=(read,tcheck) scf=(maxcycle=1)
 ----------------------------------------------------------------------
 -----
 title
 -----
 Structure from the checkpoint file:  "ANI1ccx_371_conf8_mol1.chk"
 Charge =  0 Multiplicity = 1

                         Standard orientation:
 ---------------------------------------------------------------------
 Center     Atomic      Atomic             Coordinates (Angstroms)
 Number     Number       Type             X           Y           Z
 ---------------------------------------------------------------------
      1          6           0        0.779998    0.004369   -0.007166
      2          1           0        0.153959    2.046331    0.155244
      3          7           0       -0.078175    1.036261   -0.000728
      4          7           0       -1.360679    0.611909   -0.022713
      5          7           0       -1.420809   -0.626364   -0.007331
      6          8           0        1.988631   -0.060489   -0.016271
      7          8           0       -0.090669   -1.092659    0.029165
 ---------------------------------------------------------------------

 SCF Done:  E(RHF) =  -351.826008307     A.U. after    2 cycles

 The electronic state is 1-A.
 Alpha  occ. eigenvalues --  -20.66596 -20.56229 -15.67767 -15.66308 -15.63747
 Alpha  occ. eigenvalues --  -11.46080  -1.64247  -1.50416  -1.42863  -1.29865
 Alpha  occ. eigenvalues --   -1.01163  -0.96449  -0.85706  -0.78311  -0.71521
 Alpha  occ. eigenvalues --   -0.68430  -0.64967  -0.60646  -0.59279  -0.59062
 Alpha  occ. eigenvalues --   -0.48544  -0.46142
 Alpha virt. eigenvalues --    0.02164   0.04672   0.08879   0.09576   0.09767
 Alpha virt. eigenvalues --    0.10018   0.11342   0.12842   0.13918   0.15238
 Alpha virt. eigenvalues --    0.16504   0.17453   0.18062   0.20173   0.21802

 Mulliken charges:
               1
     1  C    1.233935
     2  H    0.152779
     3  N    0.431564
     4  N   -0.829034
     5  N    1.283037
     6  O   -0.997060
     7  O   -1.275222
 Sum of Mulliken charges =  -0.00000

 Dipole moment (field-independent basis, Debye):
    X=             -0.8506    Y=              2.9710    Z=              0.2948  Tot=              3.1044

 Test job not archived.
 1\1\GINC-SE368\SP\RHF\Aug-CC-pVDZ\C1H1N3O2\OHZDE\08-Apr-2025\0\\#t hf
 aug-cc-pvdz iop(5/13=1,5/36=2,99/5=2) pseudo=read geom=check guess=(re
 ad,tcheck) scf=(maxcycle=1)\\title\\0,1\C,0,0.779997,0.00436906,-0.007
 1661\H,0,0.153957,2.04633,0.155244\N,0,-0.0781768,1.03626,-0.00072817\
 N,0,-1.36068,0.611908,-0.0227126\N,0,-1.42081,-0.626365,-0.00733133\O,
 0,1.98863,-0.0604888,-0.0162708\O,0,-0.0906702,-1.09266,0.0291655\\Ver
 sion=ES64L-G16RevC.01\State=1-A\HF=-351.8260083\RMSD=3.747e-02\Dipole=
 -0.3346601,1.1688687,0.115982\Quadrupole=-6.1139177,4.5920572,1.521860

 Normal termination of Gaussian 16 at Tue Apr  8 21:23:32 2025.
