 Gaussian 16, Revision C.01,

 ----------------------------------------------------------------------
 #t hf aug-cc-pvdz symm=none int=(grid=ultrafine) guess=(read,tcheck) s
 table=(opt,rrhf)
 ----------------------------------------------------------------------
 -----
 title
 -----
 Symbolic Z-matrix:
 Charge =  0 Multiplicity = 1

 SCF Done:  E(RHF) =  -446.825834691     A.U. after   14 cycles
 Normal termination of Gaussian 16 at Tue Apr  8 21:47:23 2025.
 Gaussian 16:  ES64L-G16RevC.01  3-Jul-2019

 ----------------------------------------------------------------------
 #t hf aug-cc-pvdz iop(5/13=1,5/36=2,99/5=2) pseudo=read geom=check gue
 ss=(read,tcheck) scf=(maxcycle=1)
 ----------------------------------------------------------------------
 -----
 title
 -----
 Structure from the checkpoint file:  "ANI1ccx_555_conf4_mol1.chk"
 Charge =  0 Multiplicity = 1

                         Standard orientation:
 ---------------------------------------------------------------------
 Center     Atomic      Atomic             Coordinates (Angstroms)
 Number     Number       Type             X           Y           Z
 ---------------------------------------------------------------------
      1          6           0        1.416208    0.239234   -0.145928
      2          6           0       -1.511142   -0.046466   -0.004540
      3          1           0        3.374658    0.665532    0.329031
      4          1           0        3.137328   -0.888940    0.053424
      5          1           0        1.087538   -1.734020   -0.485283
      6          1           0       -0.807819   -0.468408   -1.787609
      7          1           0       -0.524458   -0.842402    1.500651
      8          1           0       -1.992322    0.032591    1.985881
      9          7           0        2.682108   -0.056424    0.424507
     10          7           0        0.612170   -0.872679   -0.383304
     11          7           0       -0.664389   -0.715153   -0.811479
     12          7           0       -1.343622   -0.313922    1.302151
     13          8           0        0.890502    1.367960   -0.187520
     14          8           0       -2.479152    0.605326   -0.364528
 ---------------------------------------------------------------------

 SCF Done:  E(RHF) =  -447.277744396     A.U. after    2 cycles

 The electronic state is 1-A.
 Alpha  occ. eigenvalues --  -20.53016 -20.48560 -15.58812 -15.56749 -15.56080
 Alpha  occ. eigenvalues --  -15.50667 -11.41762 -11.36978  -1.47473  -1.44978
 Alpha  occ. eigenvalues --   -1.36142  -1.25242  -1.21547  -1.14622  -0.92432
 Alpha  occ. eigenvalues --   -0.86372  -0.83496  -0.79899  -0.78140  -0.73222
 Alpha  occ. eigenvalues --   -0.71196  -0.65141  -0.63286  -0.61852  -0.59868
 Alpha  occ. eigenvalues --   -0.52792  -0.48285  -0.45884  -0.45658  -0.42600
 Alpha  occ. eigenvalues --   -0.41796
 Alpha virt. eigenvalues --    0.01265   0.03623   0.04381   0.05222   0.06069
 Alpha virt. eigenvalues --    0.06541   0.09419   0.10511   0.10979   0.11735
 Alpha virt. eigenvalues --    0.12837   0.14041   0.14171   0.15298   0.15894

 Mulliken charges:
               1
     1  C    0.195736
     2  C    0.089630
     3  H    0.154163
     4  H    0.099473
     5  H    0.069228
     6  H    0.269431
     7  H    0.127215
     8  H    0.113833
     9  N    0.493646
    10  N    0.333142
    11  N   -0.073743
    12  N    0.538044
    13  O   -1.170856
    14  O   -1.238941
 Sum of Mulliken charges =  -0.00000

 Dipole moment (field-independent basis, Debye):
    X=              6.0092    Y=             -4.6136    Z=              0.0746  Tot=              7.5764

 Test job not archived.
 1\1\GINC-SE095\SP\RHF\Aug-CC-pVDZ\C2H6N4O2\OHZDE\08-Apr-2025\0\\#t hf
 aug-cc-pvdz iop(5/13=1,5/36=2,99/5=2) pseudo=read geom=check guess=(re
 ad,tcheck) scf=(maxcycle=1)\\title\\0,1\C,0,1.41621,0.239234,-0.145929
 \C,0,-1.51114,-0.046466,-0.00454057\H,0,3.37466,0.665533,0.32903\H,0,3
 .13733,-0.888939,0.0534232\H,0,1.08754,-1.73402,-0.485284\H,0,-0.80781
 7,-0.468408,-1.78761\H,0,-0.524456,-0.842402,1.50065\H,0,-1.99232,0.03
 25911,1.98588\N,0,2.68211,-0.0564235,0.424506\N,0,0.612172,-0.872679,-
 0.383305\N,0,-0.664387,-0.715153,-0.81148\N,0,-1.34362,-0.313922,1.302

 Normal termination of Gaussian 16 at Tue Apr  8 21:47:28 2025.
