 Gaussian 16, Revision C.01,

 ----------------------------------------------------------------------
 #t hf aug-cc-pvdz symm=none int=(grid=ultrafine) guess=(read,tcheck) s
 table=(opt,rrhf)
 ----------------------------------------------------------------------
 -----
 title
 -----
 Symbolic Z-matrix:
 Charge =  0 Multiplicity = 1

 SCF Done:  E(RHF) =  -555.302134303     A.U. after   16 cycles
 Normal termination of Gaussian 16 at Tue Apr  8 22:03:43 2025.
 Gaussian 16:  ES64L-G16RevC.01  3-Jul-2019

 ----------------------------------------------------------------------
 #t hf aug-cc-pvdz iop(5/13=1,5/36=2,99/5=2) pseudo=read geom=check gue
 ss=(read,tcheck) scf=(maxcycle=1)
 ----------------------------------------------------------------------
 -----
 title
 -----
 Structure from the checkpoint file:  "ANI1ccx_886_conf20_mol1.chk"
 Charge =  0 Multiplicity = 1

                         Standard orientation:
 ---------------------------------------------------------------------
 Center     Atomic      Atomic             Coordinates (Angstroms)
 Number     Number       Type             X           Y           Z
 ---------------------------------------------------------------------
      1          6           0       -1.320699   -0.707438   -0.066749
      2          6           0        0.921231   -0.707448    0.062667
      3          6           0        0.957882    0.667162    0.092503
      4          6           0       -1.276259    0.720011   -0.012648
      5          1           0       -2.705768   -2.365720   -0.160087
      6          1           0       -3.320549   -0.783224   -0.379197
      7          1           0       -2.420729    2.447260   -0.164255
      8          1           0       -3.235199    1.019140    0.419557
      9          7           0       -2.549949   -1.340330    0.087162
     10          7           0       -0.224205   -1.432410    0.009643
     11          7           0        2.181961   -1.113159    0.011282
     12          7           0        2.171041    1.089921    0.006461
     13          7           0       -0.176914    1.403210    0.094280
     14          7           0       -2.475519    1.372040   -0.104949
     15          8           0        2.938051   -0.000760   -0.112226
 ---------------------------------------------------------------------

 SCF Done:  E(RHF) =  -555.847746373     A.U. after    2 cycles

 The electronic state is 1-A.
 Alpha  occ. eigenvalues --  -20.67093 -15.57956 -15.57571 -15.57390 -15.56275
 Alpha  occ. eigenvalues --  -15.54085 -15.53716 -11.37990 -11.37510 -11.31254
 Alpha  occ. eigenvalues --  -11.30617  -1.63297  -1.36504  -1.28994  -1.26962
 Alpha  occ. eigenvalues --   -1.22714  -1.18373  -1.17233  -0.98791  -0.93058
 Alpha  occ. eigenvalues --   -0.90621  -0.83871  -0.82265  -0.77978  -0.73548
 Alpha  occ. eigenvalues --   -0.73303  -0.72126  -0.69969  -0.64694  -0.64167
 Alpha  occ. eigenvalues --   -0.59338  -0.58247  -0.56667  -0.53575  -0.52325
 Alpha  occ. eigenvalues --   -0.50882  -0.47391  -0.41140  -0.39234
 Alpha virt. eigenvalues --   -0.00477   0.01379   0.03006   0.04976   0.05364
 Alpha virt. eigenvalues --    0.07812   0.08347   0.09395   0.09633   0.10463
 Alpha virt. eigenvalues --    0.11628   0.11929   0.12064   0.12491   0.12781

 Mulliken charges:
               1
     1  C   -1.967411
     2  C   -1.097647
     3  C   -1.310640
     4  C   -1.695406
     5  H    0.083964
     6  H    0.308650
     7  H    0.142777
     8  H    0.202226
     9  N    0.723943
    10  N    1.227508
    11  N    1.436377
    12  N    1.511715
    13  N    1.111724
    14  N    0.841794
    15  O   -1.519573
 Sum of Mulliken charges =   0.00000

 Dipole moment (field-independent basis, Debye):
    X=             -8.9463    Y=              0.3787    Z=             -0.4828  Tot=              8.9673

 Test job not archived.
 1\1\GINC-SE331\SP\RHF\Aug-CC-pVDZ\C4H4N6O1\OHZDE\08-Apr-2025\0\\#t hf
 aug-cc-pvdz iop(5/13=1,5/36=2,99/5=2) pseudo=read geom=check guess=(re
 ad,tcheck) scf=(maxcycle=1)\\title\\0,1\C,0,-1.3207,-0.707438,-0.06674
 9\C,0,0.92123,-0.707448,0.0626673\C,0,0.957881,0.667162,0.0925026\C,0,
 -1.27626,0.720011,-0.0126482\H,0,-2.70577,-2.36572,-0.160087\H,0,-3.32
 055,-0.783224,-0.379197\H,0,-2.42073,2.44726,-0.164255\H,0,-3.2352,1.0
 1914,0.419557\N,0,-2.54995,-1.34033,0.0871618\N,0,-0.224206,-1.43241,0
 .0096432\N,0,2.18196,-1.11316,0.0112821\N,0,2.17104,1.08992,0.00646111

 Normal termination of Gaussian 16 at Tue Apr  8 22:03:51 2025.
