 Gaussian 16, Revision C.01,

 ----------------------------------------------------------------------
 #t hf aug-cc-pvdz symm=none int=(grid=ultrafine) guess=(read,tcheck) s
 table=(opt,rrhf)
 ----------------------------------------------------------------------
 -----
 title
 -----
 Symbolic Z-matrix:
 Charge =  0 Multiplicity = 1

 SCF Done:  E(RHF) =  -903.407979119     A.U. after   15 cycles
 Normal termination of Gaussian 16 at Tue Apr  8 20:33:05 2025.
 Gaussian 16:  ES64L-G16RevC.01  3-Jul-2019

 ----------------------------------------------------------------------
 #t hf aug-cc-pvdz iop(5/13=1,5/36=2,99/5=2) pseudo=read geom=check gue
 ss=(read,tcheck) scf=(maxcycle=1)
 ----------------------------------------------------------------------
 -----
 title
 -----
 Structure from the checkpoint file:  "ANI1ccx_1597_conf3_mol2.chk"
 Charge =  0 Multiplicity = 1

                         Standard orientation:
 ---------------------------------------------------------------------
 Center     Atomic      Atomic             Coordinates (Angstroms)
 Number     Number       Type             X           Y           Z
 ---------------------------------------------------------------------
      1          6           0       -1.918051   -1.379059   -0.302494
      2          6           0       -0.663812   -1.067269    0.522298
      3          6           0       -3.115551   -0.501729    0.101130
      4          6           0       -2.983780    0.936454   -0.339627
      5          6           0        1.213209    0.490928    0.946009
      6          6           0        1.703190    1.834580    0.484590
      7          6           0        2.426599   -0.507452    0.852708
      8          6           0        2.871989   -1.038620   -0.536860
      9          1           0        1.528670    3.142160   -0.848252
     10          1           0        1.866879    0.329366   -1.697519
     11          1           0        3.002079   -0.706207   -2.427259
     12          1           0        2.222979   -1.390900    1.454851
     13          1           0        3.310519   -0.017104    1.284441
     14          1           0        0.901173    0.564338    1.999821
     15          1           0       -0.171557    0.563251   -0.708268
     16          1           0       -4.957420    1.301082    0.308008
     17          1           0       -4.041851   -0.939936   -0.306056
     18          1           0       -3.298571   -0.512734    1.183031
     19          1           0       -1.760141   -1.103309   -1.357109
     20          1           0       -1.509391   -3.297349   -0.638696
     21          1           0       -2.340971   -3.034619    0.720706
     22          1           0       -4.064990    2.627912   -0.312880
     23          7           0       -2.257911   -2.746469   -0.243986
     24          7           0       -4.084950    1.661782   -0.017562
     25          7           0        0.080734   -0.023717    0.121740
     26          7           0        2.722099   -0.202502   -1.590599
     27          8           0        3.486059   -2.077730   -0.656985
     28          8           0       -0.430235   -1.725689    1.531901
     29          8           0       -2.028380    1.386271   -0.976575
     30          8           0        2.468900    2.490510    1.133671
     31          8           0        1.114910    2.307061   -0.645568
 ---------------------------------------------------------------------

 SCF Done:  E(RHF) =  -904.313591459     A.U. after    2 cycles

 The electronic state is 1-A.
 Alpha  occ. eigenvalues --  -20.62390 -20.55761 -20.53925 -20.51624 -20.51285
 Alpha  occ. eigenvalues --  -15.55137 -15.53919 -15.52565 -15.49242 -11.41694
 Alpha  occ. eigenvalues --  -11.39016 -11.36115 -11.36063 -11.32046 -11.28794
 Alpha  occ. eigenvalues --  -11.27156 -11.25871  -1.57430  -1.48108  -1.47795
 Alpha  occ. eigenvalues --   -1.46485  -1.46262  -1.25628  -1.25209  -1.22779
 Alpha  occ. eigenvalues --   -1.21820  -1.08182  -1.05606  -0.97057  -0.92869
 Alpha  occ. eigenvalues --   -0.86188  -0.85426  -0.82284  -0.81832  -0.78348
 Alpha  occ. eigenvalues --   -0.76214  -0.75234  -0.73375  -0.72457  -0.71656
 Alpha  occ. eigenvalues --   -0.69268  -0.68913  -0.67323  -0.64969  -0.64690
 Alpha  occ. eigenvalues --   -0.63960  -0.62900  -0.62208  -0.61263  -0.59826
 Alpha  occ. eigenvalues --   -0.58560  -0.57500  -0.55322  -0.54950  -0.53471
 Alpha  occ. eigenvalues --   -0.51427  -0.49709  -0.47175  -0.46810  -0.46421
 Alpha  occ. eigenvalues --   -0.45626  -0.44710  -0.42836  -0.42130  -0.41589
 Alpha virt. eigenvalues --    0.01628   0.03217   0.03670   0.04303   0.04505
 Alpha virt. eigenvalues --    0.04726   0.05240   0.05925   0.06603   0.07034
 Alpha virt. eigenvalues --    0.07424   0.08282   0.09528   0.09815   0.10344

 Mulliken charges:
               1
     1  C   -2.184942
     2  C    0.506582
     3  C    0.052817
     4  C    0.321280
     5  C   -1.615532
     6  C    2.748018
     7  C   -0.208917
     8  C    0.300603
     9  H    0.394464
    10  H    0.101543
    11  H    0.143618
    12  H    0.210461
    13  H    0.248932
    14  H    0.095099
    15  H    0.321860
    16  H    0.003489
    17  H    0.286074
    18  H    0.248274
    19  H    0.039919
    20  H    0.177375
    21  H    0.273315
    22  H    0.134169
    23  N    1.076562
    24  N    0.867553
    25  N    1.821789
    26  N    0.777488
    27  O   -1.363318
    28  O   -1.471412
    29  O   -1.435415
    30  O   -1.403754
    31  O   -1.467997
 Sum of Mulliken charges =  -0.00000

 Dipole moment (field-independent basis, Debye):
    X=             -6.5656    Y=              3.7766    Z=             -1.6379  Tot=              7.7494

 Test job not archived.
 1\1\GINC-SE212\SP\RHF\Aug-CC-pVDZ\C8H14N4O5\OHZDE\08-Apr-2025\0\\#t hf
  aug-cc-pvdz iop(5/13=1,5/36=2,99/5=2) pseudo=read geom=check guess=(r
 ead,tcheck) scf=(maxcycle=1)\\title\\0,1\C,0,-1.91805,-1.37906,-0.3024
 95\C,0,-0.663811,-1.06727,0.522297\C,0,-3.11555,-0.50173,0.101129\C,0,
 -2.98378,0.936453,-0.339628\C,0,1.21321,0.490927,0.946008\C,0,1.70319,
 1.83458,0.484589\C,0,2.4266,-0.507452,0.852707\C,0,2.87199,-1.03862,-0
 .536861\H,0,1.52867,3.14216,-0.848253\H,0,1.86688,0.329366,-1.69752\H,
 0,3.00208,-0.706207,-2.42726\H,0,2.22298,-1.3909,1.45485\H,0,3.31052,-

 Normal termination of Gaussian 16 at Tue Apr  8 20:33:54 2025.
