 Gaussian 16, Revision C.01,

 ----------------------------------------------------------------------
 #t hf aug-cc-pvdz symm=none int=(grid=ultrafine) guess=(read,tcheck) s
 table=(opt,rrhf)
 ----------------------------------------------------------------------
 -----
 title
 -----
 Symbolic Z-matrix:
 Charge =  0 Multiplicity = 1

 SCF Done:  E(RHF) =  -678.605903251     A.U. after   15 cycles
 Normal termination of Gaussian 16 at Tue Apr  8 20:16:21 2025.
 Gaussian 16:  ES64L-G16RevC.01  3-Jul-2019

 ----------------------------------------------------------------------
 #t hf aug-cc-pvdz iop(5/13=1,5/36=2,99/5=2) pseudo=read geom=check gue
 ss=(read,tcheck) scf=(maxcycle=1)
 ----------------------------------------------------------------------
 -----
 title
 -----
 Structure from the checkpoint file:  "ANI1ccx_1596_conf2_mol1.chk"
 Charge =  0 Multiplicity = 1

                         Standard orientation:
 ---------------------------------------------------------------------
 Center     Atomic      Atomic             Coordinates (Angstroms)
 Number     Number       Type             X           Y           Z
 ---------------------------------------------------------------------
      1          6           0        4.287161   -0.568002   -0.017735
      2          6           0        3.150121   -1.007030   -0.946804
      3          6           0        1.833061   -1.129790   -0.129838
      4          6           0        0.522838    0.296929    1.176300
      5          6           0       -1.424729   -1.343160    1.138390
      6          6           0       -2.761079   -1.443820   -0.731591
      7          6           0       -1.259039    0.560875   -0.487288
      8          6           0       -0.367739    2.633960   -0.079196
      9          1           0       -2.556689    0.373614   -1.995430
     10          1           0       -3.866819   -1.433800   -1.068270
     11          1           0       -2.186779   -2.321730   -1.227030
     12          1           0       -0.822413   -2.240630    0.911087
     13          1           0       -1.626279   -1.298790    2.255360
     14          1           0        0.450347    1.317040    1.519520
     15          1           0        0.649766   -0.472389    2.023520
     16          1           0        1.966001   -1.701960    0.805297
     17          1           0        3.389131   -2.069560   -1.311440
     18          1           0        3.015611   -0.402300   -1.804520
     19          1           0        5.335011   -0.432720   -0.451245
     20          1           0        4.443431   -1.388110    0.767362
     21          1           0        3.991511    0.337657    0.506069
     22          1           0        1.040551   -1.720730   -0.699060
     23          7           0       -0.812423   -0.142623    0.626837
     24          7           0       -2.111479   -0.146378   -1.148490
     25          7           0       -0.846677    1.715250   -0.923910
     26          7           0       -0.036602    3.608920    0.499357
     27          8           0        1.435141    0.228569    0.191661
     28          8           0       -2.742099   -1.452510    0.665687
 ---------------------------------------------------------------------

 SCF Done:  E(RHF) =  -679.292436285     A.U. after    2 cycles

 The electronic state is 1-A.
 Alpha  occ. eigenvalues --  -20.60361 -20.56840 -15.55813 -15.53840 -15.49354
 Alpha  occ. eigenvalues --  -15.46469 -11.39486 -11.39108 -11.36736 -11.34293
 Alpha  occ. eigenvalues --  -11.31393 -11.28160 -11.24938 -11.23857  -1.54173
 Alpha  occ. eigenvalues --   -1.50733  -1.34758  -1.23467  -1.22778  -1.16122
 Alpha  occ. eigenvalues --   -1.07013  -1.01769  -0.97694  -0.95839  -0.90994
 Alpha  occ. eigenvalues --   -0.84837  -0.82545  -0.80186  -0.78577  -0.74902
 Alpha  occ. eigenvalues --   -0.72052  -0.70062  -0.68873  -0.68122  -0.67147
 Alpha  occ. eigenvalues --   -0.64202  -0.62415  -0.59632  -0.59134  -0.57216
 Alpha  occ. eigenvalues --   -0.56676  -0.55704  -0.55079  -0.52680  -0.51449
 Alpha  occ. eigenvalues --   -0.50796  -0.49415  -0.49115  -0.48926  -0.45559
 Alpha  occ. eigenvalues --   -0.44027  -0.42200  -0.39068
 Alpha virt. eigenvalues --    0.02035   0.02431   0.02839   0.03569   0.04039
 Alpha virt. eigenvalues --    0.04289   0.05129   0.05991   0.06866   0.07258
 Alpha virt. eigenvalues --    0.07481   0.08377   0.08995   0.09478   0.10382

 Mulliken charges:
               1
     1  C   -0.456043
     2  C   -0.380499
     3  C    0.267815
     4  C    0.082866
     5  C    0.541898
     6  C    0.111834
     7  C   -2.389330
     8  C   -1.721805
     9  H    0.270890
    10  H    0.107087
    11  H    0.254301
    12  H    0.106198
    13  H    0.099717
    14  H    0.036216
    15  H    0.203991
    16  H    0.133265
    17  H    0.313730
    18  H    0.070619
    19  H    0.140419
    20  H    0.231929
    21  H    0.196893
    22  H    0.172930
    23  N    1.192916
    24  N    0.590718
    25  N    1.279834
    26  N    1.072888
    27  O   -1.170802
    28  O   -1.360473
 Sum of Mulliken charges =   0.00000

 Dipole moment (field-independent basis, Debye):
    X=             -2.0476    Y=             -9.8643    Z=             -1.0035  Tot=             10.1245

 Test job not archived.
 1\1\GINC-SE159\SP\RHF\Aug-CC-pVDZ\C8H14N4O2\OHZDE\08-Apr-2025\0\\#t hf
  aug-cc-pvdz iop(5/13=1,5/36=2,99/5=2) pseudo=read geom=check guess=(r
 ead,tcheck) scf=(maxcycle=1)\\title\\0,1\C,0,4.28716,-0.568002,-0.0177
 348\C,0,3.15012,-1.00703,-0.946804\C,0,1.83306,-1.12979,-0.129838\C,0,
 0.522837,0.296929,1.1763\C,0,-1.42473,-1.34316,1.13839\C,0,-2.76108,-1
 .44382,-0.731591\C,0,-1.25904,0.560875,-0.487288\C,0,-0.36774,2.63396,
 -0.0791957\H,0,-2.55669,0.373614,-1.99543\H,0,-3.86682,-1.4338,-1.0682
 7\H,0,-2.18678,-2.32173,-1.22703\H,0,-0.822414,-2.24063,0.911087\H,0,-

 Normal termination of Gaussian 16 at Tue Apr  8 20:16:50 2025.
