 Gaussian 16, Revision C.01,

 ----------------------------------------------------------------------
 #t hf aug-cc-pvdz symm=none int=(grid=ultrafine) guess=(read,tcheck) s
 table=(opt,rrhf)
 ----------------------------------------------------------------------
 -----
 title
 -----
 Symbolic Z-matrix:
 Charge =  0 Multiplicity = 1

 SCF Done:  E(RHF) =  -393.469088181     A.U. after   15 cycles
 Normal termination of Gaussian 16 at Tue Apr  8 21:34:40 2025.
 Gaussian 16:  ES64L-G16RevC.01  3-Jul-2019

 ----------------------------------------------------------------------
 #t hf aug-cc-pvdz iop(5/13=1,5/36=2,99/5=2) pseudo=read geom=check gue
 ss=(read,tcheck) scf=(maxcycle=1)
 ----------------------------------------------------------------------
 -----
 title
 -----
 Structure from the checkpoint file:  "ANI1ccx_388_conf4_mol1.chk"
 Charge =  0 Multiplicity = 1

                         Standard orientation:
 ---------------------------------------------------------------------
 Center     Atomic      Atomic             Coordinates (Angstroms)
 Number     Number       Type             X           Y           Z
 ---------------------------------------------------------------------
      1          6           0        2.132653    0.171865   -0.187286
      2          1           0        0.361970    0.096603    0.311330
      3          1           0        1.759982    1.012860   -0.823408
      4          1           0       -1.661158    1.697850    0.433717
      5          7           0       -2.372547   -0.007435    0.355210
      6          8           0        1.184513   -0.371296    0.573161
      7          8           0        3.278123   -0.175087   -0.191714
      8          8           0       -1.460828    0.924638   -0.139288
      9          8           0       -2.582917   -0.851562   -0.402708
 ---------------------------------------------------------------------

 SCF Done:  E(RHF) =  -393.846335449     A.U. after    2 cycles

 The electronic state is 1-A.
 Alpha  occ. eigenvalues --  -20.67677 -20.66593 -20.61074 -20.54120 -15.75826
 Alpha  occ. eigenvalues --  -11.39872  -1.73151  -1.55463  -1.54643  -1.46218
 Alpha  occ. eigenvalues --   -1.00520  -0.86079  -0.84266  -0.79743  -0.78831
 Alpha  occ. eigenvalues --   -0.74654  -0.66731  -0.66050  -0.62936  -0.59432
 Alpha  occ. eigenvalues --   -0.55885  -0.49460  -0.47664  -0.44869
 Alpha virt. eigenvalues --    0.01972   0.04118   0.04733   0.06667   0.08485
 Alpha virt. eigenvalues --    0.10935   0.11655   0.12148   0.14425   0.15804
 Alpha virt. eigenvalues --    0.16063   0.16891   0.17388   0.17980   0.19667

 Mulliken charges:
               1
     1  C    1.393936
     2  H    0.612823
     3  H    0.130240
     4  H    0.393711
     5  N    1.632367
     6  O   -1.095119
     7  O   -1.019124
     8  O   -1.175372
     9  O   -0.873462
 Sum of Mulliken charges =  -0.00000

 Dipole moment (field-independent basis, Debye):
    X=             -4.4399    Y=              3.5624    Z=             -0.0458  Tot=              5.6926

 Test job not archived.
 1\1\GINC-SE364\SP\RHF\Aug-CC-pVDZ\C1H3N1O4\OHZDE\08-Apr-2025\0\\#t hf
 aug-cc-pvdz iop(5/13=1,5/36=2,99/5=2) pseudo=read geom=check guess=(re
 ad,tcheck) scf=(maxcycle=1)\\title\\0,1\C,0,2.13265,0.171865,-0.187286
 \H,0,0.361967,0.096603,0.31133\H,0,1.75998,1.01286,-0.823408\H,0,-1.66
 116,1.69785,0.433717\N,0,-2.37255,-0.00743485,0.35521\O,0,1.18451,-0.3
 71296,0.573161\O,0,3.27812,-0.175087,-0.191714\O,0,-1.46083,0.924638,-
 0.139288\O,0,-2.58292,-0.851562,-0.402708\\Version=ES64L-G16RevC.01\St
 ate=1-A\HF=-393.8463354\RMSD=9.771e-03\Dipole=-1.7467737,1.401565,-0.0

 Normal termination of Gaussian 16 at Tue Apr  8 21:34:42 2025.
