 Gaussian 16, Revision C.01,

 ----------------------------------------------------------------------
 #t hf aug-cc-pvdz symm=none int=(grid=ultrafine) guess=(read,tcheck) s
 table=(opt,rrhf)
 ----------------------------------------------------------------------
 -----
 title
 -----
 Symbolic Z-matrix:
 Charge =  0 Multiplicity = 1

 SCF Done:  E(RHF) =  -942.453063829     A.U. after   14 cycles
 Normal termination of Gaussian 16 at Tue Apr  8 21:11:41 2025.
 Gaussian 16:  ES64L-G16RevC.01  3-Jul-2019

 ----------------------------------------------------------------------
 #t hf aug-cc-pvdz iop(5/13=1,5/36=2,99/5=2) pseudo=read geom=check gue
 ss=(read,tcheck) scf=(maxcycle=1)
 ----------------------------------------------------------------------
 -----
 title
 -----
 Structure from the checkpoint file:  "ANI1ccx_1763_conf9_mol2.chk"
 Charge =  0 Multiplicity = 1

                         Standard orientation:
 ---------------------------------------------------------------------
 Center     Atomic      Atomic             Coordinates (Angstroms)
 Number     Number       Type             X           Y           Z
 ---------------------------------------------------------------------
      1          6           0        1.963721   -1.565010   -0.674519
      2          6           0       -0.793065    1.560049    1.082869
      3          6           0       -1.478630    0.358091    1.662349
      4          6           0       -2.826760   -1.005042   -0.016225
      5          6           0       -1.232221    1.964359   -0.299084
      6          6           0        2.885760    0.688045    0.077736
      7          6           0        3.204230   -0.705394   -0.364835
      8          6           0        0.903015   -1.367470    0.452353
      9          6           0       -1.533170   -0.904992    0.820542
     10          1           0       -0.963929    0.180511    2.633999
     11          1           0       -3.437620   -1.057482   -1.776061
     12          1           0        0.708960    2.279299   -1.002941
     13          1           0       -0.571617    2.716019   -2.095631
     14          1           0       -0.917841    2.418199    1.754779
     15          1           0        0.276356    1.403319    1.086699
     16          1           0       -2.521380    0.631980    1.940199
     17          1           0       -1.640539   -1.735641    1.532709
     18          1           0       -0.459721   -0.961124   -0.941414
     19          1           0        2.951470    0.129769    2.022239
     20          1           0        2.749849    1.804880    1.750229
     21          1           0        3.780590   -1.208789    0.417067
     22          1           0        3.918770   -0.628783   -1.189431
     23          1           0        2.287611   -2.617060   -0.594314
     24          1           0        2.100100   -1.056470   -2.686131
     25          1           0        1.010871   -2.159600   -2.330931
     26          7           0        1.379450   -1.269980   -1.974061
     27          7           0        3.067090    0.924407    1.411729
     28          7           0       -0.351463   -1.099201    0.005576
     29          7           0       -0.291697    2.418419   -1.173451
     30          8           0        1.182491   -1.523650    1.631309
     31          8           0        2.428030    1.522230   -0.687665
     32          8           0       -3.941040   -0.914411    0.430596
     33          8           0       -2.400401    1.900728   -0.668382
     34          8           0       -2.575690   -1.121192   -1.312951
 ---------------------------------------------------------------------

 SCF Done:  E(RHF) =  -943.399661812     A.U. after    2 cycles

 The electronic state is 1-A.
 Alpha  occ. eigenvalues --  -20.60489 -20.53551 -20.53241 -20.52760 -20.48948
 Alpha  occ. eigenvalues --  -15.53912 -15.53196 -15.52403 -15.49971 -11.39662
 Alpha  occ. eigenvalues --  -11.38222 -11.37581 -11.34320 -11.31559 -11.30193
 Alpha  occ. eigenvalues --  -11.27486 -11.24360 -11.24285  -1.55879  -1.48620
 Alpha  occ. eigenvalues --   -1.47676  -1.45140  -1.43806  -1.27219  -1.24354
 Alpha  occ. eigenvalues --   -1.21966  -1.19295  -1.09344  -1.06706  -1.01686
 Alpha  occ. eigenvalues --   -0.94089  -0.90134  -0.85220  -0.83615  -0.82309
 Alpha  occ. eigenvalues --   -0.79138  -0.77711  -0.74827  -0.73788  -0.72958
 Alpha  occ. eigenvalues --   -0.71363  -0.70409  -0.70298  -0.69183  -0.67307
 Alpha  occ. eigenvalues --   -0.66608  -0.65023  -0.63340  -0.62765  -0.61843
 Alpha  occ. eigenvalues --   -0.60150  -0.59613  -0.59018  -0.57986  -0.56648
 Alpha  occ. eigenvalues --   -0.55847  -0.53683  -0.53065  -0.51740  -0.50021
 Alpha  occ. eigenvalues --   -0.48723  -0.47257  -0.46460  -0.45315  -0.44688
 Alpha  occ. eigenvalues --   -0.42617  -0.42539  -0.41234  -0.40487
 Alpha virt. eigenvalues --    0.02098   0.03064   0.03495   0.03674   0.04276
 Alpha virt. eigenvalues --    0.04754   0.05154   0.05420   0.05699   0.07327
 Alpha virt. eigenvalues --    0.07751   0.07973   0.08506   0.09071   0.09865

 Mulliken charges:
               1
     1  C   -1.319983
     2  C   -0.042931
     3  C   -0.410125
     4  C    3.185458
     5  C    0.338511
     6  C    0.190559
     7  C   -0.145919
     8  C    0.654113
     9  C   -2.110420
    10  H    0.232805
    11  H    0.469757
    12  H    0.038220
    13  H    0.093055
    14  H    0.255134
    15  H    0.097047
    16  H    0.144499
    17  H    0.169105
    18  H    0.336100
    19  H    0.226418
    20  H    0.071508
    21  H    0.160694
    22  H    0.144444
    23  H    0.248188
    24  H    0.153068
    25  H    0.262158
    26  N    0.542959
    27  N    0.952307
    28  N    1.859984
    29  N    0.960195
    30  O   -1.648342
    31  O   -1.614158
    32  O   -1.487070
    33  O   -1.492123
    34  O   -1.515217
 Sum of Mulliken charges =  -0.00000

 Dipole moment (field-independent basis, Debye):
    X=              5.9012    Y=             -2.9420    Z=             -1.5145  Tot=              6.7656

 Test job not archived.
 1\1\GINC-SE332\SP\RHF\Aug-CC-pVDZ\C9H16N4O5\OHZDE\08-Apr-2025\0\\#t hf
  aug-cc-pvdz iop(5/13=1,5/36=2,99/5=2) pseudo=read geom=check guess=(r
 ead,tcheck) scf=(maxcycle=1)\\title\\0,1\C,0,1.96372,-1.56501,-0.67451
 8\C,0,-0.793065,1.56005,1.08287\C,0,-1.47863,0.358092,1.66235\C,0,-2.8
 2676,-1.00504,-0.0162243\C,0,-1.23222,1.96436,-0.299083\C,0,2.88576,0.
 688045,0.0777371\C,0,3.20423,-0.705394,-0.364834\C,0,0.903014,-1.36747
 ,0.452354\C,0,-1.53317,-0.904991,0.820543\H,0,-0.963929,0.180512,2.634
 \H,0,-3.43762,-1.05748,-1.77606\H,0,0.708961,2.2793,-1.00294\H,0,-0.57

 Normal termination of Gaussian 16 at Tue Apr  8 21:12:31 2025.
