 Gaussian 16, Revision C.01,

 ----------------------------------------------------------------------
 #t hf aug-cc-pvdz symm=none int=(grid=ultrafine) guess=(read,tcheck) s
 table=(opt,rrhf)
 ----------------------------------------------------------------------
 -----
 title
 -----
 Symbolic Z-matrix:
 Charge =  0 Multiplicity = 1

 SCF Done:  E(RHF) =  -460.222817362     A.U. after   17 cycles
 Normal termination of Gaussian 16 at Tue Apr  8 21:26:37 2025.
 Gaussian 16:  ES64L-G16RevC.01  3-Jul-2019

 ----------------------------------------------------------------------
 #t hf aug-cc-pvdz iop(5/13=1,5/36=2,99/5=2) pseudo=read geom=check gue
 ss=(read,tcheck) scf=(maxcycle=1)
 ----------------------------------------------------------------------
 -----
 title
 -----
 Structure from the checkpoint file:  "ANI1ccx_373_conf23_mol1.chk"
 Charge =  0 Multiplicity = 1

                         Standard orientation:
 ---------------------------------------------------------------------
 Center     Atomic      Atomic             Coordinates (Angstroms)
 Number     Number       Type             X           Y           Z
 ---------------------------------------------------------------------
      1          6           0       -0.045369   -0.037372   -0.120827
      2          1           0        2.767520    1.061990   -0.218346
      3          7           0       -1.465680    0.019616    0.071421
      4          7           0        0.804282   -1.120080    0.127446
      5          7           0        2.110420   -0.702847    0.240419
      6          7           0        1.972340    0.547491   -0.121638
      7          7           0        0.740177    0.983128   -0.246151
      8          8           0       -1.774530    1.120139    0.295172
      9          8           0       -2.178730   -0.986253   -0.239818
 ---------------------------------------------------------------------

 SCF Done:  E(RHF) =  -460.664473848     A.U. after    2 cycles

 The electronic state is 1-A.
 Alpha  occ. eigenvalues --  -20.64799 -20.61203 -15.83678 -15.68953 -15.66221
 Alpha  occ. eigenvalues --  -15.61904 -15.59887 -11.39804  -1.73897  -1.54051
 Alpha  occ. eigenvalues --   -1.53483  -1.30918  -1.27673  -1.12399  -1.01829
 Alpha  occ. eigenvalues --   -0.93541  -0.88457  -0.85075  -0.80524  -0.78307
 Alpha  occ. eigenvalues --   -0.76250  -0.67651  -0.61398  -0.55018  -0.54203
 Alpha  occ. eigenvalues --   -0.52700  -0.51730  -0.50295  -0.47909
 Alpha virt. eigenvalues --   -0.00343   0.01998   0.02530   0.07494   0.09923
 Alpha virt. eigenvalues --    0.10223   0.10811   0.11124   0.12728   0.13371
 Alpha virt. eigenvalues --    0.13993   0.14460   0.14729   0.16545   0.18637

 Mulliken charges:
               1
     1  C   -0.430749
     2  H    0.028325
     3  N    2.513803
     4  N    0.145999
     5  N    0.020889
     6  N    0.071647
     7  N    0.159624
     8  O   -1.195646
     9  O   -1.313891
 Sum of Mulliken charges =  -0.00000

 Dipole moment (field-independent basis, Debye):
    X=              3.4485    Y=              2.6942    Z=             -0.4178  Tot=              4.3961

 Test job not archived.
 1\1\GINC-SE342\SP\RHF\Aug-CC-pVDZ\C1H1N5O2\OHZDE\08-Apr-2025\0\\#t hf
 aug-cc-pvdz iop(5/13=1,5/36=2,99/5=2) pseudo=read geom=check guess=(re
 ad,tcheck) scf=(maxcycle=1)\\title\\0,1\C,0,-0.0453685,-0.0373711,-0.1
 20827\H,0,2.76752,1.06199,-0.218346\N,0,-1.46568,0.0196174,0.0714205\N
 ,0,0.804282,-1.12008,0.127446\N,0,2.11042,-0.702847,0.240419\N,0,1.972
 34,0.547491,-0.121638\N,0,0.740177,0.983128,-0.246151\O,0,-1.77453,1.1
 2014,0.295172\O,0,-2.17873,-0.986251,-0.239818\\Version=ES64L-G16RevC.
 01\State=1-A\HF=-460.6644738\RMSD=3.610e-02\Dipole=1.3567591,1.059965,

 Normal termination of Gaussian 16 at Tue Apr  8 21:26:40 2025.
