 Gaussian 16, Revision C.01,

 ----------------------------------------------------------------------
 #t hf aug-cc-pvdz symm=none int=(grid=ultrafine) guess=(read,tcheck) s
 table=(opt,rrhf)
 ----------------------------------------------------------------------
 -----
 title
 -----
 Symbolic Z-matrix:
 Charge =  0 Multiplicity = 1

 SCF Done:  E(RHF) =  -555.314519233     A.U. after   17 cycles
 Normal termination of Gaussian 16 at Tue Apr  8 22:04:13 2025.
 Gaussian 16:  ES64L-G16RevC.01  3-Jul-2019

 ----------------------------------------------------------------------
 #t hf aug-cc-pvdz iop(5/13=1,5/36=2,99/5=2) pseudo=read geom=check gue
 ss=(read,tcheck) scf=(maxcycle=1)
 ----------------------------------------------------------------------
 -----
 title
 -----
 Structure from the checkpoint file:  "ANI1ccx_886_conf8_mol1.chk"
 Charge =  0 Multiplicity = 1

                         Standard orientation:
 ---------------------------------------------------------------------
 Center     Atomic      Atomic             Coordinates (Angstroms)
 Number     Number       Type             X           Y           Z
 ---------------------------------------------------------------------
      1          6           0        1.302060    0.753874    0.079605
      2          6           0       -0.953629    0.709709    0.042413
      3          6           0       -0.965102   -0.718189   -0.000429
      4          6           0        1.329680   -0.699431    0.031366
      5          1           0        2.475049    2.336869   -0.402887
      6          1           0        3.276670    0.801916   -0.395402
      7          1           0        2.381250   -2.354561   -0.206977
      8          1           0        3.044680   -1.249111    0.850153
      9          7           0        2.528500    1.389649   -0.024365
     10          7           0        0.181761    1.428449   -0.019195
     11          7           0       -2.195460    1.123069    0.098262
     12          7           0       -2.183050   -1.171051   -0.102216
     13          7           0        0.210988   -1.390031    0.017357
     14          7           0        2.579250   -1.352441   -0.043265
     15          8           0       -2.913700   -0.000549   -0.031083
 ---------------------------------------------------------------------

 SCF Done:  E(RHF) =  -555.861672444     A.U. after    2 cycles

 The electronic state is 1-A.
 Alpha  occ. eigenvalues --  -20.66203 -15.59455 -15.58863 -15.56528 -15.55869
 Alpha  occ. eigenvalues --  -15.55116 -15.53716 -11.38253 -11.38010 -11.32262
 Alpha  occ. eigenvalues --  -11.31810  -1.62083  -1.35987  -1.29242  -1.26574
 Alpha  occ. eigenvalues --   -1.23806  -1.19147  -1.16401  -0.98467  -0.93156
 Alpha  occ. eigenvalues --   -0.90124  -0.83726  -0.81429  -0.76736  -0.74265
 Alpha  occ. eigenvalues --   -0.72983  -0.71867  -0.71606  -0.64206  -0.63261
 Alpha  occ. eigenvalues --   -0.58967  -0.57973  -0.56882  -0.54346  -0.53736
 Alpha  occ. eigenvalues --   -0.51605  -0.47181  -0.42389  -0.38916
 Alpha virt. eigenvalues --   -0.01217   0.01719   0.03408   0.04792   0.05613
 Alpha virt. eigenvalues --    0.07837   0.08233   0.09308   0.09686   0.10233
 Alpha virt. eigenvalues --    0.11359   0.12066   0.12188   0.12508   0.12748

 Mulliken charges:
               1
     1  C   -1.510403
     2  C   -1.328293
     3  C   -1.161254
     4  C   -1.695201
     5  H    0.087471
     6  H    0.195337
     7  H    0.143230
     8  H    0.336175
     9  N    0.776300
    10  N    1.036881
    11  N    1.489757
    12  N    1.410854
    13  N    0.978641
    14  N    0.757251
    15  O   -1.516745
 Sum of Mulliken charges =  -0.00000

 Dipole moment (field-independent basis, Debye):
    X=              7.9210    Y=             -0.6518    Z=              0.2006  Tot=              7.9503

 Test job not archived.
 1\1\GINC-SE364\SP\RHF\Aug-CC-pVDZ\C4H4N6O1\OHZDE\08-Apr-2025\0\\#t hf
 aug-cc-pvdz iop(5/13=1,5/36=2,99/5=2) pseudo=read geom=check guess=(re
 ad,tcheck) scf=(maxcycle=1)\\title\\0,1\C,0,1.30206,0.753875,0.0796046
 \C,0,-0.953629,0.70971,0.0424128\C,0,-0.965102,-0.718188,-0.00042852\C
 ,0,1.32968,-0.69943,0.0313664\H,0,2.47505,2.33687,-0.402887\H,0,3.2766
 7,0.801917,-0.395402\H,0,2.38125,-2.35456,-0.206977\H,0,3.04468,-1.249
 11,0.850153\N,0,2.5285,1.38965,-0.0243649\N,0,0.181761,1.42845,-0.0191
 953\N,0,-2.19546,1.12307,0.0982623\N,0,-2.18305,-1.17105,-0.102216\N,0

 Normal termination of Gaussian 16 at Tue Apr  8 22:04:20 2025.
