 Gaussian 16, Revision C.01,

 ----------------------------------------------------------------------
 #t hf aug-cc-pvdz symm=none int=(grid=ultrafine) guess=(read,tcheck) s
 table=(opt,rrhf)
 ----------------------------------------------------------------------
 -----
 title
 -----
 Symbolic Z-matrix:
 Charge =  0 Multiplicity = 1

 SCF Done:  E(RHF) =  -923.683065612     A.U. after   15 cycles
 Normal termination of Gaussian 16 at Tue Apr  8 21:29:56 2025.
 Gaussian 16:  ES64L-G16RevC.01  3-Jul-2019

 ----------------------------------------------------------------------
 #t hf aug-cc-pvdz iop(5/13=1,5/36=2,99/5=2) pseudo=read geom=check gue
 ss=(read,tcheck) scf=(maxcycle=1)
 ----------------------------------------------------------------------
 -----
 title
 -----
 Structure from the checkpoint file:  "ANI1ccx_1787_conf1_mol1.chk"
 Charge =  0 Multiplicity = 1

                         Standard orientation:
 ---------------------------------------------------------------------
 Center     Atomic      Atomic             Coordinates (Angstroms)
 Number     Number       Type             X           Y           Z
 ---------------------------------------------------------------------
      1          6           0       -1.712050   -1.275078   -0.225659
      2          6           0        1.665572    2.255479    0.388413
      3          6           0        2.394472    1.415219   -0.649790
      4          6           0        1.568421    0.321206   -1.312310
      5          6           0       -0.803144    2.606031   -0.156027
      6          6           0        1.365040   -0.911744   -0.442924
      7          6           0       -3.168530   -0.801323   -0.069370
      8          6           0       -0.800068   -0.671925    0.858850
      9          6           0        2.650740   -1.687111   -0.016903
     10          1           0        2.667112    2.109509   -1.468600
     11          1           0        1.615159   -2.322861    1.345730
     12          1           0       -2.309668    2.417052    1.250830
     13          1           0       -0.877614    2.477911    1.973640
     14          1           0       -0.979960    2.102521   -2.048410
     15          1           0        0.550285    3.997390    0.313438
     16          1           0        1.317622    1.659170    1.256350
     17          1           0        2.416593    2.976839    0.778235
     18          1           0        3.349271    1.027488   -0.212991
     19          1           0        2.097071    0.004798   -2.230870
     20          1           0        0.592951    0.699164   -1.609660
     21          1           0       -1.908691   -3.145768    0.621475
     22          1           0       -1.321950   -0.872795   -1.190460
     23          1           0       -3.198309    0.277393   -0.269379
     24          1           0       -2.202721   -3.132648   -0.920134
     25          1           0       -4.816880   -1.258386   -1.061220
     26          1           0        1.025661   -0.262710    1.519400
     27          1           0        0.810516   -1.650960   -1.057410
     28          1           0       -3.479740   -1.046837    0.935305
     29          7           0       -1.577621   -2.705538   -0.229920
     30          7           0        0.591007   -0.785419    0.773453
     31          7           0        0.602427    3.135360   -0.210690
     32          7           0       -1.517938    2.203142   -1.183080
     33          7           0       -1.380387    2.767421    1.146090
     34          8           0        3.692520   -1.670932   -0.657373
     35          8           0       -1.255969   -0.091414    1.820520
     36          8           0       -3.897480   -1.556307   -1.024650
     37          8           0        2.544449   -2.414541    1.081270
 ---------------------------------------------------------------------

 SCF Done:  E(RHF) =  -924.617399090     A.U. after    2 cycles

 The electronic state is 1-A.
 Alpha  occ. eigenvalues --  -20.60408 -20.56259 -20.54423 -20.53029 -15.55304
 Alpha  occ. eigenvalues --  -15.52397 -15.51943 -15.50685 -15.49228 -11.39738
 Alpha  occ. eigenvalues --  -11.38643 -11.37544 -11.31456 -11.29682 -11.29173
 Alpha  occ. eigenvalues --  -11.29140 -11.25403 -11.24782  -1.55722  -1.49819
 Alpha  occ. eigenvalues --   -1.46263  -1.44362  -1.27373  -1.27109  -1.21298
 Alpha  occ. eigenvalues --   -1.18012  -1.15017  -1.09275  -1.02046  -1.01593
 Alpha  occ. eigenvalues --   -0.93797  -0.90491  -0.85062  -0.83443  -0.82015
 Alpha  occ. eigenvalues --   -0.80543  -0.77361  -0.75531  -0.75120  -0.72490
 Alpha  occ. eigenvalues --   -0.70753  -0.70061  -0.69528  -0.67384  -0.66786
 Alpha  occ. eigenvalues --   -0.66337  -0.65985  -0.64614  -0.63302  -0.62892
 Alpha  occ. eigenvalues --   -0.62073  -0.60578  -0.59842  -0.58825  -0.57137
 Alpha  occ. eigenvalues --   -0.56141  -0.54722  -0.53034  -0.52579  -0.51343
 Alpha  occ. eigenvalues --   -0.50178  -0.48256  -0.46594  -0.46259  -0.46057
 Alpha  occ. eigenvalues --   -0.45804  -0.44797  -0.44614  -0.42804  -0.41796
 Alpha virt. eigenvalues --    0.02866   0.03136   0.03606   0.03653   0.04050
 Alpha virt. eigenvalues --    0.04314   0.04752   0.05429   0.06211   0.06902
 Alpha virt. eigenvalues --    0.07068   0.07797   0.08119   0.08244   0.08954

 Mulliken charges:
               1
     1  C   -1.956011
     2  C   -0.373334
     3  C   -0.496157
     4  C    0.327862
     5  C   -4.453564
     6  C   -1.412418
     7  C    1.205113
     8  C    0.397639
     9  C    2.785417
    10  H    0.170840
    11  H    0.548087
    12  H    0.036658
    13  H    0.133392
    14  H    0.095958
    15  H    0.292287
    16  H    0.127127
    17  H    0.075605
    18  H    0.177018
    19  H    0.188719
    20  H    0.109889
    21  H    0.250030
    22  H    0.134168
    23  H    0.192419
    24  H    0.236077
    25  H    0.347668
    26  H    0.285274
    27  H    0.311777
    28  H    0.124295
    29  N    0.545533
    30  N    1.608803
    31  N    0.775055
    32  N    1.650252
    33  N    1.316420
    34  O   -1.402252
    35  O   -1.669584
    36  O   -1.366376
    37  O   -1.319688
 Sum of Mulliken charges =  -0.00000

 Dipole moment (field-independent basis, Debye):
    X=             -3.3119    Y=              1.4305    Z=              1.8899  Tot=              4.0726

 Test job not archived.
 1\1\GINC-SE109\SP\RHF\Aug-CC-pVDZ\C9H19N5O4\OHZDE\08-Apr-2025\0\\#t hf
  aug-cc-pvdz iop(5/13=1,5/36=2,99/5=2) pseudo=read geom=check guess=(r
 ead,tcheck) scf=(maxcycle=1)\\title\\0,1\C,0,-1.71205,-1.27508,-0.2256
 59\C,0,1.66557,2.25548,0.388413\C,0,2.39447,1.41522,-0.64979\C,0,1.568
 42,0.321206,-1.31231\C,0,-0.803146,2.60603,-0.156027\C,0,1.36504,-0.91
 1744,-0.442924\C,0,-3.16853,-0.801326,-0.0693698\C,0,-0.800068,-0.6719
 26,0.85885\C,0,2.65074,-1.68711,-0.0169021\H,0,2.66711,2.10951,-1.4686
 \H,0,1.61516,-2.32286,1.34573\H,0,-2.30967,2.41705,1.25083\H,0,-0.8776

 Normal termination of Gaussian 16 at Tue Apr  8 21:31:08 2025.
