 Gaussian 16, Revision C.01,

 ----------------------------------------------------------------------
 #t hf aug-cc-pvdz symm=none int=(grid=ultrafine) guess=(read,tcheck) s
 table=(opt,rrhf)
 ----------------------------------------------------------------------
 -----
 title
 -----
 Symbolic Z-matrix:
 Charge =  0 Multiplicity = 1

 SCF Done:  E(RHF) =  -411.591761125     A.U. after   15 cycles
 Normal termination of Gaussian 16 at Tue Apr  8 21:44:54 2025.
 Gaussian 16:  ES64L-G16RevC.01  3-Jul-2019

 ----------------------------------------------------------------------
 #t hf aug-cc-pvdz iop(5/13=1,5/36=2,99/5=2) pseudo=read geom=check gue
 ss=(read,tcheck) scf=(maxcycle=1)
 ----------------------------------------------------------------------
 -----
 title
 -----
 Structure from the checkpoint file:  "ANI1ccx_516_conf1_mol1.chk"
 Charge =  0 Multiplicity = 1

                         Standard orientation:
 ---------------------------------------------------------------------
 Center     Atomic      Atomic             Coordinates (Angstroms)
 Number     Number       Type             X           Y           Z
 ---------------------------------------------------------------------
      1          6           0       -0.157452    0.760118   -0.082384
      2          6           0        0.890799   -0.347188   -0.062806
      3          1           0       -2.048840   -1.204889    1.118420
      4          1           0       -1.372890   -1.471529   -0.368953
      5          1           0       -2.150509    1.097511   -0.019351
      6          1           0        2.590190   -0.753414    0.353481
      7          7           0       -2.031660   -0.885103    0.158507
      8          7           0       -1.475509    0.394023    0.178806
      9          8           0        0.188218    1.901800   -0.310918
     10          8           0        1.981040   -0.037151    0.567724
     11          8           0        0.722261   -1.453111   -0.578512
 ---------------------------------------------------------------------

 SCF Done:  E(RHF) =  -411.998412258     A.U. after    2 cycles

 The electronic state is 1-A.
 Alpha  occ. eigenvalues --  -20.64127 -20.57607 -20.55171 -15.57063 -15.54752
 Alpha  occ. eigenvalues --  -11.43806 -11.40361  -1.60706  -1.49522  -1.48278
 Alpha  occ. eigenvalues --   -1.32377  -1.11119  -0.98865  -0.86488  -0.77643
 Alpha  occ. eigenvalues --   -0.75296  -0.74912  -0.72903  -0.68708  -0.66212
 Alpha  occ. eigenvalues --   -0.62209  -0.59557  -0.53653  -0.51955  -0.50234
 Alpha  occ. eigenvalues --   -0.44564  -0.43515
 Alpha virt. eigenvalues --    0.03076   0.03908   0.05824   0.06736   0.07689
 Alpha virt. eigenvalues --    0.09262   0.09602   0.11347   0.11622   0.11720
 Alpha virt. eigenvalues --    0.12874   0.14974   0.16464   0.17377   0.18625

 Mulliken charges:
               1
     1  C    0.448280
     2  C    2.124238
     3  H    0.189607
     4  H    0.139051
     5  H    0.099733
     6  H    0.358005
     7  N   -0.099468
     8  N    0.180679
     9  O   -1.121685
    10  O   -1.128144
    11  O   -1.190296
 Sum of Mulliken charges =   0.00000

 Dipole moment (field-independent basis, Debye):
    X=              0.5669    Y=             -1.9025    Z=              1.4499  Tot=              2.4583

 Test job not archived.
 1\1\GINC-SE094\SP\RHF\Aug-CC-pVDZ\C2H4N2O3\OHZDE\08-Apr-2025\0\\#t hf
 aug-cc-pvdz iop(5/13=1,5/36=2,99/5=2) pseudo=read geom=check guess=(re
 ad,tcheck) scf=(maxcycle=1)\\title\\0,1\C,0,-0.157453,0.760118,-0.0823
 84\C,0,0.890799,-0.347187,-0.0628057\H,0,-2.04884,-1.20489,1.11842\H,0
 ,-1.37289,-1.47153,-0.368953\H,0,-2.15051,1.09751,-0.0193513\H,0,2.590
 19,-0.753413,0.353481\N,0,-2.03166,-0.885104,0.158507\N,0,-1.47551,0.3
 94022,0.178806\O,0,0.188217,1.9018,-0.310918\O,0,1.98104,-0.0371501,0.
 567724\O,0,0.722261,-1.45311,-0.578512\\Version=ES64L-G16RevC.01\State

 Normal termination of Gaussian 16 at Tue Apr  8 21:44:58 2025.
