 Gaussian 16, Revision C.01,

 ----------------------------------------------------------------------
 #t hf aug-cc-pvdz symm=none int=(grid=ultrafine) guess=(read,tcheck) s
 table=(opt,rrhf)
 ----------------------------------------------------------------------
 -----
 title
 -----
 Symbolic Z-matrix:
 Charge =  0 Multiplicity = 1

 SCF Done:  E(RHF) =  -390.629385843     A.U. after   14 cycles
 Normal termination of Gaussian 16 at Tue Apr  8 21:43:51 2025.
 Gaussian 16:  ES64L-G16RevC.01  3-Jul-2019

 ----------------------------------------------------------------------
 #t hf aug-cc-pvdz iop(5/13=1,5/36=2,99/5=2) pseudo=read geom=check gue
 ss=(read,tcheck) scf=(maxcycle=1)
 ----------------------------------------------------------------------
 -----
 title
 -----
 Structure from the checkpoint file:  "ANI1ccx_502_conf1_mol1.chk"
 Charge =  0 Multiplicity = 1

                         Standard orientation:
 ---------------------------------------------------------------------
 Center     Atomic      Atomic             Coordinates (Angstroms)
 Number     Number       Type             X           Y           Z
 ---------------------------------------------------------------------
      1          6           0       -1.147350   -0.196075    0.011435
      2          6           0        1.155970   -0.152773    0.020853
      3          1           0       -1.191520    1.775480   -0.523359
      4          1           0        1.092970    1.789020    0.535779
      5          1           0       -0.022412   -1.972910    0.138574
      6          7           0       -0.719593    1.133040    0.098470
      7          7           0        0.668925    1.163970   -0.087020
      8          7           0        0.025018   -0.972892    0.008902
      9          8           0       -2.288480   -0.558523   -0.020616
     10          8           0        2.319580   -0.537391   -0.040283
 ---------------------------------------------------------------------

 SCF Done:  E(RHF) =  -391.016498255     A.U. after    2 cycles

 The electronic state is 1-A.
 Alpha  occ. eigenvalues --  -20.54942 -20.54842 -15.59311 -15.58810 -15.58409
 Alpha  occ. eigenvalues --  -11.43347 -11.42729  -1.51668  -1.49029  -1.40156
 Alpha  occ. eigenvalues --   -1.26867  -1.16235  -0.95049  -0.91431  -0.81386
 Alpha  occ. eigenvalues --   -0.78738  -0.75200  -0.70071  -0.68096  -0.65797
 Alpha  occ. eigenvalues --   -0.59879  -0.59262  -0.50004  -0.47089  -0.46432
 Alpha  occ. eigenvalues --   -0.44823
 Alpha virt. eigenvalues --    0.02360   0.04748   0.05041   0.09050   0.09333
 Alpha virt. eigenvalues --    0.09511   0.09978   0.10384   0.11029   0.13430
 Alpha virt. eigenvalues --    0.14078   0.14953   0.15056   0.16212   0.17040

 Mulliken charges:
               1
     1  C    0.499940
     2  C    0.537587
     3  H    0.221649
     4  H    0.215468
     5  H    0.126824
     6  N    0.083440
     7  N    0.076676
     8  N    0.416858
     9  O   -1.074931
    10  O   -1.103511
 Sum of Mulliken charges =  -0.00000

 Dipole moment (field-independent basis, Debye):
    X=             -0.2961    Y=              1.6580    Z=              0.4068  Tot=              1.7327

 Test job not archived.
 1\1\GINC-SE095\SP\RHF\Aug-CC-pVDZ\C2H3N3O2\OHZDE\08-Apr-2025\0\\#t hf
 aug-cc-pvdz iop(5/13=1,5/36=2,99/5=2) pseudo=read geom=check guess=(re
 ad,tcheck) scf=(maxcycle=1)\\title\\0,1\C,0,-1.14735,-0.196075,0.01143
 52\C,0,1.15597,-0.152773,0.0208531\H,0,-1.19152,1.77548,-0.523359\H,0,
 1.09297,1.78902,0.535779\H,0,-0.0224121,-1.97291,0.138574\N,0,-0.71959
 3,1.13304,0.0984703\N,0,0.668925,1.16397,-0.0870196\N,0,0.0250178,-0.9
 72892,0.00890158\O,0,-2.28848,-0.558523,-0.0206162\O,0,2.31958,-0.5373
 91,-0.0402826\\Version=ES64L-G16RevC.01\State=1-A\HF=-391.0164983\RMSD

 Normal termination of Gaussian 16 at Tue Apr  8 21:43:54 2025.
