 Gaussian 16, Revision C.01,

 ----------------------------------------------------------------------
 #t hf aug-cc-pvdz symm=none int=(grid=ultrafine) guess=(read,tcheck) s
 table=(opt,rrhf)
 ----------------------------------------------------------------------
 -----
 title
 -----
 Symbolic Z-matrix:
 Charge =  0 Multiplicity = 1

 SCF Done:  E(RHF) =  -480.733205257     A.U. after   15 cycles
 Normal termination of Gaussian 16 at Tue Apr  8 21:47:32 2025.
 Gaussian 16:  ES64L-G16RevC.01  3-Jul-2019

 ----------------------------------------------------------------------
 #t hf aug-cc-pvdz iop(5/13=1,5/36=2,99/5=2) pseudo=read geom=check gue
 ss=(read,tcheck) scf=(maxcycle=1)
 ----------------------------------------------------------------------
 -----
 title
 -----
 Structure from the checkpoint file:  "ANI1ccx_558_conf4_mol1.chk"
 Charge =  0 Multiplicity = 1

                         Standard orientation:
 ---------------------------------------------------------------------
 Center     Atomic      Atomic             Coordinates (Angstroms)
 Number     Number       Type             X           Y           Z
 ---------------------------------------------------------------------
      1          6           0       -1.065552   -0.806374   -0.125857
      2          6           0        1.165218   -0.626264   -0.176246
      3          1           0        1.689579    2.407494   -0.124904
      4          1           0        1.667605    1.373564    1.111560
      5          1           0       -1.384382    2.305515   -0.246054
      6          1           0       -2.430946    1.064289    0.187625
      7          1           0        0.182518   -2.493280    0.286941
      8          1           0        2.753765   -1.651819    0.296175
      9          7           0        1.091046    1.702456    0.359118
     10          7           0        0.655053    0.643886   -0.458813
     11          7           0       -0.788901    0.490911   -0.531890
     12          7           0       -1.471235    1.387325    0.205532
     13          7           0        0.126858   -1.521090    0.031858
     14          7           0        2.427278   -0.711294    0.098983
     15          8           0       -2.169603   -1.044412    0.295969
 ---------------------------------------------------------------------

 SCF Done:  E(RHF) =  -481.218886487     A.U. after    2 cycles

 The electronic state is 1-A.
 Alpha  occ. eigenvalues --  -20.53946 -15.59162 -15.58653 -15.58266 -15.54143
 Alpha  occ. eigenvalues --  -15.52650 -15.48811 -11.41143 -11.38604  -1.51103
 Alpha  occ. eigenvalues --   -1.41575  -1.31690  -1.27741  -1.19545  -1.13692
 Alpha  occ. eigenvalues --   -1.03442  -0.92540  -0.87767  -0.82506  -0.77850
 Alpha  occ. eigenvalues --   -0.76860  -0.73889  -0.70691  -0.68788  -0.67398
 Alpha  occ. eigenvalues --   -0.64315  -0.62343  -0.55878  -0.51106  -0.50883
 Alpha  occ. eigenvalues --   -0.48132  -0.46859  -0.43509  -0.38380
 Alpha virt. eigenvalues --    0.02526   0.04492   0.04654   0.05591   0.06211
 Alpha virt. eigenvalues --    0.06983   0.09017   0.09446   0.10451   0.11090
 Alpha virt. eigenvalues --    0.11744   0.12357   0.13523   0.13919   0.15100

 Mulliken charges:
               1
     1  C    0.584781
     2  C   -1.583979
     3  H    0.220661
     4  H    0.168694
     5  H    0.184285
     6  H    0.220690
     7  H    0.121871
     8  H    0.115629
     9  N    0.213466
    10  N   -0.305816
    11  N   -0.367757
    12  N    0.351896
    13  N    0.591909
    14  N    0.711821
    15  O   -1.228149
 Sum of Mulliken charges =  -0.00000

 Dipole moment (field-independent basis, Debye):
    X=              0.8905    Y=             -0.6799    Z=             -0.1502  Tot=              1.1304

 Test job not archived.
 1\1\GINC-SE453\SP\RHF\Aug-CC-pVDZ\C2H6N6O1\OHZDE\08-Apr-2025\0\\#t hf
 aug-cc-pvdz iop(5/13=1,5/36=2,99/5=2) pseudo=read geom=check guess=(re
 ad,tcheck) scf=(maxcycle=1)\\title\\0,1\C,0,-1.06555,-0.806378,-0.1258
 57\C,0,1.16522,-0.62626,-0.176246\H,0,1.68957,2.4075,-0.124904\H,0,1.6
 676,1.37357,1.11156\H,0,-1.38439,2.30551,-0.246054\H,0,-2.43095,1.0642
 8,0.187625\H,0,0.182526,-2.49328,0.286941\H,0,2.75377,-1.65181,0.29617
 5\N,0,1.09104,1.70246,0.359118\N,0,0.65505,0.643888,-0.458813\N,0,-0.7
 88903,0.490908,-0.53189\N,0,-1.47124,1.38732,0.205532\N,0,0.126863,-1.

 Normal termination of Gaussian 16 at Tue Apr  8 21:47:38 2025.
