 Gaussian 16, Revision C.01,

 ----------------------------------------------------------------------
 #t hf aug-cc-pvdz symm=none int=(grid=ultrafine) guess=(read,tcheck) s
 table=(opt,rrhf)
 ----------------------------------------------------------------------
 -----
 title
 -----
 Symbolic Z-matrix:
 Charge =  0 Multiplicity = 1

 SCF Done:  E(RHF) =  -682.228945632     A.U. after   17 cycles
 Normal termination of Gaussian 16 at Tue Apr  8 19:52:22 2025.
 Gaussian 16:  ES64L-G16RevC.01  3-Jul-2019

 ----------------------------------------------------------------------
 #t hf aug-cc-pvdz iop(5/13=1,5/36=2,99/5=2) pseudo=read geom=check gue
 ss=(read,tcheck) scf=(maxcycle=1)
 ----------------------------------------------------------------------
 -----
 title
 -----
 Structure from the checkpoint file:  "ANI1ccx_144_conf3_mol2.chk"
 Charge =  0 Multiplicity = 1

                         Standard orientation:
 ---------------------------------------------------------------------
 Center     Atomic      Atomic             Coordinates (Angstroms)
 Number     Number       Type             X           Y           Z
 ---------------------------------------------------------------------
      1          6           0       -3.948101    0.292066    0.602441
      2          6           0        2.118939    0.944069    0.276625
      3          6           0        2.474259   -0.554729    0.554663
      4          6           0        1.159639    0.954809   -0.986391
      5          6           0       -0.003864    0.013727   -0.733602
      6          6           0        0.031344   -1.394170   -0.776584
      7          6           0       -1.305191    0.354032   -0.342226
      8          6           0       -2.011041   -0.829847   -0.178676
      9          6           0       -1.955402    1.584429   -0.170763
     10          6           0       -3.328161   -0.895808    0.300099
     11          6           0       -3.273462    1.541649    0.337667
     12          1           0        0.882351   -2.114440   -0.986775
     13          1           0       -1.302011   -2.912631   -0.235982
     14          1           0       -3.782551   -1.872981    0.613007
     15          1           0        0.789122    1.998070   -1.156790
     16          1           0       -3.805102    2.476579    0.529062
     17          1           0       -1.591242    2.612659   -0.329464
     18          1           0        1.809089    0.719195   -1.839850
     19          1           0        3.709629   -1.750570   -0.139472
     20          1           0        3.657478    1.944150    1.159990
     21          1           0        3.929078    1.659560   -0.432991
     22          1           0       -4.950261    0.318301    1.004330
     23          1           0        1.505798    1.294040    1.078410
     24          7           0       -1.191331   -1.884961   -0.468973
     25          7           0        3.214188    1.961800    0.229048
     26          8           0        3.552429   -0.818226   -0.257934
     27          8           0        2.101929   -1.303170    1.397490
 ---------------------------------------------------------------------

 SCF Done:  E(RHF) =  -682.917316164     A.U. after    2 cycles

 The electronic state is 1-A.
 Alpha  occ. eigenvalues --  -20.60187 -20.55096 -15.55242 -15.50690 -11.39809
 Alpha  occ. eigenvalues --  -11.28589 -11.28167 -11.26650 -11.25340 -11.24389
 Alpha  occ. eigenvalues --  -11.24348 -11.23721 -11.23658 -11.22993 -11.22893
 Alpha  occ. eigenvalues --   -1.55493  -1.46751  -1.30802  -1.18893  -1.13337
 Alpha  occ. eigenvalues --   -1.08361  -1.01890  -1.00129  -0.97004  -0.90651
 Alpha  occ. eigenvalues --   -0.85590  -0.81910  -0.81841  -0.77985  -0.74607
 Alpha  occ. eigenvalues --   -0.72356  -0.69942  -0.68540  -0.67994  -0.65336
 Alpha  occ. eigenvalues --   -0.64393  -0.63149  -0.61820  -0.61050  -0.60856
 Alpha  occ. eigenvalues --   -0.59439  -0.57330  -0.54886  -0.53848  -0.51996
 Alpha  occ. eigenvalues --   -0.50767  -0.49876  -0.49189  -0.48524  -0.47727
 Alpha  occ. eigenvalues --   -0.42541  -0.39201  -0.31541  -0.28669
 Alpha virt. eigenvalues --    0.02657   0.03305   0.03799   0.04146   0.04376
 Alpha virt. eigenvalues --    0.04704   0.05879   0.06436   0.07013   0.07758
 Alpha virt. eigenvalues --    0.07912   0.09104   0.09711   0.09946   0.10854

 Mulliken charges:
               1
     1  C    0.066469
     2  C   -1.592388
     3  C    2.850402
     4  C   -0.564488
     5  C    1.750478
     6  C   -1.888062
     7  C    1.328528
     8  C   -2.111097
     9  C    0.506882
    10  C    0.617738
    11  C   -0.122797
    12  H   -0.207131
    13  H    0.099157
    14  H   -0.173860
    15  H    0.226506
    16  H   -0.270523
    17  H   -0.311099
    18  H    0.080873
    19  H    0.318111
    20  H    0.206924
    21  H    0.211834
    22  H   -0.246093
    23  H    0.067278
    24  N    1.330073
    25  N    0.620807
    26  O   -1.377706
    27  O   -1.416816
 Sum of Mulliken charges =   0.00000

 Dipole moment (field-independent basis, Debye):
    X=              1.1807    Y=             -2.2855    Z=             -0.5027  Tot=              2.6212

 Test job not archived.
 1\1\GINC-SE090\SP\RHF\Aug-CC-pVDZ\C11H12N2O2\OHZDE\08-Apr-2025\0\\#t h
 f aug-cc-pvdz iop(5/13=1,5/36=2,99/5=2) pseudo=read geom=check guess=(
 read,tcheck) scf=(maxcycle=1)\\title\\0,1\C,0,-3.9481,0.292067,0.60244
 1\C,0,2.11894,0.944069,0.276625\C,0,2.47426,-0.554729,0.554663\C,0,1.1
 5964,0.954809,-0.986391\C,0,-0.00386265,0.013727,-0.733602\C,0,0.03134
 54,-1.39417,-0.776584\C,0,-1.30519,0.354033,-0.342226\C,0,-2.01104,-0.
 829846,-0.178676\C,0,-1.9554,1.58443,-0.170763\C,0,-3.32816,-0.895807,
 0.300099\C,0,-3.27346,1.54165,0.337667\H,0,0.882352,-2.11444,-0.986775

 Normal termination of Gaussian 16 at Tue Apr  8 19:52:52 2025.
