 Gaussian 16, Revision C.01,

 ----------------------------------------------------------------------
 #t hf aug-cc-pvdz symm=none int=(grid=ultrafine) guess=(read,tcheck) s
 table=(opt,rrhf)
 ----------------------------------------------------------------------
 -----
 title
 -----
 Symbolic Z-matrix:
 Charge =  0 Multiplicity = 1

 SCF Done:  E(RHF) =  -485.833335675     A.U. after   14 cycles
 Normal termination of Gaussian 16 at Tue Apr  8 21:55:40 2025.
 Gaussian 16:  ES64L-G16RevC.01  3-Jul-2019

 ----------------------------------------------------------------------
 #t hf aug-cc-pvdz iop(5/13=1,5/36=2,99/5=2) pseudo=read geom=check gue
 ss=(read,tcheck) scf=(maxcycle=1)
 ----------------------------------------------------------------------
 -----
 title
 -----
 Structure from the checkpoint file:  "ANI1ccx_768_conf2_mol1.chk"
 Charge =  0 Multiplicity = 1

                         Standard orientation:
 ---------------------------------------------------------------------
 Center     Atomic      Atomic             Coordinates (Angstroms)
 Number     Number       Type             X           Y           Z
 ---------------------------------------------------------------------
      1          6           0       -1.888499    0.082163    0.070010
      2          6           0        1.442311   -0.981392    0.536317
      3          6           0        2.097261    0.255849   -0.096696
      4          1           0        0.428839    1.194510    0.081084
      5          1           0        2.029381   -1.842891    0.313606
      6          1           0       -0.368403   -1.867430    0.635175
      7          1           0        1.467811   -0.851104    1.670580
      8          1           0       -2.289689    1.789640    0.866282
      9          1           0       -1.562629   -1.420060   -1.090020
     10          1           0       -3.088619   -0.784374   -1.375220
     11          1           0       -3.360419    1.422730   -0.377296
     12          7           0       -2.341929   -0.911094   -0.749780
     13          7           0       -2.728669    1.079680    0.311685
     14          7           0       -0.709860    0.033788    0.596953
     15          7           0        0.053304   -1.106610    0.105409
     16          8           0        1.351481    1.337420   -0.275623
     17          8           0        3.264441    0.231194   -0.428358
 ---------------------------------------------------------------------

 SCF Done:  E(RHF) =  -486.330795644     A.U. after    2 cycles

 The electronic state is 1-A.
 Alpha  occ. eigenvalues --  -20.56195 -20.50391 -15.54734 -15.54437 -15.53721
 Alpha  occ. eigenvalues --  -15.50897 -11.37838 -11.37014 -11.28253  -1.51464
 Alpha  occ. eigenvalues --   -1.41930  -1.35754  -1.26826  -1.21789  -1.12579
 Alpha  occ. eigenvalues --   -0.96283  -0.88137  -0.82335  -0.81305  -0.80062
 Alpha  occ. eigenvalues --   -0.74253  -0.70756  -0.69789  -0.68270  -0.63811
 Alpha  occ. eigenvalues --   -0.63607  -0.60902  -0.58626  -0.56031  -0.52794
 Alpha  occ. eigenvalues --   -0.50396  -0.46766  -0.43523  -0.42048  -0.39750
 Alpha virt. eigenvalues --    0.01491   0.03504   0.04099   0.04920   0.05535
 Alpha virt. eigenvalues --    0.06152   0.07509   0.07782   0.09674   0.10374
 Alpha virt. eigenvalues --    0.11658   0.12092   0.13207   0.13523   0.14250

 Mulliken charges:
               1
     1  C   -1.696861
     2  C   -0.723190
     3  C    2.068152
     4  H    0.700145
     5  H   -0.047954
     6  H    0.341903
     7  H    0.280218
     8  H    0.253478
     9  H    0.299095
    10  H    0.021509
    11  H    0.122000
    12  N    0.595238
    13  N    0.620810
    14  N    0.083245
    15  N   -0.303864
    16  O   -1.388674
    17  O   -1.225251
 Sum of Mulliken charges =  -0.00000

 Dipole moment (field-independent basis, Debye):
    X=             -7.9001    Y=             -1.1931    Z=             -0.0232  Tot=              7.9897

 Test job not archived.
 1\1\GINC-SE084\SP\RHF\Aug-CC-pVDZ\C3H8N4O2\OHZDE\08-Apr-2025\0\\#t hf
 aug-cc-pvdz iop(5/13=1,5/36=2,99/5=2) pseudo=read geom=check guess=(re
 ad,tcheck) scf=(maxcycle=1)\\title\\0,1\C,0,-1.8885,0.0821633,0.070010
 3\C,0,1.44231,-0.981392,0.536317\C,0,2.09726,0.25585,-0.0966963\H,0,0.
 428838,1.19451,0.0810838\H,0,2.02938,-1.84289,0.313606\H,0,-0.368404,-
 1.86743,0.635175\H,0,1.46781,-0.851104,1.67058\H,0,-2.28969,1.78964,0.
 866282\H,0,-1.56263,-1.42006,-1.09002\H,0,-3.08862,-0.784374,-1.37522\
 H,0,-3.36042,1.42273,-0.377296\N,0,-2.34193,-0.911094,-0.74978\N,0,-2.

 Normal termination of Gaussian 16 at Tue Apr  8 21:55:49 2025.
