 Gaussian 16, Revision C.01,

 ----------------------------------------------------------------------
 #t hf aug-cc-pvdz symm=none int=(grid=ultrafine) guess=(read,tcheck) s
 table=(opt,rrhf)
 ----------------------------------------------------------------------
 -----
 title
 -----
 Symbolic Z-matrix:
 Charge =  0 Multiplicity = 1

 SCF Done:  E(RHF) =  -239.965703564     A.U. after   14 cycles
 Normal termination of Gaussian 16 at Tue Apr  8 21:11:18 2025.
 Gaussian 16:  ES64L-G16RevC.01  3-Jul-2019

 ----------------------------------------------------------------------
 #t hf aug-cc-pvdz iop(5/13=1,5/36=2,99/5=2) pseudo=read geom=check gue
 ss=(read,tcheck) scf=(maxcycle=1)
 ----------------------------------------------------------------------
 -----
 title
 -----
 Structure from the checkpoint file:  "ANI1ccx_1874_conf6_mol1.chk"
 Charge =  0 Multiplicity = 1

                         Standard orientation:
 ---------------------------------------------------------------------
 Center     Atomic      Atomic             Coordinates (Angstroms)
 Number     Number       Type             X           Y           Z
 ---------------------------------------------------------------------
      1          1           0        0.792018    0.564639    0.739256
      2          1           0        2.404800    0.926001   -0.661480
      3          1           0        3.027309   -0.050285    0.497052
      4          7           0       -2.139161    0.568203    0.041951
      5          7           0       -2.374411   -0.495850   -0.143280
      6          7           0        2.369439   -0.013161   -0.269729
      7          8           0        1.098099   -0.231838    0.252822
 ---------------------------------------------------------------------

 SCF Done:  E(RHF) =  -240.202399626     A.U. after    2 cycles

 The electronic state is 1-A.
 Alpha  occ. eigenvalues --  -20.58065 -15.62295 -15.62078 -15.54852  -1.49028
 Alpha  occ. eigenvalues --   -1.48625  -1.09587  -0.82080  -0.74515  -0.72595
 Alpha  occ. eigenvalues --   -0.68439  -0.66555  -0.66513  -0.59780  -0.49351
 Alpha  occ. eigenvalues --   -0.45300
 Alpha virt. eigenvalues --    0.03260   0.05796   0.05898   0.09309   0.09437
 Alpha virt. eigenvalues --    0.11993   0.13789   0.15070   0.15223   0.17681
 Alpha virt. eigenvalues --    0.18472   0.19157   0.20896   0.21283   0.22324

 Mulliken charges:
               1
     1  H    0.301107
     2  H    0.058762
     3  H    0.080962
     4  N    0.020611
     5  N   -0.034993
     6  N    0.512786
     7  O   -0.939234
 Sum of Mulliken charges =  -0.00000

 Dipole moment (field-independent basis, Debye):
    X=              0.6433    Y=              2.6640    Z=              1.3378  Tot=              3.0496

 Test job not archived.
 1\1\GINC-SE030\SP\RHF\Aug-CC-pVDZ\H3N3O1\OHZDE\08-Apr-2025\0\\#t hf au
 g-cc-pvdz iop(5/13=1,5/36=2,99/5=2) pseudo=read geom=check guess=(read
 ,tcheck) scf=(maxcycle=1)\\title\\0,1\H,0,0.792019,0.564639,0.739256\H
 ,0,2.4048,0.926001,-0.66148\H,0,3.02731,-0.0502844,0.497052\N,0,-2.139
 16,0.568203,0.0419514\N,0,-2.37441,-0.49585,-0.14328\N,0,2.36944,-0.01
 31601,-0.269729\O,0,1.0981,-0.231838,0.252822\\Version=ES64L-G16RevC.0
 1\State=1-A\HF=-240.2023996\RMSD=3.499e-02\Dipole=0.2531124,1.0480819,
 0.526314\Quadrupole=1.5502344,-0.8608939,-0.6893405,3.2059551,1.993001

 Normal termination of Gaussian 16 at Tue Apr  8 21:11:19 2025.
