 Gaussian 16, Revision C.01,

 ----------------------------------------------------------------------
 #t hf aug-cc-pvdz symm=none int=(grid=ultrafine) guess=(read,tcheck) s
 table=(opt,rrhf)
 ----------------------------------------------------------------------
 -----
 title
 -----
 Symbolic Z-matrix:
 Charge =  0 Multiplicity = 1

 SCF Done:  E(RHF) =  -489.694923998     A.U. after   14 cycles
 Normal termination of Gaussian 16 at Tue Apr  8 22:14:04 2025.
 Gaussian 16:  ES64L-G16RevC.01  3-Jul-2019

 ----------------------------------------------------------------------
 #t hf aug-cc-pvdz iop(5/13=1,5/36=2,99/5=2) pseudo=read geom=check gue
 ss=(read,tcheck) scf=(maxcycle=1)
 ----------------------------------------------------------------------
 -----
 title
 -----
 Structure from the checkpoint file:  "ANI1ccx_957_conf36_mol1.chk"
 Charge =  0 Multiplicity = 1

                         Standard orientation:
 ---------------------------------------------------------------------
 Center     Atomic      Atomic             Coordinates (Angstroms)
 Number     Number       Type             X           Y           Z
 ---------------------------------------------------------------------
      1          6           0       -0.618592    0.589680   -0.269565
      2          6           0       -1.392771   -0.655581    0.079857
      3          6           0        0.693210    0.791469    0.650025
      4          6           0        1.833489    0.053699   -0.016630
      5          1           0       -2.947971    0.431198    0.063835
      6          1           0        2.813850   -1.672208   -0.465671
      7          1           0        0.619912    0.410164    1.709890
      8          1           0        1.038308    1.846701    0.689429
      9          1           0        1.159660   -1.892209   -0.199156
     10          1           0       -1.198942    2.276180    0.668696
     11          1           0       -1.472672    2.303650   -0.944456
     12          1           0       -0.193757    0.526630   -1.261220
     13          7           0       -1.528401    1.694370   -0.152866
     14          7           0        1.926020   -1.241098   -0.177360
     15          8           0        2.857179    0.734797   -0.168946
     16          8           0       -0.896025   -1.750410    0.201250
     17          8           0       -2.672871   -0.494213   -0.108791
 ---------------------------------------------------------------------

 SCF Done:  E(RHF) =  -490.189434056     A.U. after    2 cycles

 The electronic state is 1-A.
 Alpha  occ. eigenvalues --  -20.59792 -20.54236 -20.49072 -15.53874 -15.52168
 Alpha  occ. eigenvalues --  -11.39986 -11.35157 -11.31535 -11.27882  -1.56457
 Alpha  occ. eigenvalues --   -1.46451  -1.44105  -1.24661  -1.22575  -1.05244
 Alpha  occ. eigenvalues --   -0.95692  -0.85346  -0.83743  -0.77816  -0.75784
 Alpha  occ. eigenvalues --   -0.72989  -0.71033  -0.67106  -0.65609  -0.64089
 Alpha  occ. eigenvalues --   -0.60846  -0.59067  -0.57468  -0.55084  -0.53040
 Alpha  occ. eigenvalues --   -0.50233  -0.47873  -0.45398  -0.41839  -0.40444
 Alpha virt. eigenvalues --    0.02024   0.03932   0.04122   0.04873   0.05636
 Alpha virt. eigenvalues --    0.06465   0.06875   0.07525   0.09925   0.10096
 Alpha virt. eigenvalues --    0.10831   0.12306   0.13405   0.13599   0.14239

 Mulliken charges:
               1
     1  C   -1.515143
     2  C    2.409242
     3  C   -0.185719
     4  C    0.211584
     5  H    0.452124
     6  H    0.148671
     7  H    0.268989
     8  H    0.070695
     9  H    0.059331
    10  H    0.404119
    11  H    0.306041
    12  H    0.209644
    13  N    0.286266
    14  N    0.898641
    15  O   -1.359612
    16  O   -1.388086
    17  O   -1.276786
 Sum of Mulliken charges =  -0.00000

 Dipole moment (field-independent basis, Debye):
    X=             -2.3948    Y=              2.5599    Z=             -0.0648  Tot=              3.5060

 Test job not archived.
 1\1\GINC-SE252\SP\RHF\Aug-CC-pVDZ\C4H8N2O3\OHZDE\08-Apr-2025\0\\#t hf
 aug-cc-pvdz iop(5/13=1,5/36=2,99/5=2) pseudo=read geom=check guess=(re
 ad,tcheck) scf=(maxcycle=1)\\title\\0,1\C,0,-0.618591,0.589679,-0.2695
 65\C,0,-1.39277,-0.655581,0.079857\C,0,0.693211,0.791468,0.650025\C,0,
 1.83349,0.0536973,-0.0166298\H,0,-2.94797,0.431198,0.0638347\H,0,2.813
 85,-1.67221,-0.465671\H,0,0.619913,0.410163,1.70989\H,0,1.03831,1.8467
 ,0.689429\H,0,1.15966,-1.89221,-0.199156\H,0,-1.19894,2.27618,0.668696
 \H,0,-1.47267,2.30365,-0.944456\H,0,-0.193756,0.526629,-1.26122\N,0,-1

 Normal termination of Gaussian 16 at Tue Apr  8 22:14:11 2025.
