 Gaussian 16, Revision C.01,

 ----------------------------------------------------------------------
 #t hf aug-cc-pvdz symm=none int=(grid=ultrafine) guess=(read,tcheck) s
 table=(opt,rrhf)
 ----------------------------------------------------------------------
 -----
 title
 -----
 Symbolic Z-matrix:
 Charge =  0 Multiplicity = 1

 SCF Done:  E(RHF) =  -451.165013939     A.U. after   14 cycles
 Normal termination of Gaussian 16 at Tue Apr  8 21:11:24 2025.
 Gaussian 16:  ES64L-G16RevC.01  3-Jul-2019

 ----------------------------------------------------------------------
 #t hf aug-cc-pvdz iop(5/13=1,5/36=2,99/5=2) pseudo=read geom=check gue
 ss=(read,tcheck) scf=(maxcycle=1)
 ----------------------------------------------------------------------
 -----
 title
 -----
 Structure from the checkpoint file:  "ANI1ccx_1886_conf3_mol2.chk"
 Charge =  0 Multiplicity = 1

                         Standard orientation:
 ---------------------------------------------------------------------
 Center     Atomic      Atomic             Coordinates (Angstroms)
 Number     Number       Type             X           Y           Z
 ---------------------------------------------------------------------
      1          1           0       -1.419099    0.217569   -1.099080
      2          1           0       -3.175349    0.708338    1.095560
      3          1           0        1.886511   -1.374669   -0.148357
      4          1           0        2.931641    1.346171   -0.743601
      5          8           0       -1.349639   -0.201703   -0.221056
      6          8           0       -2.702479   -0.638998   -0.075989
      7          8           0       -3.467879    0.493895    0.189489
      8          8           0        2.791101   -1.041599   -0.084922
      9          8           0        2.591441    0.164489    0.613453
     10          8           0        2.109491    1.111741   -0.309040
 ---------------------------------------------------------------------

 SCF Done:  E(RHF) =  -451.601787200     A.U. after    2 cycles

 The electronic state is 1-A.
 Alpha  occ. eigenvalues --  -20.68913 -20.68670 -20.64070 -20.63917 -20.63646
 Alpha  occ. eigenvalues --  -20.63467  -1.68918  -1.68847  -1.46770  -1.46509
 Alpha  occ. eigenvalues --   -1.19912  -1.19806  -0.78465  -0.78436  -0.68973
 Alpha  occ. eigenvalues --   -0.68499  -0.68310  -0.68209  -0.66649  -0.66062
 Alpha  occ. eigenvalues --   -0.51941  -0.51238  -0.51093  -0.50767  -0.48763
 Alpha  occ. eigenvalues --   -0.48280
 Alpha virt. eigenvalues --    0.03990   0.04754   0.05486   0.06267   0.12671
 Alpha virt. eigenvalues --    0.13348   0.13724   0.17082   0.17755   0.19122
 Alpha virt. eigenvalues --    0.19852   0.20083   0.21396   0.21834   0.22240

 Mulliken charges:
               1
     1  H    0.501055
     2  H    0.473309
     3  H    0.471455
     4  H    0.494494
     5  O   -0.615787
     6  O    0.150374
     7  O   -0.513573
     8  O   -0.518945
     9  O    0.117775
    10  O   -0.560156
 Sum of Mulliken charges =  -0.00000

 Dipole moment (field-independent basis, Debye):
    X=              0.2156    Y=              1.1512    Z=             -1.0023  Tot=              1.5416

 Test job not archived.
 1\1\GINC-SE455\SP\RHF\Aug-CC-pVDZ\H4O6\OHZDE\08-Apr-2025\0\\#t hf aug-
 cc-pvdz iop(5/13=1,5/36=2,99/5=2) pseudo=read geom=check guess=(read,t
 check) scf=(maxcycle=1)\\title\\0,1\H,0,-1.4191,0.217569,-1.09908\H,0,
 -3.17535,0.708338,1.09556\H,0,1.88651,-1.37467,-0.148357\H,0,2.93164,1
 .34617,-0.743601\O,0,-1.34964,-0.201703,-0.221056\O,0,-2.70248,-0.6389
 98,-0.0759891\O,0,-3.46788,0.493895,0.189489\O,0,2.7911,-1.0416,-0.084
 9217\O,0,2.59144,0.164488,0.613453\O,0,2.10949,1.11174,-0.30904\\Versi
 on=ES64L-G16RevC.01\State=1-A\HF=-451.6017872\RMSD=7.965e-03\Dipole=0.

 Normal termination of Gaussian 16 at Tue Apr  8 21:11:27 2025.
