 Gaussian 16, Revision C.01,

 ----------------------------------------------------------------------
 #t hf aug-cc-pvdz symm=none int=(grid=ultrafine) guess=(read,tcheck) s
 table=(opt,rrhf)
 ----------------------------------------------------------------------
 -----
 title
 -----
 Symbolic Z-matrix:
 Charge =  0 Multiplicity = 1

 SCF Done:  E(RHF) =  -258.501247805     A.U. after   53 cycles
 Normal termination of Gaussian 16 at Tue Apr  8 21:13:20 2025.
 Gaussian 16:  ES64L-G16RevC.01  3-Jul-2019

 ----------------------------------------------------------------------
 #t hf aug-cc-pvdz iop(5/13=1,5/36=2,99/5=2) pseudo=read geom=check gue
 ss=(read,tcheck) scf=(maxcycle=1)
 ----------------------------------------------------------------------
 -----
 title
 -----
 Structure from the checkpoint file:  "ANI1ccx_1907_conf25_mol1.chk"
 Charge =  0 Multiplicity = 1

                         Standard orientation:
 ---------------------------------------------------------------------
 Center     Atomic      Atomic             Coordinates (Angstroms)
 Number     Number       Type             X           Y           Z
 ---------------------------------------------------------------------
      1          7           0       -2.089498   -0.410508    0.004591
      2          7           0       -1.376758    0.435624   -0.017998
      3          8           0        2.104832   -0.174521   -0.020546
      4          8           0        0.928143    0.152544    0.032277
 ---------------------------------------------------------------------

 SCF Done:  E(RHF) =  -258.735861829     A.U. after    2 cycles

 The electronic state is 1-A.
 Alpha  occ. eigenvalues --  -20.73270 -20.73038 -15.62262 -15.62166  -1.76678
 Alpha  occ. eigenvalues --   -1.48746  -1.16759  -0.82818  -0.75825  -0.74268
 Alpha  occ. eigenvalues --   -0.67957  -0.66675  -0.66137  -0.64041  -0.46473
 Alpha virt. eigenvalues --    0.01737   0.09192   0.09378   0.11361   0.12028
 Alpha virt. eigenvalues --    0.13499   0.16228   0.16710   0.17004   0.19820
 Alpha virt. eigenvalues --    0.20463   0.23057   0.23974   0.27966   0.29659

 Mulliken charges:
               1
     1  N    0.033487
     2  N   -0.111163
     3  O    0.268231
     4  O   -0.190556
 Sum of Mulliken charges =  -0.00000

 Dipole moment (field-independent basis, Debye):
    X=              0.1115    Y=              0.0469    Z=             -0.0057  Tot=              0.1212

 Test job not archived.
 1\1\GINC-SE454\SP\RHF\Aug-CC-pVDZ\N2O2\OHZDE\08-Apr-2025\0\\#t hf aug-
 cc-pvdz iop(5/13=1,5/36=2,99/5=2) pseudo=read geom=check guess=(read,t
 check) scf=(maxcycle=1)\\title\\0,1\N,0,-2.0895,-0.410508,0.00459094\N
 ,0,-1.37676,0.435624,-0.0179981\O,0,2.10483,-0.174521,-0.0205459\O,0,0
 .928141,0.152544,0.0322772\\Version=ES64L-G16RevC.01\State=1-A\HF=-258
 .7358618\RMSD=5.102e-02\Dipole=0.0438868,0.01847,-0.0022394\Quadrupole
 =-0.1524461,0.5057417,-0.3532957,-0.1181784,-0.0005672,0.0635733\PG=C0
 1 [X(N2O2)]\\@

 Normal termination of Gaussian 16 at Tue Apr  8 21:13:21 2025.
