 Gaussian 16, Revision C.01,

 ----------------------------------------------------------------------
 #t hf aug-cc-pvdz symm=none int=(grid=ultrafine) guess=(read,tcheck) s
 table=(opt,rrhf)
 ----------------------------------------------------------------------
 -----
 title
 -----
 Symbolic Z-matrix:
 Charge =  0 Multiplicity = 1

 SCF Done:  E(RHF) =  -456.201549665     A.U. after   12 cycles
 Normal termination of Gaussian 16 at Tue Apr  8 21:08:44 2025.
 Gaussian 16:  ES64L-G16RevC.01  3-Jul-2019

 ----------------------------------------------------------------------
 #t hf aug-cc-pvdz iop(5/13=1,5/36=2,99/5=2) pseudo=read geom=check gue
 ss=(read,tcheck) scf=(maxcycle=1)
 ----------------------------------------------------------------------
 -----
 title
 -----
 Structure from the checkpoint file:  "ANI1ccx_1844_conf642_mol1.chk"
 Charge =  0 Multiplicity = 1

                         Standard orientation:
 ---------------------------------------------------------------------
 Center     Atomic      Atomic             Coordinates (Angstroms)
 Number     Number       Type             X           Y           Z
 ---------------------------------------------------------------------
      1          1           0       -2.349890   -0.075318   -0.205854
      2          1           0       -1.098087   -1.892535   -0.060757
      3          1           0       -0.356039   -2.972978   -0.950307
      4          1           0        2.364552   -2.218598    0.774410
      5          1           0        1.094024   -1.743964   -0.031884
      6          1           0        0.785359    3.280028    0.655790
      7          1           0       -2.705763   -0.947966    1.150630
      8          1           0        1.032017    1.778747    0.016162
      9          1           0        3.181245    1.290758   -0.504054
     10          1           0        2.552330   -0.050586    0.011652
     11          1           0       -1.160342    2.100885   -0.110054
     12          1           0       -2.621821    2.259901   -0.586797
     13          8           0        2.148104   -1.707738   -0.012267
     14          8           0        2.341864    1.013922    0.047811
     15          8           0       -0.331702   -2.575998   -0.044846
     16          8           0        0.482443    2.582589   -0.045423
     17          8           0       -2.641224   -1.040349    0.054764
     18          8           0       -2.089184    1.626528   -0.019906
 ---------------------------------------------------------------------

 SCF Done:  E(RHF) =  -456.671158726     A.U. after    2 cycles

 The electronic state is 1-A.
 Alpha  occ. eigenvalues --  -20.56132 -20.56065 -20.56000 -20.55420 -20.54953
 Alpha  occ. eigenvalues --  -20.53782  -1.43628  -1.42628  -1.41606  -1.40780
 Alpha  occ. eigenvalues --   -1.38811  -1.38259  -0.71714  -0.69807  -0.69214
 Alpha  occ. eigenvalues --   -0.67655  -0.66330  -0.66186  -0.61420  -0.59918
 Alpha  occ. eigenvalues --   -0.59361  -0.55543  -0.54128  -0.51651  -0.49602
 Alpha  occ. eigenvalues --   -0.49321  -0.48709  -0.48351  -0.47674  -0.46656
 Alpha virt. eigenvalues --    0.03526   0.04242   0.04435   0.05438   0.06239
 Alpha virt. eigenvalues --    0.06362   0.08991   0.09215   0.09364   0.10132
 Alpha virt. eigenvalues --    0.11577   0.12065   0.16732   0.18912   0.19418

 Mulliken charges:
               1
     1  H    0.743891
     2  H    0.780553
     3  H    0.320948
     4  H    0.313820
     5  H    0.834488
     6  H    0.390976
     7  H    0.464789
     8  H    0.870715
     9  H    0.388025
    10  H    0.739420
    11  H    0.772213
    12  H    0.368186
    13  O   -1.120000
    14  O   -1.284923
    15  O   -1.123480
    16  O   -1.130634
    17  O   -1.200686
    18  O   -1.128300
 Sum of Mulliken charges =  -0.00000

 Dipole moment (field-independent basis, Debye):
    X=              1.4507    Y=              1.1767    Z=              0.2820  Tot=              1.8891

 Test job not archived.
 1\1\GINC-SE393\SP\RHF\Aug-CC-pVDZ\H12O6\OHZDE\08-Apr-2025\0\\#t hf aug
 -cc-pvdz iop(5/13=1,5/36=2,99/5=2) pseudo=read geom=check guess=(read,
 tcheck) scf=(maxcycle=1)\\title\\0,1\H,0,-2.34989,-0.0753274,-0.205854
 \H,0,-1.09808,-1.89254,-0.0607574\H,0,-0.356028,-2.97298,-0.950307\H,0
 ,2.36456,-2.21859,0.77441\H,0,1.09403,-1.74396,-0.0318839\H,0,0.785346
 ,3.28003,0.65579\H,0,-2.70576,-0.947977,1.15063\H,0,1.03201,1.77875,0.
 0161624\H,0,3.18124,1.29077,-0.504054\H,0,2.55233,-0.0505771,0.0116522
 \H,0,-1.16035,2.10088,-0.110054\H,0,-2.62183,2.25989,-0.586797\O,0,2.1

 Normal termination of Gaussian 16 at Tue Apr  8 21:08:49 2025.
