 Gaussian 16, Revision C.01,

 ----------------------------------------------------------------------
 #t hf aug-cc-pvdz symm=none int=(grid=ultrafine) guess=(read,tcheck) s
 table=(opt,rrhf)
 ----------------------------------------------------------------------
 -----
 title
 -----
 Symbolic Z-matrix:
 Charge =  0 Multiplicity = 1

 SCF Done:  E(RHF) =  -755.416340345     A.U. after   15 cycles
 Normal termination of Gaussian 16 at Tue Apr  8 19:41:55 2025.
 Gaussian 16:  ES64L-G16RevC.01  3-Jul-2019

 ----------------------------------------------------------------------
 #t hf aug-cc-pvdz iop(5/13=1,5/36=2,99/5=2) pseudo=read geom=check gue
 ss=(read,tcheck) scf=(maxcycle=1)
 ----------------------------------------------------------------------
 -----
 title
 -----
 Structure from the checkpoint file:  "ANI1ccx_1405_conf4_mol1.chk"
 Charge =  0 Multiplicity = 1

                         Standard orientation:
 ---------------------------------------------------------------------
 Center     Atomic      Atomic             Coordinates (Angstroms)
 Number     Number       Type             X           Y           Z
 ---------------------------------------------------------------------
      1          6           0        0.830405   -1.579730    0.531947
      2          6           0        0.291753   -1.216350   -0.790870
      3          6           0        0.942894   -0.392949    1.475380
      4          6           0        1.985190    0.653491    1.157620
      5          6           0        1.577531    1.621049    0.089534
      6          6           0       -2.129591   -1.023028   -0.022727
      7          6           0       -2.872800    0.345384    0.178080
      8          1           0       -1.246569    1.338861   -0.359875
      9          1           0       -2.909411   -1.757228   -0.352127
     10          1           0       -1.724141   -1.295489    0.963410
     11          1           0       -1.173551   -0.780665   -1.948290
     12          1           0        2.048082    2.706169   -1.205130
     13          1           0        2.248231    1.223249    2.083710
     14          1           0        2.943090    0.187035    0.864367
     15          1           0        1.177769   -0.818587    2.469170
     16          1           0        0.013046    0.121247    1.716860
     17          1           0        0.130967   -2.224890    1.083730
     18          1           0        1.902728   -3.168951    0.075472
     19          1           0        2.606939   -1.868692   -0.404135
     20          7           0        2.106108   -2.222981    0.412281
     21          7           0       -1.053591   -0.884445   -0.954436
     22          8           0        1.095919   -1.135191   -1.718230
     23          8           0        0.433791    1.694250   -0.326094
     24          8           0        2.562532    2.308228   -0.504822
     25          8           0       -3.984070    0.375672    0.664420
     26          8           0       -2.250309    1.462382   -0.228506
 ---------------------------------------------------------------------

 SCF Done:  E(RHF) =  -756.174094554     A.U. after    2 cycles

 The electronic state is 1-A.
 Alpha  occ. eigenvalues --  -20.63014 -20.58109 -20.57002 -20.53523 -20.52626
 Alpha  occ. eigenvalues --  -15.55062 -15.50444 -11.42958 -11.39144 -11.37900
 Alpha  occ. eigenvalues --  -11.32188 -11.29602 -11.28140 -11.26863  -1.58963
 Alpha  occ. eigenvalues --   -1.52178  -1.48469  -1.48123  -1.43421  -1.26662
 Alpha  occ. eigenvalues --   -1.22672  -1.10632  -1.02984  -1.00734  -0.92186
 Alpha  occ. eigenvalues --   -0.83961  -0.82749  -0.79859  -0.77677  -0.75288
 Alpha  occ. eigenvalues --   -0.74528  -0.73324  -0.71539  -0.70823  -0.67534
 Alpha  occ. eigenvalues --   -0.66828  -0.64739  -0.64015  -0.62576  -0.61908
 Alpha  occ. eigenvalues --   -0.61128  -0.59899  -0.57455  -0.54675  -0.54058
 Alpha  occ. eigenvalues --   -0.53497  -0.52195  -0.50302  -0.48436  -0.47827
 Alpha  occ. eigenvalues --   -0.46206  -0.45516  -0.44840  -0.41716
 Alpha virt. eigenvalues --    0.02657   0.02951   0.03407   0.04068   0.04446
 Alpha virt. eigenvalues --    0.05130   0.05669   0.06205   0.07540   0.07782
 Alpha virt. eigenvalues --    0.09337   0.09497   0.09730   0.10982   0.11299

 Mulliken charges:
               1
     1  C   -2.111169
     2  C    0.881144
     3  C    0.156493
     4  C   -0.807760
     5  C    2.481765
     6  C   -0.741903
     7  C    2.198859
     8  H    0.873259
     9  H    0.151735
    10  H    0.248553
    11  H    0.256692
    12  H    0.277239
    13  H    0.314900
    14  H    0.253639
    15  H    0.179358
    16  H    0.019551
    17  H    0.174365
    18  H    0.215963
    19  H    0.268573
    20  N    0.917868
    21  N    0.863761
    22  O   -1.520692
    23  O   -1.479609
    24  O   -1.363338
    25  O   -1.328848
    26  O   -1.380399
 Sum of Mulliken charges =   0.00000

 Dipole moment (field-independent basis, Debye):
    X=              3.8203    Y=             -2.0279    Z=              0.4940  Tot=              4.3533

 Test job not archived.
 1\1\GINC-SE220\SP\RHF\Aug-CC-pVDZ\C7H12N2O5\OHZDE\08-Apr-2025\0\\#t hf
  aug-cc-pvdz iop(5/13=1,5/36=2,99/5=2) pseudo=read geom=check guess=(r
 ead,tcheck) scf=(maxcycle=1)\\title\\0,1\C,0,0.830406,-1.57973,0.53194
 7\C,0,0.291754,-1.21635,-0.79087\C,0,0.942894,-0.392949,1.47538\C,0,1.
 98519,0.653492,1.15762\C,0,1.57753,1.62105,0.0895341\C,0,-2.12959,-1.0
 2303,-0.0227272\C,0,-2.8728,0.345382,0.17808\H,0,-1.24657,1.33886,-0.3
 59875\H,0,-2.90941,-1.75723,-0.352127\H,0,-1.72414,-1.29549,0.96341\H,
 0,-1.17355,-0.780666,-1.94829\H,0,2.04808,2.70617,-1.20513\H,0,2.24823

 Normal termination of Gaussian 16 at Tue Apr  8 19:42:23 2025.
