 Gaussian 16, Revision C.01,

 ----------------------------------------------------------------------
 #t hf aug-cc-pvdz symm=none int=(grid=ultrafine) guess=(read,tcheck) s
 table=(opt,rrhf)
 ----------------------------------------------------------------------
 -----
 title
 -----
 Symbolic Z-matrix:
 Charge =  0 Multiplicity = 1

 SCF Done:  E(RHF) =  -376.431496459     A.U. after   14 cycles
 Normal termination of Gaussian 16 at Tue Apr  8 21:42:45 2025.
 Gaussian 16:  ES64L-G16RevC.01  3-Jul-2019

 ----------------------------------------------------------------------
 #t hf aug-cc-pvdz iop(5/13=1,5/36=2,99/5=2) pseudo=read geom=check gue
 ss=(read,tcheck) scf=(maxcycle=1)
 ----------------------------------------------------------------------
 -----
 title
 -----
 Structure from the checkpoint file:  "ANI1ccx_494_conf2_mol2.chk"
 Charge =  0 Multiplicity = 1

                         Standard orientation:
 ---------------------------------------------------------------------
 Center     Atomic      Atomic             Coordinates (Angstroms)
 Number     Number       Type             X           Y           Z
 ---------------------------------------------------------------------
      1          6           0        0.737841    0.126877   -0.021553
      2          6           0       -0.769951   -0.199930   -0.005069
      3          1           0        2.400412   -0.757518    0.035337
      4          1           0       -0.850152    1.683178   -0.065980
      5          8           0        1.441802   -0.977874   -0.048048
      6          8           0        1.131317    1.264643    0.059115
      7          8           0       -1.495582    0.942057   -0.038896
      8          8           0       -1.247237   -1.289743    0.051625
 ---------------------------------------------------------------------

 SCF Done:  E(RHF) =  -376.793880876     A.U. after    2 cycles

 The electronic state is 1-A.
 Alpha  occ. eigenvalues --  -20.65291 -20.61843 -20.59819 -20.57389 -11.45015
 Alpha  occ. eigenvalues --  -11.42831  -1.60932  -1.56167  -1.51807  -1.48247
 Alpha  occ. eigenvalues --   -0.99214  -0.84907  -0.80976  -0.76021  -0.69969
 Alpha  occ. eigenvalues --   -0.69305  -0.65651  -0.63038  -0.59813  -0.54895
 Alpha  occ. eigenvalues --   -0.52587  -0.49623  -0.46133
 Alpha virt. eigenvalues --    0.02681   0.04787   0.06267   0.08057   0.08924
 Alpha virt. eigenvalues --    0.10763   0.11623   0.11733   0.12581   0.14133
 Alpha virt. eigenvalues --    0.18205   0.19329   0.19857   0.21443   0.22915

 Mulliken charges:
               1
     1  C    1.804058
     2  C    1.872241
     3  H    0.383792
     4  H    0.485938
     5  O   -1.134084
     6  O   -1.106500
     7  O   -1.233205
     8  O   -1.072240
 Sum of Mulliken charges =  -0.00000

 Dipole moment (field-independent basis, Debye):
    X=              3.3095    Y=              1.0536    Z=             -0.1454  Tot=              3.4762

 Test job not archived.
 1\1\GINC-SE455\SP\RHF\Aug-CC-pVDZ\C2H2O4\OHZDE\08-Apr-2025\0\\#t hf au
 g-cc-pvdz iop(5/13=1,5/36=2,99/5=2) pseudo=read geom=check guess=(read
 ,tcheck) scf=(maxcycle=1)\\title\\0,1\C,0,0.737841,0.126875,-0.0215526
 \C,0,-0.769951,-0.199928,-0.00506873\H,0,2.40041,-0.757524,0.0353369\H
 ,0,-0.850148,1.68318,-0.0659798\O,0,1.4418,-0.977878,-0.0480482\O,0,1.
 13132,1.26464,0.0591154\O,0,-1.49558,0.942061,-0.0388963\O,0,-1.24724,
 -1.28974,0.0516255\\Version=ES64L-G16RevC.01\State=1-A\HF=-376.7938809
 \RMSD=1.373e-02\Dipole=1.3020703,0.4145155,-0.0572124\Quadrupole=1.286

 Normal termination of Gaussian 16 at Tue Apr  8 21:42:48 2025.
