 Gaussian 16, Revision C.01,

 ----------------------------------------------------------------------
 #t hf aug-cc-pvdz symm=none int=(grid=ultrafine) guess=(read,tcheck) s
 table=(opt,rrhf)
 ----------------------------------------------------------------------
 -----
 title
 -----
 Symbolic Z-matrix:
 Charge =  0 Multiplicity = 1

 SCF Done:  E(RHF) =  -456.235396750     A.U. after   12 cycles
 Normal termination of Gaussian 16 at Tue Apr  8 21:08:47 2025.
 Gaussian 16:  ES64L-G16RevC.01  3-Jul-2019

 ----------------------------------------------------------------------
 #t hf aug-cc-pvdz iop(5/13=1,5/36=2,99/5=2) pseudo=read geom=check gue
 ss=(read,tcheck) scf=(maxcycle=1)
 ----------------------------------------------------------------------
 -----
 title
 -----
 Structure from the checkpoint file:  "ANI1ccx_1844_conf475_mol1.chk"
 Charge =  0 Multiplicity = 1

                         Standard orientation:
 ---------------------------------------------------------------------
 Center     Atomic      Atomic             Coordinates (Angstroms)
 Number     Number       Type             X           Y           Z
 ---------------------------------------------------------------------
      1          1           0        0.065033    0.731315    1.624420
      2          1           0       -0.903667   -1.765429   -0.460627
      3          1           0        0.338482   -0.872910   -0.371490
      4          1           0       -3.099550   -0.971394    1.014430
      5          1           0       -1.582289    0.253421   -1.322350
      6          1           0       -0.291484    0.571605   -1.980570
      7          1           0       -1.371360   -0.510184    1.084530
      8          1           0        0.535685    3.130429    0.266387
      9          1           0        2.544259   -1.565783   -0.550018
     10          1           0        3.314781   -0.475113    0.234210
     11          1           0        0.913014   -0.349238    1.152320
     12          1           0       -0.216137    1.862110   -0.352938
     13          8           0       -2.230110   -0.770409    0.493135
     14          8           0        0.164486   -0.179260    1.726950
     15          8           0        2.510600   -0.640484   -0.241348
     16          8           0        0.437674    2.156249    0.332645
     17          8           0       -0.947014    1.010801   -1.498810
     18          8           0        0.033518   -1.581750   -0.854863
 ---------------------------------------------------------------------

 SCF Done:  E(RHF) =  -456.710105748     A.U. after    2 cycles

 The electronic state is 1-A.
 Alpha  occ. eigenvalues --  -20.57460 -20.55860 -20.55628 -20.55497 -20.53252
 Alpha  occ. eigenvalues --  -20.52997  -1.46868  -1.45618  -1.45593  -1.41979
 Alpha  occ. eigenvalues --   -1.40504  -1.39223  -0.73951  -0.73000  -0.71536
 Alpha  occ. eigenvalues --   -0.70833  -0.69774  -0.68348  -0.62927  -0.59584
 Alpha  occ. eigenvalues --   -0.58593  -0.56960  -0.55320  -0.53393  -0.51853
 Alpha  occ. eigenvalues --   -0.50188  -0.49480  -0.48241  -0.47740  -0.47122
 Alpha virt. eigenvalues --    0.03430   0.03993   0.04550   0.05769   0.07139
 Alpha virt. eigenvalues --    0.07840   0.08242   0.08593   0.09317   0.10335
 Alpha virt. eigenvalues --    0.11749   0.12842   0.17995   0.18897   0.19379

 Mulliken charges:
               1
     1  H    0.497514
     2  H    0.538338
     3  H    0.703770
     4  H    0.463428
     5  H    0.636350
     6  H    0.435732
     7  H    0.861412
     8  H    0.427081
     9  H    0.425983
    10  H    0.423331
    11  H    0.725908
    12  H    0.805529
    13  O   -1.223647
    14  O   -1.332719
    15  O   -0.894919
    16  O   -1.031229
    17  O   -1.305186
    18  O   -1.156674
 Sum of Mulliken charges =  -0.00000

 Dipole moment (field-independent basis, Debye):
    X=              0.9260    Y=              0.0900    Z=              0.5901  Tot=              1.1018

 Test job not archived.
 1\1\GINC-SE016\SP\RHF\Aug-CC-pVDZ\H12O6\OHZDE\08-Apr-2025\0\\#t hf aug
 -cc-pvdz iop(5/13=1,5/36=2,99/5=2) pseudo=read geom=check guess=(read,
 tcheck) scf=(maxcycle=1)\\title\\0,1\H,0,0.0650307,0.731315,1.62442\H,
 0,-0.903666,-1.76543,-0.460627\H,0,0.338482,-0.872909,-0.37149\H,0,-3.
 09955,-0.971397,1.01443\H,0,-1.58229,0.253419,-1.32235\H,0,-0.291486,0
 .571605,-1.98057\H,0,-1.37136,-0.510185,1.08453\H,0,0.53568,3.13043,0.
 266387\H,0,2.54426,-1.56578,-0.550018\H,0,3.31478,-0.475109,0.23421\H,
 0,0.913013,-0.349237,1.15232\H,0,-0.21614,1.86211,-0.352938\O,0,-2.230

 Normal termination of Gaussian 16 at Tue Apr  8 21:08:52 2025.
