 Gaussian 16, Revision C.01,

 ----------------------------------------------------------------------
 #t hf aug-cc-pvdz symm=none int=(grid=ultrafine) guess=(read,tcheck) s
 table=(opt,rrhf)
 ----------------------------------------------------------------------
 -----
 title
 -----
 Symbolic Z-matrix:
 Charge =  0 Multiplicity = 1

 SCF Done:  E(RHF) =  -485.241319496     A.U. after   15 cycles
 Normal termination of Gaussian 16 at Tue Apr  8 21:42:42 2025.
 Gaussian 16:  ES64L-G16RevC.01  3-Jul-2019

 ----------------------------------------------------------------------
 #t hf aug-cc-pvdz iop(5/13=1,5/36=2,99/5=2) pseudo=read geom=check gue
 ss=(read,tcheck) scf=(maxcycle=1)
 ----------------------------------------------------------------------
 -----
 title
 -----
 Structure from the checkpoint file:  "ANI1ccx_484_conf13_mol2.chk"
 Charge =  0 Multiplicity = 1

                         Standard orientation:
 ---------------------------------------------------------------------
 Center     Atomic      Atomic             Coordinates (Angstroms)
 Number     Number       Type             X           Y           Z
 ---------------------------------------------------------------------
      1          6           0       -1.400871   -0.038429   -0.051178
      2          6           0        0.688225    0.774950    0.113629
      3          1           0        2.297829   -0.551045   -0.728660
      4          1           0        2.448101   -1.706758    0.441829
      5          7           0        1.788630   -1.271819   -0.221438
      6          7           0        0.740715   -0.629489    0.475053
      7          8           0       -0.595787   -1.072251   -0.088967
      8          8           0       -2.611861   -0.111579   -0.105758
      9          8           0       -0.618593    1.057369    0.124059
     10          8           0        1.554307    1.519941   -0.162232
 ---------------------------------------------------------------------

 SCF Done:  E(RHF) =  -485.706577072     A.U. after    2 cycles

 The electronic state is 1-A.
 Alpha  occ. eigenvalues --  -20.67569 -20.67147 -20.61485 -20.57581 -15.68741
 Alpha  occ. eigenvalues --  -15.59174 -11.49266 -11.48862  -1.69761  -1.58670
 Alpha  occ. eigenvalues --   -1.54345  -1.50094  -1.34341  -1.13033  -0.96496
 Alpha  occ. eigenvalues --   -0.92553  -0.81497  -0.80343  -0.77130  -0.74711
 Alpha  occ. eigenvalues --   -0.70750  -0.69341  -0.65676  -0.63379  -0.61066
 Alpha  occ. eigenvalues --   -0.55893  -0.53641  -0.52486  -0.49960  -0.48411
 Alpha virt. eigenvalues --    0.02458   0.05487   0.07537   0.08107   0.08353
 Alpha virt. eigenvalues --    0.09285   0.09649   0.10889   0.11282   0.11614
 Alpha virt. eigenvalues --    0.13608   0.14649   0.16104   0.16693   0.18501

 Mulliken charges:
               1
     1  C    2.134749
     2  C    1.467041
     3  H    0.139795
     4  H    0.183716
     5  N    0.118893
     6  N    0.307824
     7  O   -1.052610
     8  O   -1.119917
     9  O   -1.112050
    10  O   -1.067440
 Sum of Mulliken charges =  -0.00000

 Dipole moment (field-independent basis, Debye):
    X=              3.9282    Y=             -0.7106    Z=              0.4571  Tot=              4.0181

 Test job not archived.
 1\1\GINC-SE090\SP\RHF\Aug-CC-pVDZ\C2H2N2O4\OHZDE\08-Apr-2025\0\\#t hf
 aug-cc-pvdz iop(5/13=1,5/36=2,99/5=2) pseudo=read geom=check guess=(re
 ad,tcheck) scf=(maxcycle=1)\\title\\0,1\C,0,-1.40087,-0.0384269,-0.051
 1776\C,0,0.688227,0.77495,0.113629\H,0,2.29783,-0.551047,-0.72866\H,0,
 2.4481,-1.70676,0.441829\N,0,1.78863,-1.27182,-0.221438\N,0,0.740716,-
 0.629489,0.475053\O,0,-0.595787,-1.07225,-0.0889674\O,0,-2.61186,-0.11
 1575,-0.105758\O,0,-0.618591,1.05737,0.124059\O,0,1.55431,1.51994,-0.1
 62232\\Version=ES64L-G16RevC.01\State=1-A\HF=-485.7065771\RMSD=1.506e-

 Normal termination of Gaussian 16 at Tue Apr  8 21:42:46 2025.
