 Gaussian 16, Revision C.01,

 ----------------------------------------------------------------------
 #t hf aug-cc-pvdz symm=none int=(grid=ultrafine) guess=(read,tcheck) s
 table=(opt,rrhf)
 ----------------------------------------------------------------------
 -----
 title
 -----
 Symbolic Z-matrix:
 Charge =  0 Multiplicity = 1

 SCF Done:  E(RHF) =  -336.777071676     A.U. after   14 cycles
 Normal termination of Gaussian 16 at Tue Apr  8 21:44:50 2025.
 Gaussian 16:  ES64L-G16RevC.01  3-Jul-2019

 ----------------------------------------------------------------------
 #t hf aug-cc-pvdz iop(5/13=1,5/36=2,99/5=2) pseudo=read geom=check gue
 ss=(read,tcheck) scf=(maxcycle=1)
 ----------------------------------------------------------------------
 -----
 title
 -----
 Structure from the checkpoint file:  "ANI1ccx_515_conf6_mol1.chk"
 Charge =  0 Multiplicity = 1

                         Standard orientation:
 ---------------------------------------------------------------------
 Center     Atomic      Atomic             Coordinates (Angstroms)
 Number     Number       Type             X           Y           Z
 ---------------------------------------------------------------------
      1          6           0        0.735001   -0.206405   -0.004099
      2          6           0       -0.773399    0.254487   -0.047074
      3          1           0        2.626189    0.527831    0.094162
      4          1           0        1.301865    1.714393    0.246821
      5          1           0       -2.628067   -0.677154    0.018075
      6          1           0       -1.160414   -1.732264   -0.087281
      7          7           0        1.660488    0.780636   -0.006841
      8          7           0       -1.603917   -0.829059    0.072324
      9          8           0        1.027015   -1.402047   -0.022818
     10          8           0       -1.065164    1.429256   -0.030071
 ---------------------------------------------------------------------

 SCF Done:  E(RHF) =  -337.108642836     A.U. after    2 cycles

 The electronic state is 1-A.
 Alpha  occ. eigenvalues --  -20.54541 -20.53731 -15.54777 -15.54733 -11.39193
 Alpha  occ. eigenvalues --  -11.38661  -1.49488  -1.47413  -1.24026  -1.23266
 Alpha  occ. eigenvalues --   -0.93455  -0.83104  -0.79927  -0.76238  -0.69948
 Alpha  occ. eigenvalues --   -0.67504  -0.63658  -0.61980  -0.57562  -0.51225
 Alpha  occ. eigenvalues --   -0.46505  -0.44947  -0.42209
 Alpha virt. eigenvalues --    0.03125   0.03831   0.06380   0.06512   0.08407
 Alpha virt. eigenvalues --    0.10248   0.11089   0.11621   0.11798   0.11991
 Alpha virt. eigenvalues --    0.13707   0.15953   0.16435   0.16911   0.19260

 Mulliken charges:
               1
     1  C    0.436888
     2  C    0.461986
     3  H    0.088100
     4  H    0.153115
     5  H    0.126169
     6  H    0.119499
     7  N    0.642347
     8  N    0.555012
     9  O   -1.332917
    10  O   -1.250200
 Sum of Mulliken charges =   0.00000

 Dipole moment (field-independent basis, Debye):
    X=             -0.0007    Y=              0.0821    Z=              0.2471  Tot=              0.2604

 Test job not archived.
 1\1\GINC-SE088\SP\RHF\Aug-CC-pVDZ\C2H4N2O2\OHZDE\08-Apr-2025\0\\#t hf
 aug-cc-pvdz iop(5/13=1,5/36=2,99/5=2) pseudo=read geom=check guess=(re
 ad,tcheck) scf=(maxcycle=1)\\title\\0,1\C,0,0.735,-0.206407,-0.0040989
 1\C,0,-0.773399,0.25449,-0.0470742\H,0,2.62619,0.527824,0.0941624\H,0,
 1.30187,1.71439,0.246821\H,0,-2.62807,-0.677145,0.0180746\H,0,-1.16042
 ,-1.73226,-0.0872811\N,0,1.66049,0.780631,-0.00684141\N,0,-1.60392,-0.
 829054,0.0723238\O,0,1.02701,-1.40205,-0.0228184\O,0,-1.06516,1.42926,
 -0.030071\\Version=ES64L-G16RevC.01\State=1-A\HF=-337.1086428\RMSD=2.4

 Normal termination of Gaussian 16 at Tue Apr  8 21:44:54 2025.
