 Gaussian 16, Revision C.01,

 ----------------------------------------------------------------------
 #t hf aug-cc-pvdz symm=none int=(grid=ultrafine) guess=(read,tcheck) s
 table=(opt,rrhf)
 ----------------------------------------------------------------------
 -----
 title
 -----
 Symbolic Z-matrix:
 Charge =  0 Multiplicity = 1

 SCF Done:  E(RHF) =  -752.376357067     A.U. after   15 cycles
 Normal termination of Gaussian 16 at Tue Apr  8 20:06:37 2025.
 Gaussian 16:  ES64L-G16RevC.01  3-Jul-2019

 ----------------------------------------------------------------------
 #t hf aug-cc-pvdz iop(5/13=1,5/36=2,99/5=2) pseudo=read geom=check gue
 ss=(read,tcheck) scf=(maxcycle=1)
 ----------------------------------------------------------------------
 -----
 title
 -----
 Structure from the checkpoint file:  "ANI1ccx_1572_conf12_mol1.chk"
 Charge =  0 Multiplicity = 1

                         Standard orientation:
 ---------------------------------------------------------------------
 Center     Atomic      Atomic             Coordinates (Angstroms)
 Number     Number       Type             X           Y           Z
 ---------------------------------------------------------------------
      1          6           0        3.646500   -1.141080    0.117243
      2          6           0        2.166010   -0.974872   -0.243337
      3          6           0        0.248467    0.459885    0.021512
      4          6           0       -0.095257    1.806440   -0.239533
      5          6           0       -0.494594   -0.042018    1.244420
      6          6           0       -1.814940   -0.447129    0.766666
      7          6           0       -2.998770    0.321448    0.491282
      8          6           0       -3.014090   -1.693510   -0.450461
      9          1           0       -0.903270    2.969020   -1.423230
     10          1           0       -4.720250   -0.337486   -0.567460
     11          1           0       -3.529420   -2.589540   -0.852917
     12          1           0       -3.249390    1.279800    0.973356
     13          1           0       -0.556580    0.696019    2.062170
     14          1           0        0.024595   -0.943782    1.478620
     15          1           0       -0.179790   -0.181850   -0.799151
     16          1           0        2.296300    1.031490    0.202101
     17          1           0        3.604060   -1.457470    1.079460
     18          1           0        3.938140   -2.041060   -0.554842
     19          1           0        4.295790    0.485794   -0.872689
     20          1           0        5.277570    0.171844    0.263575
     21          7           0        4.338830    0.220962    0.107182
     22          7           0        1.660910    0.260458    0.048829
     23          7           0       -1.826730   -1.652300    0.073132
     24          7           0       -3.772700   -0.567965   -0.202052
     25          8           0        1.435580   -1.830180   -0.626774
     26          8           0        0.078997    2.765990    0.494362
     27          8           0       -0.884566    1.983460   -1.295760
 ---------------------------------------------------------------------

 SCF Done:  E(RHF) =  -753.135832148     A.U. after    2 cycles

 The electronic state is 1-A.
 Alpha  occ. eigenvalues --  -20.59832 -20.53132 -20.50524 -15.56454 -15.51422
 Alpha  occ. eigenvalues --  -15.51393 -15.48263 -11.38449 -11.34793 -11.30128
 Alpha  occ. eigenvalues --  -11.28471 -11.27183 -11.26914 -11.25134 -11.22678
 Alpha  occ. eigenvalues --   -1.55530  -1.47728  -1.43707  -1.33132  -1.25124
 Alpha  occ. eigenvalues --   -1.19918  -1.17963  -1.09125  -1.01338  -0.97592
 Alpha  occ. eigenvalues --   -0.93843  -0.84679  -0.83432  -0.81424  -0.79576
 Alpha  occ. eigenvalues --   -0.75190  -0.74347  -0.71545  -0.71042  -0.68985
 Alpha  occ. eigenvalues --   -0.66362  -0.65217  -0.64450  -0.62933  -0.61866
 Alpha  occ. eigenvalues --   -0.61742  -0.61297  -0.59134  -0.58030  -0.57130
 Alpha  occ. eigenvalues --   -0.54065  -0.53245  -0.50520  -0.48184  -0.47495
 Alpha  occ. eigenvalues --   -0.46576  -0.44775  -0.43329  -0.42118  -0.41129
 Alpha  occ. eigenvalues --   -0.31409
 Alpha virt. eigenvalues --    0.02789   0.02996   0.03979   0.04670   0.05115
 Alpha virt. eigenvalues --    0.05198   0.05533   0.05714   0.07287   0.07469
 Alpha virt. eigenvalues --    0.08112   0.08731   0.09634   0.10475   0.11328

 Mulliken charges:
               1
     1  C   -0.562970
     2  C    0.818673
     3  C   -2.705067
     4  C    3.544682
     5  C   -0.183882
     6  C   -1.008888
     7  C   -0.241499
     8  C   -0.449824
     9  H    0.414719
    10  H    0.013082
    11  H   -0.093868
    12  H   -0.124049
    13  H    0.147992
    14  H    0.246006
    15  H    0.401866
    16  H    0.255058
    17  H    0.130513
    18  H    0.321680
    19  H    0.231866
    20  H   -0.006899
    21  N    0.202576
    22  N    1.017410
    23  N    1.192421
    24  N    0.800252
    25  O   -1.368123
    26  O   -1.564223
    27  O   -1.429501
 Sum of Mulliken charges =  -0.00000

 Dipole moment (field-independent basis, Debye):
    X=             -0.7443    Y=              1.5774    Z=             -1.7035  Tot=              2.4381

 Test job not archived.
 1\1\GINC-SE187\SP\RHF\Aug-CC-pVDZ\C8H12N4O3\OHZDE\08-Apr-2025\0\\#t hf
  aug-cc-pvdz iop(5/13=1,5/36=2,99/5=2) pseudo=read geom=check guess=(r
 ead,tcheck) scf=(maxcycle=1)\\title\\0,1\C,0,3.6465,-1.14108,0.117243\
 C,0,2.16601,-0.974872,-0.243337\C,0,0.248467,0.459885,0.0215121\C,0,-0
 .0952569,1.80644,-0.239533\C,0,-0.494594,-0.042018,1.24442\C,0,-1.8149
 4,-0.447129,0.766666\C,0,-2.99877,0.321448,0.491282\C,0,-3.01409,-1.69
 351,-0.450461\H,0,-0.90327,2.96902,-1.42323\H,0,-4.72025,-0.337486,-0.
 56746\H,0,-3.52942,-2.58954,-0.852917\H,0,-3.24939,1.2798,0.973356\H,0

 Normal termination of Gaussian 16 at Tue Apr  8 20:07:07 2025.
