 Gaussian 16, Revision C.01,

 ----------------------------------------------------------------------
 #t hf aug-cc-pvdz symm=none int=(grid=ultrafine) guess=(read,tcheck) s
 table=(opt,rrhf)
 ----------------------------------------------------------------------
 -----
 title
 -----
 Symbolic Z-matrix:
 Charge =  0 Multiplicity = 1

 SCF Done:  E(RHF) =  -696.475526782     A.U. after   14 cycles
 Normal termination of Gaussian 16 at Tue Apr  8 19:24:33 2025.
 Gaussian 16:  ES64L-G16RevC.01  3-Jul-2019

 ----------------------------------------------------------------------
 #t hf aug-cc-pvdz iop(5/13=1,5/36=2,99/5=2) pseudo=read geom=check gue
 ss=(read,tcheck) scf=(maxcycle=1)
 ----------------------------------------------------------------------
 -----
 title
 -----
 Structure from the checkpoint file:  "ANI1ccx_1205_conf48_mol1.chk"
 Charge =  0 Multiplicity = 1

                         Standard orientation:
 ---------------------------------------------------------------------
 Center     Atomic      Atomic             Coordinates (Angstroms)
 Number     Number       Type             X           Y           Z
 ---------------------------------------------------------------------
      1          6           0        1.074990    0.919489    0.311553
      2          6           0       -0.066331    1.615100   -0.357056
      3          6           0        1.696900   -0.145806   -0.587861
      4          6           0        2.874430   -0.756654   -0.064076
      5          6           0       -2.107490    0.314831    0.637758
      6          6           0       -3.025400   -0.780840    0.058211
      7          1           0       -3.188721   -1.880080   -1.276579
      8          1           0       -2.938980    0.738124    1.216721
      9          1           0       -1.579260   -0.172735    1.410961
     10          1           0       -1.887510    2.000210   -0.613103
     11          1           0        2.651719   -2.070500   -1.541109
     12          1           0        4.141629   -2.233750   -0.847188
     13          1           0        1.698320    0.130165   -1.623559
     14          1           0        0.845376   -0.918370   -0.619586
     15          1           0        1.876020    1.617790    0.506028
     16          1           0        0.152438    0.800039    2.232241
     17          1           0        1.574300   -0.175778    1.965641
     18          7           0        0.721747    0.176416    1.625181
     19          7           0        3.212359   -1.713090   -0.854556
     20          7           0       -1.329600    1.339750   -0.078452
     21          8           0        0.226141    2.527880   -1.137309
     22          8           0        3.317180   -0.414069    1.035581
     23          8           0       -4.045571   -1.331120    0.515472
     24          8           0       -2.530181   -1.214360   -1.119599
 ---------------------------------------------------------------------

 SCF Done:  E(RHF) =  -697.175621185     A.U. after    2 cycles

 The electronic state is 1-A.
 Alpha  occ. eigenvalues --  -20.61844 -20.56525 -20.52075 -20.51222 -15.56112
 Alpha  occ. eigenvalues --  -15.54913 -15.48868 -11.43008 -11.36937 -11.36829
 Alpha  occ. eigenvalues --  -11.32313 -11.28241 -11.25237  -1.57472  -1.46739
 Alpha  occ. eigenvalues --   -1.45971  -1.45407  -1.28422  -1.27052  -1.17700
 Alpha  occ. eigenvalues --   -1.06432  -1.05465  -0.95661  -0.88619  -0.86258
 Alpha  occ. eigenvalues --   -0.82184  -0.76823  -0.76207  -0.73745  -0.73122
 Alpha  occ. eigenvalues --   -0.71074  -0.68376  -0.67702  -0.66512  -0.65049
 Alpha  occ. eigenvalues --   -0.63261  -0.61264  -0.60853  -0.59935  -0.57690
 Alpha  occ. eigenvalues --   -0.56426  -0.53232  -0.50985  -0.48706  -0.47778
 Alpha  occ. eigenvalues --   -0.45560  -0.44916  -0.43454  -0.43163  -0.42121
 Alpha virt. eigenvalues --    0.01946   0.03366   0.03785   0.04690   0.05055
 Alpha virt. eigenvalues --    0.05824   0.06060   0.06383   0.06821   0.08302
 Alpha virt. eigenvalues --    0.08338   0.10547   0.10974   0.11282   0.12044

 Mulliken charges:
               1
     1  C   -0.698470
     2  C    0.300944
     3  C   -0.524669
     4  C    0.595646
     5  C   -1.013074
     6  C    2.347904
     7  H    0.390480
     8  H    0.279449
     9  H    0.172510
    10  H    0.259324
    11  H    0.012011
    12  H    0.193384
    13  H    0.002938
    14  H    0.437263
    15  H    0.035425
    16  H    0.146119
    17  H    0.044865
    18  N    0.563989
    19  N    0.768724
    20  N    1.108856
    21  O   -1.455205
    22  O   -1.388669
    23  O   -1.355353
    24  O   -1.224392
 Sum of Mulliken charges =  -0.00000

 Dipole moment (field-independent basis, Debye):
    X=              0.2518    Y=             -3.0509    Z=             -2.0812  Tot=              3.7017

 Test job not archived.
 1\1\GINC-SE092\SP\RHF\Aug-CC-pVDZ\C6H11N3O4\OHZDE\08-Apr-2025\0\\#t hf
  aug-cc-pvdz iop(5/13=1,5/36=2,99/5=2) pseudo=read geom=check guess=(r
 ead,tcheck) scf=(maxcycle=1)\\title\\0,1\C,0,1.07499,0.919489,0.311552
 \C,0,-0.0663306,1.6151,-0.357057\C,0,1.6969,-0.145806,-0.587862\C,0,2.
 87443,-0.756654,-0.064077\C,0,-2.10749,0.314831,0.637757\C,0,-3.0254,-
 0.78084,0.0582102\H,0,-3.18872,-1.88008,-1.27658\H,0,-2.93898,0.738124
 ,1.21672\H,0,-1.57926,-0.172735,1.41096\H,0,-1.88751,2.00021,-0.613104
 \H,0,2.65172,-2.0705,-1.54111\H,0,4.14163,-2.23375,-0.847189\H,0,1.698

 Normal termination of Gaussian 16 at Tue Apr  8 19:24:53 2025.
