 Gaussian 16, Revision C.01,

 ----------------------------------------------------------------------
 #t hf aug-cc-pvdz symm=none int=(grid=ultrafine) guess=(read,tcheck) s
 table=(opt,rrhf)
 ----------------------------------------------------------------------
 -----
 title
 -----
 Symbolic Z-matrix:
 Charge =  0 Multiplicity = 1

 SCF Done:  E(RHF) =  -672.922503138     A.U. after   17 cycles
 Normal termination of Gaussian 16 at Tue Apr  8 19:28:55 2025.
 Gaussian 16:  ES64L-G16RevC.01  3-Jul-2019

 ----------------------------------------------------------------------
 #t hf aug-cc-pvdz iop(5/13=1,5/36=2,99/5=2) pseudo=read geom=check gue
 ss=(read,tcheck) scf=(maxcycle=1)
 ----------------------------------------------------------------------
 -----
 title
 -----
 Structure from the checkpoint file:  "ANI1ccx_1321_conf2_mol1.chk"
 Charge =  0 Multiplicity = 1

                         Standard orientation:
 ---------------------------------------------------------------------
 Center     Atomic      Atomic             Coordinates (Angstroms)
 Number     Number       Type             X           Y           Z
 ---------------------------------------------------------------------
      1          6           0        1.287812   -0.838560    0.156529
      2          6           0        0.481634   -2.089049    0.392715
      3          6           0       -0.865471   -2.180500   -0.291104
      4          6           0       -1.516828   -0.842888   -0.157068
      5          6           0       -0.843156    0.380985   -0.026570
      6          6           0        0.607736    0.466195    0.152639
      7          1           0        1.156097    3.382762    0.049397
      8          1           0       -0.778535   -2.423720   -1.331460
      9          1           0       -1.468276   -2.904741    0.219545
     10          1           0        1.147104   -2.899118    0.178586
     11          1           0        2.765180    0.839956   -0.261221
     12          1           0        0.359705   -2.177799    1.486090
     13          7           0        2.541522   -0.997661    0.020889
     14          7           0       -2.793689   -0.600179   -0.131182
     15          7           0       -1.739571    1.327869    0.097904
     16          7           0        1.214119    1.593512    0.090114
     17          8           0       -2.937020    0.718496    0.045364
     18          8           0        3.377081    0.024030   -0.300163
     19          8           0        0.478902    2.700071   -0.026182
 ---------------------------------------------------------------------

 SCF Done:  E(RHF) =  -673.587335277     A.U. after    2 cycles

 The electronic state is 1-A.
 Alpha  occ. eigenvalues --  -20.68690 -20.63843 -20.59992 -15.61822 -15.61423
 Alpha  occ. eigenvalues --  -15.59912 -15.58599 -11.34043 -11.31401 -11.31002
 Alpha  occ. eigenvalues --  -11.30989 -11.27957 -11.27153  -1.65525  -1.58455
 Alpha  occ. eigenvalues --   -1.52331  -1.27099  -1.24312  -1.21978  -1.19793
 Alpha  occ. eigenvalues --   -1.09679  -0.99572  -0.94280  -0.89981  -0.86776
 Alpha  occ. eigenvalues --   -0.82754  -0.79352  -0.75894  -0.73722  -0.72804
 Alpha  occ. eigenvalues --   -0.69714  -0.69318  -0.67973  -0.65219  -0.62974
 Alpha  occ. eigenvalues --   -0.62056  -0.58790  -0.57640  -0.56901  -0.55165
 Alpha  occ. eigenvalues --   -0.54673  -0.52346  -0.51167  -0.47080  -0.46897
 Alpha  occ. eigenvalues --   -0.43462  -0.39849
 Alpha virt. eigenvalues --    0.00446   0.02906   0.03793   0.03805   0.04774
 Alpha virt. eigenvalues --    0.05172   0.06792   0.07871   0.08827   0.10186
 Alpha virt. eigenvalues --    0.10914   0.11147   0.11842   0.12366   0.12883

 Mulliken charges:
               1
     1  C   -0.819338
     2  C    0.018240
     3  C    0.093331
     4  C   -0.667811
     5  C   -0.955180
     6  C   -1.457201
     7  H    0.304908
     8  H    0.212193
     9  H    0.215614
    10  H    0.113452
    11  H    0.562435
    12  H    0.238560
    13  N    1.805223
    14  N    1.346134
    15  N    1.534448
    16  N    1.810677
    17  O   -1.601337
    18  O   -1.435564
    19  O   -1.318784
 Sum of Mulliken charges =   0.00000

 Dipole moment (field-independent basis, Debye):
    X=             -0.0084    Y=             -0.4284    Z=              0.2277  Tot=              0.4852

 Test job not archived.
 1\1\GINC-SE127\SP\RHF\Aug-CC-pVDZ\C6H6N4O3\OHZDE\08-Apr-2025\0\\#t hf
 aug-cc-pvdz iop(5/13=1,5/36=2,99/5=2) pseudo=read geom=check guess=(re
 ad,tcheck) scf=(maxcycle=1)\\title\\0,1\C,0,1.28781,-0.838562,0.156529
 \C,0,0.481631,-2.08905,0.392715\C,0,-0.865474,-2.1805,-0.291104\C,0,-1
 .51683,-0.842887,-0.157068\C,0,-0.843156,0.380985,-0.0265695\C,0,0.607
 736,0.466194,0.152639\H,0,1.1561,3.38276,0.0493969\H,0,-0.778538,-2.42
 372,-1.33146\H,0,-1.46828,-2.90474,0.219545\H,0,1.1471,-2.89912,0.1785
 86\H,0,2.76518,0.839952,-0.261221\H,0,0.359702,-2.1778,1.48609\N,0,2.5

 Normal termination of Gaussian 16 at Tue Apr  8 19:29:09 2025.
