 Gaussian 16, Revision C.01,

 ----------------------------------------------------------------------
 #t hf aug-cc-pvdz symm=none int=(grid=ultrafine) guess=(read,tcheck) s
 table=(opt,rrhf)
 ----------------------------------------------------------------------
 -----
 title
 -----
 Symbolic Z-matrix:
 Charge =  0 Multiplicity = 1

 SCF Done:  E(RHF) =  -832.260370979     A.U. after   15 cycles
 Normal termination of Gaussian 16 at Tue Apr  8 20:43:27 2025.
 Gaussian 16:  ES64L-G16RevC.01  3-Jul-2019

 ----------------------------------------------------------------------
 #t hf aug-cc-pvdz iop(5/13=1,5/36=2,99/5=2) pseudo=read geom=check gue
 ss=(read,tcheck) scf=(maxcycle=1)
 ----------------------------------------------------------------------
 -----
 title
 -----
 Structure from the checkpoint file:  "ANI1ccx_1742_conf3_mol2.chk"
 Charge =  0 Multiplicity = 1

                         Standard orientation:
 ---------------------------------------------------------------------
 Center     Atomic      Atomic             Coordinates (Angstroms)
 Number     Number       Type             X           Y           Z
 ---------------------------------------------------------------------
      1          6           0       -1.624841   -0.038135   -0.436793
      2          6           0       -1.039100   -1.476730   -0.260693
      3          6           0       -2.039421    0.607928    0.954062
      4          6           0       -3.564941    0.631076    0.962502
      5          6           0       -3.861941    0.733077   -0.461024
      6          6           0        1.329870   -0.557105   -0.286839
      7          6           0        2.703400   -1.029428   -0.015502
      8          6           0        1.087569    0.686675    0.588423
      9          6           0        1.603148    2.007531    0.030303
     10          1           0        1.820871   -2.116709    1.189550
     11          1           0        3.231198    1.388842   -0.661099
     12          1           0       -0.014664    0.746557    0.734773
     13          1           0        1.421289    0.490241    1.591190
     14          1           0        1.343179   -0.350038   -1.353450
     15          1           0        0.625875   -2.514369   -0.063294
     16          1           0       -3.774462    1.791488   -0.758211
     17          1           0       -3.976982    1.475818    1.534760
     18          1           0       -3.863611   -0.372110    1.413490
     19          1           0       -1.703582    1.651169    1.069160
     20          1           0       -1.772321    0.028261    1.849260
     21          1           0       -0.987361    0.592027   -1.078970
     22          1           0       -3.296750   -1.082922   -1.129800
     23          1           0       -4.879731    0.501335   -0.752343
     24          7           0       -2.926071   -0.121725   -1.177880
     25          7           0        0.301081   -1.561830    0.067481
     26          8           0        2.720518    2.212972   -0.692700
     27          8           0       -1.784029   -2.485761   -0.271876
     28          8           0        3.693480   -0.714818   -0.659606
     29          8           0        0.922252    2.976951    0.294949
     30          8           0        2.777720   -1.968598    1.046880
 ---------------------------------------------------------------------

 SCF Done:  E(RHF) =  -833.095047624     A.U. after    2 cycles

 The electronic state is 1-A.
 Alpha  occ. eigenvalues --  -20.64057 -20.62181 -20.59729 -20.56055 -20.54455
 Alpha  occ. eigenvalues --  -15.59127 -15.50038 -11.45293 -11.41654 -11.41241
 Alpha  occ. eigenvalues --  -11.35821 -11.31388 -11.30611 -11.26498 -11.25832
 Alpha  occ. eigenvalues --  -11.24420  -1.56805  -1.56160  -1.49546  -1.48093
 Alpha  occ. eigenvalues --   -1.46152  -1.30570  -1.24169  -1.13331  -1.06236
 Alpha  occ. eigenvalues --   -1.04247  -0.99820  -0.90705  -0.86535  -0.84682
 Alpha  occ. eigenvalues --   -0.83070  -0.81976  -0.81175  -0.78284  -0.75005
 Alpha  occ. eigenvalues --   -0.72228  -0.70502  -0.69885  -0.69034  -0.68031
 Alpha  occ. eigenvalues --   -0.67110  -0.66063  -0.64015  -0.62877  -0.62507
 Alpha  occ. eigenvalues --   -0.61479  -0.59207  -0.58783  -0.57938  -0.57312
 Alpha  occ. eigenvalues --   -0.53800  -0.53528  -0.51896  -0.51286  -0.49901
 Alpha  occ. eigenvalues --   -0.48387  -0.48075  -0.47320  -0.45820  -0.45249
 Alpha  occ. eigenvalues --   -0.43186
 Alpha virt. eigenvalues --    0.02542   0.03146   0.03457   0.04263   0.04514
 Alpha virt. eigenvalues --    0.04584   0.05298   0.05752   0.06339   0.07433
 Alpha virt. eigenvalues --    0.07930   0.08310   0.08494   0.08974   0.09436

 Mulliken charges:
               1
     1  C   -1.549982
     2  C    0.937683
     3  C   -0.078197
     4  C   -0.477919
     5  C   -0.187878
     6  C   -0.933501
     7  C    2.575710
     8  C   -0.154285
     9  C    2.337223
    10  H    0.555499
    11  H    0.420882
    12  H    0.070097
    13  H    0.212773
    14  H   -0.155915
    15  H    0.261671
    16  H    0.051099
    17  H    0.178656
    18  H    0.213122
    19  H    0.175934
    20  H    0.072742
    21  H    0.139494
    22  H    0.408400
    23  H   -0.007907
    24  N    0.839064
    25  N    1.054218
    26  O   -1.342744
    27  O   -1.481863
    28  O   -1.367618
    29  O   -1.328136
    30  O   -1.438324
 Sum of Mulliken charges =  -0.00000

 Dipole moment (field-independent basis, Debye):
    X=             -1.5990    Y=             -1.8734    Z=              1.9308  Tot=              3.1296

 Test job not archived.
 1\1\GINC-SE249\SP\RHF\Aug-CC-pVDZ\C9H14N2O5\OHZDE\08-Apr-2025\0\\#t hf
  aug-cc-pvdz iop(5/13=1,5/36=2,99/5=2) pseudo=read geom=check guess=(r
 ead,tcheck) scf=(maxcycle=1)\\title\\0,1\C,0,-1.62484,-0.038134,-0.436
 793\C,0,-1.0391,-1.47673,-0.260693\C,0,-2.03942,0.607929,0.954062\C,0,
 -3.56494,0.631078,0.962502\C,0,-3.86194,0.733079,-0.461024\C,0,1.32987
 ,-0.557106,-0.286839\C,0,2.7034,-1.02943,-0.0155014\C,0,1.08757,0.6866
 74,0.588423\C,0,1.60315,2.00753,0.030303\H,0,1.82087,-2.11671,1.18955\
 H,0,3.2312,1.38884,-0.661099\H,0,-0.0146625,0.746557,0.734773\H,0,1.42

 Normal termination of Gaussian 16 at Tue Apr  8 20:44:06 2025.
