 Gaussian 16, Revision C.01,

 ----------------------------------------------------------------------
 #t hf aug-cc-pvdz symm=none int=(grid=ultrafine) guess=(read,tcheck) s
 table=(opt,rrhf)
 ----------------------------------------------------------------------
 -----
 title
 -----
 Symbolic Z-matrix:
 Charge =  0 Multiplicity = 1

 SCF Done:  E(RHF) =  -540.228025338     A.U. after   15 cycles
 Normal termination of Gaussian 16 at Tue Apr  8 21:44:02 2025.
 Gaussian 16:  ES64L-G16RevC.01  3-Jul-2019

 ----------------------------------------------------------------------
 #t hf aug-cc-pvdz iop(5/13=1,5/36=2,99/5=2) pseudo=read geom=check gue
 ss=(read,tcheck) scf=(maxcycle=1)
 ----------------------------------------------------------------------
 -----
 title
 -----
 Structure from the checkpoint file:  "ANI1ccx_504_conf1_mol1.chk"
 Charge =  0 Multiplicity = 1

                         Standard orientation:
 ---------------------------------------------------------------------
 Center     Atomic      Atomic             Coordinates (Angstroms)
 Number     Number       Type             X           Y           Z
 ---------------------------------------------------------------------
      1          6           0       -0.936904   -0.928268    0.005855
      2          6           0        1.306878   -0.421616   -0.212223
      3          1           0        0.963418    2.432500    0.670207
      4          1           0       -1.423711    1.687491    0.522937
      5          1           0        0.615710   -2.238070    0.545087
      6          7           0        0.552219    0.827795   -0.385647
      7          7           0       -0.769297    0.382965   -0.567882
      8          7           0        0.368980   -1.432440    0.022150
      9          8           0        0.696002    1.513400    0.865094
     10          8           0       -1.678241    1.390001   -0.370364
     11          8           0       -1.960452   -1.429769    0.422916
     12          8           0        2.512868   -0.502489   -0.165192
 ---------------------------------------------------------------------

 SCF Done:  E(RHF) =  -540.752141151     A.U. after    2 cycles

 The electronic state is 1-A.
 Alpha  occ. eigenvalues --  -20.64617 -20.63978 -20.58163 -20.57064 -15.65598
 Alpha  occ. eigenvalues --  -15.64156 -15.59933 -11.45096 -11.44643  -1.59217
 Alpha  occ. eigenvalues --   -1.53970  -1.51879  -1.50803  -1.36845  -1.25425
 Alpha  occ. eigenvalues --   -1.10245  -0.94689  -0.91567  -0.83590  -0.81986
 Alpha  occ. eigenvalues --   -0.76757  -0.72652  -0.71584  -0.69045  -0.68326
 Alpha  occ. eigenvalues --   -0.65984  -0.59887  -0.56730  -0.56289  -0.55179
 Alpha  occ. eigenvalues --   -0.51745  -0.49598  -0.48342  -0.44901
 Alpha virt. eigenvalues --    0.02508   0.03910   0.05394   0.08375   0.08670
 Alpha virt. eigenvalues --    0.08950   0.09362   0.10159   0.10464   0.11834
 Alpha virt. eigenvalues --    0.13016   0.13359   0.13959   0.16510   0.17259

 Mulliken charges:
               1
     1  C    0.742432
     2  C    0.765820
     3  H    0.345216
     4  H    0.359335
     5  H    0.128374
     6  N    0.789423
     7  N    0.970268
     8  N    0.611483
     9  O   -1.220467
    10  O   -1.228458
    11  O   -1.119597
    12  O   -1.143830
 Sum of Mulliken charges =  -0.00000

 Dipole moment (field-independent basis, Debye):
    X=              0.9114    Y=              1.5034    Z=              1.8516  Tot=              2.5532

 Test job not archived.
 1\1\GINC-SE334\SP\RHF\Aug-CC-pVDZ\C2H3N3O4\OHZDE\08-Apr-2025\0\\#t hf
 aug-cc-pvdz iop(5/13=1,5/36=2,99/5=2) pseudo=read geom=check guess=(re
 ad,tcheck) scf=(maxcycle=1)\\title\\0,1\C,0,-0.936902,-0.928268,0.0058
 5468\C,0,1.30688,-0.421616,-0.212223\H,0,0.963419,2.4325,0.670207\H,0,
 -1.42371,1.68749,0.522937\H,0,0.615712,-2.23807,0.545087\N,0,0.55222,0
 .827795,-0.385647\N,0,-0.769296,0.382965,-0.567882\N,0,0.368982,-1.432
 44,0.0221501\O,0,0.696003,1.5134,0.865094\O,0,-1.67824,1.39,-0.370364\
 O,0,-1.96045,-1.42977,0.422916\O,0,2.51287,-0.502488,-0.165192\\Versio

 Normal termination of Gaussian 16 at Tue Apr  8 21:44:07 2025.
