 Gaussian 16, Revision C.01,

 ----------------------------------------------------------------------
 #t hf aug-cc-pvdz symm=none int=(grid=ultrafine) guess=(read,tcheck) s
 table=(opt,rrhf)
 ----------------------------------------------------------------------
 -----
 title
 -----
 Symbolic Z-matrix:
 Charge =  0 Multiplicity = 1

 SCF Done:  E(RHF) =  -435.817623708     A.U. after   14 cycles
 Normal termination of Gaussian 16 at Tue Apr  8 22:14:58 2025.
 Gaussian 16:  ES64L-G16RevC.01  3-Jul-2019

 ----------------------------------------------------------------------
 #t hf aug-cc-pvdz iop(5/13=1,5/36=2,99/5=2) pseudo=read geom=check gue
 ss=(read,tcheck) scf=(maxcycle=1)
 ----------------------------------------------------------------------
 -----
 title
 -----
 Structure from the checkpoint file:  "ANI1ccx_976_conf4_mol2.chk"
 Charge =  0 Multiplicity = 1

                         Standard orientation:
 ---------------------------------------------------------------------
 Center     Atomic      Atomic             Coordinates (Angstroms)
 Number     Number       Type             X           Y           Z
 ---------------------------------------------------------------------
      1          6           0        0.085556   -0.663637   -0.085673
      2          6           0        1.387120    0.038758   -0.307364
      3          6           0       -1.074080    0.274131   -0.477744
      4          6           0       -2.374270   -0.469078   -0.642996
      5          1           0        0.548733    1.511740    0.536096
      6          1           0       -3.162630    0.203025   -0.956932
      7          1           0       -2.624410   -1.021788    0.264969
      8          1           0       -2.309040   -1.193928   -1.483290
      9          1           0       -1.676849    0.988225    1.202070
     10          1           0       -0.850018    0.768062   -1.423590
     11          1           0        0.064619   -1.496339   -0.837900
     12          1           0        0.668424   -1.959950    1.442330
     13          1           0        0.131411   -0.596398    2.002630
     14          7           0       -0.022065   -1.266229    1.265030
     15          8           0        2.333020   -0.527392   -0.760141
     16          8           0       -1.138729    1.319231    0.470840
     17          8           0        1.457991    1.280650    0.224436
 ---------------------------------------------------------------------

 SCF Done:  E(RHF) =  -436.261648322     A.U. after    2 cycles

 The electronic state is 1-A.
 Alpha  occ. eigenvalues --  -20.59489 -20.57863 -20.52604 -15.51801 -11.37677
 Alpha  occ. eigenvalues --  -11.32015 -11.29420 -11.25130  -1.53351  -1.50455
 Alpha  occ. eigenvalues --   -1.44741  -1.21327  -1.07346  -0.98372  -0.86594
 Alpha  occ. eigenvalues --   -0.81535  -0.76952  -0.73860  -0.70079  -0.67195
 Alpha  occ. eigenvalues --   -0.66159  -0.65219  -0.61493  -0.59998  -0.58269
 Alpha  occ. eigenvalues --   -0.55061  -0.54721  -0.51952  -0.49298  -0.48412
 Alpha  occ. eigenvalues --   -0.46188  -0.41419
 Alpha virt. eigenvalues --    0.02679   0.03314   0.03938   0.04483   0.05665
 Alpha virt. eigenvalues --    0.06330   0.06764   0.07286   0.08823   0.10360
 Alpha virt. eigenvalues --    0.12293   0.12962   0.13576   0.14088   0.14417

 Mulliken charges:
               1
     1  C   -1.348893
     2  C    2.420594
     3  C    1.041727
     4  C   -0.385482
     5  H    0.631331
     6  H    0.128474
     7  H    0.199595
     8  H    0.225520
     9  H    0.345077
    10  H    0.023993
    11  H    0.119572
    12  H    0.160238
    13  H    0.189374
    14  N    0.428928
    15  O   -1.307568
    16  O   -1.505531
    17  O   -1.366949
 Sum of Mulliken charges =  -0.00000

 Dipole moment (field-independent basis, Debye):
    X=             -4.7153    Y=             -0.4980    Z=              1.4049  Tot=              4.9452

 Test job not archived.
 1\1\GINC-SE094\SP\RHF\Aug-CC-pVDZ\C4H9N1O3\OHZDE\08-Apr-2025\0\\#t hf
 aug-cc-pvdz iop(5/13=1,5/36=2,99/5=2) pseudo=read geom=check guess=(re
 ad,tcheck) scf=(maxcycle=1)\\title\\0,1\C,0,0.0855564,-0.663638,-0.085
 6724\C,0,1.38712,0.0387583,-0.307364\C,0,-1.07408,0.27413,-0.477744\C,
 0,-2.37427,-0.46908,-0.642996\H,0,0.548732,1.51174,0.536096\H,0,-3.162
 63,0.203023,-0.956932\H,0,-2.62441,-1.02179,0.264969\H,0,-2.30904,-1.1
 9393,-1.48329\H,0,-1.67685,0.988223,1.20207\H,0,-0.850019,0.768061,-1.
 42359\H,0,0.0646195,-1.49634,-0.8379\H,0,0.668425,-1.95995,1.44233\H,0

 Normal termination of Gaussian 16 at Tue Apr  8 22:15:05 2025.
