 Gaussian 16, Revision C.01,

 ----------------------------------------------------------------------
 #t hf aug-cc-pvdz symm=none int=(grid=ultrafine) guess=(read,tcheck) s
 table=(opt,rrhf)
 ----------------------------------------------------------------------
 -----
 title
 -----
 Symbolic Z-matrix:
 Charge =  0 Multiplicity = 1

 SCF Done:  E(RHF) =  -962.696310128     A.U. after   16 cycles
 Normal termination of Gaussian 16 at Tue Apr  8 22:42:03 2025.
 Gaussian 16:  ES64L-G16RevC.01  3-Jul-2019

 ----------------------------------------------------------------------
 #t hf aug-cc-pvdz iop(5/13=1,5/36=2,99/5=2) pseudo=read geom=check gue
 ss=(read,tcheck) scf=(maxcycle=1)
 ----------------------------------------------------------------------
 -----
 title
 -----
 Structure from the checkpoint file:  "ANI1ccx_98_conf10_mol1.chk"
 Charge =  0 Multiplicity = 1

                         Standard orientation:
 ---------------------------------------------------------------------
 Center     Atomic      Atomic             Coordinates (Angstroms)
 Number     Number       Type             X           Y           Z
 ---------------------------------------------------------------------
      1          6           0        2.431800   -1.110780   -0.450503
      2          6           0       -2.787030   -1.478439   -0.503688
      3          6           0       -1.765560   -0.478660   -1.072330
      4          6           0       -0.777392    0.137797    0.072325
      5          6           0        0.730671    2.002430    0.728936
      6          6           0       -4.883790   -0.240481    0.020539
      7          6           0        2.397680   -1.953810    1.973390
      8          6           0        2.751980   -0.836294    0.978416
      9          6           0        2.245150    0.235702   -1.264800
     10          6           0        0.061577    1.284910   -0.396180
     11          1           0       -1.235980   -1.021419   -1.883100
     12          1           0        1.718311    3.508590    1.048450
     13          1           0       -6.500480    0.588987    0.922255
     14          1           0       -5.920710   -0.705344    1.712850
     15          1           0       -6.065110    0.411981   -1.305530
     16          1           0       -3.515490   -0.775052    1.357880
     17          1           0       -3.392350   -1.922489   -1.348670
     18          1           0       -2.294510   -2.392699    0.030673
     19          1           0       -2.405380    0.198627   -1.571240
     20          1           0       -0.165806   -0.711201    0.412284
     21          1           0       -0.560064    2.115591   -0.796029
     22          1           0        4.258850   -1.290530   -1.387230
     23          1           0        1.275480    1.539990   -2.205370
     24          1           0        1.309870   -2.186060    1.941120
     25          1           0        2.603010   -1.606000    3.021160
     26          1           0        3.002620   -2.868510    1.888340
     27          1           0        4.533400   -1.293880    0.506052
     28          1           0        2.101780    0.073610    1.359630
     29          1           0        1.502420   -1.710740   -0.545525
     30          1           0        3.109920   -2.298160   -1.939930
     31          1           0       -1.410580    0.451731    0.917137
     32          7           0        3.513730   -1.894980   -1.057270
     33          7           0        1.063430    0.856768   -1.446440
     34          7           0       -3.851070   -1.006659    0.413021
     35          7           0       -5.148580    0.025972   -1.236450
     36          7           0       -5.618470    0.110590    1.195920
     37          8           0        4.136460   -0.562035    1.019960
     38          8           0        0.723711    1.682950    1.931330
     39          8           0        3.282980    0.778914   -1.695350
     40          8           0        1.345221    3.084780    0.277397
 ---------------------------------------------------------------------

 SCF Done:  E(RHF) =  -963.677545339     A.U. after    2 cycles

 The electronic state is 1-A.
 Alpha  occ. eigenvalues --  -20.62383 -20.55804 -20.53192 -20.52249 -15.54293
 Alpha  occ. eigenvalues --  -15.53130 -15.52594 -15.50481 -15.46642 -11.41725
 Alpha  occ. eigenvalues --  -11.36620 -11.35845 -11.32982 -11.29231 -11.28873
 Alpha  occ. eigenvalues --  -11.28778 -11.26685 -11.24979 -11.22925  -1.57872
 Alpha  occ. eigenvalues --   -1.45750  -1.45629  -1.44211  -1.30576  -1.25339
 Alpha  occ. eigenvalues --   -1.19726  -1.18867  -1.14776  -1.10052  -1.03711
 Alpha  occ. eigenvalues --   -1.03129  -0.95053  -0.94208  -0.87734  -0.85728
 Alpha  occ. eigenvalues --   -0.81759  -0.80496  -0.78425  -0.75852  -0.75395
 Alpha  occ. eigenvalues --   -0.73322  -0.72861  -0.72638  -0.71979  -0.69099
 Alpha  occ. eigenvalues --   -0.67043  -0.66414  -0.65172  -0.64526  -0.63745
 Alpha  occ. eigenvalues --   -0.62211  -0.61737  -0.60468  -0.60208  -0.59383
 Alpha  occ. eigenvalues --   -0.58654  -0.57266  -0.55763  -0.54569  -0.54142
 Alpha  occ. eigenvalues --   -0.52306  -0.51976  -0.51664  -0.49266  -0.48785
 Alpha  occ. eigenvalues --   -0.48334  -0.47550  -0.46935  -0.46345  -0.45612
 Alpha  occ. eigenvalues --   -0.44732  -0.42517  -0.40781  -0.40637
 Alpha virt. eigenvalues --    0.02294   0.02816   0.02968   0.03837   0.04387
 Alpha virt. eigenvalues --    0.04586   0.04793   0.05267   0.05609   0.05813
 Alpha virt. eigenvalues --    0.06193   0.07059   0.07531   0.07833   0.08452

 Mulliken charges:
               1
     1  C   -2.270722
     2  C   -1.272272
     3  C   -0.033360
     4  C    0.227674
     5  C    3.258643
     6  C   -2.141923
     7  C   -0.419272
     8  C    1.359899
     9  C    0.774441
    10  C   -0.934313
    11  H    0.138000
    12  H    0.426363
    13  H    0.151316
    14  H    0.176702
    15  H    0.080847
    16  H    0.379756
    17  H    0.269480
    18  H    0.170117
    19  H    0.064638
    20  H   -0.017310
    21  H    0.231367
    22  H    0.270637
    23  H    0.414789
    24  H    0.220549
    25  H    0.233010
    26  H    0.157063
    27  H    0.300994
    28  H    0.183237
    29  H    0.120229
    30  H    0.155014
    31  H    0.055046
    32  N    0.845679
    33  N    0.666216
    34  N    0.681663
    35  N    0.753492
    36  N    0.484357
    37  O   -1.476420
    38  O   -1.554286
    39  O   -1.497288
    40  O   -1.634052
 Sum of Mulliken charges =  -0.00000

 Dipole moment (field-independent basis, Debye):
    X=             -4.9435    Y=             -0.4799    Z=              0.6820  Tot=              5.0133

 Test job not archived.
 1\1\GINC-SE116\SP\RHF\Aug-CC-pVDZ\C10H21N5O4\OHZDE\08-Apr-2025\0\\#t h
 f aug-cc-pvdz iop(5/13=1,5/36=2,99/5=2) pseudo=read geom=check guess=(
 read,tcheck) scf=(maxcycle=1)\\title\\0,1\C,0,2.4318,-1.11078,-0.45050
 3\C,0,-2.78703,-1.47844,-0.503688\C,0,-1.76556,-0.478661,-1.07233\C,0,
 -0.777392,0.137796,0.0723254\C,0,0.730671,2.00243,0.728936\C,0,-4.8837
 9,-0.240482,0.0205389\C,0,2.39768,-1.95381,1.97339\C,0,2.75198,-0.8362
 94,0.978416\C,0,2.24515,0.235702,-1.2648\C,0,0.0615767,1.28491,-0.3961
 8\H,0,-1.23598,-1.02142,-1.8831\H,0,1.71831,3.50859,1.04845\H,0,-6.500

 Normal termination of Gaussian 16 at Tue Apr  8 22:43:24 2025.
