 Gaussian 16, Revision C.01,

 ----------------------------------------------------------------------
 #t hf aug-cc-pvdz symm=none int=(grid=ultrafine) guess=(read,tcheck) s
 table=(opt,rrhf)
 ----------------------------------------------------------------------
 -----
 title
 -----
 Symbolic Z-matrix:
 Charge =  0 Multiplicity = 1

 SCF Done:  E(RHF) =  -1018.15745913     A.U. after   15 cycles
 Normal termination of Gaussian 16 at Tue Apr  8 20:53:47 2025.
 Gaussian 16:  ES64L-G16RevC.01  3-Jul-2019

 ----------------------------------------------------------------------
 #t hf aug-cc-pvdz iop(5/13=1,5/36=2,99/5=2) pseudo=read geom=check gue
 ss=(read,tcheck) scf=(maxcycle=1)
 ----------------------------------------------------------------------
 -----
 title
 -----
 Structure from the checkpoint file:  "ANI1ccx_171_conf1_mol2.chk"
 Charge =  0 Multiplicity = 1

                         Standard orientation:
 ---------------------------------------------------------------------
 Center     Atomic      Atomic             Coordinates (Angstroms)
 Number     Number       Type             X           Y           Z
 ---------------------------------------------------------------------
      1          6           0        0.927535   -1.278589    1.255139
      2          6           0       -2.464819   -1.678171   -0.948365
      3          6           0       -2.511500    0.854132   -0.851094
      4          6           0       -1.259851    2.594609    0.519438
      5          6           0       -1.145001    1.415139   -0.511802
      6          6           0       -2.512130   -0.391545   -1.752031
      7          6           0        4.223781   -0.654030   -0.221668
      8          6           0        2.866011   -0.578329   -0.311411
      9          6           0        1.886971   -1.640709    0.111881
     10          6           0       -0.308443   -0.351971    0.886484
     11          6           0        3.621919    1.357922   -0.888914
     12          1           0       -0.738121    1.880020   -1.402261
     13          1           0       -2.362802    3.969469    0.997055
     14          1           0       -3.450308   -2.702942    0.274824
     15          1           0       -1.610150   -0.395884   -2.386271
     16          1           0       -3.383360   -0.461315   -2.420021
     17          1           0       -3.125981    1.666808   -1.269461
     18          1           0       -3.089480    0.541859    0.063254
     19          1           0        0.795764    0.713000   -0.413996
     20          1           0        3.719249    2.387372   -1.252381
     21          1           0        4.831831   -1.538487   -0.100400
     22          1           0        1.386701   -1.977199   -0.788828
     23          1           0        2.469552   -2.518479    0.386243
     24          1           0        1.489321   -0.688413    1.978209
     25          1           0       -0.196846   -2.955140    1.194099
     26          1           0       -0.127907   -2.231440    2.636269
     27          1           0        5.649740    0.826835   -0.781973
     28          7           0        0.447951   -2.511990    1.877359
     29          7           0        2.506310    0.674961   -0.718340
     30          7           0        4.684940    0.599399   -0.556696
     31          7           0       -0.119085    0.478473   -0.120636
     32          8           0       -3.607309   -1.964852   -0.323787
     33          8           0       -1.395040   -0.436905    1.503289
     34          8           0       -0.385479    3.023250    1.232339
     35          8           0       -1.495608   -2.394511   -0.847613
     36          8           0       -2.472172    3.136429    0.459249
 ---------------------------------------------------------------------

 SCF Done:  E(RHF) =  -1019.17928033     A.U. after    2 cycles

 The electronic state is 1-A.
 Alpha  occ. eigenvalues --  -20.60498 -20.59087 -20.53482 -20.52432 -20.48945
 Alpha  occ. eigenvalues --  -15.57867 -15.50115 -15.50085 -15.46695 -11.39135
 Alpha  occ. eigenvalues --  -11.38599 -11.33809 -11.32430 -11.29524 -11.27050
 Alpha  occ. eigenvalues --  -11.26795 -11.26381 -11.25442 -11.24413 -11.23401
 Alpha  occ. eigenvalues --   -1.55495  -1.54594  -1.44891  -1.44107  -1.42470
 Alpha  occ. eigenvalues --   -1.36220  -1.24994  -1.19605  -1.17495  -1.08947
 Alpha  occ. eigenvalues --   -1.06227  -1.01600  -0.98717  -0.90417  -0.88198
 Alpha  occ. eigenvalues --   -0.87800  -0.84570  -0.81860  -0.81342  -0.79434
 Alpha  occ. eigenvalues --   -0.77870  -0.72816  -0.71371  -0.70571  -0.69688
 Alpha  occ. eigenvalues --   -0.68271  -0.67879  -0.66463  -0.65774  -0.64943
 Alpha  occ. eigenvalues --   -0.63788  -0.63551  -0.62832  -0.61328  -0.60135
 Alpha  occ. eigenvalues --   -0.59745  -0.58791  -0.56839  -0.55728  -0.54459
 Alpha  occ. eigenvalues --   -0.54413  -0.53685  -0.52126  -0.50421  -0.50044
 Alpha  occ. eigenvalues --   -0.49413  -0.46925  -0.46582  -0.45735  -0.44138
 Alpha  occ. eigenvalues --   -0.43798  -0.43060  -0.40345  -0.39093  -0.34310
 Alpha virt. eigenvalues --    0.01972   0.03226   0.03729   0.03892   0.04331
 Alpha virt. eigenvalues --    0.04729   0.05305   0.05799   0.06082   0.06636
 Alpha virt. eigenvalues --    0.07074   0.07776   0.08661   0.09115   0.09281

 Mulliken charges:
               1
     1  C   -1.859525
     2  C    2.770061
     3  C    0.012124
     4  C    3.065586
     5  C   -1.437240
     6  C   -0.664729
     7  C   -1.035221
     8  C   -0.029663
     9  C   -0.168409
    10  C    0.030948
    11  C   -0.746079
    12  H    0.187259
    13  H    0.450859
    14  H    0.320312
    15  H    0.220488
    16  H    0.195043
    17  H    0.121335
    18  H    0.352351
    19  H    0.275998
    20  H   -0.105687
    21  H   -0.227795
    22  H    0.256444
    23  H    0.196840
    24  H    0.096119
    25  H    0.212830
    26  H    0.223739
    27  H    0.012075
    28  N    0.902291
    29  N    1.464216
    30  N    0.914786
    31  N    1.524296
    32  O   -1.407101
    33  O   -1.763381
    34  O   -1.405339
    35  O   -1.474321
    36  O   -1.481506
 Sum of Mulliken charges =  -0.00000

 Dipole moment (field-independent basis, Debye):
    X=              3.8954    Y=              2.5988    Z=             -3.9448  Tot=              6.1229

 Test job not archived.
 1\1\GINC-SE195\SP\RHF\Aug-CC-pVDZ\C11H16N4O5\OHZDE\08-Apr-2025\0\\#t h
 f aug-cc-pvdz iop(5/13=1,5/36=2,99/5=2) pseudo=read geom=check guess=(
 read,tcheck) scf=(maxcycle=1)\\title\\0,1\C,0,0.927534,-1.27859,1.2551
 4\C,0,-2.46482,-1.67817,-0.948364\C,0,-2.5115,0.854133,-0.851093\C,0,-
 1.25985,2.59461,0.519439\C,0,-1.145,1.41514,-0.511801\C,0,-2.51213,-0.
 391544,-1.75203\C,0,4.22378,-0.654032,-0.221667\C,0,2.86601,-0.578331,
 -0.31141\C,0,1.88697,-1.64071,0.111882\C,0,-0.308443,-0.351971,0.88648
 5\C,0,3.62192,1.35792,-0.888913\H,0,-0.73812,1.88002,-1.40226\H,0,-2.3

 Normal termination of Gaussian 16 at Tue Apr  8 20:55:02 2025.
