 Gaussian 16, Revision C.01,

 ----------------------------------------------------------------------
 #t hf aug-cc-pvdz symm=none int=(grid=ultrafine) guess=(read,tcheck) s
 table=(opt,rrhf)
 ----------------------------------------------------------------------
 -----
 title
 -----
 Symbolic Z-matrix:
 Charge =  0 Multiplicity = 1

 SCF Done:  E(RHF) =  -736.679541332     A.U. after   14 cycles
 Normal termination of Gaussian 16 at Tue Apr  8 19:54:23 2025.
 Gaussian 16:  ES64L-G16RevC.01  3-Jul-2019

 ----------------------------------------------------------------------
 #t hf aug-cc-pvdz iop(5/13=1,5/36=2,99/5=2) pseudo=read geom=check gue
 ss=(read,tcheck) scf=(maxcycle=1)
 ----------------------------------------------------------------------
 -----
 title
 -----
 Structure from the checkpoint file:  "ANI1ccx_1451_conf3_mol2.chk"
 Charge =  0 Multiplicity = 1

                         Standard orientation:
 ---------------------------------------------------------------------
 Center     Atomic      Atomic             Coordinates (Angstroms)
 Number     Number       Type             X           Y           Z
 ---------------------------------------------------------------------
      1          6           0       -1.365470    2.455459   -0.432916
      2          6           0       -0.316645    2.240209    0.629709
      3          6           0        0.617872    0.124858   -0.141491
      4          6           0        2.925960    0.894574   -0.034531
      5          6           0        3.790410   -0.415995   -0.062059
      6          6           0       -0.657180   -1.947301    0.200923
      7          6           0       -2.086359   -1.593451   -0.028853
      8          1           0       -3.779319   -2.304021   -0.144567
      9          1           0       -0.574271   -2.964841   -0.064981
     10          1           0       -0.645657   -1.887561    1.296550
     11          1           0        2.348791   -1.732650    0.008954
     12          1           0        4.628500   -0.119901    0.554818
     13          1           0        4.220540   -0.542940   -1.080760
     14          1           0        3.598740    1.639490   -0.436782
     15          1           0        2.714530    1.090600    1.010090
     16          1           0        1.873990    0.129922   -1.659690
     17          1           0       -0.845259    0.358684    1.280900
     18          1           0       -0.702513    2.693079    1.584010
     19          1           0        0.650701    2.698979    0.297106
     20          1           0       -1.249000    3.490549   -0.786997
     21          1           0       -1.092960    1.850699   -1.293460
     22          1           0       -3.010390    1.357749    0.204861
     23          7           0       -0.068320    0.807232    0.793489
     24          7           0        1.672200    0.721726   -0.849334
     25          7           0        0.354365   -1.130521   -0.478665
     26          8           0       -2.687570    2.282989    0.033203
     27          8           0        3.160671   -1.546920    0.481580
     28          8           0       -2.856239   -2.630711   -0.065818
     29          8           0       -2.528820   -0.492485   -0.175610
 ---------------------------------------------------------------------

 SCF Done:  E(RHF) =  -737.426694725     A.U. after    2 cycles

 The electronic state is 1-A.
 Alpha  occ. eigenvalues --  -20.62099 -20.54522 -20.53596 -20.52813 -15.52820
 Alpha  occ. eigenvalues --  -15.52131 -15.47451 -11.40073 -11.36594 -11.28797
 Alpha  occ. eigenvalues --  -11.28278 -11.28004 -11.27539 -11.27406  -1.59388
 Alpha  occ. eigenvalues --   -1.47694  -1.44403  -1.42141  -1.31059  -1.21197
 Alpha  occ. eigenvalues --   -1.17256  -1.04424  -1.00706  -0.99561  -0.88705
 Alpha  occ. eigenvalues --   -0.85838  -0.84128  -0.83211  -0.75357  -0.74467
 Alpha  occ. eigenvalues --   -0.72451  -0.70829  -0.69574  -0.69149  -0.66705
 Alpha  occ. eigenvalues --   -0.65815  -0.64722  -0.63825  -0.62885  -0.60462
 Alpha  occ. eigenvalues --   -0.59780  -0.58101  -0.56981  -0.55691  -0.54946
 Alpha  occ. eigenvalues --   -0.53227  -0.51155  -0.49721  -0.47807  -0.46855
 Alpha  occ. eigenvalues --   -0.45863  -0.45082  -0.43698  -0.41087  -0.38186
 Alpha virt. eigenvalues --    0.03001   0.03651   0.03939   0.04197   0.04322
 Alpha virt. eigenvalues --    0.04986   0.05215   0.05455   0.05745   0.07532
 Alpha virt. eigenvalues --    0.08361   0.09247   0.09307   0.09650   0.10014

 Mulliken charges:
               1
     1  C    1.118080
     2  C   -0.824401
     3  C   -3.657413
     4  C   -0.117354
     5  C    0.710406
     6  C   -0.791805
     7  C    2.252946
     8  H    0.366558
     9  H   -0.105408
    10  H    0.389221
    11  H    0.551076
    12  H    0.050353
    13  H    0.188644
    14  H    0.102501
    15  H    0.099445
    16  H    0.345598
    17  H    0.397255
    18  H    0.083747
    19  H    0.241073
    20  H    0.096833
    21  H    0.143122
    22  H    0.536961
    23  N    1.335220
    24  N    0.795592
    25  N    0.975956
    26  O   -1.392052
    27  O   -1.268161
    28  O   -1.353501
    29  O   -1.270492
 Sum of Mulliken charges =  -0.00000

 Dipole moment (field-independent basis, Debye):
    X=              0.0193    Y=             -0.1601    Z=              0.6776  Tot=              0.6965

 Test job not archived.
 1\1\GINC-SE078\SP\RHF\Aug-CC-pVDZ\C7H15N3O4\OHZDE\08-Apr-2025\0\\#t hf
  aug-cc-pvdz iop(5/13=1,5/36=2,99/5=2) pseudo=read geom=check guess=(r
 ead,tcheck) scf=(maxcycle=1)\\title\\0,1\C,0,-1.36547,2.45546,-0.43291
 6\C,0,-0.316645,2.24021,0.629709\C,0,0.617872,0.124859,-0.141491\C,0,2
 .92596,0.894574,-0.0345309\C,0,3.79041,-0.415995,-0.0620592\C,0,-0.657
 181,-1.9473,0.200923\C,0,-2.08636,-1.59345,-0.028853\H,0,-3.77932,-2.3
 0402,-0.144567\H,0,-0.574272,-2.96484,-0.0649808\H,0,-0.645658,-1.8875
 6,1.29655\H,0,2.34879,-1.73265,0.0089546\H,0,4.6285,-0.119901,0.554818

 Normal termination of Gaussian 16 at Tue Apr  8 19:54:55 2025.
