 Gaussian 16, Revision C.01,

 ----------------------------------------------------------------------
 #t hf aug-cc-pvdz symm=none int=(grid=ultrafine) guess=(read,tcheck) s
 table=(opt,rrhf)
 ----------------------------------------------------------------------
 -----
 title
 -----
 Symbolic Z-matrix:
 Charge =  0 Multiplicity = 1

 SCF Done:  E(RHF) =  -480.061119769     A.U. after   16 cycles
 Normal termination of Gaussian 16 at Tue Apr  8 21:39:48 2025.
 Gaussian 16:  ES64L-G16RevC.01  3-Jul-2019

 ----------------------------------------------------------------------
 #t hf aug-cc-pvdz iop(5/13=1,5/36=2,99/5=2) pseudo=read geom=check gue
 ss=(read,tcheck) scf=(maxcycle=1)
 ----------------------------------------------------------------------
 -----
 title
 -----
 Structure from the checkpoint file:  "ANI1ccx_456_conf12_mol2.chk"
 Charge =  0 Multiplicity = 1

                         Standard orientation:
 ---------------------------------------------------------------------
 Center     Atomic      Atomic             Coordinates (Angstroms)
 Number     Number       Type             X           Y           Z
 ---------------------------------------------------------------------
      1          6           0       -0.051966   -0.072282   -0.024951
      2          7           0        1.404879   -0.010741   -0.023252
      3          7           0       -0.771384   -1.149850   -0.032051
      4          7           0       -2.040032   -0.651655    0.004836
      5          7           0       -2.075381    0.590684    0.023136
      6          8           0        1.837379    1.120189   -0.009259
      7          8           0        1.993258   -1.063581    0.041208
      8          8           0       -0.744984    1.066470    0.010678
 ---------------------------------------------------------------------

 SCF Done:  E(RHF) =  -480.519498216     A.U. after    2 cycles

 The electronic state is 1-A.
 Alpha  occ. eigenvalues --  -20.72967 -20.65298 -20.65191 -15.86145 -15.69968
 Alpha  occ. eigenvalues --  -15.66436 -15.62514 -11.47290  -1.74528  -1.69040
 Alpha  occ. eigenvalues --   -1.58474  -1.45438  -1.31968  -1.14879  -1.01141
 Alpha  occ. eigenvalues --   -0.94506  -0.88078  -0.83321  -0.80719  -0.78680
 Alpha  occ. eigenvalues --   -0.77790  -0.68514  -0.61249  -0.60109  -0.59827
 Alpha  occ. eigenvalues --   -0.55900  -0.54880  -0.54248  -0.50236
 Alpha virt. eigenvalues --   -0.03511   0.04226   0.05362   0.08942   0.09338
 Alpha virt. eigenvalues --    0.09978   0.11472   0.12024   0.13407   0.13494
 Alpha virt. eigenvalues --    0.15557   0.15827   0.16950   0.17025   0.17350

 Mulliken charges:
               1
     1  C    0.411416
     2  N    2.505239
     3  N    0.533089
     4  N   -0.822202
     5  N    1.151930
     6  O   -1.285886
     7  O   -1.283668
     8  O   -1.209918
 Sum of Mulliken charges =   0.00000

 Dipole moment (field-independent basis, Debye):
    X=              0.2530    Y=              1.0973    Z=             -0.0724  Tot=              1.1285

 Test job not archived.
 1\1\GINC-SE339\SP\RHF\Aug-CC-pVDZ\C1N4O3\OHZDE\08-Apr-2025\0\\#t hf au
 g-cc-pvdz iop(5/13=1,5/36=2,99/5=2) pseudo=read geom=check guess=(read
 ,tcheck) scf=(maxcycle=1)\\title\\0,1\C,0,-0.0519644,-0.0722821,-0.024
 9508\N,0,1.40488,-0.0107406,-0.0232524\N,0,-0.771382,-1.14985,-0.03205
 14\N,0,-2.04003,-0.651656,0.004836\N,0,-2.07538,0.590683,0.0231364\O,0
 ,1.83738,1.12019,-0.0092587\O,0,1.99326,-1.06358,0.0412085\O,0,-0.7449
 83,1.06647,0.0106783\\Version=ES64L-G16RevC.01\State=1-A\HF=-480.51949
 82\RMSD=3.420e-02\Dipole=0.0995556,0.4317231,-0.0284839\Quadrupole=-2.

 Normal termination of Gaussian 16 at Tue Apr  8 21:39:51 2025.
