 Gaussian 16, Revision C.01,

 ----------------------------------------------------------------------
 #t hf aug-cc-pvdz symm=none int=(grid=ultrafine) guess=(read,tcheck) s
 table=(opt,rrhf)
 ----------------------------------------------------------------------
 -----
 title
 -----
 Symbolic Z-matrix:
 Charge =  0 Multiplicity = 1

 SCF Done:  E(RHF) =  -482.293569539     A.U. after   18 cycles
 Normal termination of Gaussian 16 at Tue Apr  8 21:49:54 2025.
 Gaussian 16:  ES64L-G16RevC.01  3-Jul-2019

 ----------------------------------------------------------------------
 #t hf aug-cc-pvdz iop(5/13=1,5/36=2,99/5=2) pseudo=read geom=check gue
 ss=(read,tcheck) scf=(maxcycle=1)
 ----------------------------------------------------------------------
 -----
 title
 -----
 Structure from the checkpoint file:  "ANI1ccx_660_conf1_mol2.chk"
 Charge =  0 Multiplicity = 1

                         Standard orientation:
 ---------------------------------------------------------------------
 Center     Atomic      Atomic             Coordinates (Angstroms)
 Number     Number       Type             X           Y           Z
 ---------------------------------------------------------------------
      1          6           0       -1.428180   -0.429757    0.008699
      2          6           0        0.659563   -0.293566    0.114624
      3          6           0        0.216866    1.105291    0.019919
      4          1           0       -3.262081   -0.146601   -0.193991
      5          1           0       -1.853684    1.672318    0.068721
      6          7           0       -0.410331   -1.214430    0.102179
      7          7           0        1.911200   -0.688032   -0.009653
      8          7           0        2.992171   -1.011484   -0.091930
      9          7           0       -1.180042    0.907748   -0.020630
     10          8           0       -2.663080   -0.887199   -0.062952
     11          8           0        0.817490    2.165432   -0.011292
 ---------------------------------------------------------------------

 SCF Done:  E(RHF) =  -482.758149307     A.U. after    2 cycles

 The electronic state is 1-A.
 Alpha  occ. eigenvalues --  -20.63428 -20.53879 -15.70587 -15.64687 -15.58558
 Alpha  occ. eigenvalues --  -15.51300 -11.40934 -11.39940 -11.32661  -1.57366
 Alpha  occ. eigenvalues --   -1.51204  -1.47989  -1.35984  -1.23409  -1.15739
 Alpha  occ. eigenvalues --   -0.97137  -0.89928  -0.86189  -0.78077  -0.75775
 Alpha  occ. eigenvalues --   -0.75142  -0.73492  -0.70177  -0.67850  -0.66268
 Alpha  occ. eigenvalues --   -0.62534  -0.60188  -0.54807  -0.51132  -0.48959
 Alpha  occ. eigenvalues --   -0.45227  -0.33800
 Alpha virt. eigenvalues --    0.01380   0.04359   0.04533   0.04851   0.06683
 Alpha virt. eigenvalues --    0.08513   0.09444   0.09707   0.10191   0.10743
 Alpha virt. eigenvalues --    0.11338   0.12219   0.12826   0.13994   0.15207

 Mulliken charges:
               1
     1  C    0.308598
     2  C   -1.023293
     3  C    1.237769
     4  H    0.265658
     5  H    0.121027
     6  N    0.836852
     7  N   -0.611045
     8  N    1.177946
     9  N    0.430886
    10  O   -1.383036
    11  O   -1.361361
 Sum of Mulliken charges =  -0.00000

 Dipole moment (field-independent basis, Debye):
    X=             -4.8278    Y=              1.5938    Z=             -0.1555  Tot=              5.0864

 Test job not archived.
 1\1\GINC-SE179\SP\RHF\Aug-CC-pVDZ\C3H2N4O2\OHZDE\08-Apr-2025\0\\#t hf
 aug-cc-pvdz iop(5/13=1,5/36=2,99/5=2) pseudo=read geom=check guess=(re
 ad,tcheck) scf=(maxcycle=1)\\title\\0,1\C,0,-1.42818,-0.429755,0.00869
 914\C,0,0.659564,-0.293568,0.114624\C,0,0.216869,1.10529,0.0199193\H,0
 ,-3.26208,-0.146596,-0.193991\H,0,-1.85368,1.67232,0.0687209\N,0,-0.41
 0332,-1.21443,0.102179\N,0,1.9112,-0.688036,-0.00965307\N,0,2.99217,-1
 .01149,-0.0919304\N,0,-1.18004,0.907749,-0.0206296\O,0,-2.66308,-0.887
 195,-0.0629516\O,0,0.817495,2.16543,-0.0112919\\Version=ES64L-G16RevC.

 Normal termination of Gaussian 16 at Tue Apr  8 21:49:59 2025.
