 Gaussian 16, Revision C.01,

 ----------------------------------------------------------------------
 #t hf aug-cc-pvdz symm=none int=(grid=ultrafine) guess=(read,tcheck) s
 table=(opt,rrhf)
 ----------------------------------------------------------------------
 -----
 title
 -----
 Symbolic Z-matrix:
 Charge =  0 Multiplicity = 1

 SCF Done:  E(RHF) =  -353.623566392     A.U. after   14 cycles
 Normal termination of Gaussian 16 at Tue Apr  8 21:49:54 2025.
 Gaussian 16:  ES64L-G16RevC.01  3-Jul-2019

 ----------------------------------------------------------------------
 #t hf aug-cc-pvdz iop(5/13=1,5/36=2,99/5=2) pseudo=read geom=check gue
 ss=(read,tcheck) scf=(maxcycle=1)
 ----------------------------------------------------------------------
 -----
 title
 -----
 Structure from the checkpoint file:  "ANI1ccx_675_conf3_mol2.chk"
 Charge =  0 Multiplicity = 1

                         Standard orientation:
 ---------------------------------------------------------------------
 Center     Atomic      Atomic             Coordinates (Angstroms)
 Number     Number       Type             X           Y           Z
 ---------------------------------------------------------------------
      1          6           0        0.865849    0.048972   -0.016594
      2          6           0       -1.037893   -1.140238    0.000447
      3          6           0       -1.111460    1.091512    0.031146
      4          1           0        2.474808   -0.850009    0.094596
      5          1           0       -1.569184   -2.058197    0.000658
      6          1           0       -1.720199    1.991813   -0.031294
      7          7           0        0.280455   -1.141129   -0.035184
      8          7           0       -1.785901   -0.074004    0.024122
      9          7           0        0.209253    1.233241   -0.039400
     10          8           0        2.198619    0.098520    0.024909
 ---------------------------------------------------------------------

 SCF Done:  E(RHF) =  -353.974776923     A.U. after    2 cycles

 The electronic state is 1-A.
 Alpha  occ. eigenvalues --  -20.61908 -15.52774 -15.52359 -15.51482 -11.41227
 Alpha  occ. eigenvalues --  -11.35263 -11.34532  -1.54676  -1.36136  -1.23243
 Alpha  occ. eigenvalues --   -1.21913  -0.97690  -0.95222  -0.83212  -0.79326
 Alpha  occ. eigenvalues --   -0.70919  -0.67929  -0.65445  -0.62592  -0.61115
 Alpha  occ. eigenvalues --   -0.58201  -0.49426  -0.49195  -0.48744  -0.44812
 Alpha virt. eigenvalues --    0.03174   0.04577   0.04923   0.05578   0.08261
 Alpha virt. eigenvalues --    0.08843   0.08906   0.09660   0.09990   0.11429
 Alpha virt. eigenvalues --    0.12258   0.12707   0.14365   0.14918   0.16332

 Mulliken charges:
               1
     1  C   -0.095178
     2  C   -0.732324
     3  C   -0.536356
     4  H    0.346214
     5  H   -0.074873
     6  H    0.011768
     7  N    0.785213
     8  N    0.707369
     9  N    0.888458
    10  O   -1.300292
 Sum of Mulliken charges =  -0.00000

 Dipole moment (field-independent basis, Debye):
    X=              0.0093    Y=             -1.5113    Z=              0.2051  Tot=              1.5252

 Test job not archived.
 1\1\GINC-SE334\SP\RHF\Aug-CC-pVDZ\C3H3N3O1\OHZDE\08-Apr-2025\0\\#t hf
 aug-cc-pvdz iop(5/13=1,5/36=2,99/5=2) pseudo=read geom=check guess=(re
 ad,tcheck) scf=(maxcycle=1)\\title\\0,1\C,0,0.86585,0.0489722,-0.01659
 36\C,0,-1.03789,-1.14024,0.0004472\C,0,-1.11146,1.09151,0.0311457\H,0,
 2.47481,-0.850007,0.0945963\H,0,-1.56918,-2.0582,0.00065835\H,0,-1.720
 2,1.99181,-0.0312938\N,0,0.280458,-1.14113,-0.0351839\N,0,-1.7859,-0.0
 740075,0.0241221\N,0,0.209253,1.23324,-0.0394\O,0,2.19862,0.0985219,0.
 0249095\\Version=ES64L-G16RevC.01\State=1-A\HF=-353.9747769\RMSD=2.778

 Normal termination of Gaussian 16 at Tue Apr  8 21:49:57 2025.
