 Gaussian 16, Revision C.01,

 ----------------------------------------------------------------------
 #t hf aug-cc-pvdz symm=none int=(grid=ultrafine) guess=(read,tcheck) s
 table=(opt,rrhf)
 ----------------------------------------------------------------------
 -----
 title
 -----
 Symbolic Z-matrix:
 Charge =  0 Multiplicity = 1

 SCF Done:  E(RHF) =  -279.367956296     a.u. after   30 cycles
 Normal termination of Gaussian 16 at Tue Apr  8 21:10:28 2025.
 Gaussian 16:  ES64L-G16RevC.01  3-Jul-2019

 ----------------------------------------------------------------------
 #t hf aug-cc-pvdz iop(5/13=1,5/36=2,99/5=2) pseudo=read geom=check gue
 ss=(read,tcheck) scf=(maxcycle=1)
 ----------------------------------------------------------------------
 -----
 title
 -----
 Structure from the checkpoint file:  "ANI1ccx_1850_conf4_mol2.chk"
 Charge =  0 Multiplicity = 1

                         Standard orientation:
 ---------------------------------------------------------------------
 Center     Atomic      Atomic             Coordinates (Angstroms)
 Number     Number       Type             X           Y           Z
 ---------------------------------------------------------------------
      1          1           0       -3.273248    0.367847   -0.229447
      2          7           0       -2.386078   -0.182252   -0.410097
      3          8           0       -1.609058    0.052327    0.486402
      4          8           0        1.803082    0.573465   -0.120615
      5          8           0        2.302952   -0.512303    0.021729
 ---------------------------------------------------------------------

 SCF Done:  E(RHF) =  -279.623282872     A.U. after    2 cycles

 The electronic state is 1-A.
 Alpha  occ. eigenvalues --  -20.72044 -20.71975 -20.64453 -15.65862  -1.77426
 Alpha  occ. eigenvalues --   -1.60860  -1.14690  -1.02707  -0.77220  -0.75520
 Alpha  occ. eigenvalues --   -0.72864  -0.69196  -0.64124  -0.61682  -0.44809
 Alpha  occ. eigenvalues --   -0.44552
 Alpha virt. eigenvalues --    0.03408   0.03442   0.04772   0.12296   0.12610
 Alpha virt. eigenvalues --    0.14802   0.16357   0.17415   0.18521   0.18788
 Alpha virt. eigenvalues --    0.22435   0.23398   0.23968   0.25128   0.28176

 Mulliken charges:
               1
     1  H    0.048813
     2  N    0.759010
     3  O   -0.814918
     4  O    0.021857
     5  O   -0.014762
 Sum of Mulliken charges =   0.00000

 Dipole moment (field-independent basis, Debye):
    X=             -1.6280    Y=              0.8462    Z=              0.1322  Tot=              1.8396

 Test job not archived.
 1\1\GINC-SE036\SP\RHF\Aug-CC-pVDZ\H1N1O3\OHZDE\08-Apr-2025\0\\#t hf au
 g-cc-pvdz iop(5/13=1,5/36=2,99/5=2) pseudo=read geom=check guess=(read
 ,tcheck) scf=(maxcycle=1)\\title\\0,1\H,0,-3.27325,0.367847,-0.229447\
 N,0,-2.38608,-0.182252,-0.410097\O,0,-1.60906,0.0523271,0.486402\O,0,1
 .80308,0.573465,-0.120615\O,0,2.30295,-0.512303,0.0217289\\Version=ES6
 4L-G16RevC.01\State=1-A\HF=-279.6232829\RMSD=1.581e-02\Dipole=-0.64051
 22,0.332932,0.0520109\Quadrupole=4.7351036,-1.7358382,-2.9992654,-1.40
 02358,-0.4289251,-0.902002\PG=C01 [X(H1N1O3)]\\@

 Normal termination of Gaussian 16 at Tue Apr  8 21:10:30 2025.
