 Gaussian 16, Revision C.01,

 ----------------------------------------------------------------------
 #t hf aug-cc-pvdz symm=none int=(grid=ultrafine) guess=(read,tcheck) s
 table=(opt,rrhf)
 ----------------------------------------------------------------------
 -----
 title
 -----
 Symbolic Z-matrix:
 Charge =  0 Multiplicity = 1

 SCF Done:  E(RHF) =  -923.236235157     A.U. after   15 cycles
 Normal termination of Gaussian 16 at Tue Apr  8 20:15:42 2025.
 Gaussian 16:  ES64L-G16RevC.01  3-Jul-2019

 ----------------------------------------------------------------------
 #t hf aug-cc-pvdz iop(5/13=1,5/36=2,99/5=2) pseudo=read geom=check gue
 ss=(read,tcheck) scf=(maxcycle=1)
 ----------------------------------------------------------------------
 -----
 title
 -----
 Structure from the checkpoint file:  "ANI1ccx_1584_conf11_mol2.chk"
 Charge =  0 Multiplicity = 1

                         Standard orientation:
 ---------------------------------------------------------------------
 Center     Atomic      Atomic             Coordinates (Angstroms)
 Number     Number       Type             X           Y           Z
 ---------------------------------------------------------------------
      1          6           0        1.786415   -1.669785    0.324489
      2          6           0        0.356544   -1.405469   -0.136918
      3          6           0        2.715832   -0.707355   -0.347887
      4          6           0        2.463607    0.744922   -0.042863
      5          6           0       -1.619631    0.076638    0.445273
      6          6           0       -2.856328   -0.809559    0.194530
      7          6           0       -1.443374    1.165085   -0.638626
      8          6           0       -0.649839    2.374758   -0.050133
      9          1           0       -1.867594   -2.242986   -0.770744
     10          1           0       -1.024741    3.334036   -1.780700
     11          1           0       -0.155021    4.299919   -0.629753
     12          1           0       -2.421535    1.453632   -1.059480
     13          1           0       -0.892374    0.694300   -1.442270
     14          1           0       -1.889242    0.526326    1.399670
     15          1           0        0.181374   -0.270751    1.513430
     16          1           0        1.977744    1.894936    1.334820
     17          1           0        3.731063   -0.997113   -0.143715
     18          1           0        2.617292   -0.740429   -1.435470
     19          1           0        1.776504   -1.602755    1.421230
     20          1           0        2.939150   -3.326362    0.347667
     21          1           0        1.366851   -3.669296    0.288991
     22          7           0        2.081359   -3.058574   -0.080226
     23          7           0       -0.375577   -0.651883    0.746812
     24          7           0       -0.535564    3.417868   -0.908548
     25          8           0       -0.195617   -1.901321   -1.131980
     26          8           0        2.447975    1.624267   -0.852890
     27          8           0        2.223937    0.924041    1.277810
     28          8           0       -3.952489   -0.442059    0.580929
     29          8           0       -0.123226    2.327889    1.062520
     30          8           0       -2.781874   -2.022909   -0.416030
 ---------------------------------------------------------------------

 SCF Done:  E(RHF) =  -924.152820581     A.U. after    2 cycles

 The electronic state is 1-A.
 Alpha  occ. eigenvalues --  -20.61212 -20.57451 -20.55886 -20.54657 -20.54109
 Alpha  occ. eigenvalues --  -20.52512 -15.55776 -15.55416 -15.51344 -11.41116
 Alpha  occ. eigenvalues --  -11.39687 -11.39280 -11.39252 -11.32188 -11.31454
 Alpha  occ. eigenvalues --  -11.28580 -11.27553  -1.56230  -1.51639  -1.48636
 Alpha  occ. eigenvalues --   -1.48288  -1.47192  -1.42553  -1.27154  -1.25386
 Alpha  occ. eigenvalues --   -1.22495  -1.09861  -1.07821  -0.98366  -0.93657
 Alpha  occ. eigenvalues --   -0.86083  -0.85534  -0.83100  -0.80325  -0.78443
 Alpha  occ. eigenvalues --   -0.77112  -0.76408  -0.73148  -0.72049  -0.70812
 Alpha  occ. eigenvalues --   -0.70342  -0.68580  -0.67169  -0.65235  -0.64916
 Alpha  occ. eigenvalues --   -0.64375  -0.62802  -0.62638  -0.61253  -0.60191
 Alpha  occ. eigenvalues --   -0.58350  -0.58186  -0.56727  -0.56070  -0.55368
 Alpha  occ. eigenvalues --   -0.54166  -0.49645  -0.47098  -0.46689  -0.46358
 Alpha  occ. eigenvalues --   -0.46093  -0.46012  -0.45033  -0.44638  -0.42518
 Alpha virt. eigenvalues --    0.02287   0.02415   0.03810   0.03976   0.04639
 Alpha virt. eigenvalues --    0.05347   0.05762   0.05869   0.06571   0.07252
 Alpha virt. eigenvalues --    0.07717   0.08850   0.09173   0.09485   0.10888

 Mulliken charges:
               1
     1  C   -1.714765
     2  C    0.128944
     3  C    0.012725
     4  C    2.525273
     5  C   -0.868905
     6  C    2.348908
     7  C   -0.332079
     8  C    0.166770
     9  H    0.558804
    10  H    0.091827
    11  H    0.021023
    12  H    0.122447
    13  H    0.187442
    14  H    0.106609
    15  H    0.378220
    16  H    0.595480
    17  H    0.213489
    18  H    0.336725
    19  H    0.062219
    20  H    0.164087
    21  H    0.164685
    22  N    0.797387
    23  N    1.690616
    24  N    1.057045
    25  O   -1.519225
    26  O   -1.407881
    27  O   -1.593673
    28  O   -1.385939
    29  O   -1.412137
    30  O   -1.496120
 Sum of Mulliken charges =  -0.00000

 Dipole moment (field-independent basis, Debye):
    X=              5.0709    Y=              2.4722    Z=              0.6789  Tot=              5.6822

 Test job not archived.
 1\1\GINC-SE252\SP\RHF\Aug-CC-pVDZ\C8H13N3O6\OHZDE\08-Apr-2025\0\\#t hf
  aug-cc-pvdz iop(5/13=1,5/36=2,99/5=2) pseudo=read geom=check guess=(r
 ead,tcheck) scf=(maxcycle=1)\\title\\0,1\C,0,1.78641,-1.66979,0.324489
 \C,0,0.35654,-1.40547,-0.136918\C,0,2.71583,-0.707363,-0.347887\C,0,2.
 46361,0.744915,-0.0428625\C,0,-1.61963,0.0766432,0.445273\C,0,-2.85633
 ,-0.80955,0.19453\C,0,-1.44337,1.16509,-0.638626\C,0,-0.649831,2.37476
 ,-0.0501331\H,0,-1.8676,-2.24298,-0.770744\H,0,-1.02473,3.33404,-1.780
 7\H,0,-0.155007,4.29992,-0.629753\H,0,-2.42153,1.45364,-1.05948\H,0,-0

 Normal termination of Gaussian 16 at Tue Apr  8 20:16:23 2025.
