 Gaussian 16, Revision C.01,

 ----------------------------------------------------------------------
 #t hf aug-cc-pvdz symm=none int=(grid=ultrafine) guess=(read,tcheck) s
 table=(opt,rrhf)
 ----------------------------------------------------------------------
 -----
 title
 -----
 Symbolic Z-matrix:
 Charge =  0 Multiplicity = 1

 SCF Done:  E(RHF) =  -908.320998875     A.U. after   15 cycles
 Normal termination of Gaussian 16 at Tue Apr  8 21:05:14 2025.
 Gaussian 16:  ES64L-G16RevC.01  3-Jul-2019

 ----------------------------------------------------------------------
 #t hf aug-cc-pvdz iop(5/13=1,5/36=2,99/5=2) pseudo=read geom=check gue
 ss=(read,tcheck) scf=(maxcycle=1)
 ----------------------------------------------------------------------
 -----
 title
 -----
 Structure from the checkpoint file:  "ANI1ccx_1761_conf39_mol1.chk"
 Charge =  0 Multiplicity = 1

                         Standard orientation:
 ---------------------------------------------------------------------
 Center     Atomic      Atomic             Coordinates (Angstroms)
 Number     Number       Type             X           Y           Z
 ---------------------------------------------------------------------
      1          6           0        1.979720   -1.021009    0.031233
      2          6           0       -3.440930    0.380740   -0.175385
      3          6           0       -2.334950    0.718461    0.898501
      4          6           0       -0.422821    1.809130   -0.227958
      5          6           0       -3.534130   -1.132840   -0.398192
      6          6           0        4.241890   -1.566239   -0.991562
      7          6           0        3.413440   -0.510804   -0.132361
      8          6           0        1.350860   -0.311433    1.321180
      9          6           0       -0.902293    0.592249    0.435279
     10          1           0       -0.908786   -0.214985   -0.240872
     11          1           0       -0.912332    3.149550   -1.464410
     12          1           0       -2.979269   -2.719040    0.491436
     13          1           0       -3.279230    0.907544   -1.096500
     14          1           0       -4.480670    0.539087    0.280120
     15          1           0       -2.473900    1.792670    1.169900
     16          1           0       -2.556320    0.174819    1.922900
     17          1           0       -0.056007    0.451586    2.390090
     18          1           0        3.924980   -1.638429   -1.981510
     19          1           0        5.282940   -1.291838   -0.960707
     20          1           0        4.207431   -2.599899   -0.511323
     21          1           0        2.738960    1.344631   -0.476770
     22          1           0        3.968310   -0.360377    0.794307
     23          1           0        1.908251   -2.144419    0.095810
     24          1           0        1.000880   -1.331519   -1.691350
     25          1           0        1.405960    0.224183   -1.550180
     26          7           0        1.104790   -0.596864   -1.053920
     27          7           0        0.084596    0.190712    1.440780
     28          8           0        2.024200   -0.150749    2.319000
     29          8           0        3.429810    0.699355   -0.844748
     30          8           0        0.744547    2.149001   -0.273915
     31          8           0       -3.756280   -1.641370   -1.465570
     32          8           0       -3.298719   -1.865630    0.684548
     33          8           0       -1.296260    2.410640   -0.974735
 ---------------------------------------------------------------------

 SCF Done:  E(RHF) =  -909.236627252     A.U. after    2 cycles

 The electronic state is 1-A.
 Alpha  occ. eigenvalues --  -20.62972 -20.60791 -20.55149 -20.54375 -20.54015
 Alpha  occ. eigenvalues --  -20.50108 -15.52273 -15.48694 -11.41127 -11.40479
 Alpha  occ. eigenvalues --  -11.35291 -11.30135 -11.29522 -11.28724 -11.28497
 Alpha  occ. eigenvalues --  -11.28208 -11.22445  -1.59860  -1.57305  -1.47217
 Alpha  occ. eigenvalues --   -1.46452  -1.46148  -1.43877  -1.24613  -1.20213
 Alpha  occ. eigenvalues --   -1.11129  -1.03595  -1.02407  -0.94461  -0.92021
 Alpha  occ. eigenvalues --   -0.88047  -0.84682  -0.83855  -0.79750  -0.75907
 Alpha  occ. eigenvalues --   -0.74522  -0.73789  -0.71932  -0.70939  -0.69558
 Alpha  occ. eigenvalues --   -0.69039  -0.67118  -0.66547  -0.66341  -0.64941
 Alpha  occ. eigenvalues --   -0.62921  -0.62156  -0.61265  -0.58798  -0.57988
 Alpha  occ. eigenvalues --   -0.56766  -0.54717  -0.54406  -0.53844  -0.53617
 Alpha  occ. eigenvalues --   -0.53327  -0.52855  -0.49390  -0.48604  -0.48534
 Alpha  occ. eigenvalues --   -0.46892  -0.45072  -0.44304  -0.43434  -0.41639
 Alpha  occ. eigenvalues --   -0.40003
 Alpha virt. eigenvalues --    0.02475   0.02740   0.03026   0.04102   0.04162
 Alpha virt. eigenvalues --    0.04530   0.05117   0.05890   0.06038   0.06920
 Alpha virt. eigenvalues --    0.07879   0.08045   0.08637   0.08900   0.09165

 Mulliken charges:
               1
     1  C   -1.601415
     2  C   -0.689501
     3  C   -0.028575
     4  C    2.876463
     5  C    2.366036
     6  C   -0.336933
     7  C    1.580783
     8  C    1.414824
     9  C   -2.186118
    10  H    0.128063
    11  H    0.429141
    12  H    0.353257
    13  H    0.127889
    14  H    0.425476
    15  H    0.215878
    16  H    0.270645
    17  H    0.292282
    18  H    0.041130
    19  H    0.123214
    20  H    0.302957
    21  H    0.510205
    22  H   -0.090251
    23  H    0.138635
    24  H    0.264989
    25  H    0.288508
    26  N    0.493118
    27  N    0.926069
    28  O   -1.505533
    29  O   -1.631064
    30  O   -1.420801
    31  O   -1.278294
    32  O   -1.291881
    33  O   -1.509197
 Sum of Mulliken charges =  -0.00000

 Dipole moment (field-independent basis, Debye):
    X=             -3.3164    Y=              0.2741    Z=             -0.8663  Tot=              3.4386

 Test job not archived.
 1\1\GINC-SE455\SP\RHF\Aug-CC-pVDZ\C9H16N2O6\OHZDE\08-Apr-2025\0\\#t hf
  aug-cc-pvdz iop(5/13=1,5/36=2,99/5=2) pseudo=read geom=check guess=(r
 ead,tcheck) scf=(maxcycle=1)\\title\\0,1\C,0,1.97972,-1.02101,0.031233
 3\C,0,-3.44093,0.38074,-0.175385\C,0,-2.33495,0.718461,0.898501\C,0,-0
 .422821,1.80913,-0.227958\C,0,-3.53413,-1.13284,-0.398192\C,0,4.24189,
 -1.56624,-0.991562\C,0,3.41344,-0.510805,-0.132361\C,0,1.35086,-0.3114
 34,1.32118\C,0,-0.902293,0.592249,0.435279\H,0,-0.908786,-0.214985,-0.
 240872\H,0,-0.912331,3.14955,-1.46441\H,0,-2.97927,-2.71904,0.491436\H

 Normal termination of Gaussian 16 at Tue Apr  8 21:06:03 2025.
