 Gaussian 16, Revision C.01,

 ----------------------------------------------------------------------
 #t hf aug-cc-pvdz symm=none int=(grid=ultrafine) guess=(read,tcheck) s
 table=(opt,rrhf)
 ----------------------------------------------------------------------
 -----
 title
 -----
 Symbolic Z-matrix:
 Charge =  0 Multiplicity = 1

 SCF Done:  E(RHF) =  -355.353392654     A.U. after   13 cycles
 Normal termination of Gaussian 16 at Tue Apr  8 21:40:44 2025.
 Gaussian 16:  ES64L-G16RevC.01  3-Jul-2019

 ----------------------------------------------------------------------
 #t hf aug-cc-pvdz iop(5/13=1,5/36=2,99/5=2) pseudo=read geom=check gue
 ss=(read,tcheck) scf=(maxcycle=1)
 ----------------------------------------------------------------------
 -----
 title
 -----
 Structure from the checkpoint file:  "ANI1ccx_469_conf3_mol1.chk"
 Charge =  0 Multiplicity = 1

                         Standard orientation:
 ---------------------------------------------------------------------
 Center     Atomic      Atomic             Coordinates (Angstroms)
 Number     Number       Type             X           Y           Z
 ---------------------------------------------------------------------
      1          6           0       -0.784858   -0.010622    0.003160
      2          6           0        1.296770    0.572263    0.012112
      3          1           0        2.157151    1.235228    0.056788
      4          7           0        1.403799   -0.686456   -0.000210
      5          8           0       -1.969030    0.034336    0.011964
      6          8           0        0.050625    1.079590   -0.021909
      7          8           0        0.036503   -1.088910   -0.008424
 ---------------------------------------------------------------------

 SCF Done:  E(RHF) =  -355.695021198     A.U. after    2 cycles

 The electronic state is 1-A.
 Alpha  occ. eigenvalues --  -20.67628 -20.66515 -20.57444 -15.62083 -11.48286
 Alpha  occ. eigenvalues --  -11.40500  -1.68352  -1.54768  -1.52350  -1.25084
 Alpha  occ. eigenvalues --   -0.95308  -0.92145  -0.80147  -0.76655  -0.70153
 Alpha  occ. eigenvalues --   -0.69040  -0.62647  -0.60656  -0.60078  -0.58520
 Alpha  occ. eigenvalues --   -0.50117  -0.45606
 Alpha virt. eigenvalues --    0.02523   0.06621   0.07430   0.07815   0.09787
 Alpha virt. eigenvalues --    0.10420   0.10950   0.12802   0.13648   0.15828
 Alpha virt. eigenvalues --    0.17177   0.17799   0.19089   0.19142   0.22611

 Mulliken charges:
               1
     1  C    2.131139
     2  C    0.179852
     3  H    0.057705
     4  N    0.980547
     5  O   -1.060753
     6  O   -1.060462
     7  O   -1.228027
 Sum of Mulliken charges =  -0.00000

 Dipole moment (field-independent basis, Debye):
    X=              3.0683    Y=              2.5137    Z=              0.0638  Tot=              3.9670

 Test job not archived.
 1\1\GINC-SE088\SP\RHF\Aug-CC-pVDZ\C2H1N1O3\OHZDE\08-Apr-2025\0\\#t hf
 aug-cc-pvdz iop(5/13=1,5/36=2,99/5=2) pseudo=read geom=check guess=(re
 ad,tcheck) scf=(maxcycle=1)\\title\\0,1\C,0,-0.784858,-0.0106225,0.003
 15978\C,0,1.29677,0.572264,0.0121124\H,0,2.15715,1.23523,0.0567885\N,0
 ,1.4038,-0.686455,-0.00021017\O,0,-1.96903,0.0343348,0.0119643\O,0,0.0
 506238,1.07959,-0.0219086\O,0,0.0365038,-1.08891,-0.00842447\\Version=
 ES64L-G16RevC.01\State=1-A\HF=-355.6950212\RMSD=1.319e-02\Dipole=1.207
 1577,0.9889592,0.0250955\Quadrupole=-1.5336734,-0.0737767,1.6074502,4.

 Normal termination of Gaussian 16 at Tue Apr  8 21:40:47 2025.
