 Gaussian 16, Revision C.01,

 ----------------------------------------------------------------------
 #t hf aug-cc-pvdz symm=none int=(grid=ultrafine) guess=(read,tcheck) s
 table=(opt,rrhf)
 ----------------------------------------------------------------------
 -----
 title
 -----
 Symbolic Z-matrix:
 Charge =  0 Multiplicity = 1

 SCF Done:  E(RHF) =  -659.110694472     A.U. after   14 cycles
 Normal termination of Gaussian 16 at Tue Apr  8 19:31:36 2025.
 Gaussian 16:  ES64L-G16RevC.01  3-Jul-2019

 ----------------------------------------------------------------------
 #t hf aug-cc-pvdz iop(5/13=1,5/36=2,99/5=2) pseudo=read geom=check gue
 ss=(read,tcheck) scf=(maxcycle=1)
 ----------------------------------------------------------------------
 -----
 title
 -----
 Structure from the checkpoint file:  "ANI1ccx_1265_conf6_mol1.chk"
 Charge =  0 Multiplicity = 1

                         Standard orientation:
 ---------------------------------------------------------------------
 Center     Atomic      Atomic             Coordinates (Angstroms)
 Number     Number       Type             X           Y           Z
 ---------------------------------------------------------------------
      1          6           0       -2.106510    0.118626   -0.622139
      2          6           0       -0.671998    1.967989    0.241354
      3          6           0        0.763238    1.781689   -0.258113
      4          6           0        1.614500    1.164579    0.845124
      5          6           0        2.613960    0.074117    0.401155
      6          6           0        1.939950   -1.253021   -0.024715
      7          1           0       -0.006725   -0.637047    0.411538
      8          1           0        3.992520   -0.219439   -1.060480
      9          1           0        4.177190    1.231339   -0.196114
     10          1           0        3.029240   -0.197761    1.408460
     11          1           0        0.967445    0.766597    1.576290
     12          1           0        2.206910    1.927279    1.310510
     13          1           0        0.763726    1.177519   -1.158860
     14          1           0        1.237080    2.752339   -0.630018
     15          1           0       -0.601707    2.491719    1.231800
     16          1           0       -1.255220    2.570059   -0.426255
     17          1           0       -1.828160    0.684928    1.378000
     18          1           0       -3.883860    1.062649   -0.125285
     19          1           0       -3.942470    0.362957   -1.570020
     20          1           0       -1.521470    0.028063   -1.473650
     21          1           0       -1.548320   -1.798241   -0.396845
     22          1           0       -2.471910   -1.822431    1.639140
     23          1           0       -3.925760   -1.859691    0.838087
     24          7           0       -3.056320   -1.361071    0.949227
     25          7           0       -2.452830   -1.286351   -0.373163
     26          7           0       -3.311030    0.861309   -0.940106
     27          7           0       -1.335650    0.668970    0.471167
     28          7           0        3.551030    0.559759   -0.602462
     29          8           0        0.656497   -1.311521    0.171063
     30          8           0        2.584290   -2.156361   -0.519180
 ---------------------------------------------------------------------

 SCF Done:  E(RHF) =  -659.794293265     A.U. after    2 cycles

 The electronic state is 1-A.
 Alpha  occ. eigenvalues --  -20.57637 -20.51769 -15.52529 -15.52241 -15.51394
 Alpha  occ. eigenvalues --  -15.49061 -15.48541 -11.38608 -11.31839 -11.28113
 Alpha  occ. eigenvalues --  -11.27099 -11.23559 -11.23220  -1.53939  -1.43704
 Alpha  occ. eigenvalues --   -1.29733  -1.21900  -1.19392  -1.15994  -1.07723
 Alpha  occ. eigenvalues --   -1.05545  -0.98242  -0.91294  -0.88225  -0.84809
 Alpha  occ. eigenvalues --   -0.81683  -0.75509  -0.74435  -0.72328  -0.72186
 Alpha  occ. eigenvalues --   -0.69400  -0.67631  -0.67503  -0.66141  -0.65952
 Alpha  occ. eigenvalues --   -0.64002  -0.61824  -0.60158  -0.59323  -0.57831
 Alpha  occ. eigenvalues --   -0.55627  -0.53631  -0.51370  -0.50784  -0.50157
 Alpha  occ. eigenvalues --   -0.49259  -0.45683  -0.45425  -0.44447  -0.43346
 Alpha  occ. eigenvalues --   -0.42783  -0.41195
 Alpha virt. eigenvalues --    0.02752   0.03176   0.03539   0.03747   0.04821
 Alpha virt. eigenvalues --    0.05187   0.05310   0.05684   0.06657   0.07014
 Alpha virt. eigenvalues --    0.07261   0.07939   0.08242   0.09210   0.10038

 Mulliken charges:
               1
     1  C   -1.867922
     2  C   -0.504950
     3  C   -0.090044
     4  C    0.166613
     5  C   -1.522163
     6  C    2.307983
     7  H    0.974155
     8  H    0.192567
     9  H    0.194970
    10  H    0.321087
    11  H    0.010921
    12  H    0.019272
    13  H    0.006740
    14  H    0.179319
    15  H    0.109580
    16  H   -0.024649
    17  H    0.659442
    18  H    0.239975
    19  H    0.217190
    20  H   -0.326321
    21  H    0.231343
    22  H    0.091401
    23  H    0.118097
    24  N    0.204383
    25  N    0.229139
    26  N    0.587736
    27  N   -0.125373
    28  N    0.488795
    29  O   -1.658117
    30  O   -1.431168
 Sum of Mulliken charges =  -0.00000

 Dipole moment (field-independent basis, Debye):
    X=             -2.0805    Y=              2.8453    Z=              3.4936  Tot=              4.9628

 Test job not archived.
 1\1\GINC-SE367\SP\RHF\Aug-CC-pVDZ\C6H17N5O2\OHZDE\08-Apr-2025\0\\#t hf
  aug-cc-pvdz iop(5/13=1,5/36=2,99/5=2) pseudo=read geom=check guess=(r
 ead,tcheck) scf=(maxcycle=1)\\title\\0,1\C,0,-2.10651,0.118627,-0.6221
 39\C,0,-0.671998,1.96799,0.241354\C,0,0.763238,1.78169,-0.258113\C,0,1
 .6145,1.16458,0.845124\C,0,2.61396,0.0741173,0.401155\C,0,1.93995,-1.2
 5302,-0.0247151\H,0,-0.00672409,-0.637046,0.411538\H,0,3.99252,-0.2194
 38,-1.06048\H,0,4.17719,1.23134,-0.196114\H,0,3.02924,-0.19776,1.40846
 \H,0,0.967445,0.766598,1.57629\H,0,2.20691,1.92728,1.31051\H,0,0.76372

 Normal termination of Gaussian 16 at Tue Apr  8 19:32:10 2025.
