 Gaussian 16, Revision C.01,

 ----------------------------------------------------------------------
 #t hf aug-cc-pvdz symm=none int=(grid=ultrafine) guess=(read,tcheck) s
 table=(opt,rrhf)
 ----------------------------------------------------------------------
 -----
 title
 -----
 Symbolic Z-matrix:
 Charge =  0 Multiplicity = 1

 SCF Done:  E(RHF) =  -339.592676194     A.U. after   14 cycles
 Normal termination of Gaussian 16 at Tue Apr  8 21:36:40 2025.
 Gaussian 16:  ES64L-G16RevC.01  3-Jul-2019

 ----------------------------------------------------------------------
 #t hf aug-cc-pvdz iop(5/13=1,5/36=2,99/5=2) pseudo=read geom=check gue
 ss=(read,tcheck) scf=(maxcycle=1)
 ----------------------------------------------------------------------
 -----
 title
 -----
 Structure from the checkpoint file:  "ANI1ccx_409_conf6_mol2.chk"
 Charge =  0 Multiplicity = 1

                         Standard orientation:
 ---------------------------------------------------------------------
 Center     Atomic      Atomic             Coordinates (Angstroms)
 Number     Number       Type             X           Y           Z
 ---------------------------------------------------------------------
      1          6           0        1.484761   -0.080536    0.368910
      2          1           0       -1.630039    0.918932   -0.760435
      3          1           0       -2.897669   -0.853978   -0.054327
      4          1           0        1.046420    1.778051    0.305708
      5          1           0        1.488371    0.029838    1.462910
      6          8           0       -1.878209    0.662479    0.138202
      7          8           0       -1.936659   -0.770204   -0.038346
      8          8           0        1.281551    1.052811   -0.297165
      9          8           0        1.668861   -1.118789   -0.198606
 ---------------------------------------------------------------------

 SCF Done:  E(RHF) =  -339.923909730     A.U. after    2 cycles

 The electronic state is 1-A.
 Alpha  occ. eigenvalues --  -20.62725 -20.62712 -20.61174 -20.53832 -11.39628
 Alpha  occ. eigenvalues --   -1.59683  -1.55551  -1.45778  -1.28569  -0.87249
 Alpha  occ. eigenvalues --   -0.79422  -0.72013  -0.71298  -0.66454  -0.63183
 Alpha  occ. eigenvalues --   -0.60729  -0.58533  -0.50986  -0.48943  -0.47359
 Alpha  occ. eigenvalues --   -0.44950
 Alpha virt. eigenvalues --    0.02931   0.04234   0.04609   0.06752   0.09525
 Alpha virt. eigenvalues --    0.11344   0.12946   0.13989   0.15625   0.16797
 Alpha virt. eigenvalues --    0.18155   0.19560   0.20014   0.21366   0.23031

 Mulliken charges:
               1
     1  C    1.405384
     2  H    0.450060
     3  H    0.519607
     4  H    0.424585
     5  H    0.126227
     6  O   -0.357525
     7  O   -0.585678
     8  O   -0.997232
     9  O   -0.985428
 Sum of Mulliken charges =  -0.00000

 Dipole moment (field-independent basis, Debye):
    X=             -2.0960    Y=              3.2707    Z=              1.2915  Tot=              4.0937

 Test job not archived.
 1\1\GINC-SE364\SP\RHF\Aug-CC-pVDZ\C1H4O4\OHZDE\08-Apr-2025\0\\#t hf au
 g-cc-pvdz iop(5/13=1,5/36=2,99/5=2) pseudo=read geom=check guess=(read
 ,tcheck) scf=(maxcycle=1)\\title\\0,1\C,0,1.48476,-0.0805365,0.36891\H
 ,0,-1.63004,0.918932,-0.760435\H,0,-2.89767,-0.853977,-0.0543275\H,0,1
 .04642,1.77805,0.305708\H,0,1.48837,0.0298373,1.46291\O,0,-1.87821,0.6
 62479,0.138202\O,0,-1.93666,-0.770204,-0.0383466\O,0,1.28155,1.05281,-
 0.297165\O,0,1.66886,-1.11879,-0.198606\\Version=ES64L-G16RevC.01\Stat
 e=1-A\HF=-339.9239097\RMSD=7.019e-03\Dipole=-0.8246342,1.2867925,0.508

 Normal termination of Gaussian 16 at Tue Apr  8 21:36:42 2025.
