 Gaussian 16, Revision C.01,

 ----------------------------------------------------------------------
 #t hf aug-cc-pvdz symm=none int=(grid=ultrafine) guess=(read,tcheck) s
 table=(opt,rrhf)
 ----------------------------------------------------------------------
 -----
 title
 -----
 Symbolic Z-matrix:
 Charge =  0 Multiplicity = 1

 SCF Done:  E(RHF) =  -700.072104731     A.U. after   16 cycles
 Normal termination of Gaussian 16 at Tue Apr  8 21:03:58 2025.
 Gaussian 16:  ES64L-G16RevC.01  3-Jul-2019

 ----------------------------------------------------------------------
 #t hf aug-cc-pvdz iop(5/13=1,5/36=2,99/5=2) pseudo=read geom=check gue
 ss=(read,tcheck) scf=(maxcycle=1)
 ----------------------------------------------------------------------
 -----
 title
 -----
 Structure from the checkpoint file:  "ANI1ccx_1838_conf2_mol1.chk"
 Charge =  0 Multiplicity = 1

                         Standard orientation:
 ---------------------------------------------------------------------
 Center     Atomic      Atomic             Coordinates (Angstroms)
 Number     Number       Type             X           Y           Z
 ---------------------------------------------------------------------
      1          6           0       -3.315199   -0.105815   -0.329306
      2          6           0       -2.611749   -0.866715    0.797341
      3          6           0       -0.283213    0.053065    0.476198
      4          6           0        1.124241   -0.206694    0.108499
      5          6           0        1.683381   -1.496710    0.103121
      6          6           0        3.043341   -1.644850   -0.136810
      7          6           0        3.859021   -0.554597   -0.399757
      8          6           0        3.330731    0.710683   -0.383891
      9          6           0        1.951001    0.891448   -0.057189
     10          1           0        0.630138    2.125510    0.331819
     11          1           0        3.866911    1.609240   -0.599209
     12          1           0        4.923621   -0.662653   -0.693562
     13          1           0        3.493941   -2.671970   -0.073536
     14          1           0       -2.687379   -0.461470    1.798730
     15          1           0       -0.978563   -1.666540   -0.265395
     16          1           0       -2.936619   -1.925710    0.749031
     17          1           0       -2.173879    1.240110    0.144753
     18          1           0        1.057041   -2.336520    0.440434
     19          7           0       -1.155699   -0.957919    0.455062
     20          8           0       -0.656400    1.223600    0.814199
     21          8           0       -3.007309    1.165020   -0.390875
     22          8           0       -4.066149   -0.672323   -1.128370
     23          8           0        1.505531    2.130770   -0.055922
 ---------------------------------------------------------------------

 SCF Done:  E(RHF) =  -700.768335752     A.U. after    2 cycles

 The electronic state is 1-A.
 Alpha  occ. eigenvalues --  -20.59069 -20.57631 -20.56497 -20.53479 -15.58070
 Alpha  occ. eigenvalues --  -11.41548 -11.40021 -11.34142 -11.32691 -11.28860
 Alpha  occ. eigenvalues --  -11.28020 -11.27066 -11.26345 -11.25680  -1.55041
 Alpha  occ. eigenvalues --   -1.53218  -1.49185  -1.43980  -1.29522  -1.18414
 Alpha  occ. eigenvalues --   -1.08433  -1.03665  -1.03169  -0.91492  -0.87779
 Alpha  occ. eigenvalues --   -0.86358  -0.83101  -0.79281  -0.77731  -0.74499
 Alpha  occ. eigenvalues --   -0.71982  -0.70369  -0.68146  -0.66978  -0.64843
 Alpha  occ. eigenvalues --   -0.64216  -0.63323  -0.61486  -0.60793  -0.60426
 Alpha  occ. eigenvalues --   -0.58624  -0.56913  -0.55775  -0.53820  -0.50968
 Alpha  occ. eigenvalues --   -0.48937  -0.46774  -0.46029  -0.43783  -0.38954
 Alpha  occ. eigenvalues --   -0.33970
 Alpha virt. eigenvalues --    0.02150   0.02834   0.03637   0.03975   0.04454
 Alpha virt. eigenvalues --    0.05022   0.05692   0.06172   0.07099   0.07954
 Alpha virt. eigenvalues --    0.08718   0.09365   0.09763   0.10127   0.11571

 Mulliken charges:
               1
     1  C    2.362359
     2  C   -0.487351
     3  C   -1.298766
     4  C    2.354748
     5  C    0.245436
     6  C    0.218506
     7  C    0.011666
     8  C    0.590901
     9  C    0.395507
    10  H    0.454356
    11  H   -0.322978
    12  H   -0.146703
    13  H   -0.163041
    14  H    0.070846
    15  H    0.254487
    16  H    0.100142
    17  H    0.676972
    18  H   -0.281954
    19  N    1.071235
    20  O   -1.740325
    21  O   -1.328938
    22  O   -1.297915
    23  O   -1.739189
 Sum of Mulliken charges =   0.00000

 Dipole moment (field-independent basis, Debye):
    X=              4.2506    Y=             -3.4022    Z=              2.5254  Tot=              6.0017

 Test job not archived.
 1\1\GINC-SE184\SP\RHF\Aug-CC-pVDZ\C9H9N1O4\OHZDE\08-Apr-2025\0\\#t hf
 aug-cc-pvdz iop(5/13=1,5/36=2,99/5=2) pseudo=read geom=check guess=(re
 ad,tcheck) scf=(maxcycle=1)\\title\\0,1\C,0,-3.3152,-0.105815,-0.32930
 6\C,0,-2.61175,-0.866715,0.797341\C,0,-0.283214,0.0530644,0.476198\C,0
 ,1.12424,-0.206694,0.108499\C,0,1.68338,-1.49671,0.103121\C,0,3.04334,
 -1.64485,-0.13681\C,0,3.85902,-0.554597,-0.399757\C,0,3.33073,0.710683
 ,-0.383891\C,0,1.951,0.891448,-0.0571886\H,0,0.630137,2.12551,0.331819
 \H,0,3.86691,1.60924,-0.599209\H,0,4.92362,-0.662653,-0.693562\H,0,3.4

 Normal termination of Gaussian 16 at Tue Apr  8 21:04:18 2025.
