 Gaussian 16, Revision C.01,

 ----------------------------------------------------------------------
 #t hf aug-cc-pvdz symm=none int=(grid=ultrafine) guess=(read,tcheck) s
 table=(opt,rrhf)
 ----------------------------------------------------------------------
 -----
 title
 -----
 Symbolic Z-matrix:
 Charge =  0 Multiplicity = 1

 SCF Done:  E(RHF) =  -949.069975682     A.U. after   16 cycles
 Normal termination of Gaussian 16 at Tue Apr  8 21:40:55 2025.
 Gaussian 16:  ES64L-G16RevC.01  3-Jul-2019

 ----------------------------------------------------------------------
 #t hf aug-cc-pvdz iop(5/13=1,5/36=2,99/5=2) pseudo=read geom=check gue
 ss=(read,tcheck) scf=(maxcycle=1)
 ----------------------------------------------------------------------
 -----
 title
 -----
 Structure from the checkpoint file:  "ANI1ccx_350_conf1_mol2.chk"
 Charge =  0 Multiplicity = 1

                         Standard orientation:
 ---------------------------------------------------------------------
 Center     Atomic      Atomic             Coordinates (Angstroms)
 Number     Number       Type             X           Y           Z
 ---------------------------------------------------------------------
      1          6           0       -0.125351   -0.215348    0.793736
      2          6           0       -3.426610   -1.538520   -0.492815
      3          6           0       -4.121890   -0.898242   -1.671770
      4          6           0       -2.472760    1.739400    0.306472
      5          6           0       -2.476270    0.669044   -0.844909
      6          6           0        4.836620    0.397569   -0.383559
      7          6           0        4.658440   -0.983452   -0.198516
      8          6           0       -3.844230    0.609463   -1.577510
      9          6           0        3.371350   -1.541710   -0.308196
     10          6           0        2.452870    0.757554   -0.275666
     11          6           0        2.227080   -0.639422   -0.299539
     12          6           0        0.772579   -1.000930   -0.347328
     13          6           0       -1.407150   -0.944994    0.770185
     14          6           0        3.748360    1.230750   -0.386591
     15          1           0       -1.679560    0.968188   -1.476270
     16          1           0       -3.243950    1.810330    2.034420
     17          1           0       -4.047980   -1.527010    0.403896
     18          1           0       -2.978670   -2.514790   -0.503908
     19          1           0       -3.685860   -1.291720   -2.678610
     20          1           0       -5.216460   -1.095890   -1.699340
     21          1           0       -3.756810    1.090320   -2.589490
     22          1           0       -4.708060    1.103050   -1.157910
     23          1           0        6.589460    0.233393   -0.629300
     24          1           0        0.663959   -2.075550   -0.083653
     25          1           0        3.956770    2.338520   -0.475298
     26          1           0        3.234800   -2.602320   -0.330480
     27          1           0        1.635710    1.472680   -0.168305
     28          1           0        0.197669   -0.909351   -1.283890
     29          1           0       -0.232185    0.798959    0.490295
     30          1           0        1.425850   -0.402929    2.139830
     31          1           0        0.075882   -1.119150    2.601930
     32          1           0        5.448920   -1.713480   -0.259450
     33          7           0        0.443130   -0.295913    2.143230
     34          7           0       -2.276260   -0.628208   -0.223749
     35          8           0       -1.517130    2.480980    0.475890
     36          8           0       -1.725320   -1.857080    1.558230
     37          8           0        6.025550    1.029640   -0.455808
     38          8           0       -3.533820    1.603790    1.137340
 ---------------------------------------------------------------------

 SCF Done:  E(RHF) =  -950.029036252     A.U. after    2 cycles

 The electronic state is 1-A.
 Alpha  occ. eigenvalues --  -20.61512 -20.58937 -20.55714 -20.51257 -15.53149
 Alpha  occ. eigenvalues --  -15.47164 -11.41135 -11.35635 -11.31206 -11.30915
 Alpha  occ. eigenvalues --  -11.27348 -11.27178 -11.26582 -11.26461 -11.26294
 Alpha  occ. eigenvalues --  -11.25455 -11.25402 -11.25168 -11.24859 -11.23642
 Alpha  occ. eigenvalues --   -1.55530  -1.50670  -1.46577  -1.44921  -1.27640
 Alpha  occ. eigenvalues --   -1.18642  -1.15051  -1.09749  -1.04809  -1.04059
 Alpha  occ. eigenvalues --   -1.02611  -0.98665  -0.92311  -0.89149  -0.86340
 Alpha  occ. eigenvalues --   -0.85684  -0.83145  -0.80550  -0.78687  -0.75084
 Alpha  occ. eigenvalues --   -0.72661  -0.72248  -0.71197  -0.68840  -0.67531
 Alpha  occ. eigenvalues --   -0.66470  -0.66340  -0.64656  -0.63694  -0.63126
 Alpha  occ. eigenvalues --   -0.61986  -0.60991  -0.60506  -0.59916  -0.59719
 Alpha  occ. eigenvalues --   -0.58894  -0.57799  -0.56944  -0.55180  -0.54859
 Alpha  occ. eigenvalues --   -0.53417  -0.52990  -0.52424  -0.51006  -0.49806
 Alpha  occ. eigenvalues --   -0.48808  -0.48233  -0.47601  -0.45262  -0.43126
 Alpha  occ. eigenvalues --   -0.41247  -0.40073  -0.35593  -0.31443
 Alpha virt. eigenvalues --    0.02754   0.02942   0.03386   0.03524   0.04029
 Alpha virt. eigenvalues --    0.04411   0.04842   0.05365   0.05830   0.05973
 Alpha virt. eigenvalues --    0.06348   0.07453   0.07893   0.08516   0.08882

 Mulliken charges:
               1
     1  C   -1.860300
     2  C    0.203637
     3  C   -0.530607
     4  C    2.451742
     5  C    0.009692
     6  C    1.678874
     7  C    0.121169
     8  C   -0.219823
     9  C    0.313637
    10  C    0.436945
    11  C    1.225821
    12  C   -1.602700
    13  C    0.737837
    14  C   -0.113690
    15  H   -0.240448
    16  H    0.334097
    17  H    0.065729
    18  H    0.010732
    19  H    0.254934
    20  H    0.161407
    21  H    0.217230
    22  H   -0.023039
    23  H    0.355359
    24  H    0.205229
    25  H   -0.201081
    26  H   -0.325104
    27  H   -0.423915
    28  H    0.261352
    29  H    0.306731
    30  H    0.190737
    31  H    0.225297
    32  H   -0.294531
    33  N    0.905900
    34  N    1.284369
    35  O   -1.383277
    36  O   -1.605903
    37  O   -1.689760
    38  O   -1.444280
 Sum of Mulliken charges =  -0.00000

 Dipole moment (field-independent basis, Debye):
    X=             -1.1062    Y=             -1.4663    Z=             -3.5936  Tot=              4.0358

 Test job not archived.
 1\1\GINC-SE086\SP\RHF\Aug-CC-pVDZ\C14H18N2O4\OHZDE\08-Apr-2025\0\\#t h
 f aug-cc-pvdz iop(5/13=1,5/36=2,99/5=2) pseudo=read geom=check guess=(
 read,tcheck) scf=(maxcycle=1)\\title\\0,1\C,0,-0.125351,-0.215348,0.79
 3736\C,0,-3.42661,-1.53852,-0.492815\C,0,-4.12189,-0.898242,-1.67177\C
 ,0,-2.47276,1.7394,0.306472\C,0,-2.47627,0.669044,-0.844909\C,0,4.8366
 2,0.397569,-0.383559\C,0,4.65844,-0.983452,-0.198516\C,0,-3.84423,0.60
 9463,-1.57751\C,0,3.37135,-1.54171,-0.308196\C,0,2.45287,0.757554,-0.2
 75666\C,0,2.22708,-0.639422,-0.299539\C,0,0.772579,-1.00093,-0.347328\

 Normal termination of Gaussian 16 at Tue Apr  8 21:42:13 2025.
