 Gaussian 16, Revision C.01,

 ----------------------------------------------------------------------
 #t hf aug-cc-pvdz symm=none int=(grid=ultrafine) guess=(read,tcheck) s
 table=(opt,rrhf)
 ----------------------------------------------------------------------
 -----
 title
 -----
 Symbolic Z-matrix:
 Charge =  0 Multiplicity = 1

 SCF Done:  E(RHF) =  -380.198660684     A.U. after   11 cycles
 Normal termination of Gaussian 16 at Tue Apr  8 21:01:24 2025.
 Gaussian 16:  ES64L-G16RevC.01  3-Jul-2019

 ----------------------------------------------------------------------
 #t hf aug-cc-pvdz iop(5/13=1,5/36=2,99/5=2) pseudo=read geom=check gue
 ss=(read,tcheck) scf=(maxcycle=1)
 ----------------------------------------------------------------------
 -----
 title
 -----
 Structure from the checkpoint file:  "ANI1ccx_1843_conf186_mol1.chk"
 Charge =  0 Multiplicity = 1

                         Standard orientation:
 ---------------------------------------------------------------------
 Center     Atomic      Atomic             Coordinates (Angstroms)
 Number     Number       Type             X           Y           Z
 ---------------------------------------------------------------------
      1          1           0       -1.493861    0.406789   -0.167880
      2          1           0       -2.372182    0.891656   -1.434670
      3          1           0       -0.696612   -0.895631    0.944789
      4          1           0       -1.772840   -0.468420    2.033810
      5          1           0       -0.827327   -1.398491   -0.961545
      6          1           0        0.639098   -1.365019   -0.236465
      7          1           0        1.770069    0.329242    0.016018
      8          1           0        2.544490   -0.426662   -0.979717
      9          1           0        0.319492    1.333100    0.853883
     10          1           0        0.235463    1.828460   -0.663974
     11          8           0       -1.492071    0.512824   -1.164880
     12          8           0       -0.996507   -0.033519    1.445830
     13          8           0       -0.303549   -1.790581   -0.262500
     14          8           0        2.210380   -0.523104   -0.092829
     15          8           0        0.788523    1.805001    0.148848
 ---------------------------------------------------------------------

 SCF Done:  E(RHF) =  -380.593290613     A.U. after    2 cycles

 The electronic state is 1-A.
 Alpha  occ. eigenvalues --  -20.57188 -20.56729 -20.55694 -20.55495 -20.55382
 Alpha  occ. eigenvalues --   -1.46056  -1.44771  -1.43453  -1.42547  -1.40830
 Alpha  occ. eigenvalues --   -0.73289  -0.72897  -0.71810  -0.70496  -0.67860
 Alpha  occ. eigenvalues --   -0.61591  -0.60277  -0.59701  -0.57689  -0.55427
 Alpha  occ. eigenvalues --   -0.50587  -0.49966  -0.49755  -0.49082  -0.48144
 Alpha virt. eigenvalues --    0.02799   0.04086   0.04901   0.06284   0.07802
 Alpha virt. eigenvalues --    0.08320   0.08558   0.08957   0.10169   0.11736
 Alpha virt. eigenvalues --    0.16375   0.18943   0.19143   0.20044   0.21633

 Mulliken charges:
               1
     1  H    0.772312
     2  H    0.390253
     3  H    0.809206
     4  H    0.435209
     5  H    0.528889
     6  H    0.707775
     7  H    0.659998
     8  H    0.329729
     9  H    0.619086
    10  H    0.536188
    11  O   -1.035671
    12  O   -1.227955
    13  O   -1.335517
    14  O   -0.975555
    15  O   -1.213946
 Sum of Mulliken charges =  -0.00000

 Dipole moment (field-independent basis, Debye):
    X=             -3.1043    Y=              0.4658    Z=             -1.2843  Tot=              3.3916

 Test job not archived.
 1\1\GINC-SE249\SP\RHF\Aug-CC-pVDZ\H10O5\OHZDE\08-Apr-2025\0\\#t hf aug
 -cc-pvdz iop(5/13=1,5/36=2,99/5=2) pseudo=read geom=check guess=(read,
 tcheck) scf=(maxcycle=1)\\title\\0,1\H,0,-1.49386,0.406791,-0.16788\H,
 0,-2.37218,0.891659,-1.43467\H,0,-0.696612,-0.89563,0.944789\H,0,-1.77
 284,-0.468418,2.03381\H,0,-0.827328,-1.39849,-0.961545\H,0,0.639097,-1
 .36502,-0.236465\H,0,1.77007,0.32924,0.0160178\H,0,2.54449,-0.426665,-
 0.979717\H,0,0.319494,1.3331,0.853883\H,0,0.235466,1.82846,-0.663974\O
 ,0,-1.49207,0.512826,-1.16488\O,0,-0.996506,-0.0335172,1.44583\O,0,-0.

 Normal termination of Gaussian 16 at Tue Apr  8 21:01:28 2025.
