 Gaussian 16, Revision C.01,

 ----------------------------------------------------------------------
 #t hf aug-cc-pvdz symm=none int=(grid=ultrafine) guess=(read,tcheck) s
 table=(opt,rrhf)
 ----------------------------------------------------------------------
 -----
 title
 -----
 Symbolic Z-matrix:
 Charge =  0 Multiplicity = 1

 SCF Done:  E(RHF) =  -943.055909897     A.U. after   14 cycles
 Normal termination of Gaussian 16 at Tue Apr  8 20:10:23 2025.
 Gaussian 16:  ES64L-G16RevC.01  3-Jul-2019

 ----------------------------------------------------------------------
 #t hf aug-cc-pvdz iop(5/13=1,5/36=2,99/5=2) pseudo=read geom=check gue
 ss=(read,tcheck) scf=(maxcycle=1)
 ----------------------------------------------------------------------
 -----
 title
 -----
 Structure from the checkpoint file:  "ANI1ccx_1569_conf16_mol1.chk"
 Charge =  0 Multiplicity = 1

                         Standard orientation:
 ---------------------------------------------------------------------
 Center     Atomic      Atomic             Coordinates (Angstroms)
 Number     Number       Type             X           Y           Z
 ---------------------------------------------------------------------
      1          6           0        2.309785   -1.022890    0.327479
      2          6           0        0.820710   -1.258266   -0.029802
      3          6           0        2.906380    0.288210   -0.303681
      4          6           0        2.010956    1.417568   -0.083136
      5          6           0       -1.464557   -0.462015    0.467496
      6          6           0       -2.315862   -1.737029    0.205146
      7          6           0       -1.682711    0.598515   -0.579446
      8          6           0       -1.459527    2.009795   -0.102612
      9          1           0       -0.790366   -2.560703   -0.567584
     10          1           0       -2.048304    3.752802   -0.392375
     11          1           0       -2.641141    0.441119   -1.022160
     12          1           0       -0.932386    0.414442   -1.402190
     13          1           0       -1.962438   -0.197670    1.401540
     14          1           0        0.408287   -0.103559    1.424390
     15          1           0        3.113271    0.124911   -1.376620
     16          1           0        3.839899    0.449282    0.245918
     17          1           0        2.382325   -0.873421    1.434310
     18          1           0        2.606602   -2.763089   -0.752670
     19          1           0        3.435612   -2.672056    0.670927
     20          1           0        1.034242    2.341515    1.249230
     21          7           0        3.072390   -2.166398   -0.095033
     22          7           0       -0.080664   -0.771691    0.841114
     23          8           0       -2.208770    2.887332   -0.754686
     24          8           0        0.495413   -1.701088   -1.107200
     25          8           0        1.568712    2.211857   -0.930066
     26          8           0        1.558905    1.542627    1.180780
     27          8           0       -3.506422   -1.678843    0.422816
     28          8           0       -0.709140    2.403558    0.806260
     29          8           0       -1.716038   -2.764226   -0.310900
 ---------------------------------------------------------------------

 SCF Done:  E(RHF) =  -943.990782022     A.U. after    2 cycles

 The electronic state is 1-A.
 Alpha  occ. eigenvalues --  -20.62509 -20.60297 -20.58893 -20.56205 -20.55836
 Alpha  occ. eigenvalues --  -20.54670 -20.52882 -15.56181 -15.51210 -11.43232
 Alpha  occ. eigenvalues --  -11.41140 -11.39762 -11.39741 -11.32635 -11.32237
 Alpha  occ. eigenvalues --  -11.28767 -11.28286  -1.58216  -1.56352  -1.55589
 Alpha  occ. eigenvalues --   -1.52661  -1.46379  -1.45133  -1.44173  -1.29300
 Alpha  occ. eigenvalues --   -1.23141  -1.11685  -1.08792  -1.00300  -0.94461
 Alpha  occ. eigenvalues --   -0.87123  -0.86464  -0.84393  -0.83654  -0.79021
 Alpha  occ. eigenvalues --   -0.77945  -0.74909  -0.73543  -0.72126  -0.71308
 Alpha  occ. eigenvalues --   -0.70417  -0.69513  -0.68274  -0.67548  -0.66151
 Alpha  occ. eigenvalues --   -0.65069  -0.63992  -0.63220  -0.62243  -0.61338
 Alpha  occ. eigenvalues --   -0.60334  -0.58423  -0.57614  -0.56223  -0.55852
 Alpha  occ. eigenvalues --   -0.54467  -0.49458  -0.48883  -0.48333  -0.47888
 Alpha  occ. eigenvalues --   -0.46564  -0.45959  -0.45357  -0.44256  -0.43430
 Alpha virt. eigenvalues --    0.02363   0.03296   0.03745   0.04040   0.04895
 Alpha virt. eigenvalues --    0.05373   0.05692   0.05915   0.07087   0.07704
 Alpha virt. eigenvalues --    0.08453   0.09174   0.09613   0.10303   0.10589

 Mulliken charges:
               1
     1  C   -2.256659
     2  C    0.744211
     3  C   -0.331485
     4  C    2.698183
     5  C   -0.935307
     6  C    2.251774
     7  C   -0.603360
     8  C    2.635313
     9  H    0.555544
    10  H    0.369685
    11  H    0.021442
    12  H    0.405166
    13  H    0.141431
    14  H    0.441173
    15  H    0.206024
    16  H    0.321409
    17  H    0.116769
    18  H    0.246044
    19  H    0.254607
    20  H    0.694056
    21  N    0.846020
    22  N    1.567038
    23  O   -1.386624
    24  O   -1.575291
    25  O   -1.451162
    26  O   -1.663559
    27  O   -1.383596
    28  O   -1.475211
    29  O   -1.453635
 Sum of Mulliken charges =  -0.00000

 Dipole moment (field-independent basis, Debye):
    X=              4.2693    Y=              1.7856    Z=              2.1948  Tot=              5.1217

 Test job not archived.
 1\1\GINC-SE092\SP\RHF\Aug-CC-pVDZ\C8H12N2O7\OHZDE\08-Apr-2025\0\\#t hf
  aug-cc-pvdz iop(5/13=1,5/36=2,99/5=2) pseudo=read geom=check guess=(r
 ead,tcheck) scf=(maxcycle=1)\\title\\0,1\C,0,2.30978,-1.0229,0.327479\
 C,0,0.820704,-1.25827,-0.0298022\C,0,2.90638,0.288198,-0.303681\C,0,2.
 01096,1.41756,-0.0831364\C,0,-1.46456,-0.46201,0.467496\C,0,-2.31587,-
 1.73702,0.205146\C,0,-1.68271,0.598521,-0.579446\C,0,-1.45952,2.0098,-
 0.102612\H,0,-0.790377,-2.5607,-0.567584\H,0,-2.04829,3.75281,-0.39237
 5\H,0,-2.64114,0.441129,-1.02216\H,0,-0.932385,0.414445,-1.40219\H,0,-

 Normal termination of Gaussian 16 at Tue Apr  8 20:11:06 2025.
