 Gaussian 16, Revision C.01,

 ----------------------------------------------------------------------
 #t hf aug-cc-pvdz symm=none int=(grid=ultrafine) guess=(read,tcheck) s
 table=(opt,rrhf)
 ----------------------------------------------------------------------
 -----
 title
 -----
 Symbolic Z-matrix:
 Charge =  0 Multiplicity = 1

 SCF Done:  E(RHF) =  -276.583506450     A.U. after   14 cycles
 Normal termination of Gaussian 16 at Tue Apr  8 21:22:27 2025.
 Gaussian 16:  ES64L-G16RevC.01  3-Jul-2019

 ----------------------------------------------------------------------
 #t hf aug-cc-pvdz iop(5/13=1,5/36=2,99/5=2) pseudo=read geom=check gue
 ss=(read,tcheck) scf=(maxcycle=1)
 ----------------------------------------------------------------------
 -----
 title
 -----
 Structure from the checkpoint file:  "ANI1ccx_370_conf94_mol1.chk"
 Charge =  0 Multiplicity = 1

                         Standard orientation:
 ---------------------------------------------------------------------
 Center     Atomic      Atomic             Coordinates (Angstroms)
 Number     Number       Type             X           Y           Z
 ---------------------------------------------------------------------
      1          6           0       -0.971226   -0.389112   -0.003131
      2          1           0       -2.005670   -0.805387    0.063777
      3          7           0       -0.824325    0.880342    0.002400
      4          7           0        0.587494    0.962184   -0.013462
      5          7           0        1.173119   -0.169180    0.024488
      6          8           0        0.159876   -1.071670   -0.017372
 ---------------------------------------------------------------------

 SCF Done:  E(RHF) =  -276.851440209     A.U. after    2 cycles

 The electronic state is 1-A.
 Alpha  occ. eigenvalues --  -20.68875 -15.66303 -15.62291 -15.57722 -11.39420
 Alpha  occ. eigenvalues --   -1.67500  -1.38103  -1.27108  -0.97332  -0.94802
 Alpha  occ. eigenvalues --   -0.80632  -0.75920  -0.68067  -0.63322  -0.58132
 Alpha  occ. eigenvalues --   -0.55503  -0.54637  -0.50947
 Alpha virt. eigenvalues --    0.03034   0.05123   0.07624   0.07864   0.08351
 Alpha virt. eigenvalues --    0.12746   0.13572   0.14097   0.15081   0.16043
 Alpha virt. eigenvalues --    0.17624   0.19167   0.19848   0.22383   0.23181

 Mulliken charges:
               1
     1  C    0.349343
     2  H    0.177503
     3  N    0.392267
     4  N   -0.830980
     5  N    1.160155
     6  O   -1.248288
 Sum of Mulliken charges =  -0.00000

 Dipole moment (field-independent basis, Debye):
    X=             -2.6264    Y=             -2.7882    Z=              0.0389  Tot=              3.8306

 Test job not archived.
 1\1\GINC-SE110\SP\RHF\Aug-CC-pVDZ\C1H1N3O1\OHZDE\08-Apr-2025\0\\#t hf
 aug-cc-pvdz iop(5/13=1,5/36=2,99/5=2) pseudo=read geom=check guess=(re
 ad,tcheck) scf=(maxcycle=1)\\title\\0,1\C,0,-0.971225,-0.38911,-0.0031
 3139\H,0,-2.00567,-0.805384,0.0637769\N,0,-0.824323,0.880343,0.0023998
 \N,0,0.587496,0.962183,-0.0134617\N,0,1.17312,-0.169181,0.0244885\O,0,
 0.159876,-1.07167,-0.0173718\\Version=ES64L-G16RevC.01\State=1-A\HF=-2
 76.8514402\RMSD=3.746e-02\Dipole=-1.0333143,-1.0969541,0.0152953\Quadr
 upole=1.5176556,-1.9591882,0.4415326,2.3314194,-0.1029528,-0.0472581\P

 Normal termination of Gaussian 16 at Tue Apr  8 21:22:29 2025.
