 Gaussian 16, Revision C.01,

 ----------------------------------------------------------------------
 #t hf aug-cc-pvdz symm=none int=(grid=ultrafine) guess=(read,tcheck) s
 table=(opt,rrhf)
 ----------------------------------------------------------------------
 -----
 title
 -----
 Symbolic Z-matrix:
 Charge =  0 Multiplicity = 1

 SCF Done:  E(RHF) =  -663.599975108     A.U. after   13 cycles
 Normal termination of Gaussian 16 at Tue Apr  8 19:27:07 2025.
 Gaussian 16:  ES64L-G16RevC.01  3-Jul-2019

 ----------------------------------------------------------------------
 #t hf aug-cc-pvdz iop(5/13=1,5/36=2,99/5=2) pseudo=read geom=check gue
 ss=(read,tcheck) scf=(maxcycle=1)
 ----------------------------------------------------------------------
 -----
 title
 -----
 Structure from the checkpoint file:  "ANI1ccx_1233_conf1_mol2.chk"
 Charge =  0 Multiplicity = 1

                         Standard orientation:
 ---------------------------------------------------------------------
 Center     Atomic      Atomic             Coordinates (Angstroms)
 Number     Number       Type             X           Y           Z
 ---------------------------------------------------------------------
      1          6           0        0.120852   -0.558032   -1.034370
      2          6           0        1.091040    0.665108   -0.939099
      3          6           0        0.480588    1.562190    0.121638
      4          6           0        0.028815    0.568678    1.179160
      5          6           0       -0.553763   -0.689872    0.413312
      6          6           0       -2.095150   -0.698727    0.334141
      7          1           0       -2.272270    1.094710   -0.540205
      8          1           0       -2.446450   -1.709180   -0.013697
      9          1           0       -2.465670   -0.507087    1.333930
     10          1           0        0.669946   -1.533450    1.587490
     11          1           0        1.963220    0.169276    1.505320
     12          1           0       -0.676479    0.999351    1.886660
     13          1           0       -0.639541    2.691300   -1.224980
     14          1           0        1.205159    2.309990    0.498073
     15          1           0        2.440430   -0.638740   -0.888352
     16          1           0        1.165210    1.053960   -1.946810
     17          1           0       -0.663723   -0.251347   -1.739570
     18          1           0        0.599080   -1.890860   -2.469950
     19          1           0        0.688355   -2.522140   -0.884195
     20          7           0        0.825356   -1.746350   -1.491280
     21          8           0        2.398190    0.249610   -0.457482
     22          8           0       -0.759035    2.144350   -0.430715
     23          8           0        1.115130    0.208549    2.014360
     24          8           0       -0.111475   -1.830090    1.105140
     25          8           0       -2.615190    0.210406   -0.620489
 ---------------------------------------------------------------------

 SCF Done:  E(RHF) =  -664.276705485     A.U. after    2 cycles

 The electronic state is 1-A.
 Alpha  occ. eigenvalues --  -20.58282 -20.56327 -20.56297 -20.54810 -20.52823
 Alpha  occ. eigenvalues --  -15.50199 -11.31741 -11.30241 -11.30203 -11.29888
 Alpha  occ. eigenvalues --  -11.28539 -11.27010  -1.48849  -1.46867  -1.45513
 Alpha  occ. eigenvalues --   -1.44408  -1.43455  -1.20017  -1.09848  -0.99454
 Alpha  occ. eigenvalues --   -0.95861  -0.90247  -0.82135  -0.79416  -0.74405
 Alpha  occ. eigenvalues --   -0.74138  -0.72567  -0.69528  -0.68774  -0.67697
 Alpha  occ. eigenvalues --   -0.66485  -0.64343  -0.61985  -0.61011  -0.58855
 Alpha  occ. eigenvalues --   -0.58261  -0.56796  -0.54880  -0.53672  -0.52887
 Alpha  occ. eigenvalues --   -0.51126  -0.48991  -0.48514  -0.46524  -0.45380
 Alpha  occ. eigenvalues --   -0.43924  -0.42865  -0.40523
 Alpha virt. eigenvalues --    0.02684   0.03090   0.04197   0.04572   0.05545
 Alpha virt. eigenvalues --    0.05683   0.05693   0.06200   0.06583   0.08553
 Alpha virt. eigenvalues --    0.09133   0.09683   0.09902   0.12187   0.12223

 Mulliken charges:
               1
     1  C   -1.837619
     2  C    1.293483
     3  C    1.153783
     4  C    1.029371
     5  C    0.754322
     6  C    1.332313
     7  H    0.502236
     8  H    0.216377
     9  H    0.151357
    10  H    0.228321
    11  H    0.442244
    12  H    0.000814
    13  H    0.336513
    14  H    0.180568
    15  H    0.464689
    16  H    0.046515
    17  H    0.046380
    18  H    0.381503
    19  H    0.366014
    20  N    0.444433
    21  O   -1.550420
    22  O   -1.469536
    23  O   -1.536847
    24  O   -1.727206
    25  O   -1.249606
 Sum of Mulliken charges =  -0.00000

 Dipole moment (field-independent basis, Debye):
    X=              1.2489    Y=              1.4393    Z=             -2.4125  Tot=              3.0743

 Test job not archived.
 1\1\GINC-SE108\SP\RHF\Aug-CC-pVDZ\C6H13N1O5\OHZDE\08-Apr-2025\0\\#t hf
  aug-cc-pvdz iop(5/13=1,5/36=2,99/5=2) pseudo=read geom=check guess=(r
 ead,tcheck) scf=(maxcycle=1)\\title\\0,1\C,0,0.120852,-0.558032,-1.034
 37\C,0,1.09104,0.665108,-0.939099\C,0,0.480589,1.56219,0.121638\C,0,0.
 0288153,0.568678,1.17916\C,0,-0.553763,-0.689872,0.413312\C,0,-2.09515
 ,-0.698727,0.334141\H,0,-2.27227,1.09471,-0.540205\H,0,-2.44645,-1.709
 18,-0.0136976\H,0,-2.46567,-0.507087,1.33393\H,0,0.669946,-1.53345,1.5
 8749\H,0,1.96322,0.169276,1.50532\H,0,-0.676479,0.999351,1.88666\H,0,-

 Normal termination of Gaussian 16 at Tue Apr  8 19:27:29 2025.
