 Gaussian 16, Revision C.01,

 ----------------------------------------------------------------------
 #t hf aug-cc-pvdz symm=none int=(grid=ultrafine) guess=(read,tcheck) s
 table=(opt,rrhf)
 ----------------------------------------------------------------------
 -----
 title
 -----
 Symbolic Z-matrix:
 Charge =  0 Multiplicity = 1

 SCF Done:  E(RHF) =  -311.841848437     A.U. after   16 cycles
 Normal termination of Gaussian 16 at Tue Apr  8 21:35:34 2025.
 Gaussian 16:  ES64L-G16RevC.01  3-Jul-2019

 ----------------------------------------------------------------------
 #t hf aug-cc-pvdz iop(5/13=1,5/36=2,99/5=2) pseudo=read geom=check gue
 ss=(read,tcheck) scf=(maxcycle=1)
 ----------------------------------------------------------------------
 -----
 title
 -----
 Structure from the checkpoint file:  "ANI1ccx_392_conf6_mol1.chk"
 Charge =  0 Multiplicity = 1

                         Standard orientation:
 ---------------------------------------------------------------------
 Center     Atomic      Atomic             Coordinates (Angstroms)
 Number     Number       Type             X           Y           Z
 ---------------------------------------------------------------------
      1          6           0       -0.613079   -0.027945   -0.002942
      2          1           0       -2.450848    0.862647    0.015153
      3          1           0       -2.535549   -0.858274    0.208036
      4          1           0        2.216711   -1.041431    0.009858
      5          7           0       -2.008728   -0.011862   -0.018698
      6          7           0        0.114691    1.112429   -0.002945
      7          7           0        1.371162    0.746830    0.000177
      8          7           0        1.340002   -0.562223    0.031956
      9          7           0        0.104040   -1.113071   -0.041260
 ---------------------------------------------------------------------

 SCF Done:  E(RHF) =  -312.155221694     A.U. after    2 cycles

 The electronic state is 1-A.
 Alpha  occ. eigenvalues --  -15.63378 -15.61767 -15.54969 -15.53820 -15.52452
 Alpha  occ. eigenvalues --  -11.34414  -1.49396  -1.27144  -1.25504  -1.16794
 Alpha  occ. eigenvalues --   -0.96927  -0.91090  -0.83912  -0.74168  -0.73034
 Alpha  occ. eigenvalues --   -0.71730  -0.63348  -0.55903  -0.55255  -0.52251
 Alpha  occ. eigenvalues --   -0.49485  -0.40704
 Alpha virt. eigenvalues --    0.02850   0.04558   0.05990   0.06696   0.09715
 Alpha virt. eigenvalues --    0.11643   0.11929   0.13191   0.13844   0.14256
 Alpha virt. eigenvalues --    0.15567   0.15881   0.17061   0.17273   0.20005

 Mulliken charges:
               1
     1  C   -1.092573
     2  H    0.057128
     3  H    0.110008
     4  H    0.067354
     5  N    0.498375
     6  N    0.146210
     7  N   -0.149061
     8  N    0.165655
     9  N    0.196903
 Sum of Mulliken charges =  -0.00000

 Dipole moment (field-independent basis, Debye):
    X=             -0.8028    Y=             -1.7558    Z=              0.4760  Tot=              1.9884

 Test job not archived.
 1\1\GINC-SE094\SP\RHF\Aug-CC-pVDZ\C1H3N5\OHZDE\08-Apr-2025\0\\#t hf au
 g-cc-pvdz iop(5/13=1,5/36=2,99/5=2) pseudo=read geom=check guess=(read
 ,tcheck) scf=(maxcycle=1)\\title\\0,1\C,0,-0.613081,-0.0279449,-0.0029
 4194\H,0,-2.45085,0.862647,0.0151533\H,0,-2.53555,-0.858274,0.208036\H
 ,0,2.21671,-1.04143,0.00985761\N,0,-2.00873,-0.0118615,-0.0186982\N,0,
 0.114689,1.11243,-0.00294544\N,0,1.37116,0.746831,0.00017664\N,0,1.34,
 -0.562222,0.0319564\N,0,0.104039,-1.11307,-0.0412602\\Version=ES64L-G1
 6RevC.01\State=1-A\HF=-312.1552217\RMSD=4.188e-02\Dipole=-0.3158324,-0

 Normal termination of Gaussian 16 at Tue Apr  8 21:35:37 2025.
