 Gaussian 16, Revision C.01,

 ----------------------------------------------------------------------
 #t hf aug-cc-pvdz symm=none int=(grid=ultrafine) guess=(read,tcheck) s
 table=(opt,rrhf)
 ----------------------------------------------------------------------
 -----
 title
 -----
 Symbolic Z-matrix:
 Charge =  0 Multiplicity = 1

 SCF Done:  E(RHF) =  -490.346043838     A.U. after   13 cycles
 Normal termination of Gaussian 16 at Tue Apr  8 21:51:02 2025.
 Gaussian 16:  ES64L-G16RevC.01  3-Jul-2019

 ----------------------------------------------------------------------
 #t hf aug-cc-pvdz iop(5/13=1,5/36=2,99/5=2) pseudo=read geom=check gue
 ss=(read,tcheck) scf=(maxcycle=1)
 ----------------------------------------------------------------------
 -----
 title
 -----
 Structure from the checkpoint file:  "ANI1ccx_703_conf2_mol1.chk"
 Charge =  0 Multiplicity = 1

                         Standard orientation:
 ---------------------------------------------------------------------
 Center     Atomic      Atomic             Coordinates (Angstroms)
 Number     Number       Type             X           Y           Z
 ---------------------------------------------------------------------
      1          6           0        0.004011   -0.443976    0.586764
      2          6           0        1.122520    0.383372    0.006385
      3          6           0       -1.271380    0.090085   -0.028337
      4          1           0       -0.552755   -1.974480   -0.278844
      5          1           0       -0.008684   -0.358096    1.664520
      6          1           0        1.917100   -1.234210   -0.464390
      7          1           0       -0.563207    1.756440    0.202574
      8          8           0        0.237600   -1.791750    0.224489
      9          8           0        2.179870   -0.314250   -0.408580
     10          8           0        1.165590    1.571610    0.032010
     11          8           0       -1.476040    1.408250    0.015706
     12          8           0       -2.097440   -0.669678   -0.427717
 ---------------------------------------------------------------------

 SCF Done:  E(RHF) =  -490.825950653     A.U. after    2 cycles

 The electronic state is 1-A.
 Alpha  occ. eigenvalues --  -20.62645 -20.61953 -20.61440 -20.58415 -20.57326
 Alpha  occ. eigenvalues --  -11.43671 -11.42935 -11.36932  -1.60274  -1.57741
 Alpha  occ. eigenvalues --   -1.53456  -1.50322  -1.49013  -1.08920  -0.88920
 Alpha  occ. eigenvalues --   -0.86281  -0.82388  -0.80550  -0.74303  -0.70138
 Alpha  occ. eigenvalues --   -0.68843  -0.67398  -0.66014  -0.64110  -0.60935
 Alpha  occ. eigenvalues --   -0.58904  -0.55132  -0.51745  -0.50302  -0.48679
 Alpha  occ. eigenvalues --   -0.47554
 Alpha virt. eigenvalues --    0.02949   0.03850   0.05566   0.05680   0.08610
 Alpha virt. eigenvalues --    0.08983   0.09795   0.10694   0.11031   0.11519
 Alpha virt. eigenvalues --    0.13901   0.14427   0.14620   0.14764   0.16308

 Mulliken charges:
               1
     1  C    0.759088
     2  C    2.116028
     3  C    2.024066
     4  H    0.302232
     5  H    0.292949
     6  H    0.375365
     7  H    0.517705
     8  O   -1.321737
     9  O   -1.253359
    10  O   -1.291190
    11  O   -1.318632
    12  O   -1.202516
 Sum of Mulliken charges =  -0.00000

 Dipole moment (field-independent basis, Debye):
    X=              1.1536    Y=             -1.8049    Z=              1.3251  Tot=              2.5188

 Test job not archived.
 1\1\GINC-SE331\SP\RHF\Aug-CC-pVDZ\C3H4O5\OHZDE\08-Apr-2025\0\\#t hf au
 g-cc-pvdz iop(5/13=1,5/36=2,99/5=2) pseudo=read geom=check guess=(read
 ,tcheck) scf=(maxcycle=1)\\title\\0,1\C,0,0.00401155,-0.443976,0.58676
 4\C,0,1.12252,0.383372,0.00638463\C,0,-1.27138,0.0900852,-0.0283371\H,
 0,-0.552754,-1.97448,-0.278844\H,0,-0.00868347,-0.358096,1.66452\H,0,1
 .9171,-1.23421,-0.46439\H,0,-0.563207,1.75644,0.202574\O,0,0.237601,-1
 .79175,0.224489\O,0,2.17987,-0.31425,-0.40858\O,0,1.16559,1.57161,0.03
 201\O,0,-1.47604,1.40825,0.0157062\O,0,-2.09744,-0.669678,-0.427717\\V

 Normal termination of Gaussian 16 at Tue Apr  8 21:51:07 2025.
