 Gaussian 16, Revision C.01,

 ----------------------------------------------------------------------
 #t hf aug-cc-pvdz symm=none int=(grid=ultrafine) guess=(read,tcheck) s
 table=(opt,rrhf)
 ----------------------------------------------------------------------
 -----
 title
 -----
 Symbolic Z-matrix:
 Charge =  0 Multiplicity = 1

 SCF Done:  E(RHF) =  -672.935672851     A.U. after   17 cycles
 Normal termination of Gaussian 16 at Tue Apr  8 19:28:20 2025.
 Gaussian 16:  ES64L-G16RevC.01  3-Jul-2019

 ----------------------------------------------------------------------
 #t hf aug-cc-pvdz iop(5/13=1,5/36=2,99/5=2) pseudo=read geom=check gue
 ss=(read,tcheck) scf=(maxcycle=1)
 ----------------------------------------------------------------------
 -----
 title
 -----
 Structure from the checkpoint file:  "ANI1ccx_1321_conf5_mol2.chk"
 Charge =  0 Multiplicity = 1

                         Standard orientation:
 ---------------------------------------------------------------------
 Center     Atomic      Atomic             Coordinates (Angstroms)
 Number     Number       Type             X           Y           Z
 ---------------------------------------------------------------------
      1          6           0        1.250181   -0.848915    0.117983
      2          6           0        0.417617   -2.042050    0.469900
      3          6           0       -0.871002   -2.145220   -0.354364
      4          6           0       -1.555859   -0.829044   -0.209435
      5          6           0       -0.882941    0.406206    0.034250
      6          6           0        0.594518    0.476098    0.071488
      7          1           0        1.266631    3.423840    0.037053
      8          1           0       -0.667051   -2.398670   -1.385510
      9          1           0       -1.525699   -2.916690    0.031021
     10          1           0        1.036141   -2.909510    0.354364
     11          1           0        2.910361    0.775843   -0.233339
     12          1           0        0.213112   -1.980750    1.543870
     13          7           0        2.501041   -1.074150   -0.030446
     14          7           0       -2.835229   -0.584676   -0.121690
     15          7           0       -1.759349    1.348320    0.169296
     16          7           0        1.324901    1.550470    0.023246
     17          8           0       -2.949689    0.764718    0.077613
     18          8           0        3.391701   -0.074804   -0.171905
     19          8           0        0.611969    2.713050   -0.081863
 ---------------------------------------------------------------------

 SCF Done:  E(RHF) =  -673.598611395     A.U. after    2 cycles

 The electronic state is 1-A.
 Alpha  occ. eigenvalues --  -20.68474 -20.62999 -20.59531 -15.61973 -15.61796
 Alpha  occ. eigenvalues --  -15.60342 -15.58993 -11.34646 -11.31902 -11.31836
 Alpha  occ. eigenvalues --  -11.30802 -11.28333 -11.27274  -1.65052  -1.55629
 Alpha  occ. eigenvalues --   -1.53327  -1.26385  -1.24698  -1.21792  -1.19255
 Alpha  occ. eigenvalues --   -1.09593  -0.99336  -0.94451  -0.89739  -0.86361
 Alpha  occ. eigenvalues --   -0.83215  -0.78857  -0.75178  -0.73523  -0.72253
 Alpha  occ. eigenvalues --   -0.69714  -0.68877  -0.66964  -0.64215  -0.62826
 Alpha  occ. eigenvalues --   -0.61696  -0.58708  -0.57542  -0.56781  -0.55650
 Alpha  occ. eigenvalues --   -0.55006  -0.52584  -0.50677  -0.47688  -0.47269
 Alpha  occ. eigenvalues --   -0.43501  -0.39776
 Alpha virt. eigenvalues --    0.00340   0.02929   0.03777   0.03882   0.04667
 Alpha virt. eigenvalues --    0.05172   0.06704   0.07758   0.08905   0.10315
 Alpha virt. eigenvalues --    0.10694   0.11377   0.11764   0.12561   0.12968

 Mulliken charges:
               1
     1  C   -1.022044
     2  C   -0.061339
     3  C   -0.012384
     4  C   -0.706576
     5  C   -0.832742
     6  C   -1.022476
     7  H    0.322845
     8  H    0.194027
     9  H    0.200164
    10  H    0.118929
    11  H    0.468978
    12  H    0.228522
    13  N    1.802171
    14  N    1.404263
    15  N    1.469707
    16  N    1.774786
    17  O   -1.584451
    18  O   -1.399876
    19  O   -1.342504
 Sum of Mulliken charges =   0.00000

 Dipole moment (field-independent basis, Debye):
    X=              0.0832    Y=             -0.4210    Z=              0.1420  Tot=              0.4521

 Test job not archived.
 1\1\GINC-SE365\SP\RHF\Aug-CC-pVDZ\C6H6N4O3\OHZDE\08-Apr-2025\0\\#t hf
 aug-cc-pvdz iop(5/13=1,5/36=2,99/5=2) pseudo=read geom=check guess=(re
 ad,tcheck) scf=(maxcycle=1)\\title\\0,1\C,0,1.25018,-0.848915,0.117983
 \C,0,0.417616,-2.04205,0.4699\C,0,-0.871003,-2.14522,-0.354364\C,0,-1.
 55586,-0.829044,-0.209435\C,0,-0.882942,0.406206,0.0342504\C,0,0.59451
 7,0.476098,0.0714883\H,0,1.26663,3.42384,0.0370527\H,0,-0.667052,-2.39
 867,-1.38551\H,0,-1.5257,-2.91669,0.0310212\H,0,1.03614,-2.90951,0.354
 364\H,0,2.91036,0.775843,-0.233339\H,0,0.213111,-1.98075,1.54387\N,0,2

 Normal termination of Gaussian 16 at Tue Apr  8 19:28:31 2025.
