 Gaussian 16, Revision C.01,

 ----------------------------------------------------------------------
 #t hf aug-cc-pvdz symm=none int=(grid=ultrafine) guess=(read,tcheck) s
 table=(opt,rrhf)
 ----------------------------------------------------------------------
 -----
 title
 -----
 Symbolic Z-matrix:
 Charge =  0 Multiplicity = 1

 SCF Done:  E(RHF) =  -456.253573328     A.U. after   11 cycles
 Normal termination of Gaussian 16 at Tue Apr  8 21:07:44 2025.
 Gaussian 16:  ES64L-G16RevC.01  3-Jul-2019

 ----------------------------------------------------------------------
 #t hf aug-cc-pvdz iop(5/13=1,5/36=2,99/5=2) pseudo=read geom=check gue
 ss=(read,tcheck) scf=(maxcycle=1)
 ----------------------------------------------------------------------
 -----
 title
 -----
 Structure from the checkpoint file:  "ANI1ccx_1844_conf210_mol1.chk"
 Charge =  0 Multiplicity = 1

                         Standard orientation:
 ---------------------------------------------------------------------
 Center     Atomic      Atomic             Coordinates (Angstroms)
 Number     Number       Type             X           Y           Z
 ---------------------------------------------------------------------
      1          1           0        2.411882   -0.360783    1.612560
      2          1           0        0.300759   -2.033688   -0.602589
      3          1           0        1.515148   -3.068470   -0.136222
      4          1           0       -2.025215    0.796845    0.233132
      5          1           0       -2.711642    0.269925    1.598250
      6          1           0       -1.875873   -1.271240    0.322093
      7          1           0        2.027865   -0.915823    0.186090
      8          1           0       -1.966477   -2.309131   -0.829297
      9          1           0        1.844114    2.654792   -0.729484
     10          1           0        1.825022    1.239711    0.018382
     11          1           0       -0.188231    2.044590   -0.383050
     12          1           0       -1.511328    2.951612   -0.461504
     13          8           0       -2.694391    0.118090    0.651066
     14          8           0        1.429007    2.189029    0.027848
     15          8           0        1.310992   -2.178902   -0.619879
     16          8           0       -1.390928   -2.054587   -0.101973
     17          8           0        2.511670   -0.141017    0.652917
     18          8           0       -1.122103    2.067594   -0.713524
 ---------------------------------------------------------------------

 SCF Done:  E(RHF) =  -456.725639473     A.U. after    2 cycles

 The electronic state is 1-A.
 Alpha  occ. eigenvalues --  -20.56359 -20.56057 -20.54852 -20.54816 -20.54781
 Alpha  occ. eigenvalues --  -20.54605  -1.44333  -1.43167  -1.42659  -1.41517
 Alpha  occ. eigenvalues --   -1.40824  -1.39892  -0.71544  -0.70562  -0.70144
 Alpha  occ. eigenvalues --   -0.69966  -0.69374  -0.69117  -0.61379  -0.60054
 Alpha  occ. eigenvalues --   -0.58641  -0.56354  -0.54714  -0.53876  -0.49450
 Alpha  occ. eigenvalues --   -0.49012  -0.48854  -0.48527  -0.48464  -0.47493
 Alpha virt. eigenvalues --    0.03237   0.04001   0.04670   0.04932   0.06342
 Alpha virt. eigenvalues --    0.07019   0.08414   0.09205   0.09735   0.10656
 Alpha virt. eigenvalues --    0.11066   0.11591   0.16642   0.18638   0.19267

 Mulliken charges:
               1
     1  H    0.402411
     2  H    0.741961
     3  H    0.420475
     4  H    0.772769
     5  H    0.342429
     6  H    0.760829
     7  H    0.792231
     8  H    0.367661
     9  H    0.322634
    10  H    0.798860
    11  H    0.762124
    12  H    0.350511
    13  O   -1.133212
    14  O   -1.098939
    15  O   -1.185745
    16  O   -1.140403
    17  O   -1.200497
    18  O   -1.076101
 Sum of Mulliken charges =  -0.00000

 Dipole moment (field-independent basis, Debye):
    X=             -0.7532    Y=             -0.0867    Z=              1.6857  Tot=              1.8483

 Test job not archived.
 1\1\GINC-SE038\SP\RHF\Aug-CC-pVDZ\H12O6\OHZDE\08-Apr-2025\0\\#t hf aug
 -cc-pvdz iop(5/13=1,5/36=2,99/5=2) pseudo=read geom=check guess=(read,
 tcheck) scf=(maxcycle=1)\\title\\0,1\H,0,2.41188,-0.360798,1.61256\H,0
 ,0.300748,-2.03369,-0.602589\H,0,1.51513,-3.06848,-0.136222\H,0,-2.025
 21,0.796856,0.233132\H,0,-2.71164,0.26994,1.59825\H,0,-1.87588,-1.2712
 3,0.322093\H,0,2.02786,-0.915836,0.18609\H,0,-1.96649,-2.30912,-0.8292
 97\H,0,1.84413,2.65478,-0.729484\H,0,1.82503,1.2397,0.0183821\H,0,-0.1
 88219,2.04459,-0.38305\H,0,-1.51131,2.95162,-0.461504\O,0,-2.69439,0.1

 Normal termination of Gaussian 16 at Tue Apr  8 21:07:49 2025.
