 Gaussian 16, Revision C.01,

 ----------------------------------------------------------------------
 #t hf aug-cc-pvdz symm=none int=(grid=ultrafine) guess=(read,tcheck) s
 table=(opt,rrhf)
 ----------------------------------------------------------------------
 -----
 title
 -----
 Symbolic Z-matrix:
 Charge =  0 Multiplicity = 1

 SCF Done:  E(RHF) =  -464.367283860     A.U. after   15 cycles
 Normal termination of Gaussian 16 at Tue Apr  8 21:42:15 2025.
 Gaussian 16:  ES64L-G16RevC.01  3-Jul-2019

 ----------------------------------------------------------------------
 #t hf aug-cc-pvdz iop(5/13=1,5/36=2,99/5=2) pseudo=read geom=check gue
 ss=(read,tcheck) scf=(maxcycle=1)
 ----------------------------------------------------------------------
 -----
 title
 -----
 Structure from the checkpoint file:  "ANI1ccx_474_conf23_mol1.chk"
 Charge =  0 Multiplicity = 1

                         Standard orientation:
 ---------------------------------------------------------------------
 Center     Atomic      Atomic             Coordinates (Angstroms)
 Number     Number       Type             X           Y           Z
 ---------------------------------------------------------------------
      1          6           0        1.364122   -0.260279    0.220955
      2          6           0       -0.485996    1.395588    0.134460
      3          1           0        2.587880    0.503119   -1.104930
      4          7           0        0.712154    1.027351   -0.060023
      5          7           0       -1.777537   -0.878333   -0.482835
      6          7           0       -2.331255   -1.745516   -0.119514
      7          8           0        2.498162   -0.343344   -0.552720
      8          8           0       -1.468373    2.013516    0.148270
      9          8           0        0.960188   -1.187609    0.855582
 ---------------------------------------------------------------------

 SCF Done:  E(RHF) =  -464.802269329     A.U. after    2 cycles

 The electronic state is 1-A.
 Alpha  occ. eigenvalues --  -20.65939 -20.62727 -20.57068 -15.62997 -15.62609
 Alpha  occ. eigenvalues --  -15.57636 -11.47747 -11.47345  -1.60300  -1.56219
 Alpha  occ. eigenvalues --   -1.51012  -1.48341  -1.28688  -0.95455  -0.83470
 Alpha  occ. eigenvalues --   -0.82170  -0.78289  -0.72525  -0.71649  -0.69147
 Alpha  occ. eigenvalues --   -0.68647  -0.68475  -0.66914  -0.64857  -0.61568
 Alpha  occ. eigenvalues --   -0.56603  -0.51711  -0.48975  -0.48384
 Alpha virt. eigenvalues --    0.03083   0.06488   0.07440   0.08481   0.08849
 Alpha virt. eigenvalues --    0.09062   0.09407   0.10009   0.10772   0.11368
 Alpha virt. eigenvalues --    0.11535   0.12807   0.13428   0.16720   0.17675

 Mulliken charges:
               1
     1  C    1.641425
     2  C    0.222409
     3  H    0.483566
     4  N    0.605870
     5  N    0.077008
     6  N   -0.136185
     7  O   -1.167873
     8  O   -0.737063
     9  O   -0.989158
 Sum of Mulliken charges =   0.00000

 Dipole moment (field-independent basis, Debye):
    X=             -0.1902    Y=              2.1231    Z=             -1.3871  Tot=              2.5432

 Test job not archived.
 1\1\GINC-SE179\SP\RHF\Aug-CC-pVDZ\C2H1N3O3\OHZDE\08-Apr-2025\0\\#t hf
 aug-cc-pvdz iop(5/13=1,5/36=2,99/5=2) pseudo=read geom=check guess=(re
 ad,tcheck) scf=(maxcycle=1)\\title\\0,1\C,0,1.36412,-0.260281,0.220955
 \C,0,-0.485994,1.39559,0.13446\H,0,2.58788,0.503114,-1.10493\N,0,0.712
 155,1.02735,-0.0600233\N,0,-1.77754,-0.878328,-0.482835\N,0,-2.33126,-
 1.74551,-0.119514\O,0,2.49816,-0.343349,-0.55272\O,0,-1.46837,2.01352,
 0.14827\O,0,0.960184,-1.18761,0.855582\\Version=ES64L-G16RevC.01\State
 =1-A\HF=-464.8022693\RMSD=3.070e-02\Dipole=-0.0748201,0.8352838,-0.545

 Normal termination of Gaussian 16 at Tue Apr  8 21:42:19 2025.
