 Gaussian 16, Revision C.01,

 ----------------------------------------------------------------------
 #t hf aug-cc-pvdz symm=none int=(grid=ultrafine) guess=(read,tcheck) s
 table=(opt,rrhf)
 ----------------------------------------------------------------------
 -----
 title
 -----
 Symbolic Z-matrix:
 Charge =  0 Multiplicity = 1

 SCF Done:  E(RHF) =  -404.745478774     A.U. after   16 cycles
 Normal termination of Gaussian 16 at Tue Apr  8 21:45:02 2025.
 Gaussian 16:  ES64L-G16RevC.01  3-Jul-2019

 ----------------------------------------------------------------------
 #t hf aug-cc-pvdz iop(5/13=1,5/36=2,99/5=2) pseudo=read geom=check gue
 ss=(read,tcheck) scf=(maxcycle=1)
 ----------------------------------------------------------------------
 -----
 title
 -----
 Structure from the checkpoint file:  "ANI1ccx_523_conf3_mol1.chk"
 Charge =  0 Multiplicity = 1

                         Standard orientation:
 ---------------------------------------------------------------------
 Center     Atomic      Atomic             Coordinates (Angstroms)
 Number     Number       Type             X           Y           Z
 ---------------------------------------------------------------------
      1          6           0       -1.102519   -0.272625   -0.013022
      2          6           0        1.105131   -0.275087    0.054234
      3          1           0       -3.099189   -0.234108    0.324441
      4          1           0       -2.600040   -1.828359    0.365111
      5          1           0        3.156350   -0.475513   -0.054067
      6          1           0        2.258960   -1.878150    0.196638
      7          7           0       -2.313900   -0.850987   -0.040446
      8          7           0       -1.110429    1.108561    0.071666
      9          7           0        0.071039    1.745370   -0.060578
     10          7           0        1.147081    1.089290    0.006204
     11          7           0        2.255610   -0.923372    0.069806
     12          7           0       -0.011080   -1.068519   -0.200851
 ---------------------------------------------------------------------

 SCF Done:  E(RHF) =  -405.144055407     A.U. after    2 cycles

 The electronic state is 1-A.
 Alpha  occ. eigenvalues --  -15.62135 -15.54896 -15.54878 -15.53847 -15.52493
 Alpha  occ. eigenvalues --  -15.52267 -11.38924 -11.38000  -1.42223  -1.30647
 Alpha  occ. eigenvalues --   -1.28615  -1.19048  -1.17897  -1.01228  -0.93702
 Alpha  occ. eigenvalues --   -0.84976  -0.82464  -0.75768  -0.71845  -0.67862
 Alpha  occ. eigenvalues --   -0.67489  -0.65134  -0.59042  -0.58231  -0.55715
 Alpha  occ. eigenvalues --   -0.48996  -0.46424  -0.44490  -0.41614
 Alpha virt. eigenvalues --    0.02344   0.03147   0.03551   0.05021   0.06360
 Alpha virt. eigenvalues --    0.09021   0.09991   0.10951   0.11649   0.12019
 Alpha virt. eigenvalues --    0.12502   0.13579   0.14142   0.16681   0.16776

 Mulliken charges:
               1
     1  C   -1.038353
     2  C   -1.027783
     3  H    0.210899
     4  H    0.173726
     5  H    0.089943
     6  H    0.110936
     7  N    0.576876
     8  N    0.141616
     9  N   -0.343005
    10  N    0.066942
    11  N    0.714438
    12  N    0.323765
 Sum of Mulliken charges =  -0.00000

 Dipole moment (field-independent basis, Debye):
    X=              0.6679    Y=             -4.6644    Z=              1.6668  Tot=              4.9981

 Test job not archived.
 1\1\GINC-SE461\SP\RHF\Aug-CC-pVDZ\C2H4N6\OHZDE\08-Apr-2025\0\\#t hf au
 g-cc-pvdz iop(5/13=1,5/36=2,99/5=2) pseudo=read geom=check guess=(read
 ,tcheck) scf=(maxcycle=1)\\title\\0,1\C,0,-1.10252,-0.272626,-0.013021
 7\C,0,1.10513,-0.275087,0.0542336\H,0,-3.09919,-0.234109,0.324441\H,0,
 -2.60004,-1.82836,0.365111\H,0,3.15635,-0.475513,-0.054067\H,0,2.25896
 ,-1.87815,0.196638\N,0,-2.3139,-0.850988,-0.0404459\N,0,-1.11043,1.108
 56,0.0716657\N,0,0.0710381,1.74537,-0.0605781\N,0,1.14708,1.08929,0.00
 620353\N,0,2.25561,-0.923372,0.0698063\N,0,-0.0110805,-1.06852,-0.2008

 Normal termination of Gaussian 16 at Tue Apr  8 21:45:07 2025.
