 Gaussian 16, Revision C.01,

 ----------------------------------------------------------------------
 #t hf aug-cc-pvdz symm=none int=(grid=ultrafine) guess=(read,tcheck) s
 table=(opt,rrhf)
 ----------------------------------------------------------------------
 -----
 title
 -----
 Symbolic Z-matrix:
 Charge =  0 Multiplicity = 1

 SCF Done:  E(RHF) =  -460.260633804     A.U. after   16 cycles
 Normal termination of Gaussian 16 at Tue Apr  8 21:27:39 2025.
 Gaussian 16:  ES64L-G16RevC.01  3-Jul-2019

 ----------------------------------------------------------------------
 #t hf aug-cc-pvdz iop(5/13=1,5/36=2,99/5=2) pseudo=read geom=check gue
 ss=(read,tcheck) scf=(maxcycle=1)
 ----------------------------------------------------------------------
 -----
 title
 -----
 Structure from the checkpoint file:  "ANI1ccx_373_conf3_mol1.chk"
 Charge =  0 Multiplicity = 1

                         Standard orientation:
 ---------------------------------------------------------------------
 Center     Atomic      Atomic             Coordinates (Angstroms)
 Number     Number       Type             X           Y           Z
 ---------------------------------------------------------------------
      1          6           0        0.075858    0.001266   -0.116739
      2          1           0        2.793050   -1.149560   -0.073481
      3          7           0       -1.399930   -0.017134   -0.024265
      4          7           0        0.770261    1.135019    0.123028
      5          7           0        2.011020    0.722556    0.143704
      6          7           0        1.950720   -0.553497   -0.041273
      7          7           0        0.716769   -1.123141   -0.178697
      8          8           0       -1.970640   -1.086121    0.231665
      9          8           0       -1.978120    1.085539   -0.154611
 ---------------------------------------------------------------------

 SCF Done:  E(RHF) =  -460.705760241     A.U. after    2 cycles

 The electronic state is 1-A.
 Alpha  occ. eigenvalues --  -20.62012 -20.61516 -15.81960 -15.69593 -15.66825
 Alpha  occ. eigenvalues --  -15.63446 -15.60576 -11.40349  -1.67225  -1.56096
 Alpha  occ. eigenvalues --   -1.51190  -1.34101  -1.28240  -1.10466  -1.02392
 Alpha  occ. eigenvalues --   -0.93769  -0.87369  -0.80302  -0.79482  -0.75760
 Alpha  occ. eigenvalues --   -0.74596  -0.69486  -0.62556  -0.58843  -0.54618
 Alpha  occ. eigenvalues --   -0.52542  -0.52242  -0.50412  -0.46099
 Alpha virt. eigenvalues --   -0.00296   0.01703   0.02938   0.07072   0.09649
 Alpha virt. eigenvalues --    0.10397   0.11098   0.11313   0.12332   0.13143
 Alpha virt. eigenvalues --    0.13582   0.14927   0.15138   0.16539   0.17983

 Mulliken charges:
               1
     1  C   -0.619429
     2  H    0.102180
     3  N    2.447702
     4  N    0.347148
     5  N   -0.310906
     6  N    0.121112
     7  N    0.455920
     8  O   -1.261736
     9  O   -1.281989
 Sum of Mulliken charges =  -0.00000

 Dipole moment (field-independent basis, Debye):
    X=              4.5040    Y=             -2.1122    Z=             -0.4232  Tot=              4.9926

 Test job not archived.
 1\1\GINC-SE041\SP\RHF\Aug-CC-pVDZ\C1H1N5O2\OHZDE\08-Apr-2025\0\\#t hf
 aug-cc-pvdz iop(5/13=1,5/36=2,99/5=2) pseudo=read geom=check guess=(re
 ad,tcheck) scf=(maxcycle=1)\\title\\0,1\C,0,0.0758582,0.0012662,-0.116
 739\H,0,2.79305,-1.14956,-0.0734815\N,0,-1.39993,-0.0171335,-0.0242646
 \N,0,0.770261,1.13502,0.123028\N,0,2.01102,0.722556,0.143704\N,0,1.950
 72,-0.553497,-0.041273\N,0,0.716769,-1.12314,-0.178697\O,0,-1.97064,-1
 .08612,0.231665\O,0,-1.97812,1.08554,-0.154611\\Version=ES64L-G16RevC.
 01\State=1-A\HF=-460.7057602\RMSD=4.055e-02\Dipole=1.772002,-0.8310188

 Normal termination of Gaussian 16 at Tue Apr  8 21:27:43 2025.
