 Gaussian 16, Revision C.01,

 ----------------------------------------------------------------------
 #t hf aug-cc-pvdz symm=none int=(grid=ultrafine) guess=(read,tcheck) s
 table=(opt,rrhf)
 ----------------------------------------------------------------------
 -----
 title
 -----
 Symbolic Z-matrix:
 Charge =  0 Multiplicity = 1

 SCF Done:  E(RHF) =  -560.063930419     A.U. after   14 cycles
 Normal termination of Gaussian 16 at Tue Apr  8 21:43:00 2025.
 Gaussian 16:  ES64L-G16RevC.01  3-Jul-2019

 ----------------------------------------------------------------------
 #t hf aug-cc-pvdz iop(5/13=1,5/36=2,99/5=2) pseudo=read geom=check gue
 ss=(read,tcheck) scf=(maxcycle=1)
 ----------------------------------------------------------------------
 -----
 title
 -----
 Structure from the checkpoint file:  "ANI1ccx_485_conf1_mol2.chk"
 Charge =  0 Multiplicity = 1

                         Standard orientation:
 ---------------------------------------------------------------------
 Center     Atomic      Atomic             Coordinates (Angstroms)
 Number     Number       Type             X           Y           Z
 ---------------------------------------------------------------------
      1          6           0       -1.112029   -0.686063   -0.171065
      2          6           0        1.107241   -0.709750    0.152885
      3          1           0        1.770531    2.128371    0.240685
      4          1           0       -1.730829    1.322431    1.126900
      5          7           0        0.644402    0.626081    0.303838
      6          7           0       -0.633244    0.651363   -0.290144
      7          8           0        1.497841    1.482201   -0.423723
      8          8           0       -1.474299    1.610061    0.231268
      9          8           0       -2.254529   -1.052449   -0.083465
     10          8           0       -0.012098   -1.468229   -0.061630
     11          8           0        2.231951   -1.073839    0.168254
 ---------------------------------------------------------------------

 SCF Done:  E(RHF) =  -560.602418968     A.U. after    2 cycles

 The electronic state is 1-A.
 Alpha  occ. eigenvalues --  -20.68127 -20.64915 -20.64444 -20.59625 -20.59436
 Alpha  occ. eigenvalues --  -15.67223 -15.66608 -11.48171 -11.47970  -1.66573
 Alpha  occ. eigenvalues --   -1.58325  -1.56408  -1.53873  -1.51771  -1.32185
 Alpha  occ. eigenvalues --   -1.13136  -0.95506  -0.94736  -0.84288  -0.81691
 Alpha  occ. eigenvalues --   -0.77539  -0.72727  -0.72344  -0.70788  -0.68705
 Alpha  occ. eigenvalues --   -0.66925  -0.60903  -0.59264  -0.57587  -0.56353
 Alpha  occ. eigenvalues --   -0.52236  -0.52020  -0.50244  -0.48167
 Alpha virt. eigenvalues --    0.02711   0.04222   0.07753   0.08256   0.09066
 Alpha virt. eigenvalues --    0.09281   0.10610   0.10680   0.11080   0.11742
 Alpha virt. eigenvalues --    0.11865   0.14645   0.15935   0.16610   0.17831

 Mulliken charges:
               1
     1  C    1.574372
     2  C    1.629574
     3  H    0.319536
     4  H    0.299027
     5  N    0.892178
     6  N    1.092811
     7  O   -1.124993
     8  O   -1.230389
     9  O   -1.142811
    10  O   -1.204862
    11  O   -1.104443
 Sum of Mulliken charges =  -0.00000

 Dipole moment (field-independent basis, Debye):
    X=              0.3218    Y=              2.3544    Z=              2.3415  Tot=              3.3361

 Test job not archived.
 1\1\GINC-SE044\SP\RHF\Aug-CC-pVDZ\C2H2N2O5\OHZDE\08-Apr-2025\0\\#t hf
 aug-cc-pvdz iop(5/13=1,5/36=2,99/5=2) pseudo=read geom=check guess=(re
 ad,tcheck) scf=(maxcycle=1)\\title\\0,1\C,0,-1.11203,-0.686064,-0.1710
 65\C,0,1.10724,-0.709751,0.152885\H,0,1.77053,2.12837,0.240685\H,0,-1.
 73083,1.32243,1.1269\N,0,0.644401,0.62608,0.303838\N,0,-0.633245,0.651
 362,-0.290144\O,0,1.49784,1.4822,-0.423723\O,0,-1.4743,1.61006,0.23126
 8\O,0,-2.25453,-1.05245,-0.0834652\O,0,-0.0120985,-1.46823,-0.06163\O,
 0,2.23195,-1.07384,0.168254\\Version=ES64L-G16RevC.01\State=1-A\HF=-56

 Normal termination of Gaussian 16 at Tue Apr  8 21:43:05 2025.
