 Gaussian 16, Revision C.01,

 ----------------------------------------------------------------------
 #t hf aug-cc-pvdz symm=none int=(grid=ultrafine) guess=(read,tcheck) s
 table=(opt,rrhf)
 ----------------------------------------------------------------------
 -----
 title
 -----
 Symbolic Z-matrix:
 Charge =  0 Multiplicity = 1

 SCF Done:  E(RHF) =  -982.113747602     A.U. after   14 cycles
 Normal termination of Gaussian 16 at Tue Apr  8 20:48:09 2025.
 Gaussian 16:  ES64L-G16RevC.01  3-Jul-2019

 ----------------------------------------------------------------------
 #t hf aug-cc-pvdz iop(5/13=1,5/36=2,99/5=2) pseudo=read geom=check gue
 ss=(read,tcheck) scf=(maxcycle=1)
 ----------------------------------------------------------------------
 -----
 title
 -----
 Structure from the checkpoint file:  "ANI1ccx_1743_conf11_mol2.chk"
 Charge =  0 Multiplicity = 1

                         Standard orientation:
 ---------------------------------------------------------------------
 Center     Atomic      Atomic             Coordinates (Angstroms)
 Number     Number       Type             X           Y           Z
 ---------------------------------------------------------------------
      1          6           0        1.316630   -1.725200    0.138644
      2          6           0       -0.005434   -1.085760   -0.328938
      3          6           0        2.502680   -1.407001   -0.737676
      4          6           0        2.871770    0.068317   -0.986495
      5          6           0        3.191671    0.719831    0.341210
      6          6           0       -1.458579    0.890122   -0.247433
      7          6           0       -1.214349    2.390111   -0.379183
      8          6           0       -2.578059    0.605737    0.812508
      9          6           0       -3.219430   -0.759312    0.602818
     10          1           0        0.218071    3.642370   -0.379304
     11          1           0       -4.192910   -1.700418   -0.624557
     12          1           0       -2.177129    0.580246    1.827160
     13          1           0       -3.399079    1.335062    0.703222
     14          1           0       -1.804029    0.547665   -1.254390
     15          1           0        0.313567    0.577616    0.875355
     16          1           0        4.587271    1.085278    1.490860
     17          1           0        3.754630    0.053276   -1.609930
     18          1           0        2.122631    0.631298   -1.540770
     19          1           0        2.317239   -1.880931   -1.754280
     20          1           0        3.383439   -1.965911   -0.296952
     21          1           0        1.529190   -1.494350    1.168940
     22          1           0        0.380864   -3.387740    0.797982
     23          1           0        0.540633   -3.334640   -0.828249
     24          7           0        1.066259   -3.181110    0.070627
     25          7           0       -0.229551    0.202043    0.081732
     26          8           0       -0.729063   -1.723969   -1.093850
     27          8           0        2.392031    1.125269    1.187980
     28          8           0        4.517741    0.708227    0.613480
     29          8           0       -2.093928    3.199841   -0.540687
     30          8           0       -3.030000   -1.724298    1.278040
     31          8           0       -3.909230   -0.778884   -0.556344
     32          8           0        0.118359    2.691760   -0.255413
 ---------------------------------------------------------------------

 SCF Done:  E(RHF) =  -983.087230076     A.U. after    2 cycles

 The electronic state is 1-A.
 Alpha  occ. eigenvalues --  -20.62024 -20.61889 -20.60090 -20.56055 -20.55805
 Alpha  occ. eigenvalues --  -20.54354 -20.52266 -15.54086 -15.48305 -11.42033
 Alpha  occ. eigenvalues --  -11.41844 -11.39667 -11.36651 -11.32229 -11.28033
 Alpha  occ. eigenvalues --  -11.27308 -11.27291 -11.26917  -1.56723  -1.55922
 Alpha  occ. eigenvalues --   -1.55528  -1.47376  -1.46620  -1.46216  -1.45982
 Alpha  occ. eigenvalues --   -1.26187  -1.19004  -1.09348  -1.08485  -0.99488
 Alpha  occ. eigenvalues --   -0.97004  -0.88944  -0.84703  -0.83532  -0.82581
 Alpha  occ. eigenvalues --   -0.80437  -0.75436  -0.73599  -0.73131  -0.72112
 Alpha  occ. eigenvalues --   -0.71535  -0.70424  -0.69230  -0.68441  -0.66965
 Alpha  occ. eigenvalues --   -0.65999  -0.64304  -0.63979  -0.62795  -0.61853
 Alpha  occ. eigenvalues --   -0.61183  -0.60346  -0.59609  -0.58057  -0.57765
 Alpha  occ. eigenvalues --   -0.56776  -0.54986  -0.54232  -0.52520  -0.51687
 Alpha  occ. eigenvalues --   -0.49343  -0.48811  -0.48292  -0.47156  -0.46042
 Alpha  occ. eigenvalues --   -0.44980  -0.44774  -0.43300  -0.42111
 Alpha virt. eigenvalues --    0.02685   0.03287   0.03690   0.04252   0.04629
 Alpha virt. eigenvalues --    0.04855   0.05284   0.05817   0.06145   0.07170
 Alpha virt. eigenvalues --    0.08146   0.08360   0.08881   0.09694   0.09930

 Mulliken charges:
               1
     1  C   -2.033370
     2  C    0.429254
     3  C   -0.393734
     4  C   -0.292321
     5  C    2.563553
     6  C   -1.825108
     7  C    3.042167
     8  C   -0.563394
     9  C    2.826755
    10  H    0.480069
    11  H    0.381190
    12  H    0.145457
    13  H    0.237712
    14  H    0.199876
    15  H    0.401191
    16  H    0.312086
    17  H    0.106906
    18  H    0.281795
    19  H    0.273050
    20  H    0.309051
    21  H   -0.023437
    22  H    0.183494
    23  H    0.325753
    24  N    0.813929
    25  N    1.656402
    26  O   -1.473478
    27  O   -1.345281
    28  O   -1.353921
    29  O   -1.402856
    30  O   -1.389303
    31  O   -1.396285
    32  O   -1.477204
 Sum of Mulliken charges =   0.00000

 Dipole moment (field-independent basis, Debye):
    X=              2.9115    Y=              2.5886    Z=             -0.1055  Tot=              3.8973

 Test job not archived.
 1\1\GINC-SE159\SP\RHF\Aug-CC-pVDZ\C9H14N2O7\OHZDE\08-Apr-2025\0\\#t hf
  aug-cc-pvdz iop(5/13=1,5/36=2,99/5=2) pseudo=read geom=check guess=(r
 ead,tcheck) scf=(maxcycle=1)\\title\\0,1\C,0,1.31663,-1.7252,0.138644\
 C,0,-0.00543393,-1.08576,-0.328938\C,0,2.50268,-1.407,-0.737676\C,0,2.
 87177,0.0683177,-0.986495\C,0,3.19167,0.719832,0.34121\C,0,-1.45858,0.
 890121,-0.247433\C,0,-1.21435,2.39011,-0.379183\C,0,-2.57806,0.605735,
 0.812508\C,0,-3.21943,-0.759314,0.602818\H,0,0.218069,3.64237,-0.37930
 4\H,0,-4.19291,-1.70042,-0.624557\H,0,-2.17713,0.580245,1.82716\H,0,-3

 Normal termination of Gaussian 16 at Tue Apr  8 20:48:59 2025.
