 Gaussian 16, Revision C.01,

 ----------------------------------------------------------------------
 #t hf aug-cc-pvdz symm=none int=(grid=ultrafine) guess=(read,tcheck) s
 table=(opt,rrhf)
 ----------------------------------------------------------------------
 -----
 title
 -----
 Symbolic Z-matrix:
 Charge =  0 Multiplicity = 1

 SCF Done:  E(RHF) =  -982.108598181     A.U. after   14 cycles
 Normal termination of Gaussian 16 at Tue Apr  8 20:55:15 2025.
 Gaussian 16:  ES64L-G16RevC.01  3-Jul-2019

 ----------------------------------------------------------------------
 #t hf aug-cc-pvdz iop(5/13=1,5/36=2,99/5=2) pseudo=read geom=check gue
 ss=(read,tcheck) scf=(maxcycle=1)
 ----------------------------------------------------------------------
 -----
 title
 -----
 Structure from the checkpoint file:  "ANI1ccx_1743_conf3_mol1.chk"
 Charge =  0 Multiplicity = 1

                         Standard orientation:
 ---------------------------------------------------------------------
 Center     Atomic      Atomic             Coordinates (Angstroms)
 Number     Number       Type             X           Y           Z
 ---------------------------------------------------------------------
      1          6           0        1.319111   -1.780009    0.128115
      2          6           0       -0.020781   -1.102400   -0.370572
      3          6           0        2.489531   -1.394669   -0.841240
      4          6           0        2.857401    0.072789   -0.943950
      5          6           0        3.193580    0.691605    0.405471
      6          6           0       -1.463550    0.841359   -0.244928
      7          6           0       -1.199921    2.319019   -0.389460
      8          6           0       -2.533580    0.666168    0.866000
      9          6           0       -3.255959   -0.736613    0.613814
     10          1           0        0.089326    3.652740   -0.364850
     11          1           0       -4.256849   -1.633772   -0.746861
     12          1           0       -2.139250    0.620837    1.881630
     13          1           0       -3.198110    1.539978    0.718391
     14          1           0       -1.918880    0.477310   -1.174630
     15          1           0        0.431438    0.692791    0.620198
     16          1           0        4.579670    1.264042    1.479120
     17          1           0        3.686080    0.264425   -1.634610
     18          1           0        1.989570    0.596249   -1.331480
     19          1           0        2.254191   -1.840239   -1.802380
     20          1           0        3.354392   -1.950078   -0.453910
     21          1           0        1.603241   -1.377989    1.104430
     22          1           0        0.432507   -3.344780    0.756619
     23          1           0        0.851376   -3.426890   -0.769853
     24          7           0        1.247552   -3.236830    0.159864
     25          7           0       -0.195112    0.157129    0.028225
     26          8           0       -0.765978   -1.718621   -1.108390
     27          8           0        2.363480    0.993643    1.250420
     28          8           0        4.536460    0.863497    0.579370
     29          8           0       -2.026461    3.176989   -0.591816
     30          8           0       -3.202989   -1.699642    1.318970
     31          8           0       -3.928399   -0.724643   -0.584729
     32          8           0        0.093787    2.678750   -0.231071
 ---------------------------------------------------------------------

 SCF Done:  E(RHF) =  -983.084994112     A.U. after    2 cycles

 The electronic state is 1-A.
 Alpha  occ. eigenvalues --  -20.62928 -20.62278 -20.59963 -20.56707 -20.55766
 Alpha  occ. eigenvalues --  -20.54936 -20.52053 -15.54036 -15.49559 -11.42462
 Alpha  occ. eigenvalues --  -11.41699 -11.40725 -11.36356 -11.32171 -11.28418
 Alpha  occ. eigenvalues --  -11.28331 -11.27079 -11.25820  -1.57390  -1.56506
 Alpha  occ. eigenvalues --   -1.54303  -1.47521  -1.47227  -1.46815  -1.45770
 Alpha  occ. eigenvalues --   -1.27074  -1.20596  -1.09785  -1.09217  -0.98514
 Alpha  occ. eigenvalues --   -0.96342  -0.88910  -0.85412  -0.83695  -0.82774
 Alpha  occ. eigenvalues --   -0.81010  -0.75817  -0.73931  -0.72966  -0.72148
 Alpha  occ. eigenvalues --   -0.71153  -0.70599  -0.69521  -0.68792  -0.67069
 Alpha  occ. eigenvalues --   -0.65877  -0.65201  -0.64213  -0.63219  -0.62633
 Alpha  occ. eigenvalues --   -0.61762  -0.60372  -0.59777  -0.58728  -0.57667
 Alpha  occ. eigenvalues --   -0.56691  -0.55502  -0.55053  -0.53034  -0.50459
 Alpha  occ. eigenvalues --   -0.49643  -0.49110  -0.48360  -0.48042  -0.47320
 Alpha  occ. eigenvalues --   -0.46321  -0.44864  -0.42778  -0.41756
 Alpha virt. eigenvalues --    0.02545   0.03307   0.03664   0.04257   0.04659
 Alpha virt. eigenvalues --    0.05003   0.05261   0.05899   0.06110   0.07210
 Alpha virt. eigenvalues --    0.08234   0.08523   0.08971   0.09645   0.10176

 Mulliken charges:
               1
     1  C   -2.486851
     2  C    0.733771
     3  C   -0.066298
     4  C   -0.274629
     5  C    2.520625
     6  C   -1.890575
     7  C    3.219994
     8  C   -0.481342
     9  C    2.744283
    10  H    0.470106
    11  H    0.419296
    12  H    0.102412
    13  H    0.255419
    14  H    0.184458
    15  H    0.338705
    16  H    0.326231
    17  H    0.069509
    18  H    0.350395
    19  H    0.084709
    20  H    0.270352
    21  H    0.058686
    22  H    0.199212
    23  H    0.366756
    24  N    0.921502
    25  N    1.483473
    26  O   -1.486868
    27  O   -1.338356
    28  O   -1.384835
    29  O   -1.458874
    30  O   -1.355179
    31  O   -1.415346
    32  O   -1.480741
 Sum of Mulliken charges =   0.00000

 Dipole moment (field-independent basis, Debye):
    X=              2.9994    Y=              2.9743    Z=             -0.3336  Tot=              4.2372

 Test job not archived.
 1\1\GINC-SE097\SP\RHF\Aug-CC-pVDZ\C9H14N2O7\OHZDE\08-Apr-2025\0\\#t hf
  aug-cc-pvdz iop(5/13=1,5/36=2,99/5=2) pseudo=read geom=check guess=(r
 ead,tcheck) scf=(maxcycle=1)\\title\\0,1\C,0,1.31911,-1.78001,0.128115
 \C,0,-0.0207819,-1.1024,-0.370572\C,0,2.48953,-1.39467,-0.84124\C,0,2.
 8574,0.0727877,-0.94395\C,0,3.19358,0.691604,0.405471\C,0,-1.46355,0.8
 4136,-0.244928\C,0,-1.19992,2.31902,-0.38946\C,0,-2.53358,0.666169,0.8
 66\C,0,-3.25596,-0.736611,0.613814\H,0,0.0893277,3.65274,-0.36485\H,0,
 -4.25685,-1.63377,-0.746861\H,0,-2.13925,0.620838,1.88163\H,0,-3.19811

 Normal termination of Gaussian 16 at Tue Apr  8 20:56:06 2025.
