 Gaussian 16, Revision C.01,

 ----------------------------------------------------------------------
 #t hf aug-cc-pvdz symm=none int=(grid=ultrafine) guess=(read,tcheck) s
 table=(opt,rrhf)
 ----------------------------------------------------------------------
 -----
 title
 -----
 Symbolic Z-matrix:
 Charge =  0 Multiplicity = 1

 SCF Done:  E(RHF) =  -485.220291651     A.U. after   15 cycles
 Normal termination of Gaussian 16 at Tue Apr  8 21:42:44 2025.
 Gaussian 16:  ES64L-G16RevC.01  3-Jul-2019

 ----------------------------------------------------------------------
 #t hf aug-cc-pvdz iop(5/13=1,5/36=2,99/5=2) pseudo=read geom=check gue
 ss=(read,tcheck) scf=(maxcycle=1)
 ----------------------------------------------------------------------
 -----
 title
 -----
 Structure from the checkpoint file:  "ANI1ccx_484_conf5_mol1.chk"
 Charge =  0 Multiplicity = 1

                         Standard orientation:
 ---------------------------------------------------------------------
 Center     Atomic      Atomic             Coordinates (Angstroms)
 Number     Number       Type             X           Y           Z
 ---------------------------------------------------------------------
      1          6           0        1.369550   -0.036457    0.071921
      2          6           0       -0.665876    0.802255   -0.110016
      3          1           0       -1.342795   -1.643504    1.099080
      4          1           0       -2.603377   -0.920021    0.208164
      5          7           0       -1.665286   -1.288735    0.239497
      6          7           0       -0.801294   -0.573846   -0.460979
      7          8           0        0.534014   -1.098859   -0.264715
      8          8           0        2.550660   -0.086048    0.305850
      9          8           0        0.670693    1.115002   -0.200017
     10          8           0       -1.631594    1.445755    0.217845
 ---------------------------------------------------------------------

 SCF Done:  E(RHF) =  -485.690827260     A.U. after    2 cycles

 The electronic state is 1-A.
 Alpha  occ. eigenvalues --  -20.69049 -20.68664 -20.60137 -20.60057 -15.66884
 Alpha  occ. eigenvalues --  -15.56047 -11.51141 -11.48095  -1.68383  -1.56853
 Alpha  occ. eigenvalues --   -1.54573  -1.51897  -1.35665  -1.12407  -0.94980
 Alpha  occ. eigenvalues --   -0.94223  -0.84128  -0.81596  -0.75693  -0.74619
 Alpha  occ. eigenvalues --   -0.72163  -0.70666  -0.64574  -0.63642  -0.62728
 Alpha  occ. eigenvalues --   -0.55470  -0.53081  -0.52153  -0.51394  -0.44831
 Alpha virt. eigenvalues --    0.02861   0.05460   0.07829   0.07993   0.08217
 Alpha virt. eigenvalues --    0.09406   0.10289   0.10860   0.10994   0.12844
 Alpha virt. eigenvalues --    0.13608   0.15137   0.15973   0.16807   0.17342

 Mulliken charges:
               1
     1  C    2.114357
     2  C    1.442719
     3  H    0.159372
     4  H    0.112667
     5  N    0.190237
     6  N    0.463670
     7  O   -1.217613
     8  O   -1.058024
     9  O   -1.129646
    10  O   -1.077738
 Sum of Mulliken charges =  -0.00000

 Dipole moment (field-independent basis, Debye):
    X=             -2.0138    Y=             -0.9286    Z=              0.9867  Tot=              2.4271

 Test job not archived.
 1\1\GINC-SE116\SP\RHF\Aug-CC-pVDZ\C2H2N2O4\OHZDE\08-Apr-2025\0\\#t hf
 aug-cc-pvdz iop(5/13=1,5/36=2,99/5=2) pseudo=read geom=check guess=(re
 ad,tcheck) scf=(maxcycle=1)\\title\\0,1\C,0,1.36955,-0.0364606,0.07192
 11\C,0,-0.665874,0.802257,-0.110016\H,0,-1.3428,-1.6435,1.09908\H,0,-2
 .60338,-0.920013,0.208164\N,0,-1.66529,-1.28873,0.239497\N,0,-0.801296
 ,-0.573843,-0.460979\O,0,0.534011,-1.09886,-0.264715\O,0,2.55066,-0.08
 60553,0.30585\O,0,0.670696,1.115,-0.200017\O,0,-1.63159,1.44576,0.2178
 45\\Version=ES64L-G16RevC.01\State=1-A\HF=-485.6908273\RMSD=1.997e-02\

 Normal termination of Gaussian 16 at Tue Apr  8 21:42:49 2025.
