 Gaussian 16, Revision C.01,

 ----------------------------------------------------------------------
 #t hf aug-cc-pvdz symm=none int=(grid=ultrafine) guess=(read,tcheck) s
 table=(opt,rrhf)
 ----------------------------------------------------------------------
 -----
 title
 -----
 Symbolic Z-matrix:
 Charge =  0 Multiplicity = 1

 SCF Done:  E(RHF) =  -428.562885131     A.U. after   13 cycles
 Normal termination of Gaussian 16 at Tue Apr  8 21:38:42 2025.
 Gaussian 16:  ES64L-G16RevC.01  3-Jul-2019

 ----------------------------------------------------------------------
 #t hf aug-cc-pvdz iop(5/13=1,5/36=2,99/5=2) pseudo=read geom=check gue
 ss=(read,tcheck) scf=(maxcycle=1)
 ----------------------------------------------------------------------
 -----
 title
 -----
 Structure from the checkpoint file:  "ANI1ccx_419_conf6_mol1.chk"
 Charge =  0 Multiplicity = 1

                         Standard orientation:
 ---------------------------------------------------------------------
 Center     Atomic      Atomic             Coordinates (Angstroms)
 Number     Number       Type             X           Y           Z
 ---------------------------------------------------------------------
      1          6           0       -0.159209   -0.306428    0.026520
      2          1           0        1.911090    1.131501    0.010099
      3          1           0       -0.734908    1.624751   -0.261491
      4          1           0       -1.585280   -1.680679    0.058762
      5          1           0       -3.012470    0.365849    0.407885
      6          1           0        2.512440   -1.623739   -0.339112
      7          7           0        0.034987    1.032431   -0.326537
      8          7           0       -1.453660   -0.733714    0.442747
      9          7           0        0.744202   -1.227909    0.039544
     10          8           0        1.153640    1.610091    0.335783
     11          8           0       -2.375780    0.170125   -0.312828
     12          8           0        2.045350   -0.714561   -0.163647
 ---------------------------------------------------------------------

 SCF Done:  E(RHF) =  -428.989304594     A.U. after    2 cycles

 The electronic state is 1-A.
 Alpha  occ. eigenvalues --  -20.61839 -20.60115 -20.58085 -15.60274 -15.56987
 Alpha  occ. eigenvalues --  -15.54744 -11.36288  -1.51141  -1.49264  -1.47810
 Alpha  occ. eigenvalues --   -1.25555  -1.14348  -1.10676  -0.85766  -0.79179
 Alpha  occ. eigenvalues --   -0.73685  -0.72476  -0.70285  -0.68106  -0.64916
 Alpha  occ. eigenvalues --   -0.63142  -0.60937  -0.55166  -0.53785  -0.52256
 Alpha  occ. eigenvalues --   -0.48362  -0.44816  -0.38860
 Alpha virt. eigenvalues --    0.03137   0.04740   0.05124   0.05936   0.06933
 Alpha virt. eigenvalues --    0.10884   0.11733   0.12523   0.13335   0.14208
 Alpha virt. eigenvalues --    0.15253   0.16358   0.16888   0.17902   0.18743

 Mulliken charges:
               1
     1  C   -1.307008
     2  H    0.394304
     3  H    0.122029
     4  H    0.274236
     5  H    0.378163
     6  H    0.396693
     7  N    1.056806
     8  N    0.811828
     9  N    1.256368
    10  O   -1.092250
    11  O   -1.029670
    12  O   -1.261500
 Sum of Mulliken charges =  -0.00000

 Dipole moment (field-independent basis, Debye):
    X=             -1.5571    Y=             -0.7229    Z=             -0.1995  Tot=              1.7283

 Test job not archived.
 1\1\GINC-SE016\SP\RHF\Aug-CC-pVDZ\C1H5N3O3\OHZDE\08-Apr-2025\0\\#t hf
 aug-cc-pvdz iop(5/13=1,5/36=2,99/5=2) pseudo=read geom=check guess=(re
 ad,tcheck) scf=(maxcycle=1)\\title\\0,1\C,0,-0.159209,-0.306429,0.0265
 201\H,0,1.91109,1.1315,0.0100991\H,0,-0.734908,1.62475,-0.261491\H,0,-
 1.58528,-1.68068,0.0587618\H,0,-3.01247,0.365849,0.407885\H,0,2.51244,
 -1.62374,-0.339112\N,0,0.0349873,1.03243,-0.326537\N,0,-1.45366,-0.733
 715,0.442747\N,0,0.744202,-1.22791,0.0395444\O,0,1.15364,1.61009,0.335
 783\O,0,-2.37578,0.170124,-0.312828\O,0,2.04535,-0.714562,-0.163647\\V

 Normal termination of Gaussian 16 at Tue Apr  8 21:38:47 2025.
