 Gaussian 16, Revision C.01,

 ----------------------------------------------------------------------
 #t hf aug-cc-pvdz symm=none int=(grid=ultrafine) guess=(read,tcheck) s
 table=(opt,rrhf)
 ----------------------------------------------------------------------
 -----
 title
 -----
 Symbolic Z-matrix:
 Charge =  0 Multiplicity = 1

 SCF Done:  E(RHF) =  -304.180409239     A.U. after   11 cycles
 Normal termination of Gaussian 16 at Tue Apr  8 21:13:23 2025.
 Gaussian 16:  ES64L-G16RevC.01  3-Jul-2019

 ----------------------------------------------------------------------
 #t hf aug-cc-pvdz iop(5/13=1,5/36=2,99/5=2) pseudo=read geom=check gue
 ss=(read,tcheck) scf=(maxcycle=1)
 ----------------------------------------------------------------------
 -----
 title
 -----
 Structure from the checkpoint file:  "ANI1ccx_1904_conf13_mol1.chk"
 Charge =  0 Multiplicity = 1

                         Standard orientation:
 ---------------------------------------------------------------------
 Center     Atomic      Atomic             Coordinates (Angstroms)
 Number     Number       Type             X           Y           Z
 ---------------------------------------------------------------------
      1          1           0        0.001740   -2.182272    0.828596
      2          1           0       -0.804619   -1.276883   -0.142540
      3          1           0        1.308320   -0.742063    0.037044
      4          1           0        2.370700   -0.079939   -0.797560
      5          1           0        0.797818    1.223319    0.143949
      6          1           0        0.124598    2.348908   -0.669271
      7          1           0       -1.305851    0.727001   -0.086893
      8          1           0       -2.514311    0.162346    0.682660
      9          8           0        0.003839   -1.836112   -0.097325
     10          8           0        1.982719    0.001208    0.101159
     11          8           0        0.006892    1.822548    0.102811
     12          8           0       -1.990751   -0.010197   -0.106143
 ---------------------------------------------------------------------

 SCF Done:  E(RHF) =  -304.496083254     A.U. after    2 cycles

 The electronic state is 1-A.
 Alpha  occ. eigenvalues --  -20.56007 -20.55929 -20.55338 -20.55308  -1.45646
 Alpha  occ. eigenvalues --   -1.44031  -1.43400  -1.41837  -0.72723  -0.71929
 Alpha  occ. eigenvalues --   -0.69958  -0.69192  -0.62272  -0.59671  -0.58496
 Alpha  occ. eigenvalues --   -0.56318  -0.49906  -0.49661  -0.49250  -0.48612
 Alpha virt. eigenvalues --    0.03456   0.04082   0.04996   0.06741   0.07460
 Alpha virt. eigenvalues --    0.08322   0.09585   0.11060   0.16823   0.17795
 Alpha virt. eigenvalues --    0.18777   0.20692   0.21273   0.22907   0.23058

 Mulliken charges:
               1
     1  H    0.410026
     2  H    0.657763
     3  H    0.735363
     4  H    0.328329
     5  H    0.682254
     6  H    0.340031
     7  H    0.761051
     8  H    0.317711
     9  O   -1.084970
    10  O   -1.061666
    11  O   -1.035170
    12  O   -1.050722
 Sum of Mulliken charges =  -0.00000

 Dipole moment (field-independent basis, Debye):
    X=             -0.0083    Y=              0.3403    Z=             -0.0070  Tot=              0.3404

 Test job not archived.
 1\1\GINC-SE028\SP\RHF\Aug-CC-pVDZ\H8O4\OHZDE\08-Apr-2025\0\\#t hf aug-
 cc-pvdz iop(5/13=1,5/36=2,99/5=2) pseudo=read geom=check guess=(read,t
 check) scf=(maxcycle=1)\\title\\0,1\H,0,0.00173884,-2.18227,0.828596\H
 ,0,-0.80462,-1.27688,-0.14254\H,0,1.30832,-0.742062,0.037044\H,0,2.370
 7,-0.0799396,-0.79756\H,0,0.79782,1.22332,0.143949\H,0,0.124601,2.3489
 1,-0.669271\H,0,-1.30585,0.727004,-0.0868931\H,0,-2.51431,0.16235,0.68
 266\O,0,0.00383808,-1.83611,-0.0973252\O,0,1.98272,0.00120786,0.101159
 \O,0,0.00689451,1.82255,0.102811\O,0,-1.99075,-0.0101929,-0.106143\\Ve

 Normal termination of Gaussian 16 at Tue Apr  8 21:13:26 2025.
