 Gaussian 16, Revision C.01,

 ----------------------------------------------------------------------
 #t hf aug-cc-pvdz symm=none int=(grid=ultrafine) guess=(read,tcheck) s
 table=(opt,rrhf)
 ----------------------------------------------------------------------
 -----
 title
 -----
 Symbolic Z-matrix:
 Charge =  0 Multiplicity = 1

 SCF Done:  E(RHF) =  -355.463529441     A.U. after   17 cycles
 Normal termination of Gaussian 16 at Tue Apr  8 21:11:20 2025.
 Gaussian 16:  ES64L-G16RevC.01  3-Jul-2019

 ----------------------------------------------------------------------
 #t hf aug-cc-pvdz iop(5/13=1,5/36=2,99/5=2) pseudo=read geom=check gue
 ss=(read,tcheck) scf=(maxcycle=1)
 ----------------------------------------------------------------------
 -----
 title
 -----
 Structure from the checkpoint file:  "ANI1ccx_1871_conf9_mol1.chk"
 Charge =  0 Multiplicity = 1

                         Standard orientation:
 ---------------------------------------------------------------------
 Center     Atomic      Atomic             Coordinates (Angstroms)
 Number     Number       Type             X           Y           Z
 ---------------------------------------------------------------------
      1          1           0        3.421382   -0.142245   -0.518066
      2          1           0       -1.488068    0.927697   -0.450405
      3          1           0       -3.414018   -0.352109    0.589446
      4          7           0        1.664492    0.452821   -0.182439
      5          8           0        2.654132   -0.464114   -0.011225
      6          8           0        0.612012    0.134174    0.332045
      7          8           0       -1.639398    0.178176    0.120597
      8          8           0       -2.898088   -0.298622   -0.234405
 ---------------------------------------------------------------------

 SCF Done:  E(RHF) =  -355.806183194     A.U. after    2 cycles

 The electronic state is 1-A.
 Alpha  occ. eigenvalues --  -20.64229 -20.63090 -20.59735 -20.59637 -15.72636
 Alpha  occ. eigenvalues --   -1.65249  -1.59618  -1.51361  -1.25757  -0.98562
 Alpha  occ. eigenvalues --   -0.80548  -0.74962  -0.70726  -0.69683  -0.69390
 Alpha  occ. eigenvalues --   -0.62151  -0.59191  -0.51461  -0.49122  -0.46627
 Alpha  occ. eigenvalues --   -0.43598
 Alpha virt. eigenvalues --    0.03207   0.05098   0.06222   0.06397   0.13283
 Alpha virt. eigenvalues --    0.14112   0.15228   0.16243   0.17522   0.19000
 Alpha virt. eigenvalues --    0.19685   0.20637   0.21272   0.21896   0.24165

 Mulliken charges:
               1
     1  H    0.353799
     2  H    0.444083
     3  H    0.437303
     4  N    1.568566
     5  O   -1.055285
     6  O   -0.933250
     7  O   -0.499959
     8  O   -0.315257
 Sum of Mulliken charges =   0.00000

 Dipole moment (field-independent basis, Debye):
    X=              1.6864    Y=              1.3428    Z=             -0.4171  Tot=              2.1957

 Test job not archived.
 1\1\GINC-SE044\SP\RHF\Aug-CC-pVDZ\H3N1O4\OHZDE\08-Apr-2025\0\\#t hf au
 g-cc-pvdz iop(5/13=1,5/36=2,99/5=2) pseudo=read geom=check guess=(read
 ,tcheck) scf=(maxcycle=1)\\title\\0,1\H,0,3.42138,-0.142245,-0.518066\
 H,0,-1.48807,0.927697,-0.450405\H,0,-3.41402,-0.352109,0.589446\N,0,1.
 66449,0.452821,-0.182439\O,0,2.65413,-0.464114,-0.0112253\O,0,0.61201,
 0.134174,0.332045\O,0,-1.6394,0.178176,0.120597\O,0,-2.89809,-0.298622
 ,-0.234405\\Version=ES64L-G16RevC.01\State=1-A\HF=-355.8061832\RMSD=1.
 051e-02\Dipole=0.6634816,0.5283074,-0.1641169\Quadrupole=6.9037808,-3.

 Normal termination of Gaussian 16 at Tue Apr  8 21:11:22 2025.
