 Gaussian 16, Revision C.01,

 ----------------------------------------------------------------------
 #t hf aug-cc-pvdz symm=none int=(grid=ultrafine) guess=(read,tcheck) s
 table=(opt,rrhf)
 ----------------------------------------------------------------------
 -----
 title
 -----
 Symbolic Z-matrix:
 Charge =  0 Multiplicity = 1

 SCF Done:  E(RHF) =  -871.358401745     A.U. after   14 cycles
 Normal termination of Gaussian 16 at Tue Apr  8 22:04:26 2025.
 Gaussian 16:  ES64L-G16RevC.01  3-Jul-2019

 ----------------------------------------------------------------------
 #t hf aug-cc-pvdz iop(5/13=1,5/36=2,99/5=2) pseudo=read geom=check gue
 ss=(read,tcheck) scf=(maxcycle=1)
 ----------------------------------------------------------------------
 -----
 title
 -----
 Structure from the checkpoint file:  "ANI1ccx_53_conf2_mol2.chk"
 Charge =  0 Multiplicity = 1

                         Standard orientation:
 ---------------------------------------------------------------------
 Center     Atomic      Atomic             Coordinates (Angstroms)
 Number     Number       Type             X           Y           Z
 ---------------------------------------------------------------------
      1          6           0       -2.572231   -0.792017    0.058667
      2          6           0        1.817168    2.007110   -0.090253
      3          6           0        2.011139   -0.161536   -1.408900
      4          6           0        1.689989   -1.458230    0.666935
      5          6           0        1.131099   -1.209190   -0.713925
      6          6           0        2.691439    0.984608   -0.689656
      7          6           0       -2.979272    1.548889   -0.458403
      8          6           0       -3.169521    0.134618   -1.027890
      9          6           0       -1.222381   -1.467681   -0.304503
     10          6           0       -3.140742    1.254609    1.028550
     11          1           0        1.116919   -2.112900   -1.278510
     12          1           0        2.865799   -2.554250    1.572420
     13          1           0        1.680678    3.530860    0.720067
     14          1           0        3.403188    1.481750   -1.363050
     15          1           0        3.370799    0.637355    0.110256
     16          1           0        2.874769   -0.728380   -1.830500
     17          1           0        1.495929    0.244232   -2.277220
     18          1           0       -0.409428    0.268893   -0.877849
     19          1           0       -4.225902    1.185449    1.270440
     20          1           0       -3.750962    2.201879   -0.826190
     21          1           0       -2.009252    1.973699   -0.763354
     22          1           0       -2.613861   -0.038640   -1.941100
     23          1           0       -4.218371   -0.158613   -1.189190
     24          1           0       -3.191651   -1.652221    0.253791
     25          1           0       -1.459381    0.292924    1.299660
     26          1           0       -2.870662    2.090119    1.704860
     27          7           0       -2.438291    0.033814    1.280890
     28          7           0       -0.202967   -0.655139   -0.558493
     29          8           0        2.486148    3.051930    0.409368
     30          8           0       -1.121291   -2.686331   -0.396281
     31          8           0        1.546909   -0.773341    1.646300
     32          8           0        0.614315    1.960749   -0.053840
     33          8           0        2.585179   -2.473000    0.643822
 ---------------------------------------------------------------------

 SCF Done:  E(RHF) =  -872.240414976     A.U. after    2 cycles

 The electronic state is 1-A.
 Alpha  occ. eigenvalues --  -20.62198 -20.60964 -20.55846 -20.54990 -20.50409
 Alpha  occ. eigenvalues --  -15.52107 -15.47977 -11.41288 -11.40299 -11.34467
 Alpha  occ. eigenvalues --  -11.30677 -11.27882 -11.27765 -11.25929 -11.25080
 Alpha  occ. eigenvalues --  -11.23525 -11.22785  -1.58130  -1.56068  -1.47578
 Alpha  occ. eigenvalues --   -1.46213  -1.45079  -1.26577  -1.22836  -1.12374
 Alpha  occ. eigenvalues --   -1.04902  -1.03829  -0.99416  -0.93094  -0.87186
 Alpha  occ. eigenvalues --   -0.83221  -0.82179  -0.81480  -0.79775  -0.74728
 Alpha  occ. eigenvalues --   -0.73797  -0.72727  -0.72539  -0.70955  -0.69692
 Alpha  occ. eigenvalues --   -0.68040  -0.65937  -0.65197  -0.63491  -0.62582
 Alpha  occ. eigenvalues --   -0.62287  -0.61694  -0.59783  -0.58923  -0.57615
 Alpha  occ. eigenvalues --   -0.57070  -0.55590  -0.53962  -0.53263  -0.50874
 Alpha  occ. eigenvalues --   -0.50173  -0.49838  -0.48955  -0.48460  -0.47743
 Alpha  occ. eigenvalues --   -0.47067  -0.45647  -0.42084  -0.41845  -0.40508
 Alpha virt. eigenvalues --    0.02368   0.03045   0.03138   0.03636   0.04307
 Alpha virt. eigenvalues --    0.04378   0.04838   0.05774   0.06324   0.07298
 Alpha virt. eigenvalues --    0.07404   0.07510   0.08619   0.09029   0.09641

 Mulliken charges:
               1
     1  C   -0.750070
     2  C    2.278131
     3  C   -0.156815
     4  C    3.085215
     5  C   -2.169531
     6  C   -0.456727
     7  C    0.232467
     8  C   -0.260000
     9  C    1.134037
    10  C   -0.610893
    11  H   -0.154728
    12  H    0.327716
    13  H    0.336451
    14  H    0.193668
    15  H    0.301011
    16  H    0.200825
    17  H    0.114693
    18  H    0.471363
    19  H    0.034993
    20  H    0.059673
    21  H    0.062841
    22  H    0.105511
    23  H    0.084480
    24  H   -0.031008
    25  H    0.484830
    26  H    0.008951
    27  N    0.766936
    28  N    1.219202
    29  O   -1.381390
    30  O   -1.498372
    31  O   -1.393552
    32  O   -1.220795
    33  O   -1.419116
 Sum of Mulliken charges =  -0.00000

 Dipole moment (field-independent basis, Debye):
    X=              3.0560    Y=              3.8642    Z=             -2.9416  Tot=              5.7380

 Test job not archived.
 1\1\GINC-SE220\SP\RHF\Aug-CC-pVDZ\C10H16N2O5\OHZDE\08-Apr-2025\0\\#t h
 f aug-cc-pvdz iop(5/13=1,5/36=2,99/5=2) pseudo=read geom=check guess=(
 read,tcheck) scf=(maxcycle=1)\\title\\0,1\C,0,-2.57223,-0.792016,0.058
 6669\C,0,1.81717,2.00711,-0.0902533\C,0,2.01114,-0.161536,-1.4089\C,0,
 1.68999,-1.45823,0.666935\C,0,1.1311,-1.20919,-0.713925\C,0,2.69144,0.
 984608,-0.689656\C,0,-2.97927,1.54889,-0.458403\C,0,-3.16952,0.134619,
 -1.02789\C,0,-1.22238,-1.46768,-0.304503\C,0,-3.14074,1.25461,1.02855\
 H,0,1.11692,-2.1129,-1.27851\H,0,2.8658,-2.55425,1.57242\H,0,1.68068,3

 Normal termination of Gaussian 16 at Tue Apr  8 22:05:19 2025.
