 Gaussian 16, Revision C.01,

 ----------------------------------------------------------------------
 #t hf aug-cc-pvdz symm=none int=(grid=ultrafine) guess=(read,tcheck) s
 table=(opt,rrhf)
 ----------------------------------------------------------------------
 -----
 title
 -----
 Symbolic Z-matrix:
 Charge =  0 Multiplicity = 1

 SCF Done:  E(RHF) =  -408.776416157     A.U. after   13 cycles
 Normal termination of Gaussian 16 at Tue Apr  8 21:39:51 2025.
 Gaussian 16:  ES64L-G16RevC.01  3-Jul-2019

 ----------------------------------------------------------------------
 #t hf aug-cc-pvdz iop(5/13=1,5/36=2,99/5=2) pseudo=read geom=check gue
 ss=(read,tcheck) scf=(maxcycle=1)
 ----------------------------------------------------------------------
 -----
 title
 -----
 Structure from the checkpoint file:  "ANI1ccx_432_conf2_mol1.chk"
 Charge =  0 Multiplicity = 1

                         Standard orientation:
 ---------------------------------------------------------------------
 Center     Atomic      Atomic             Coordinates (Angstroms)
 Number     Number       Type             X           Y           Z
 ---------------------------------------------------------------------
      1          6           0       -0.274051   -0.247492    0.097193
      2          1           0        1.119748    1.808711    1.216250
      3          1           0        1.454827    2.452252   -0.291089
      4          1           0       -0.735078    1.602719   -0.416263
      5          1           0        0.524862   -2.069160    0.499029
      6          1           0        2.484611   -0.532257   -0.015462
      7          1           0       -3.242249   -0.202595   -0.053072
      8          7           0        1.247498    1.583112    0.223608
      9          7           0        0.044876    0.992276   -0.238579
     10          7           0        0.776427   -1.119799    0.437897
     11          7           0       -1.437698   -0.759465    0.180378
     12          8           0        1.829212   -1.013078   -0.522430
     13          8           0       -2.376730    0.207130   -0.195781
 ---------------------------------------------------------------------

 SCF Done:  E(RHF) =  -409.193024372     A.U. after    2 cycles

 The electronic state is 1-A.
 Alpha  occ. eigenvalues --  -20.57880 -20.57024 -15.55591 -15.55435 -15.54838
 Alpha  occ. eigenvalues --  -15.51671 -11.33915  -1.49348  -1.48357  -1.32593
 Alpha  occ. eigenvalues --   -1.21549  -1.10700  -1.07831  -0.87183  -0.77430
 Alpha  occ. eigenvalues --   -0.75694  -0.73567  -0.69946  -0.69656  -0.66337
 Alpha  occ. eigenvalues --   -0.63129  -0.62016  -0.55087  -0.49882  -0.48901
 Alpha  occ. eigenvalues --   -0.47301  -0.44853  -0.36538
 Alpha virt. eigenvalues --    0.02852   0.04718   0.05376   0.05930   0.05988
 Alpha virt. eigenvalues --    0.06761   0.11597   0.12182   0.13274   0.13682
 Alpha virt. eigenvalues --    0.14647   0.15892   0.16433   0.17394   0.17840

 Mulliken charges:
               1
     1  C   -1.619843
     2  H    0.259193
     3  H    0.139968
     4  H    0.311757
     5  H    0.211007
     6  H    0.369108
     7  H    0.307678
     8  N   -0.112746
     9  N    0.123310
    10  N    1.068017
    11  N    1.280225
    12  O   -1.151899
    13  O   -1.185776
 Sum of Mulliken charges =  -0.00000

 Dipole moment (field-independent basis, Debye):
    X=              0.7126    Y=              3.1933    Z=              1.1439  Tot=              3.4660

 Test job not archived.
 1\1\GINC-SE016\SP\RHF\Aug-CC-pVDZ\C1H6N4O2\OHZDE\08-Apr-2025\0\\#t hf
 aug-cc-pvdz iop(5/13=1,5/36=2,99/5=2) pseudo=read geom=check guess=(re
 ad,tcheck) scf=(maxcycle=1)\\title\\0,1\C,0,-0.274052,-0.247491,0.0971
 933\H,0,1.11975,1.80871,1.21625\H,0,1.45483,2.45225,-0.291089\H,0,-0.7
 35076,1.60272,-0.416263\H,0,0.524858,-2.06916,0.499029\H,0,2.48461,-0.
 53226,-0.0154626\H,0,-3.24225,-0.20259,-0.0530721\N,0,1.2475,1.58311,0
 .223608\N,0,0.0448772,0.992276,-0.238579\N,0,0.776425,-1.1198,0.437897
 \N,0,-1.4377,-0.759463,0.180378\O,0,1.82921,-1.01308,-0.52243\O,0,-2.3

 Normal termination of Gaussian 16 at Tue Apr  8 21:39:55 2025.
