 Gaussian 16, Revision C.01,

 ----------------------------------------------------------------------
 #t hf aug-cc-pvdz symm=none int=(grid=ultrafine) guess=(read,tcheck) s
 table=(opt,rrhf)
 ----------------------------------------------------------------------
 -----
 title
 -----
 Symbolic Z-matrix:
 Charge =  0 Multiplicity = 1

 SCF Done:  E(RHF) =  -758.572112610     A.U. after   14 cycles
 Normal termination of Gaussian 16 at Tue Apr  8 20:51:56 2025.
 Gaussian 16:  ES64L-G16RevC.01  3-Jul-2019

 ----------------------------------------------------------------------
 #t hf aug-cc-pvdz iop(5/13=1,5/36=2,99/5=2) pseudo=read geom=check gue
 ss=(read,tcheck) scf=(maxcycle=1)
 ----------------------------------------------------------------------
 -----
 title
 -----
 Structure from the checkpoint file:  "ANI1ccx_1759_conf16_mol2.chk"
 Charge =  0 Multiplicity = 1

                         Standard orientation:
 ---------------------------------------------------------------------
 Center     Atomic      Atomic             Coordinates (Angstroms)
 Number     Number       Type             X           Y           Z
 ---------------------------------------------------------------------
      1          6           0       -1.851230    0.812998    0.331064
      2          6           0        2.540581    1.779999    0.638503
      3          6           0        2.869280    1.046429   -0.654767
      4          6           0        2.351150   -1.339731   -0.079776
      5          6           0        0.969397    1.831809    0.636029
      6          6           0       -3.791280   -0.612698   -0.878038
      7          6           0       -3.045970   -0.132477    0.412013
      8          6           0       -0.590344   -0.025232   -0.094493
      9          6           0        1.811750   -0.029750   -0.736123
     10          1           0        3.882400    0.715253   -0.631099
     11          1           0        0.509570   -1.871751   -0.093464
     12          1           0        0.571255    1.915139    1.644650
     13          1           0        0.657194    2.701569    0.047573
     14          1           0        2.771620    1.264189    1.549670
     15          1           0        2.899511    2.769789    0.733875
     16          1           0        2.740821    1.741569   -1.479640
     17          1           0        1.507000   -0.286333   -1.725240
     18          1           0       -3.827180    0.212225   -1.593860
     19          1           0       -4.783600   -0.924531   -0.585157
     20          1           0       -1.892670   -1.548041    0.761627
     21          1           0       -3.809600    0.463015    0.995395
     22          1           0       -1.589220    1.217069    1.344480
     23          1           0       -3.010689    2.344249   -0.195839
     24          1           0       -1.475259    2.602899   -0.591455
     25          1           0       -3.193360   -1.465911   -1.297260
     26          7           0       -2.157759    1.897479   -0.611088
     27          7           0        0.620895    0.576811   -0.001930
     28          8           0        3.520020   -1.564411    0.096949
     29          8           0       -0.794531   -1.102301   -0.565973
     30          8           0       -2.698810   -1.236021    1.201690
     31          8           0        1.375850   -2.242081    0.262383
 ---------------------------------------------------------------------

 SCF Done:  E(RHF) =  -759.343048093     A.U. after    2 cycles

 The electronic state is 1-A.
 Alpha  occ. eigenvalues --  -20.57299 -20.56333 -20.53752 -20.53406 -15.57036
 Alpha  occ. eigenvalues --  -15.52275 -11.39718 -11.39447 -11.32069 -11.30888
 Alpha  occ. eigenvalues --  -11.30261 -11.29588 -11.26116 -11.25903 -11.22374
 Alpha  occ. eigenvalues --   -1.55173  -1.51713  -1.45128  -1.44094  -1.30294
 Alpha  occ. eigenvalues --   -1.22154  -1.11936  -1.05436  -1.02773  -0.97109
 Alpha  occ. eigenvalues --   -0.92883  -0.87287  -0.85307  -0.80786  -0.79973
 Alpha  occ. eigenvalues --   -0.77177  -0.74299  -0.72730  -0.69949  -0.69683
 Alpha  occ. eigenvalues --   -0.68446  -0.66706  -0.65554  -0.63819  -0.63104
 Alpha  occ. eigenvalues --   -0.61860  -0.60720  -0.60049  -0.58212  -0.57617
 Alpha  occ. eigenvalues --   -0.57289  -0.54906  -0.54269  -0.53168  -0.52025
 Alpha  occ. eigenvalues --   -0.51733  -0.49764  -0.47640  -0.46312  -0.46179
 Alpha  occ. eigenvalues --   -0.44374  -0.42697  -0.41818
 Alpha virt. eigenvalues --    0.01794   0.02668   0.02887   0.03648   0.04049
 Alpha virt. eigenvalues --    0.04593   0.05183   0.05566   0.06406   0.07117
 Alpha virt. eigenvalues --    0.07560   0.08174   0.08559   0.08975   0.10002

 Mulliken charges:
               1
     1  C   -1.433460
     2  C   -0.128796
     3  C    0.141491
     4  C    2.394398
     5  C   -0.251287
     6  C   -0.346545
     7  C    1.001625
     8  C   -0.189807
     9  C   -0.488596
    10  H    0.032100
    11  H    0.711762
    12  H    0.036919
    13  H   -0.044733
    14  H    0.023351
    15  H    0.092631
    16  H    0.133391
    17  H    0.045003
    18  H    0.259061
    19  H    0.140959
    20  H    0.410144
    21  H    0.099874
    22  H    0.333621
    23  H    0.275302
    24  H   -0.012559
    25  H    0.305411
    26  N    0.767049
    27  N    1.508475
    28  O   -1.335795
    29  O   -1.558899
    30  O   -1.476732
    31  O   -1.445360
 Sum of Mulliken charges =  -0.00000

 Dipole moment (field-independent basis, Debye):
    X=             -0.8242    Y=              7.5949    Z=             -0.6100  Tot=              7.6638

 Test job not archived.
 1\1\GINC-SE368\SP\RHF\Aug-CC-pVDZ\C9H16N2O4\OHZDE\08-Apr-2025\0\\#t hf
  aug-cc-pvdz iop(5/13=1,5/36=2,99/5=2) pseudo=read geom=check guess=(r
 ead,tcheck) scf=(maxcycle=1)\\title\\0,1\C,0,-1.85123,0.812999,0.33106
 4\C,0,2.54058,1.78,0.638503\C,0,2.86928,1.04643,-0.654767\C,0,2.35115,
 -1.33973,-0.0797759\C,0,0.969396,1.83181,0.636029\C,0,-3.79128,-0.6126
 97,-0.878038\C,0,-3.04597,-0.132476,0.412013\C,0,-0.590344,-0.0252309,
 -0.0944935\C,0,1.81175,-0.0297491,-0.736123\H,0,3.8824,0.715254,-0.631
 099\H,0,0.50957,-1.87175,-0.0934636\H,0,0.571254,1.91514,1.64465\H,0,0

 Normal termination of Gaussian 16 at Tue Apr  8 20:52:29 2025.
