 Gaussian 16, Revision C.01,

 ----------------------------------------------------------------------
 #t hf aug-cc-pvdz symm=none int=(grid=ultrafine) guess=(read,tcheck) s
 table=(opt,rrhf)
 ----------------------------------------------------------------------
 -----
 title
 -----
 Symbolic Z-matrix:
 Charge =  0 Multiplicity = 1

 SCF Done:  E(RHF) =  -389.487791867     A.U. after   15 cycles
 Normal termination of Gaussian 16 at Tue Apr  8 21:40:45 2025.
 Gaussian 16:  ES64L-G16RevC.01  3-Jul-2019

 ----------------------------------------------------------------------
 #t hf aug-cc-pvdz iop(5/13=1,5/36=2,99/5=2) pseudo=read geom=check gue
 ss=(read,tcheck) scf=(maxcycle=1)
 ----------------------------------------------------------------------
 -----
 title
 -----
 Structure from the checkpoint file:  "ANI1ccx_473_conf12_mol2.chk"
 Charge =  0 Multiplicity = 1

                         Standard orientation:
 ---------------------------------------------------------------------
 Center     Atomic      Atomic             Coordinates (Angstroms)
 Number     Number       Type             X           Y           Z
 ---------------------------------------------------------------------
      1          6           0        1.256130    0.924236   -0.007695
      2          6           0        1.146080   -1.453641   -0.011908
      3          1           0        1.882550   -2.243711   -0.089963
      4          7           0        1.773040   -0.189389    0.029139
      5          7           0       -3.018400   -0.104955   -0.049125
      6          7           0       -2.153110    0.594216    0.060873
      7          8           0        0.971183    2.045569   -0.021828
      8          8           0       -0.034498   -1.630441    0.011999
 ---------------------------------------------------------------------

 SCF Done:  E(RHF) =  -389.854191185     A.U. after    2 cycles

 The electronic state is 1-A.
 Alpha  occ. eigenvalues --  -20.64664 -20.57340 -15.62039 -15.61976 -15.55832
 Alpha  occ. eigenvalues --  -11.45977 -11.41227  -1.59342  -1.52218  -1.46947
 Alpha  occ. eigenvalues --   -1.30700  -0.98863  -0.81934  -0.78957  -0.76735
 Alpha  occ. eigenvalues --   -0.71907  -0.70299  -0.68084  -0.66311  -0.65329
 Alpha  occ. eigenvalues --   -0.65087  -0.59463  -0.54358  -0.48166  -0.47570
 Alpha virt. eigenvalues --    0.03350   0.06823   0.07224   0.08150   0.08336
 Alpha virt. eigenvalues --    0.09523   0.09871   0.10071   0.10593   0.12077
 Alpha virt. eigenvalues --    0.12382   0.13178   0.15535   0.16620   0.17770

 Mulliken charges:
               1
     1  C    0.180169
     2  C    0.826081
     3  H    0.098747
     4  N    0.578714
     5  N   -0.213264
     6  N    0.187363
     7  O   -0.727259
     8  O   -0.930551
 Sum of Mulliken charges =  -0.00000

 Dipole moment (field-independent basis, Debye):
    X=              1.5703    Y=             -0.3997    Z=             -0.1442  Tot=              1.6268

 Test job not archived.
 1\1\GINC-SE367\SP\RHF\Aug-CC-pVDZ\C2H1N3O2\OHZDE\08-Apr-2025\0\\#t hf
 aug-cc-pvdz iop(5/13=1,5/36=2,99/5=2) pseudo=read geom=check guess=(re
 ad,tcheck) scf=(maxcycle=1)\\title\\0,1\C,0,1.25613,0.924237,-0.007694
 65\C,0,1.14608,-1.45364,-0.0119083\H,0,1.88255,-2.24371,-0.0899626\N,0
 ,1.77304,-0.189388,0.029139\N,0,-3.0184,-0.104954,-0.0491251\N,0,-2.15
 311,0.594217,0.0608732\O,0,0.971183,2.04557,-0.0218276\O,0,-0.0344974,
 -1.63044,0.0119989\\Version=ES64L-G16RevC.01\State=1-A\HF=-389.8541912
 \RMSD=3.090e-02\Dipole=0.6177963,-0.1572562,-0.0567423\Quadrupole=-0.1

 Normal termination of Gaussian 16 at Tue Apr  8 21:40:48 2025.
