 Gaussian 16, Revision C.01,

 ----------------------------------------------------------------------
 #t hf aug-cc-pvdz symm=none int=(grid=ultrafine) guess=(read,tcheck) s
 table=(opt,rrhf)
 ----------------------------------------------------------------------
 -----
 title
 -----
 Symbolic Z-matrix:
 Charge =  0 Multiplicity = 1

 SCF Done:  E(RHF) =  -755.374378113     A.U. after   15 cycles
 Normal termination of Gaussian 16 at Tue Apr  8 19:39:40 2025.
 Gaussian 16:  ES64L-G16RevC.01  3-Jul-2019

 ----------------------------------------------------------------------
 #t hf aug-cc-pvdz iop(5/13=1,5/36=2,99/5=2) pseudo=read geom=check gue
 ss=(read,tcheck) scf=(maxcycle=1)
 ----------------------------------------------------------------------
 -----
 title
 -----
 Structure from the checkpoint file:  "ANI1ccx_1405_conf22_mol1.chk"
 Charge =  0 Multiplicity = 1

                         Standard orientation:
 ---------------------------------------------------------------------
 Center     Atomic      Atomic             Coordinates (Angstroms)
 Number     Number       Type             X           Y           Z
 ---------------------------------------------------------------------
      1          6           0       -0.924074    1.983052   -0.063531
      2          6           0        0.105880    1.072791    0.649510
      3          6           0       -1.953539    1.018232   -0.674041
      4          6           0       -2.580300    0.054727    0.276689
      5          6           0       -2.404960   -1.392308   -0.060807
      6          6           0        2.465860    0.275508    0.763109
      7          6           0        2.884350   -0.880079   -0.103377
      8          1           0        1.075020   -1.207719   -0.646618
      9          1           0        3.420051    0.871338    0.904468
     10          1           0        1.959880   -0.083294    1.611930
     11          1           0        1.445711    1.609421   -0.770232
     12          1           0       -1.290281   -2.668108   -0.649221
     13          1           0       -2.134150    0.178898    1.279850
     14          1           0       -3.654490    0.263176    0.313310
     15          1           0       -2.691919    1.742482   -1.218830
     16          1           0       -1.563180    0.557344   -1.547890
     17          1           0       -1.541429    2.579122    0.708916
     18          1           0        0.676039    3.197791   -0.599935
     19          1           0       -0.787524    3.559232   -1.361460
     20          7           0       -0.170686    2.792971   -1.014490
     21          7           0        1.392671    1.153471    0.143393
     22          8           0       -0.146304    0.509165    1.771700
     23          8           0       -3.125531   -2.311088    0.288957
     24          8           0       -1.235440   -1.677398   -0.649528
     25          8           0        4.032900   -1.171180   -0.372218
     26          8           0        1.846010   -1.726539   -0.620397
 ---------------------------------------------------------------------

 SCF Done:  E(RHF) =  -756.126642618     A.U. after    2 cycles

 The electronic state is 1-A.
 Alpha  occ. eigenvalues --  -20.61542 -20.59220 -20.55737 -20.54125 -20.53981
 Alpha  occ. eigenvalues --  -15.57230 -15.54105 -11.41229 -11.40350 -11.39756
 Alpha  occ. eigenvalues --  -11.32494 -11.32372 -11.27142 -11.26281  -1.56633
 Alpha  occ. eigenvalues --   -1.52645  -1.45372  -1.45290  -1.44806  -1.27761
 Alpha  occ. eigenvalues --   -1.22197  -1.11137  -1.04888  -0.99600  -0.89751
 Alpha  occ. eigenvalues --   -0.84122  -0.82620  -0.82372  -0.78345  -0.74167
 Alpha  occ. eigenvalues --   -0.72788  -0.72390  -0.69514  -0.68949  -0.68395
 Alpha  occ. eigenvalues --   -0.66884  -0.66343  -0.63428  -0.62148  -0.60820
 Alpha  occ. eigenvalues --   -0.60131  -0.58694  -0.58210  -0.57690  -0.55827
 Alpha  occ. eigenvalues --   -0.55007  -0.51437  -0.48506  -0.48041  -0.47601
 Alpha  occ. eigenvalues --   -0.46441  -0.44987  -0.43812  -0.43458
 Alpha virt. eigenvalues --    0.01509   0.02977   0.03594   0.03916   0.04834
 Alpha virt. eigenvalues --    0.05462   0.05678   0.05997   0.06434   0.07685
 Alpha virt. eigenvalues --    0.08270   0.09681   0.09998   0.10161   0.10989

 Mulliken charges:
               1
     1  C   -1.526587
     2  C    0.340294
     3  C    0.053388
     4  C   -0.505694
     5  C    2.300790
     6  C   -0.527999
     7  C    2.220681
     8  H    0.549437
     9  H    0.170911
    10  H    0.129099
    11  H    0.210423
    12  H    0.438263
    13  H    0.370990
    14  H    0.188321
    15  H    0.278576
    16  H    0.036981
    17  H    0.277399
    18  H    0.219340
    19  H    0.147586
    20  N    0.639608
    21  N    0.744411
    22  O   -1.526292
    23  O   -1.357238
    24  O   -1.334236
    25  O   -1.216438
    26  O   -1.322014
 Sum of Mulliken charges =   0.00000

 Dipole moment (field-independent basis, Debye):
    X=             -1.7049    Y=              6.6847    Z=             -1.4485  Tot=              7.0491

 Test job not archived.
 1\1\GINC-SE036\SP\RHF\Aug-CC-pVDZ\C7H12N2O5\OHZDE\08-Apr-2025\0\\#t hf
  aug-cc-pvdz iop(5/13=1,5/36=2,99/5=2) pseudo=read geom=check guess=(r
 ead,tcheck) scf=(maxcycle=1)\\title\\0,1\C,0,-0.924075,1.98305,-0.0635
 303\C,0,0.105879,1.07279,0.64951\C,0,-1.95354,1.01823,-0.674041\C,0,-2
 .5803,0.054725,0.276689\C,0,-2.40496,-1.39231,-0.060807\C,0,2.46586,0.
 275507,0.763109\C,0,2.88435,-0.880079,-0.103377\H,0,1.07502,-1.20772,-
 0.646618\H,0,3.42005,0.871338,0.904468\H,0,1.95988,-0.0832952,1.61193\
 H,0,1.44571,1.60942,-0.770232\H,0,-1.29028,-2.66811,-0.649221\H,0,-2.1

 Normal termination of Gaussian 16 at Tue Apr  8 19:40:07 2025.
