 Gaussian 16, Revision C.01,

 ----------------------------------------------------------------------
 #t hf aug-cc-pvdz symm=none int=(grid=ultrafine) guess=(read,tcheck) s
 table=(opt,rrhf)
 ----------------------------------------------------------------------
 -----
 title
 -----
 Symbolic Z-matrix:
 Charge =  0 Multiplicity = 1

 SCF Done:  E(RHF) =  -1021.05223130     A.U. after   15 cycles
 Normal termination of Gaussian 16 at Tue Apr  8 22:06:52 2025.
 Gaussian 16:  ES64L-G16RevC.01  3-Jul-2019

 ----------------------------------------------------------------------
 #t hf aug-cc-pvdz iop(5/13=1,5/36=2,99/5=2) pseudo=read geom=check gue
 ss=(read,tcheck) scf=(maxcycle=1)
 ----------------------------------------------------------------------
 -----
 title
 -----
 Structure from the checkpoint file:  "ANI1ccx_54_conf22_mol1.chk"
 Charge =  0 Multiplicity = 1

                         Standard orientation:
 ---------------------------------------------------------------------
 Center     Atomic      Atomic             Coordinates (Angstroms)
 Number     Number       Type             X           Y           Z
 ---------------------------------------------------------------------
      1          6           0       -1.300471   -0.017484    0.767554
      2          6           0        2.820940    2.047370   -0.021872
      3          6           0        2.779439   -0.309457    0.883349
      4          6           0        1.852369   -1.920180   -0.962771
      5          6           0        1.519599   -0.754647    0.102367
      6          6           0        2.621000    1.153730    1.172939
      7          6           0       -2.611321    0.390229   -1.303911
      8          6           0       -1.676991   -0.599327   -0.644908
      9          6           0       -0.587986   -1.124049    1.448989
     10          6           0       -3.957891    0.702753   -0.524941
     11          1           0        0.969466    0.071683   -0.252163
     12          1           0        1.279629   -2.111970   -2.733791
     13          1           0        2.069290    3.734950   -0.736812
     14          1           0        3.461340    1.383450    1.862009
     15          1           0        1.667710    1.342110    1.526129
     16          1           0        3.599599   -0.455321    0.210265
     17          1           0        2.976079   -0.848570    1.714969
     18          1           0        0.895392   -2.125229    1.634249
     19          1           0       -5.518711   -0.254184    0.139898
     20          1           0       -2.920561   -0.057981   -2.239791
     21          1           0       -2.101070    1.308211   -1.603621
     22          1           0       -2.012151   -1.573409   -0.576933
     23          1           0       -0.815470   -0.459867   -1.286671
     24          1           0       -2.215531    0.073900    1.377669
     25          1           0       -0.150889    1.580551    0.057786
     26          1           0       -1.556530    1.967171    0.839510
     27          7           0       -0.716096    1.299621    0.802913
     28          7           0        0.544883   -1.589479    0.850462
     29          8           0       -1.079521   -1.788009    2.421149
     30          8           0       -4.327990    1.763251   -0.146884
     31          8           0       -4.748561   -0.464638   -0.386482
     32          8           0        2.448869   -2.934320   -0.855048
     33          8           0        3.490700    1.758280   -1.040951
     34          8           0        2.031930    3.143700    0.032588
     35          8           0        1.286919   -1.348280   -2.150261
 ---------------------------------------------------------------------

 SCF Done:  E(RHF) =  -1022.06990019     A.U. after    2 cycles

 The electronic state is 1-A.
 Alpha  occ. eigenvalues --  -20.62658 -20.61172 -20.60178 -20.57900 -20.56383
 Alpha  occ. eigenvalues --  -20.55586 -20.52100 -15.54145 -15.52326 -11.42556
 Alpha  occ. eigenvalues --  -11.42326 -11.41551 -11.36676 -11.32659 -11.29308
 Alpha  occ. eigenvalues --  -11.27766 -11.27076 -11.25893 -11.25883  -1.55928
 Alpha  occ. eigenvalues --   -1.55373  -1.54806  -1.48109  -1.46615  -1.44793
 Alpha  occ. eigenvalues --   -1.43666  -1.27158  -1.22482  -1.13182  -1.09790
 Alpha  occ. eigenvalues --   -1.03262  -0.99893  -0.94111  -0.90208  -0.84230
 Alpha  occ. eigenvalues --   -0.83473  -0.82554  -0.81700  -0.74765  -0.73432
 Alpha  occ. eigenvalues --   -0.72651  -0.72447  -0.72159  -0.71329  -0.70780
 Alpha  occ. eigenvalues --   -0.69833  -0.68742  -0.66741  -0.66025  -0.64428
 Alpha  occ. eigenvalues --   -0.63904  -0.63507  -0.62921  -0.61639  -0.60782
 Alpha  occ. eigenvalues --   -0.59135  -0.58301  -0.57990  -0.57503  -0.56341
 Alpha  occ. eigenvalues --   -0.55289  -0.53990  -0.53008  -0.52247  -0.50563
 Alpha  occ. eigenvalues --   -0.49623  -0.48260  -0.47699  -0.46494  -0.46077
 Alpha  occ. eigenvalues --   -0.44995  -0.42299  -0.41253
 Alpha virt. eigenvalues --    0.02265   0.02810   0.03074   0.03828   0.04595
 Alpha virt. eigenvalues --    0.04967   0.05138   0.05635   0.06573   0.07242
 Alpha virt. eigenvalues --    0.07541   0.08130   0.08598   0.09068   0.10050

 Mulliken charges:
               1
     1  C   -0.988578
     2  C    2.624491
     3  C    0.113403
     4  C    2.501648
     5  C   -1.029638
     6  C   -0.513433
     7  C   -0.811074
     8  C    0.480166
     9  C   -0.012731
    10  C    2.771900
    11  H   -0.098809
    12  H    0.386309
    13  H    0.404183
    14  H    0.338098
    15  H    0.112396
    16  H    0.197123
    17  H   -0.112266
    18  H    0.318996
    19  H    0.381467
    20  H    0.221545
    21  H    0.078984
    22  H   -0.188626
    23  H    0.334424
    24  H    0.007565
    25  H    0.110339
    26  H    0.361405
    27  N    0.833355
    28  N    0.854647
    29  O   -1.509219
    30  O   -1.341140
    31  O   -1.373949
    32  O   -1.362293
    33  O   -1.361947
    34  O   -1.439852
    35  O   -1.288889
 Sum of Mulliken charges =  -0.00000

 Dipole moment (field-independent basis, Debye):
    X=              0.2076    Y=              2.7987    Z=             -2.2926  Tot=              3.6238

 Test job not archived.
 1\1\GINC-SE060\SP\RHF\Aug-CC-pVDZ\C10H16N2O7\OHZDE\08-Apr-2025\0\\#t h
 f aug-cc-pvdz iop(5/13=1,5/36=2,99/5=2) pseudo=read geom=check guess=(
 read,tcheck) scf=(maxcycle=1)\\title\\0,1\C,0,-1.30047,-0.0174851,0.76
 7555\C,0,2.82094,2.04737,-0.0218715\C,0,2.77944,-0.309457,0.88335\C,0,
 1.85237,-1.92018,-0.96277\C,0,1.5196,-0.754647,0.102368\C,0,2.621,1.15
 373,1.17294\C,0,-2.61132,0.390228,-1.30391\C,0,-1.67699,-0.599328,-0.6
 44907\C,0,-0.587985,-1.12405,1.44899\C,0,-3.95789,0.702752,-0.52494\H,
 0,0.969467,0.0716824,-0.252162\H,0,1.27963,-2.11197,-2.73379\H,0,2.069

 Normal termination of Gaussian 16 at Tue Apr  8 22:07:58 2025.
