 Gaussian 16, Revision C.01,

 ----------------------------------------------------------------------
 #t hf aug-cc-pvdz symm=none int=(grid=ultrafine) guess=(read,tcheck) s
 table=(opt,rrhf)
 ----------------------------------------------------------------------
 -----
 title
 -----
 Symbolic Z-matrix:
 Charge =  0 Multiplicity = 1

 SCF Done:  E(RHF) =  -1021.09948212     A.U. after   14 cycles
 Normal termination of Gaussian 16 at Tue Apr  8 22:09:13 2025.
 Gaussian 16:  ES64L-G16RevC.01  3-Jul-2019

 ----------------------------------------------------------------------
 #t hf aug-cc-pvdz iop(5/13=1,5/36=2,99/5=2) pseudo=read geom=check gue
 ss=(read,tcheck) scf=(maxcycle=1)
 ----------------------------------------------------------------------
 -----
 title
 -----
 Structure from the checkpoint file:  "ANI1ccx_54_conf9_mol1.chk"
 Charge =  0 Multiplicity = 1

                         Standard orientation:
 ---------------------------------------------------------------------
 Center     Atomic      Atomic             Coordinates (Angstroms)
 Number     Number       Type             X           Y           Z
 ---------------------------------------------------------------------
      1          6           0        1.424140   -0.650192    1.240510
      2          6           0       -4.316670   -0.445380   -0.530929
      3          6           0       -2.076630   -0.640759    0.765885
      4          6           0       -1.203570    1.772290    0.472739
      5          6           0       -1.265780    0.309338   -0.203023
      6          6           0       -3.180420   -1.331130   -0.031549
      7          6           0        3.806040   -0.102257    0.563551
      8          6           0        2.497060    0.475852    1.200800
      9          6           0        0.995406   -1.026440   -0.199018
     10          6           0        4.035410    0.538795   -0.785745
     11          1           0       -1.922070    0.524528   -1.033360
     12          1           0       -3.100400    1.906950    0.164452
     13          1           0       -5.971850   -0.310370   -1.195650
     14          1           0       -2.836270   -1.901350   -0.926021
     15          1           0       -3.698190   -2.113270    0.543956
     16          1           0       -2.561240   -0.136816    1.615180
     17          1           0       -1.405230   -1.364010    1.224900
     18          1           0       -0.216965   -0.698483   -1.647550
     19          1           0        4.967740    0.371995   -2.394840
     20          1           0        4.695060   -0.094080    1.147830
     21          1           0        3.680730   -1.163731    0.304976
     22          1           0        2.541200    0.915007    2.209270
     23          1           0        2.040570    1.279310    0.652350
     24          1           0        0.603142   -0.194061    1.884040
     25          1           0        1.230110   -2.338020    2.413080
     26          1           0        1.988990   -2.631130    1.080740
     27          7           0        1.910220   -1.936050    1.847460
     28          7           0       -0.052048   -0.305348   -0.730716
     29          8           0        1.558880   -1.904460   -0.826005
     30          8           0        3.431870    1.510349   -1.192150
     31          8           0        4.914930   -0.152804   -1.558940
     32          8           0       -0.078887    2.260080    0.713707
     33          8           0       -4.215310    0.796764   -0.493974
     34          8           0       -5.420690   -1.060520   -0.930268
     35          8           0       -2.357350    2.330170    0.685137
 ---------------------------------------------------------------------

 SCF Done:  E(RHF) =  -1022.11725655     A.U. after    2 cycles

 The electronic state is 1-A.
 Alpha  occ. eigenvalues --  -20.66452 -20.60412 -20.59345 -20.58655 -20.52965
 Alpha  occ. eigenvalues --  -20.52881 -20.51884 -15.54167 -15.48119 -11.45950
 Alpha  occ. eigenvalues --  -11.40503 -11.37622 -11.37106 -11.32985 -11.30589
 Alpha  occ. eigenvalues --  -11.28941 -11.28301 -11.23529 -11.22398  -1.61343
 Alpha  occ. eigenvalues --   -1.55181  -1.52459  -1.49875  -1.48011  -1.43023
 Alpha  occ. eigenvalues --   -1.42887  -1.25547  -1.18182  -1.12614  -1.05708
 Alpha  occ. eigenvalues --   -1.03046  -0.97417  -0.93754  -0.88317  -0.85495
 Alpha  occ. eigenvalues --   -0.84466  -0.80669  -0.78285  -0.77055  -0.75404
 Alpha  occ. eigenvalues --   -0.73547  -0.72944  -0.71896  -0.69018  -0.68870
 Alpha  occ. eigenvalues --   -0.68026  -0.66357  -0.65475  -0.65240  -0.64466
 Alpha  occ. eigenvalues --   -0.64148  -0.62910  -0.62535  -0.60415  -0.59156
 Alpha  occ. eigenvalues --   -0.58165  -0.57097  -0.56914  -0.56288  -0.54595
 Alpha  occ. eigenvalues --   -0.53879  -0.52694  -0.51247  -0.50551  -0.49550
 Alpha  occ. eigenvalues --   -0.49008  -0.45859  -0.45586  -0.45058  -0.44734
 Alpha  occ. eigenvalues --   -0.42507  -0.41749  -0.41192
 Alpha virt. eigenvalues --    0.01548   0.02199   0.02977   0.03981   0.04468
 Alpha virt. eigenvalues --    0.04776   0.05243   0.05845   0.06186   0.06788
 Alpha virt. eigenvalues --    0.07389   0.08055   0.08532   0.08888   0.09224

 Mulliken charges:
               1
     1  C   -1.830166
     2  C    2.280513
     3  C    0.095863
     4  C    2.479756
     5  C   -0.802572
     6  C   -0.592583
     7  C   -0.525424
     8  C    0.130967
     9  C    0.922510
    10  C    2.292503
    11  H    0.127024
    12  H    0.689761
    13  H    0.368765
    14  H    0.284188
    15  H    0.177876
    16  H    0.074788
    17  H    0.007881
    18  H    0.416576
    19  H    0.356372
    20  H    0.106529
    21  H    0.311324
    22  H    0.135523
    23  H    0.307959
    24  H    0.230168
    25  H    0.052594
    26  H    0.192620
    27  N    0.843290
    28  N    0.676478
    29  O   -1.587248
    30  O   -1.283886
    31  O   -1.341494
    32  O   -1.408501
    33  O   -1.406233
    34  O   -1.354297
    35  O   -1.429424
 Sum of Mulliken charges =   0.00000

 Dipole moment (field-independent basis, Debye):
    X=             -8.0696    Y=             -4.2015    Z=             -0.8080  Tot=              9.1336

 Test job not archived.
 1\1\GINC-SE087\SP\RHF\Aug-CC-pVDZ\C10H16N2O7\OHZDE\08-Apr-2025\0\\#t h
 f aug-cc-pvdz iop(5/13=1,5/36=2,99/5=2) pseudo=read geom=check guess=(
 read,tcheck) scf=(maxcycle=1)\\title\\0,1\C,0,1.42414,-0.650192,1.2405
 1\C,0,-4.31667,-0.44538,-0.530929\C,0,-2.07663,-0.640759,0.765885\C,0,
 -1.20357,1.77229,0.472739\C,0,-1.26578,0.309338,-0.203023\C,0,-3.18042
 ,-1.33113,-0.0315497\C,0,3.80604,-0.102256,0.563551\C,0,2.49706,0.4758
 53,1.2008\C,0,0.995406,-1.02644,-0.199018\C,0,4.03541,0.538796,-0.7857
 45\H,0,-1.92207,0.524528,-1.03336\H,0,-3.1004,1.90695,0.164452\H,0,-5.

 Normal termination of Gaussian 16 at Tue Apr  8 22:10:16 2025.
