 Gaussian 16, Revision C.01,

 ----------------------------------------------------------------------
 #t hf aug-cc-pvdz symm=none int=(grid=ultrafine) guess=(read,tcheck) s
 table=(opt,rrhf)
 ----------------------------------------------------------------------
 -----
 title
 -----
 Symbolic Z-matrix:
 Charge =  0 Multiplicity = 1

 SCF Done:  E(RHF) =  -982.050387751     A.U. after   14 cycles
 Normal termination of Gaussian 16 at Tue Apr  8 20:45:51 2025.
 Gaussian 16:  ES64L-G16RevC.01  3-Jul-2019

 ----------------------------------------------------------------------
 #t hf aug-cc-pvdz iop(5/13=1,5/36=2,99/5=2) pseudo=read geom=check gue
 ss=(read,tcheck) scf=(maxcycle=1)
 ----------------------------------------------------------------------
 -----
 title
 -----
 Structure from the checkpoint file:  "ANI1ccx_1743_conf39_mol1.chk"
 Charge =  0 Multiplicity = 1

                         Standard orientation:
 ---------------------------------------------------------------------
 Center     Atomic      Atomic             Coordinates (Angstroms)
 Number     Number       Type             X           Y           Z
 ---------------------------------------------------------------------
      1          6           0        1.311800   -1.898391   -0.108516
      2          6           0        1.150910   -0.819714    1.006090
      3          6           0        1.929370   -1.277801   -1.356320
      4          6           0        3.201560   -0.399099   -1.124540
      5          6           0        2.939930    0.893822   -0.293548
      6          6           0       -1.021040    0.314576    0.131759
      7          6           0       -1.397410    1.697699   -0.256458
      8          6           0       -2.194600   -0.323174    0.948186
      9          6           0       -3.498690   -0.496361    0.132020
     10          1           0        0.384749    2.161689   -0.162314
     11          1           0       -4.031140   -1.003520   -1.514870
     12          1           0       -2.310950    0.228519    1.830830
     13          1           0       -1.951450   -1.230851    1.346820
     14          1           0       -0.912519   -0.262272   -0.812839
     15          1           0       -0.034707    0.507614    1.954110
     16          1           0        3.767970    1.523179    1.226620
     17          1           0        3.795900   -1.066931   -0.522489
     18          1           0        3.464240   -0.126617   -2.147730
     19          1           0        2.306740   -2.006381   -2.035020
     20          1           0        1.163570   -0.603393   -1.811930
     21          1           0        1.980410   -2.617411    0.445611
     22          1           0       -0.558975   -2.759611    0.320761
     23          1           0        0.014692   -3.055191   -1.190300
     24          7           0       -0.007181   -2.373351   -0.449825
     25          7           0        0.170594    0.152057    0.928042
     26          8           0        1.934560   -0.931276    1.891350
     27          8           0        2.003500    1.636619   -0.261819
     28          8           0        4.005370    0.988964    0.486879
     29          8           0       -2.578310    1.892359   -0.434889
     30          8           0       -4.607300   -0.283653    0.525240
     31          8           0       -3.186950   -0.895451   -1.118200
     32          8           0       -0.415049    2.556299   -0.431908
 ---------------------------------------------------------------------

 SCF Done:  E(RHF) =  -983.023461725     A.U. after    2 cycles

 The electronic state is 1-A.
 Alpha  occ. eigenvalues --  -20.61542 -20.59709 -20.58749 -20.57038 -20.54196
 Alpha  occ. eigenvalues --  -20.53292 -20.52692 -15.55202 -15.51691 -11.42316
 Alpha  occ. eigenvalues --  -11.39437 -11.38886 -11.37858 -11.30576 -11.30253
 Alpha  occ. eigenvalues --  -11.27955 -11.27098 -11.25702  -1.58757  -1.55507
 Alpha  occ. eigenvalues --   -1.55202  -1.51113  -1.49549  -1.45755  -1.45618
 Alpha  occ. eigenvalues --   -1.26481  -1.22130  -1.10238  -1.08214  -0.99229
 Alpha  occ. eigenvalues --   -0.97469  -0.91625  -0.85744  -0.84722  -0.83228
 Alpha  occ. eigenvalues --   -0.80693  -0.78444  -0.74562  -0.73827  -0.72475
 Alpha  occ. eigenvalues --   -0.71941  -0.70888  -0.70336  -0.69125  -0.67802
 Alpha  occ. eigenvalues --   -0.66522  -0.66239  -0.65728  -0.63830  -0.63267
 Alpha  occ. eigenvalues --   -0.61552  -0.61196  -0.59676  -0.58579  -0.58426
 Alpha  occ. eigenvalues --   -0.56171  -0.55031  -0.54393  -0.54015  -0.52208
 Alpha  occ. eigenvalues --   -0.50611  -0.48029  -0.47563  -0.46531  -0.46089
 Alpha  occ. eigenvalues --   -0.45561  -0.45128  -0.43218  -0.41455
 Alpha virt. eigenvalues --    0.02096   0.02759   0.03408   0.03565   0.04205
 Alpha virt. eigenvalues --    0.04519   0.05073   0.05438   0.06588   0.07532
 Alpha virt. eigenvalues --    0.07811   0.08286   0.09111   0.09932   0.10336

 Mulliken charges:
               1
     1  C   -1.619138
     2  C    0.981606
     3  C    0.201010
     4  C   -0.612676
     5  C    2.561752
     6  C   -1.259494
     7  C    2.261245
     8  C   -0.029689
     9  C    2.532180
    10  H    0.676842
    11  H    0.407748
    12  H    0.023429
    13  H    0.060384
    14  H    0.377612
    15  H    0.596175
    16  H    0.305218
    17  H    0.222299
    18  H    0.278674
    19  H    0.039456
    20  H    0.306713
    21  H    0.067266
    22  H    0.249502
    23  H    0.344228
    24  N    0.369456
    25  N    0.820421
    26  O   -1.661463
    27  O   -1.642295
    28  O   -1.348213
    29  O   -1.404617
    30  O   -1.371171
    31  O   -1.370985
    32  O   -1.363476
 Sum of Mulliken charges =  -0.00000

 Dipole moment (field-independent basis, Debye):
    X=              5.2035    Y=             -5.0263    Z=             -1.1386  Tot=              7.3237

 Test job not archived.
 1\1\GINC-SE365\SP\RHF\Aug-CC-pVDZ\C9H14N2O7\OHZDE\08-Apr-2025\0\\#t hf
  aug-cc-pvdz iop(5/13=1,5/36=2,99/5=2) pseudo=read geom=check guess=(r
 ead,tcheck) scf=(maxcycle=1)\\title\\0,1\C,0,1.3118,-1.89839,-0.108516
 \C,0,1.15091,-0.819713,1.00609\C,0,1.92937,-1.2778,-1.35632\C,0,3.2015
 6,-0.399098,-1.12454\C,0,2.93993,0.893823,-0.293548\C,0,-1.02104,0.314
 577,0.131759\C,0,-1.39741,1.6977,-0.256458\C,0,-2.1946,-0.323173,0.948
 186\C,0,-3.49869,-0.496361,0.13202\H,0,0.384748,2.16169,-0.162314\H,0,
 -4.03114,-1.00352,-1.51487\H,0,-2.31095,0.22852,1.83083\H,0,-1.95145,-

 Normal termination of Gaussian 16 at Tue Apr  8 20:46:35 2025.
