 Gaussian 16, Revision C.01,

 ----------------------------------------------------------------------
 #t hf aug-cc-pvdz symm=none int=(grid=ultrafine) guess=(read,tcheck) s
 table=(opt,rrhf)
 ----------------------------------------------------------------------
 -----
 title
 -----
 Symbolic Z-matrix:
 Charge =  0 Multiplicity = 1

 SCF Done:  E(RHF) =  -480.753328435     A.U. after   14 cycles
 Normal termination of Gaussian 16 at Tue Apr  8 21:47:32 2025.
 Gaussian 16:  ES64L-G16RevC.01  3-Jul-2019

 ----------------------------------------------------------------------
 #t hf aug-cc-pvdz iop(5/13=1,5/36=2,99/5=2) pseudo=read geom=check gue
 ss=(read,tcheck) scf=(maxcycle=1)
 ----------------------------------------------------------------------
 -----
 title
 -----
 Structure from the checkpoint file:  "ANI1ccx_558_conf1_mol1.chk"
 Charge =  0 Multiplicity = 1

                         Standard orientation:
 ---------------------------------------------------------------------
 Center     Atomic      Atomic             Coordinates (Angstroms)
 Number     Number       Type             X           Y           Z
 ---------------------------------------------------------------------
      1          6           0        1.235259   -0.657594   -0.120884
      2          6           0       -1.123581   -0.721654    0.113946
      3          1           0       -1.942070    2.153189    0.480207
      4          1           0       -2.032310    1.169249   -0.919485
      5          1           0        0.991591    2.559088   -0.267356
      6          1           0        1.413040    1.814638    1.104170
      7          1           0        0.001749   -2.436681   -0.179297
      8          1           0       -2.404461   -2.079461    0.081991
      9          7           0       -1.383110    1.653969   -0.251257
     10          7           0       -0.720461    0.564751    0.253844
     11          7           0        0.665433    0.564526   -0.177805
     12          7           0        1.429680    1.685168    0.112523
     13          7           0        0.065091   -1.483001    0.022272
     14          7           0       -2.333981   -1.040641    0.056929
     15          8           0        2.405479   -1.064742   -0.046767
 ---------------------------------------------------------------------

 SCF Done:  E(RHF) =  -481.239657258     A.U. after    2 cycles

 The electronic state is 1-A.
 Alpha  occ. eigenvalues --  -20.53097 -15.60838 -15.60235 -15.57021 -15.56117
 Alpha  occ. eigenvalues --  -15.55323 -15.49358 -11.41858 -11.37929  -1.47394
 Alpha  occ. eigenvalues --   -1.42802  -1.31129  -1.29359  -1.21822  -1.14546
 Alpha  occ. eigenvalues --   -1.07412  -0.92652  -0.86604  -0.82753  -0.79240
 Alpha  occ. eigenvalues --   -0.75689  -0.74532  -0.72828  -0.71628  -0.66013
 Alpha  occ. eigenvalues --   -0.64653  -0.56636  -0.55922  -0.52758  -0.52143
 Alpha  occ. eigenvalues --   -0.50709  -0.45564  -0.44547  -0.41214
 Alpha virt. eigenvalues --    0.02311   0.04092   0.04737   0.05273   0.05742
 Alpha virt. eigenvalues --    0.06073   0.08948   0.09163   0.10947   0.12026
 Alpha virt. eigenvalues --    0.12826   0.12879   0.13265   0.14203   0.15506

 Mulliken charges:
               1
     1  C    0.729152
     2  C   -1.585406
     3  H    0.259408
     4  H    0.250502
     5  H    0.179770
     6  H    0.216197
     7  H    0.055011
     8  H    0.242319
     9  N    0.013768
    10  N   -0.460542
    11  N   -0.143962
    12  N    0.257295
    13  N    0.397726
    14  N    0.788308
    15  O   -1.199545
 Sum of Mulliken charges =  -0.00000

 Dipole moment (field-independent basis, Debye):
    X=             -3.1301    Y=              1.1942    Z=              0.6126  Tot=              3.4057

 Test job not archived.
 1\1\GINC-SE250\SP\RHF\Aug-CC-pVDZ\C2H6N6O1\OHZDE\08-Apr-2025\0\\#t hf
 aug-cc-pvdz iop(5/13=1,5/36=2,99/5=2) pseudo=read geom=check guess=(re
 ad,tcheck) scf=(maxcycle=1)\\title\\0,1\C,0,1.23526,-0.657592,-0.12088
 4\C,0,-1.12358,-0.721653,0.113946\H,0,-1.94207,2.15319,0.480207\H,0,-2
 .03231,1.16925,-0.919485\H,0,0.991591,2.55909,-0.267356\H,0,1.41304,1.
 81464,1.10417\H,0,0.00175019,-2.43668,-0.179297\H,0,-2.40446,-2.07946,
 0.0819907\N,0,-1.38311,1.65397,-0.251257\N,0,-0.72046,0.564752,0.25384
 4\N,0,0.665434,0.564528,-0.177805\N,0,1.42968,1.68517,0.112523\N,0,0.0

 Normal termination of Gaussian 16 at Tue Apr  8 21:47:38 2025.
