 Gaussian 16, Revision C.01,

 ----------------------------------------------------------------------
 #t hf aug-cc-pvdz symm=none int=(grid=ultrafine) guess=(read,tcheck) s
 table=(opt,rrhf)
 ----------------------------------------------------------------------
 -----
 title
 -----
 Symbolic Z-matrix:
 Charge =  0 Multiplicity = 1

 SCF Done:  E(RHF) =  -318.600454759     A.U. after   16 cycles
 Normal termination of Gaussian 16 at Tue Apr  8 21:34:31 2025.
 Gaussian 16:  ES64L-G16RevC.01  3-Jul-2019

 ----------------------------------------------------------------------
 #t hf aug-cc-pvdz iop(5/13=1,5/36=2,99/5=2) pseudo=read geom=check gue
 ss=(read,tcheck) scf=(maxcycle=1)
 ----------------------------------------------------------------------
 -----
 title
 -----
 Structure from the checkpoint file:  "ANI1ccx_387_conf4_mol1.chk"
 Charge =  0 Multiplicity = 1

                         Standard orientation:
 ---------------------------------------------------------------------
 Center     Atomic      Atomic             Coordinates (Angstroms)
 Number     Number       Type             X           Y           Z
 ---------------------------------------------------------------------
      1          6           0        1.252989    0.134639    0.000267
      2          1           0       -2.797032    1.233899    0.014880
      3          1           0        1.335770   -1.728019    0.157832
      4          1           0        0.169845   -0.053202    0.027557
      5          7           0       -2.611191    0.274440    0.440522
      6          8           0       -2.223471   -0.479549   -0.421680
      7          8           0        1.969780   -0.996002    0.131553
      8          8           0        1.760168    1.202852   -0.120563
 ---------------------------------------------------------------------

 SCF Done:  E(RHF) =  -318.906308302     A.U. after    2 cycles

 The electronic state is 1-A.
 Alpha  occ. eigenvalues --  -20.66199 -20.61388 -20.54863 -15.67698 -11.40154
 Alpha  occ. eigenvalues --   -1.62687  -1.55699  -1.47031  -1.04351  -0.87118
 Alpha  occ. eigenvalues --   -0.79673  -0.78903  -0.70995  -0.67308  -0.63811
 Alpha  occ. eigenvalues --   -0.63259  -0.59555  -0.48458  -0.46219  -0.45707
 Alpha virt. eigenvalues --    0.02673   0.02924   0.03965   0.07582   0.08777
 Alpha virt. eigenvalues --    0.10314   0.12546   0.12911   0.14407   0.16141
 Alpha virt. eigenvalues --    0.16988   0.17384   0.18996   0.20190   0.20930

 Mulliken charges:
               1
     1  C    1.630509
     2  H    0.087433
     3  H    0.434185
     4  H    0.009701
     5  N    0.747786
     6  O   -0.834466
     7  O   -1.030535
     8  O   -1.044614
 Sum of Mulliken charges =  -0.00000

 Dipole moment (field-independent basis, Debye):
    X=             -3.4127    Y=             -1.4470    Z=             -0.2563  Tot=              3.7157

 Test job not archived.
 1\1\GINC-SE127\SP\RHF\Aug-CC-pVDZ\C1H3N1O3\OHZDE\08-Apr-2025\0\\#t hf
 aug-cc-pvdz iop(5/13=1,5/36=2,99/5=2) pseudo=read geom=check guess=(re
 ad,tcheck) scf=(maxcycle=1)\\title\\0,1\C,0,1.25299,0.134638,0.0002667
 3\H,0,-2.79703,1.2339,0.0148801\H,0,1.33577,-1.72802,0.157832\H,0,0.16
 9846,-0.0532029,0.0275576\N,0,-2.61119,0.274441,0.440522\O,0,-2.22347,
 -0.479548,-0.42168\O,0,1.96978,-0.996004,0.131553\O,0,1.76017,1.20285,
 -0.120563\\Version=ES64L-G16RevC.01\State=1-A\HF=-318.9063083\RMSD=9.5
 15e-03\Dipole=-1.3426671,-0.5693021,-0.1008295\Quadrupole=-2.7042788,2

 Normal termination of Gaussian 16 at Tue Apr  8 21:34:34 2025.
