 Gaussian 16, Revision C.01,

 ----------------------------------------------------------------------
 #t hf aug-cc-pvdz symm=none int=(grid=ultrafine) guess=(read,tcheck) s
 table=(opt,rrhf)
 ----------------------------------------------------------------------
 -----
 title
 -----
 Symbolic Z-matrix:
 Charge =  0 Multiplicity = 1

 SCF Done:  E(RHF) =  -724.112376755     A.U. after   15 cycles
 Normal termination of Gaussian 16 at Tue Apr  8 20:25:05 2025.
 Gaussian 16:  ES64L-G16RevC.01  3-Jul-2019

 ----------------------------------------------------------------------
 #t hf aug-cc-pvdz iop(5/13=1,5/36=2,99/5=2) pseudo=read geom=check gue
 ss=(read,tcheck) scf=(maxcycle=1)
 ----------------------------------------------------------------------
 -----
 title
 -----
 Structure from the checkpoint file:  "ANI1ccx_161_conf1_mol1.chk"
 Charge =  0 Multiplicity = 1

                         Standard orientation:
 ---------------------------------------------------------------------
 Center     Atomic      Atomic             Coordinates (Angstroms)
 Number     Number       Type             X           Y           Z
 ---------------------------------------------------------------------
      1          6           0        5.493610    0.192520    0.399901
      2          6           0       -0.516024    1.368000   -0.157649
      3          6           0       -1.873700    1.643830    0.017765
      4          6           0       -4.135960    0.438224    0.511913
      5          6           0       -4.510860   -0.916891   -0.041986
      6          6           0       -2.711850    0.576369    0.091673
      7          6           0       -0.889099   -1.097130   -0.121557
      8          6           0       -0.053246   -0.040704   -0.131588
      9          6           0        2.494940   -0.164160    0.432917
     10          6           0        3.434280   -0.883400   -0.383828
     11          6           0       -2.252870   -0.794494   -0.106434
     12          1           0       -5.369470   -1.511220    0.380084
     13          1           0        0.294686    3.235290   -0.305209
     14          1           0       -2.203050    2.679610   -0.206893
     15          1           0       -4.116810    0.356379    1.564410
     16          1           0       -4.754150    1.236670    0.206813
     17          1           0       -4.796560   -0.757659   -1.113460
     18          1           0       -0.646066   -2.079980   -0.174977
     19          1           0        3.360590   -0.444405   -1.428510
     20          1           0        2.282370   -0.689429    1.385510
     21          1           0        2.972220   -1.864171   -0.564265
     22          1           0        5.212420    0.881930   -0.422843
     23          1           0        5.210740    0.774905    1.292980
     24          1           0        6.495660   -0.113019    0.253765
     25          1           0        2.738880    0.905821    0.604672
     26          8           0       -3.314700   -1.662020    0.010425
     27          8           0        4.785500   -0.996629    0.085636
     28          8           0        1.308390   -0.227953   -0.351352
     29          8           0        0.526212    2.318640   -0.312062
 ---------------------------------------------------------------------

 SCF Done:  E(RHF) =  -724.850430496     A.U. after    2 cycles

 The electronic state is 1-A.
 Alpha  occ. eigenvalues --  -20.57483 -20.57114 -20.54103 -20.54099 -11.31622
 Alpha  occ. eigenvalues --  -11.31480 -11.30452 -11.30094 -11.28892 -11.27921
 Alpha  occ. eigenvalues --  -11.27570 -11.25453 -11.24523 -11.23949 -11.23878
 Alpha  occ. eigenvalues --   -1.50460  -1.47811  -1.45923  -1.44451  -1.15583
 Alpha  occ. eigenvalues --   -1.08969  -1.04457  -1.02114  -0.97521  -0.93068
 Alpha  occ. eigenvalues --   -0.87366  -0.83511  -0.82985  -0.80394  -0.74055
 Alpha  occ. eigenvalues --   -0.72600  -0.71474  -0.68758  -0.67836  -0.65072
 Alpha  occ. eigenvalues --   -0.64770  -0.64273  -0.62454  -0.61944  -0.59686
 Alpha  occ. eigenvalues --   -0.58951  -0.57666  -0.57371  -0.55992  -0.54104
 Alpha  occ. eigenvalues --   -0.53351  -0.52486  -0.50820  -0.50027  -0.47920
 Alpha  occ. eigenvalues --   -0.46836  -0.43049  -0.42946  -0.40952  -0.35793
 Alpha  occ. eigenvalues --   -0.28042
 Alpha virt. eigenvalues --    0.02725   0.03334   0.03881   0.04209   0.04496
 Alpha virt. eigenvalues --    0.04605   0.04899   0.06245   0.06302   0.07153
 Alpha virt. eigenvalues --    0.07476   0.07746   0.08998   0.09305   0.10129

 Mulliken charges:
               1
     1  C    0.242302
     2  C    1.239216
     3  C    0.271767
     4  C   -0.868331
     5  C    0.444705
     6  C   -0.495159
     7  C    1.379108
     8  C    1.852078
     9  C    0.263687
    10  C    0.473338
    11  C    1.182758
    12  H    0.089946
    13  H    0.459955
    14  H   -0.170383
    15  H    0.257633
    16  H    0.127057
    17  H    0.159329
    18  H   -0.524342
    19  H    0.279452
    20  H    0.148294
    21  H    0.070120
    22  H    0.145726
    23  H    0.192353
    24  H   -0.090773
    25  H    0.099251
    26  O   -1.873910
    27  O   -1.353903
    28  O   -2.069805
    29  O   -1.931469
 Sum of Mulliken charges =  -0.00000

 Dipole moment (field-independent basis, Debye):
    X=             -2.3470    Y=              3.2502    Z=              0.8257  Tot=              4.0932

 Test job not archived.
 1\1\GINC-SE059\SP\RHF\Aug-CC-pVDZ\C11H14O4\OHZDE\08-Apr-2025\0\\#t hf
 aug-cc-pvdz iop(5/13=1,5/36=2,99/5=2) pseudo=read geom=check guess=(re
 ad,tcheck) scf=(maxcycle=1)\\title\\0,1\C,0,5.49361,0.192521,0.399901\
 C,0,-0.516024,1.368,-0.157649\C,0,-1.8737,1.64383,0.0177648\C,0,-4.135
 96,0.438224,0.511913\C,0,-4.51086,-0.916891,-0.0419858\C,0,-2.71185,0.
 576369,0.0916729\C,0,-0.889099,-1.09713,-0.121557\C,0,-0.0532457,-0.04
 07037,-0.131588\C,0,2.49494,-0.164159,0.432917\C,0,3.43428,-0.883399,-
 0.383828\C,0,-2.25287,-0.794494,-0.106434\H,0,-5.36947,-1.51122,0.3800

 Normal termination of Gaussian 16 at Tue Apr  8 20:25:36 2025.
