 Gaussian 16, Revision C.01,

 ----------------------------------------------------------------------
 #t hf aug-cc-pvdz symm=none int=(grid=ultrafine) guess=(read,tcheck) s
 table=(opt,rrhf)
 ----------------------------------------------------------------------
 -----
 title
 -----
 Symbolic Z-matrix:
 Charge =  0 Multiplicity = 1

 SCF Done:  E(RHF) =  -564.573670503     A.U. after   14 cycles
 Normal termination of Gaussian 16 at Tue Apr  8 22:15:05 2025.
 Gaussian 16:  ES64L-G16RevC.01  3-Jul-2019

 ----------------------------------------------------------------------
 #t hf aug-cc-pvdz iop(5/13=1,5/36=2,99/5=2) pseudo=read geom=check gue
 ss=(read,tcheck) scf=(maxcycle=1)
 ----------------------------------------------------------------------
 -----
 title
 -----
 Structure from the checkpoint file:  "ANI1ccx_958_conf7_mol1.chk"
 Charge =  0 Multiplicity = 1

                         Standard orientation:
 ---------------------------------------------------------------------
 Center     Atomic      Atomic             Coordinates (Angstroms)
 Number     Number       Type             X           Y           Z
 ---------------------------------------------------------------------
      1          6           0        2.455731   -1.396259   -0.720838
      2          6           0        0.424159   -0.275971   -0.286831
      3          6           0       -2.060210   -0.276185    0.071881
      4          6           0        0.927204    1.040530    0.156514
      5          1           0        1.850490    0.312761    1.670041
      6          1           0       -1.417701    1.004829   -1.261259
      7          1           0       -3.076341    1.065418   -1.105529
      8          1           0       -0.680048   -1.206001    1.244491
      9          1           0        2.950981   -2.256958   -0.261382
     10          1           0        3.100640   -0.525542   -0.898377
     11          1           0        2.104281   -1.767239   -1.696769
     12          1           0        0.220951   -0.349917   -1.378249
     13          7           0       -0.794599   -0.657825    0.379438
     14          7           0       -2.239741    0.512156   -1.019439
     15          8           0        1.571329    1.151311    1.309281
     16          8           0        1.364671   -1.136349    0.159555
     17          8           0       -2.973800   -0.745098    0.722366
     18          8           0        0.751027    2.003840   -0.585862
 ---------------------------------------------------------------------

 SCF Done:  E(RHF) =  -565.138496324     A.U. after    2 cycles

 The electronic state is 1-A.
 Alpha  occ. eigenvalues --  -20.62427 -20.60128 -20.55307 -20.49303 -15.54032
 Alpha  occ. eigenvalues --  -15.52764 -11.40929 -11.38519 -11.37126 -11.33004
 Alpha  occ. eigenvalues --   -1.58261  -1.54252  -1.46633  -1.46251  -1.27783
 Alpha  occ. eigenvalues --   -1.21574  -1.05085  -0.95947  -0.88747  -0.86979
 Alpha  occ. eigenvalues --   -0.82138  -0.79148  -0.76268  -0.73336  -0.69628
 Alpha  occ. eigenvalues --   -0.67375  -0.66237  -0.65685  -0.63107  -0.62443
 Alpha  occ. eigenvalues --   -0.60257  -0.58033  -0.54942  -0.50985  -0.49075
 Alpha  occ. eigenvalues --   -0.48749  -0.45103  -0.43593  -0.41965
 Alpha virt. eigenvalues --    0.02425   0.03218   0.04004   0.04438   0.05379
 Alpha virt. eigenvalues --    0.06886   0.07528   0.08574   0.09441   0.10539
 Alpha virt. eigenvalues --    0.10933   0.11984   0.12641   0.12920   0.13330

 Mulliken charges:
               1
     1  C    0.004626
     2  C    0.122479
     3  C    0.067113
     4  C    2.483156
     5  H    0.410040
     6  H    0.068156
     7  H    0.212700
     8  H    0.352495
     9  H    0.019332
    10  H    0.209642
    11  H    0.151608
    12  H    0.026980
    13  N    0.690464
    14  N    0.585943
    15  O   -1.369324
    16  O   -1.484928
    17  O   -1.252908
    18  O   -1.297574
 Sum of Mulliken charges =  -0.00000

 Dipole moment (field-independent basis, Debye):
    X=              4.6177    Y=             -1.9324    Z=             -1.2404  Tot=              5.1571

 Test job not archived.
 1\1\GINC-SE220\SP\RHF\Aug-CC-pVDZ\C4H8N2O4\OHZDE\08-Apr-2025\0\\#t hf
 aug-cc-pvdz iop(5/13=1,5/36=2,99/5=2) pseudo=read geom=check guess=(re
 ad,tcheck) scf=(maxcycle=1)\\title\\0,1\C,0,2.45573,-1.39626,-0.720839
 \C,0,0.424159,-0.275971,-0.286832\C,0,-2.06021,-0.276183,0.0718803\C,0
 ,0.927205,1.04053,0.156513\H,0,1.85049,0.31276,1.67004\H,0,-1.4177,1.0
 0483,-1.26126\H,0,-3.07634,1.06542,-1.10553\H,0,-0.680049,-1.206,1.244
 49\H,0,2.95098,-2.25696,-0.261383\H,0,3.10064,-0.525544,-0.898378\H,0,
 2.10428,-1.76724,-1.69677\H,0,0.220951,-0.349917,-1.37825\N,0,-0.79459

 Normal termination of Gaussian 16 at Tue Apr  8 22:15:15 2025.
