 Gaussian 16, Revision C.01,

 ----------------------------------------------------------------------
 #t hf aug-cc-pvdz symm=none int=(grid=ultrafine) guess=(read,tcheck) s
 table=(opt,rrhf)
 ----------------------------------------------------------------------
 -----
 title
 -----
 Symbolic Z-matrix:
 Charge =  0 Multiplicity = 1

 SCF Done:  E(RHF) =  -386.364134115     A.U. after   17 cycles
 Normal termination of Gaussian 16 at Tue Apr  8 21:48:57 2025.
 Gaussian 16:  ES64L-G16RevC.01  3-Jul-2019

 ----------------------------------------------------------------------
 #t hf aug-cc-pvdz iop(5/13=1,5/36=2,99/5=2) pseudo=read geom=check gue
 ss=(read,tcheck) scf=(maxcycle=1)
 ----------------------------------------------------------------------
 -----
 title
 -----
 Structure from the checkpoint file:  "ANI1ccx_651_conf1_mol2.chk"
 Charge =  0 Multiplicity = 1

                         Standard orientation:
 ---------------------------------------------------------------------
 Center     Atomic      Atomic             Coordinates (Angstroms)
 Number     Number       Type             X           Y           Z
 ---------------------------------------------------------------------
      1          6           0       -1.971001    0.092499   -0.026714
      2          6           0       -0.499322   -0.006955    0.108215
      3          6           0        1.434069    1.064150   -0.035344
      4          1           0        2.068699    1.988920   -0.090278
      5          7           0       -3.147281    0.002659   -0.087688
      6          7           0        0.137199    1.133550    0.101362
      7          7           0        2.121699   -0.083691   -0.093144
      8          7           0        1.409819   -1.155470   -0.018466
      9          7           0        0.071254   -1.166630    0.071270
 ---------------------------------------------------------------------

 SCF Done:  E(RHF) =  -386.737228153     A.U. after    2 cycles

 The electronic state is 1-A.
 Alpha  occ. eigenvalues --  -15.66317 -15.61151 -15.60825 -15.58544 -15.57244
 Alpha  occ. eigenvalues --  -11.41918 -11.39414 -11.33123  -1.48731  -1.34113
 Alpha  occ. eigenvalues --   -1.30672  -1.25629  -1.08563  -1.06151  -0.90464
 Alpha  occ. eigenvalues --   -0.87206  -0.75188  -0.73053  -0.69109  -0.64863
 Alpha  occ. eigenvalues --   -0.62619  -0.58776  -0.55988  -0.54667  -0.53790
 Alpha  occ. eigenvalues --   -0.51153  -0.50803
 Alpha virt. eigenvalues --   -0.02803  -0.00582   0.02492   0.05853   0.07298
 Alpha virt. eigenvalues --    0.07882   0.07975   0.10329   0.10655   0.11492
 Alpha virt. eigenvalues --    0.12554   0.12872   0.13811   0.14694   0.15514

 Mulliken charges:
               1
     1  C   -1.207703
     2  C   -0.652137
     3  C   -0.382628
     4  H    0.061729
     5  N    0.912703
     6  N    0.815178
     7  N    0.302563
     8  N   -0.504068
     9  N    0.654364
 Sum of Mulliken charges =   0.00000

 Dipole moment (field-independent basis, Debye):
    X=              3.1512    Y=              2.9612    Z=              0.1697  Tot=              4.3275

 Test job not archived.
 1\1\GINC-SE328\SP\RHF\Aug-CC-pVDZ\C3H1N5\OHZDE\08-Apr-2025\0\\#t hf au
 g-cc-pvdz iop(5/13=1,5/36=2,99/5=2) pseudo=read geom=check guess=(read
 ,tcheck) scf=(maxcycle=1)\\title\\0,1\C,0,-1.971,0.0924991,-0.0267141\
 C,0,-0.499321,-0.00695431,0.108215\C,0,1.43407,1.06415,-0.0353441\H,0,
 2.0687,1.98892,-0.0902781\N,0,-3.14728,0.00265914,-0.0876885\N,0,0.137
 2,1.13355,0.101362\N,0,2.1217,-0.0836904,-0.0931441\N,0,1.40982,-1.155
 47,-0.0184662\N,0,0.0712555,-1.16663,0.0712701\\Version=ES64L-G16RevC.
 01\State=1-A\HF=-386.7372282\RMSD=6.210e-02\Dipole=1.2397887,1.1650105

 Normal termination of Gaussian 16 at Tue Apr  8 21:49:01 2025.
