 Gaussian 16, Revision C.01,

 ----------------------------------------------------------------------
 #t hf aug-cc-pvdz symm=none int=(grid=ultrafine) guess=(read,tcheck) s
 table=(opt,rrhf)
 ----------------------------------------------------------------------
 -----
 title
 -----
 Symbolic Z-matrix:
 Charge =  0 Multiplicity = 1

 SCF Done:  E(RHF) =  -380.235493300     A.U. after   11 cycles
 Normal termination of Gaussian 16 at Tue Apr  8 20:59:22 2025.
 Gaussian 16:  ES64L-G16RevC.01  3-Jul-2019

 ----------------------------------------------------------------------
 #t hf aug-cc-pvdz iop(5/13=1,5/36=2,99/5=2) pseudo=read geom=check gue
 ss=(read,tcheck) scf=(maxcycle=1)
 ----------------------------------------------------------------------
 -----
 title
 -----
 Structure from the checkpoint file:  "ANI1ccx_1843_conf10_mol1.chk"
 Charge =  0 Multiplicity = 1

                         Standard orientation:
 ---------------------------------------------------------------------
 Center     Atomic      Atomic             Coordinates (Angstroms)
 Number     Number       Type             X           Y           Z
 ---------------------------------------------------------------------
      1          1           0        0.017300    1.466631    0.373558
      2          1           0        0.954749    2.007408    1.479690
      3          1           0       -1.812878    0.591666   -0.333254
      4          1           0       -1.428204    1.721205   -1.294210
      5          1           0       -2.723594   -1.551871    0.236924
      6          1           0       -1.172894   -1.454586    0.096219
      7          1           0        1.089037   -1.378593    0.072767
      8          1           0        0.503826   -0.621207    1.239410
      9          1           0        3.117799   -0.534713   -0.859108
     10          1           0        1.947702    0.437791   -0.444433
     11          8           0        0.880594    1.316548    0.809130
     12          8           0       -1.513695    1.538915   -0.360239
     13          8           0       -2.023783   -1.132003   -0.295832
     14          8           0        0.417788   -1.479631    0.797223
     15          8           0        2.177490   -0.329296   -1.021230
 ---------------------------------------------------------------------

 SCF Done:  E(RHF) =  -380.630764864     A.U. after    2 cycles

 The electronic state is 1-A.
 Alpha  occ. eigenvalues --  -20.56205 -20.55772 -20.55343 -20.54883 -20.53835
 Alpha  occ. eigenvalues --   -1.45839  -1.43945  -1.43515  -1.42547  -1.41187
 Alpha  occ. eigenvalues --   -0.73391  -0.71699  -0.71146  -0.70222  -0.68572
 Alpha  occ. eigenvalues --   -0.62462  -0.59672  -0.58764  -0.56848  -0.54374
 Alpha  occ. eigenvalues --   -0.50724  -0.49638  -0.49196  -0.49059  -0.47768
 Alpha virt. eigenvalues --    0.03358   0.04478   0.04892   0.05330   0.07867
 Alpha virt. eigenvalues --    0.08126   0.08512   0.09328   0.10629   0.11283
 Alpha virt. eigenvalues --    0.17420   0.17746   0.19925   0.20711   0.20855

 Mulliken charges:
               1
     1  H    0.858490
     2  H    0.391434
     3  H    0.713833
     4  H    0.337581
     5  H    0.367558
     6  H    0.675715
     7  H    0.636511
     8  H    0.589659
     9  H    0.389326
    10  H    0.615587
    11  O   -1.300449
    12  O   -1.066249
    13  O   -1.004699
    14  O   -1.309822
    15  O   -0.894476
 Sum of Mulliken charges =  -0.00000

 Dipole moment (field-independent basis, Debye):
    X=              0.9544    Y=              1.5152    Z=              1.0837  Tot=              2.0931

 Test job not archived.
 1\1\GINC-SE460\SP\RHF\Aug-CC-pVDZ\H10O5\OHZDE\08-Apr-2025\0\\#t hf aug
 -cc-pvdz iop(5/13=1,5/36=2,99/5=2) pseudo=read geom=check guess=(read,
 tcheck) scf=(maxcycle=1)\\title\\0,1\H,0,0.0172947,1.46663,0.373558\H,
 0,0.954742,2.00741,1.47969\H,0,-1.81288,0.59166,-0.333254\H,0,-1.42821
 ,1.7212,-1.29421\H,0,-2.72359,-1.55188,0.236924\H,0,-1.17289,-1.45459,
 0.0962182\H,0,1.08904,-1.37859,0.0727666\H,0,0.503827,-0.621206,1.2394
 1\H,0,3.1178,-0.534704,-0.859108\H,0,1.9477,0.437796,-0.444433\O,0,0.8
 8059,1.31655,0.80913\O,0,-1.5137,1.53891,-0.360239\O,0,-2.02378,-1.132

 Normal termination of Gaussian 16 at Tue Apr  8 20:59:26 2025.
