 Gaussian 16, Revision C.01,

 ----------------------------------------------------------------------
 #t hf aug-cc-pvdz symm=none int=(grid=ultrafine) guess=(read,tcheck) s
 table=(opt,rrhf)
 ----------------------------------------------------------------------
 -----
 title
 -----
 Symbolic Z-matrix:
 Charge =  0 Multiplicity = 1

 SCF Done:  E(RHF) =  -869.338363528     A.U. after   14 cycles
 Normal termination of Gaussian 16 at Tue Apr  8 20:19:20 2025.
 Gaussian 16:  ES64L-G16RevC.01  3-Jul-2019

 ----------------------------------------------------------------------
 #t hf aug-cc-pvdz iop(5/13=1,5/36=2,99/5=2) pseudo=read geom=check gue
 ss=(read,tcheck) scf=(maxcycle=1)
 ----------------------------------------------------------------------
 -----
 title
 -----
 Structure from the checkpoint file:  "ANI1ccx_1593_conf1_mol1.chk"
 Charge =  0 Multiplicity = 1

                         Standard orientation:
 ---------------------------------------------------------------------
 Center     Atomic      Atomic             Coordinates (Angstroms)
 Number     Number       Type             X           Y           Z
 ---------------------------------------------------------------------
      1          6           0       -1.613539   -0.495843   -0.122220
      2          6           0       -0.338230    0.245702   -0.521987
      3          6           0       -2.742219    0.547939   -0.130237
      4          6           0       -4.118269   -0.014418   -0.003222
      5          6           0        2.044911    0.137563   -0.490950
      6          6           0        2.896200   -1.085561   -0.666538
      7          6           0        2.889171    1.070499    0.443335
      8          6           0        2.378321    2.476010    0.322474
      9          1           0        2.993730   -2.850591   -0.182089
     10          1           0        2.863201    3.165309    1.008610
     11          1           0        1.305131    2.467440    0.465690
     12          1           0        2.575071    2.825710   -0.700938
     13          1           0        1.849671    0.501970    2.041040
     14          1           0        3.924321    1.033229    0.146942
     15          1           0        1.899921    0.681165   -1.401980
     16          1           0        0.717352   -1.033980    0.619927
     17          1           0       -5.884109    0.353866   -0.323928
     18          1           0       -2.490959    1.210320    0.735341
     19          1           0       -2.554159    1.123440   -1.045910
     20          1           0       -1.772160   -1.298270   -0.800800
     21          1           0       -1.500019   -0.317840    1.951900
     22          1           0       -2.228230   -1.761770    1.350230
     23          7           0       -1.510240   -1.086950    1.247340
     24          7           0        0.761667   -0.198392    0.091663
     25          8           0       -0.334494    1.230670   -1.228260
     26          8           0       -4.392490   -0.995788    0.613149
     27          8           0       -5.038299    0.667032   -0.699743
     28          8           0        3.990970   -1.087801   -1.112900
     29          8           0        2.820871    0.568544    1.754520
     30          8           0        2.348840   -2.181900   -0.104392
 ---------------------------------------------------------------------

 SCF Done:  E(RHF) =  -870.210883583     A.U. after    2 cycles

 The electronic state is 1-A.
 Alpha  occ. eigenvalues --  -20.61457 -20.61048 -20.55737 -20.55308 -20.54799
 Alpha  occ. eigenvalues --  -20.52814 -15.53844 -15.50716 -11.40762 -11.40160
 Alpha  occ. eigenvalues --  -11.36969 -11.30016 -11.29621 -11.29495 -11.26522
 Alpha  occ. eigenvalues --  -11.22427  -1.57730  -1.57247  -1.48794  -1.47859
 Alpha  occ. eigenvalues --   -1.47494  -1.45322  -1.27895  -1.20558  -1.08218
 Alpha  occ. eigenvalues --   -1.06132  -1.00312  -0.94763  -0.87237  -0.85220
 Alpha  occ. eigenvalues --   -0.83993  -0.81781  -0.77270  -0.74581  -0.73325
 Alpha  occ. eigenvalues --   -0.72741  -0.70830  -0.70099  -0.68713  -0.67770
 Alpha  occ. eigenvalues --   -0.66687  -0.65238  -0.64156  -0.63333  -0.61060
 Alpha  occ. eigenvalues --   -0.60667  -0.60477  -0.59023  -0.58320  -0.57793
 Alpha  occ. eigenvalues --   -0.55193  -0.54700  -0.52852  -0.49406  -0.49328
 Alpha  occ. eigenvalues --   -0.49037  -0.47629  -0.47200  -0.45766  -0.45259
 Alpha  occ. eigenvalues --   -0.43006  -0.41980
 Alpha virt. eigenvalues --    0.02919   0.03547   0.03591   0.04397   0.04497
 Alpha virt. eigenvalues --    0.04935   0.05161   0.05670   0.06067   0.07063
 Alpha virt. eigenvalues --    0.08241   0.08720   0.09184   0.09684   0.10996

 Mulliken charges:
               1
     1  C   -0.863030
     2  C    0.422112
     3  C   -0.729343
     4  C    2.795823
     5  C   -2.012157
     6  C    3.208356
     7  C    1.427409
     8  C   -0.407701
     9  H    0.398991
    10  H    0.134152
    11  H    0.171154
    12  H    0.245354
    13  H    0.361562
    14  H   -0.020668
    15  H    0.051693
    16  H    0.386059
    17  H    0.387081
    18  H    0.320731
    19  H    0.098251
    20  H    0.066325
    21  H    0.307423
    22  H    0.237183
    23  N    0.294794
    24  N    1.267627
    25  O   -1.372232
    26  O   -1.347977
    27  O   -1.320161
    28  O   -1.436002
    29  O   -1.605148
    30  O   -1.467662
 Sum of Mulliken charges =  -0.00000

 Dipole moment (field-independent basis, Debye):
    X=             -2.9668    Y=             -0.4383    Z=              0.8558  Tot=              3.1188

 Test job not archived.
 1\1\GINC-SE087\SP\RHF\Aug-CC-pVDZ\C8H14N2O6\OHZDE\08-Apr-2025\0\\#t hf
  aug-cc-pvdz iop(5/13=1,5/36=2,99/5=2) pseudo=read geom=check guess=(r
 ead,tcheck) scf=(maxcycle=1)\\title\\0,1\C,0,-1.61354,-0.495843,-0.122
 22\C,0,-0.338231,0.245702,-0.521987\C,0,-2.74222,0.547939,-0.130237\C,
 0,-4.11827,-0.014418,-0.00322198\C,0,2.04491,0.137563,-0.49095\C,0,2.8
 962,-1.08556,-0.666538\C,0,2.88917,1.0705,0.443335\C,0,2.37832,2.47601
 ,0.322474\H,0,2.99373,-2.85059,-0.182089\H,0,2.8632,3.16531,1.00861\H,
 0,1.30513,2.46744,0.46569\H,0,2.57507,2.82571,-0.700938\H,0,1.84967,0.

 Normal termination of Gaussian 16 at Tue Apr  8 20:19:58 2025.
