 Gaussian 16, Revision C.01,

 ----------------------------------------------------------------------
 #t hf aug-cc-pvdz symm=none int=(grid=ultrafine) guess=(read,tcheck) s
 table=(opt,rrhf)
 ----------------------------------------------------------------------
 -----
 title
 -----
 Symbolic Z-matrix:
 Charge =  0 Multiplicity = 1

 SCF Done:  E(RHF) =  -532.293312536     A.U. after   11 cycles
 Normal termination of Gaussian 16 at Tue Apr  8 21:10:04 2025.
 Gaussian 16:  ES64L-G16RevC.01  3-Jul-2019

 ----------------------------------------------------------------------
 #t hf aug-cc-pvdz iop(5/13=1,5/36=2,99/5=2) pseudo=read geom=check gue
 ss=(read,tcheck) scf=(maxcycle=1)
 ----------------------------------------------------------------------
 -----
 title
 -----
 Structure from the checkpoint file:  "ANI1ccx_1845_conf212_mol1.chk"
 Charge =  0 Multiplicity = 1

                         Standard orientation:
 ---------------------------------------------------------------------
 Center     Atomic      Atomic             Coordinates (Angstroms)
 Number     Number       Type             X           Y           Z
 ---------------------------------------------------------------------
      1          1           0       -1.886137   -2.962425    0.662013
      2          1           0        1.153255   -2.271283   -1.484360
      3          1           0       -0.014021   -2.073750   -0.512632
      4          1           0       -2.617048    0.425158    0.122369
      5          1           0       -3.881170   -0.349393   -0.299698
      6          1           0       -2.130804   -1.552125   -0.046076
      7          1           0       -0.989230    2.545372    0.041319
      8          1           0        2.525262    0.447603   -0.174249
      9          1           0       -2.207944    2.272766    0.980438
     10          1           0        2.204027   -1.412926    0.679640
     11          1           0        2.972818   -1.057868    2.131530
     12          1           0        1.143210    3.417097   -0.452732
     13          1           0        1.171816    1.908347   -0.009637
     14          1           0        1.401411    0.041112   -1.127670
     15          8           0       -1.592516   -2.394956   -0.045209
     16          8           0        2.072003    0.774561   -1.019040
     17          8           0       -3.145831   -0.419318    0.330911
     18          8           0        3.083578   -1.040388    1.108520
     19          8           0        0.891419   -1.792963   -0.695191
     20          8           0       -1.938184    2.128755    0.018356
     21          8           0        0.773851    2.822098    0.237874
 ---------------------------------------------------------------------

 SCF Done:  E(RHF) =  -532.844319577     A.U. after    2 cycles

 The electronic state is 1-A.
 Alpha  occ. eigenvalues --  -20.57790 -20.56188 -20.56033 -20.56022 -20.55132
 Alpha  occ. eigenvalues --  -20.54912 -20.54285  -1.46309  -1.45453  -1.42806
 Alpha  occ. eigenvalues --   -1.42207  -1.41463  -1.40428  -1.39677  -0.73745
 Alpha  occ. eigenvalues --   -0.72979  -0.71717  -0.68908  -0.68806  -0.67730
 Alpha  occ. eigenvalues --   -0.66959  -0.62925  -0.60637  -0.60450  -0.57672
 Alpha  occ. eigenvalues --   -0.56494  -0.55673  -0.54001  -0.50664  -0.50315
 Alpha  occ. eigenvalues --   -0.49507  -0.49208  -0.48542  -0.48423  -0.47600
 Alpha virt. eigenvalues --    0.03182   0.04080   0.04447   0.04858   0.05883
 Alpha virt. eigenvalues --    0.06246   0.08327   0.08476   0.09039   0.09683
 Alpha virt. eigenvalues --    0.10240   0.10618   0.11554   0.11768   0.17745

 Mulliken charges:
               1
     1  H    0.317170
     2  H    0.429314
     3  H    0.870314
     4  H    0.723945
     5  H    0.321311
     6  H    0.799624
     7  H    0.710802
     8  H    0.626297
     9  H    0.395259
    10  H    0.742291
    11  H    0.416316
    12  H    0.369929
    13  H    0.741328
    14  H    0.621389
    15  O   -1.118964
    16  O   -1.249307
    17  O   -1.084890
    18  O   -1.028807
    19  O   -1.359213
    20  O   -1.152856
    21  O   -1.091252
 Sum of Mulliken charges =  -0.00000

 Dipole moment (field-independent basis, Debye):
    X=             -2.8257    Y=             -1.3517    Z=              0.8472  Tot=              3.2449

 Test job not archived.
 1\1\GINC-SE016\SP\RHF\Aug-CC-pVDZ\H14O7\OHZDE\08-Apr-2025\0\\#t hf aug
 -cc-pvdz iop(5/13=1,5/36=2,99/5=2) pseudo=read geom=check guess=(read,
 tcheck) scf=(maxcycle=1)\\title\\0,1\H,0,-1.88613,-2.96243,0.662013\H,
 0,1.15326,-2.27128,-1.48436\H,0,-0.0140157,-2.07375,-0.512632\H,0,-2.6
 1705,0.425151,0.122369\H,0,-3.88117,-0.349403,-0.299698\H,0,-2.1308,-1
 .55213,-0.0460753\H,0,-0.989237,2.54537,0.0413189\H,0,2.52526,0.44761,
 -0.174249\H,0,-2.20795,2.27276,0.980438\H,0,2.20403,-1.41292,0.67964\H
 ,0,2.97282,-1.05786,2.13153\H,0,1.1432,3.4171,-0.452732\H,0,1.17181,1.

 Normal termination of Gaussian 16 at Tue Apr  8 21:10:11 2025.
