 Gaussian 16, Revision C.01,

 ----------------------------------------------------------------------
 #t hf aug-cc-pvdz symm=none int=(grid=ultrafine) guess=(read,tcheck) s
 table=(opt,rrhf)
 ----------------------------------------------------------------------
 -----
 title
 -----
 Symbolic Z-matrix:
 Charge =  0 Multiplicity = 1

 SCF Done:  E(RHF) =  -678.629513366     A.U. after   16 cycles
 Normal termination of Gaussian 16 at Tue Apr  8 20:18:05 2025.
 Gaussian 16:  ES64L-G16RevC.01  3-Jul-2019

 ----------------------------------------------------------------------
 #t hf aug-cc-pvdz iop(5/13=1,5/36=2,99/5=2) pseudo=read geom=check gue
 ss=(read,tcheck) scf=(maxcycle=1)
 ----------------------------------------------------------------------
 -----
 title
 -----
 Structure from the checkpoint file:  "ANI1ccx_1596_conf2_mol2.chk"
 Charge =  0 Multiplicity = 1

                         Standard orientation:
 ---------------------------------------------------------------------
 Center     Atomic      Atomic             Coordinates (Angstroms)
 Number     Number       Type             X           Y           Z
 ---------------------------------------------------------------------
      1          6           0        4.286219   -0.542386   -0.026636
      2          6           0        3.163518   -1.101873   -0.931325
      3          6           0        1.852428   -1.073262   -0.213789
      4          6           0        0.513415    0.383710    1.232150
      5          6           0       -1.416592   -1.279668    1.177870
      6          6           0       -2.709062   -1.504647   -0.728615
      7          6           0       -1.321850    0.544512   -0.414116
      8          6           0       -0.517829    2.731031   -0.234726
      9          1           0       -2.075050    0.018501   -2.109300
     10          1           0       -3.733092   -1.568056   -1.129520
     11          1           0       -2.140183   -2.391368   -1.016620
     12          1           0       -0.770174   -2.173209    0.993684
     13          1           0       -1.542772   -1.162858    2.263620
     14          1           0        0.440781    1.479390    1.407370
     15          1           0        0.649494   -0.258032    2.115600
     16          1           0        1.860528   -1.775922    0.621042
     17          1           0        3.235217   -2.192323   -1.176910
     18          1           0        3.132339   -0.535107   -1.886760
     19          1           0        5.282559   -0.506937   -0.551437
     20          1           0        4.412448   -1.187244    0.860171
     21          1           0        4.085890    0.477967    0.320605
     22          1           0        1.082358   -1.412281   -0.934460
     23          7           0       -0.774293   -0.045696    0.697915
     24          7           0       -2.172191   -0.251817   -1.127340
     25          7           0       -1.052129    1.738781   -0.964722
     26          7           0        0.009839    3.551070    0.433617
     27          8           0        1.569350    0.212564    0.308196
     28          8           0       -2.706902   -1.550487    0.664526
 ---------------------------------------------------------------------

 SCF Done:  E(RHF) =  -679.315282997     A.U. after    2 cycles

 The electronic state is 1-A.
 Alpha  occ. eigenvalues --  -20.60235 -20.55929 -15.56164 -15.55266 -15.50795
 Alpha  occ. eigenvalues --  -15.47469 -11.41603 -11.37120 -11.36515 -11.34954
 Alpha  occ. eigenvalues --  -11.29860 -11.29221 -11.24645 -11.23169  -1.53877
 Alpha  occ. eigenvalues --   -1.48337  -1.34365  -1.25656  -1.22800  -1.16690
 Alpha  occ. eigenvalues --   -1.07788  -1.02796  -0.98896  -0.96754  -0.92287
 Alpha  occ. eigenvalues --   -0.84721  -0.82194  -0.80289  -0.78320  -0.77079
 Alpha  occ. eigenvalues --   -0.72157  -0.70643  -0.70001  -0.67747  -0.66545
 Alpha  occ. eigenvalues --   -0.64082  -0.62909  -0.61895  -0.58449  -0.58298
 Alpha  occ. eigenvalues --   -0.58090  -0.56521  -0.55554  -0.53763  -0.52304
 Alpha  occ. eigenvalues --   -0.50720  -0.49199  -0.48443  -0.47838  -0.45313
 Alpha  occ. eigenvalues --   -0.44226  -0.42882  -0.39635
 Alpha virt. eigenvalues --    0.02086   0.02527   0.02923   0.03686   0.03775
 Alpha virt. eigenvalues --    0.04502   0.05544   0.06162   0.06885   0.07136
 Alpha virt. eigenvalues --    0.07480   0.08425   0.08775   0.09317   0.10221

 Mulliken charges:
               1
     1  C   -0.350148
     2  C   -0.599182
     3  C    0.558714
     4  C   -0.036263
     5  C    0.563919
     6  C    0.365531
     7  C   -2.212266
     8  C   -1.664503
     9  H    0.190685
    10  H    0.018006
    11  H    0.086985
    12  H    0.179363
    13  H    0.031088
    14  H    0.176583
    15  H    0.033877
    16  H    0.014059
    17  H    0.265128
    18  H    0.188165
    19  H    0.130790
    20  H    0.170010
    21  H    0.210876
    22  H    0.119184
    23  N    1.310779
    24  N    0.849829
    25  N    1.102156
    26  N    0.998392
    27  O   -1.294713
    28  O   -1.407044
 Sum of Mulliken charges =  -0.00000

 Dipole moment (field-independent basis, Debye):
    X=             -1.4099    Y=             -9.2218    Z=             -0.8065  Tot=              9.3638

 Test job not archived.
 1\1\GINC-SE051\SP\RHF\Aug-CC-pVDZ\C8H14N4O2\OHZDE\08-Apr-2025\0\\#t hf
  aug-cc-pvdz iop(5/13=1,5/36=2,99/5=2) pseudo=read geom=check guess=(r
 ead,tcheck) scf=(maxcycle=1)\\title\\0,1\C,0,4.28622,-0.542382,-0.0266
 362\C,0,3.16352,-1.10187,-0.931325\C,0,1.85243,-1.07326,-0.213789\C,0,
 0.513415,0.38371,1.23215\C,0,-1.41659,-1.27967,1.17787\C,0,-2.70906,-1
 .50465,-0.728615\C,0,-1.32185,0.54451,-0.414116\C,0,-0.517831,2.73103,
 -0.234726\H,0,-2.07505,0.0184986,-2.1093\H,0,-3.73309,-1.56806,-1.1295
 2\H,0,-2.14018,-2.39137,-1.01662\H,0,-0.770171,-2.17321,0.993684\H,0,-

 Normal termination of Gaussian 16 at Tue Apr  8 20:18:35 2025.
