 Gaussian 16, Revision C.01,

 ----------------------------------------------------------------------
 #t hf aug-cc-pvdz symm=none int=(grid=ultrafine) guess=(read,tcheck) s
 table=(opt,rrhf)
 ----------------------------------------------------------------------
 -----
 title
 -----
 Symbolic Z-matrix:
 Charge =  0 Multiplicity = 1

 SCF Done:  E(RHF) =  -480.055060370     A.U. after   16 cycles
 Normal termination of Gaussian 16 at Tue Apr  8 21:39:48 2025.
 Gaussian 16:  ES64L-G16RevC.01  3-Jul-2019

 ----------------------------------------------------------------------
 #t hf aug-cc-pvdz iop(5/13=1,5/36=2,99/5=2) pseudo=read geom=check gue
 ss=(read,tcheck) scf=(maxcycle=1)
 ----------------------------------------------------------------------
 -----
 title
 -----
 Structure from the checkpoint file:  "ANI1ccx_456_conf2_mol1.chk"
 Charge =  0 Multiplicity = 1

                         Standard orientation:
 ---------------------------------------------------------------------
 Center     Atomic      Atomic             Coordinates (Angstroms)
 Number     Number       Type             X           Y           Z
 ---------------------------------------------------------------------
      1          6           0       -0.043549    0.127747   -0.094268
      2          7           0        1.402961   -0.007477   -0.005537
      3          7           0       -0.836459    1.167290    0.080981
      4          7           0       -2.065438    0.583172    0.080927
      5          7           0       -2.020479   -0.657221   -0.024349
      6          8           0        1.814411   -1.122712    0.135315
      7          8           0        1.963962    1.082808   -0.075786
      8          8           0       -0.666223   -1.005950   -0.104347
 ---------------------------------------------------------------------

 SCF Done:  E(RHF) =  -480.512923745     A.U. after    2 cycles

 The electronic state is 1-A.
 Alpha  occ. eigenvalues --  -20.72742 -20.66375 -20.65043 -15.86394 -15.69509
 Alpha  occ. eigenvalues --  -15.66209 -15.62378 -11.47127  -1.74896  -1.70591
 Alpha  occ. eigenvalues --   -1.58775  -1.45256  -1.31132  -1.14859  -1.01164
 Alpha  occ. eigenvalues --   -0.95135  -0.88581  -0.83658  -0.80833  -0.78667
 Alpha  occ. eigenvalues --   -0.77932  -0.68500  -0.60797  -0.60437  -0.59888
 Alpha  occ. eigenvalues --   -0.55933  -0.55154  -0.53551  -0.50511
 Alpha virt. eigenvalues --   -0.03393   0.04259   0.05409   0.08772   0.09403
 Alpha virt. eigenvalues --    0.09929   0.11622   0.11940   0.12899   0.13800
 Alpha virt. eigenvalues --    0.15626   0.15884   0.16238   0.17416   0.18148

 Mulliken charges:
               1
     1  C    0.414535
     2  N    2.506069
     3  N    0.487849
     4  N   -0.822469
     5  N    1.151202
     6  O   -1.253420
     7  O   -1.302339
     8  O   -1.181428
 Sum of Mulliken charges =   0.00000

 Dipole moment (field-independent basis, Debye):
    X=              0.5237    Y=             -1.2513    Z=             -0.3910  Tot=              1.4117

 Test job not archived.
 1\1\GINC-SE455\SP\RHF\Aug-CC-pVDZ\C1N4O3\OHZDE\08-Apr-2025\0\\#t hf au
 g-cc-pvdz iop(5/13=1,5/36=2,99/5=2) pseudo=read geom=check guess=(read
 ,tcheck) scf=(maxcycle=1)\\title\\0,1\C,0,-0.0435503,0.127748,-0.09426
 81\N,0,1.40296,-0.00747506,-0.00553697\N,0,-0.836461,1.16729,0.0809807
 \N,0,-2.06544,0.583171,0.0809271\N,0,-2.02048,-0.657222,-0.0243495\O,0
 ,1.81441,-1.12271,0.135315\O,0,1.96396,1.08281,-0.0757856\O,0,-0.66622
 4,-1.00595,-0.104347\\Version=ES64L-G16RevC.01\State=1-A\HF=-480.51292
 37\RMSD=3.378e-02\Dipole=0.2060538,-0.4922968,-0.1538498\Quadrupole=-2

 Normal termination of Gaussian 16 at Tue Apr  8 21:39:51 2025.
