 Gaussian 16, Revision C.01,

 ----------------------------------------------------------------------
 #t hf aug-cc-pvdz symm=none int=(grid=ultrafine) guess=(read,tcheck) s
 table=(opt,rrhf)
 ----------------------------------------------------------------------
 -----
 title
 -----
 Symbolic Z-matrix:
 Charge =  0 Multiplicity = 1

 SCF Done:  E(RHF) =  -446.837756422     A.U. after   13 cycles
 Normal termination of Gaussian 16 at Tue Apr  8 21:47:23 2025.
 Gaussian 16:  ES64L-G16RevC.01  3-Jul-2019

 ----------------------------------------------------------------------
 #t hf aug-cc-pvdz iop(5/13=1,5/36=2,99/5=2) pseudo=read geom=check gue
 ss=(read,tcheck) scf=(maxcycle=1)
 ----------------------------------------------------------------------
 -----
 title
 -----
 Structure from the checkpoint file:  "ANI1ccx_555_conf1_mol1.chk"
 Charge =  0 Multiplicity = 1

                         Standard orientation:
 ---------------------------------------------------------------------
 Center     Atomic      Atomic             Coordinates (Angstroms)
 Number     Number       Type             X           Y           Z
 ---------------------------------------------------------------------
      1          6           0        1.501440   -0.151520   -0.063843
      2          6           0       -1.677190    0.016541    0.049231
      3          1           0        3.416620   -0.023763   -0.797927
      4          1           0        2.885870    1.404029   -0.015356
      5          1           0        0.920279    0.881412    1.573380
      6          1           0       -0.348624   -1.237230    0.729829
      7          1           0       -0.709453    1.715640   -0.549348
      8          1           0       -2.335950    1.464131   -1.167230
      9          7           0        2.778670    0.400929   -0.103546
     10          7           0        0.553708    0.492519    0.675855
     11          7           0       -0.624501   -0.283677    0.913252
     12          7           0       -1.600800    1.210101   -0.590678
     13          8           0        1.288139   -1.234571   -0.616434
     14          8           0       -2.603611   -0.782110   -0.127299
 ---------------------------------------------------------------------

 SCF Done:  E(RHF) =  -447.287562982     A.U. after    2 cycles

 The electronic state is 1-A.
 Alpha  occ. eigenvalues --  -20.53370 -20.50060 -15.59108 -15.56648 -15.55599
 Alpha  occ. eigenvalues --  -15.52664 -11.41536 -11.38621  -1.48969  -1.45025
 Alpha  occ. eigenvalues --   -1.34421  -1.24804  -1.22463  -1.14256  -0.89821
 Alpha  occ. eigenvalues --   -0.87142  -0.81677  -0.79079  -0.78368  -0.72813
 Alpha  occ. eigenvalues --   -0.71886  -0.65720  -0.63417  -0.61939  -0.60593
 Alpha  occ. eigenvalues --   -0.52443  -0.49949  -0.47560  -0.46170  -0.43350
 Alpha  occ. eigenvalues --   -0.42931
 Alpha virt. eigenvalues --    0.01481   0.03687   0.04300   0.04784   0.06537
 Alpha virt. eigenvalues --    0.07405   0.09978   0.10532   0.11068   0.12070
 Alpha virt. eigenvalues --    0.12596   0.13672   0.13940   0.14959   0.15490

 Mulliken charges:
               1
     1  C    0.003892
     2  C    0.204197
     3  H    0.208555
     4  H    0.067511
     5  H    0.266210
     6  H    0.309592
     7  H    0.148791
     8  H    0.041369
     9  N    0.510626
    10  N    0.070026
    11  N   -0.012653
    12  N    0.559667
    13  O   -1.170584
    14  O   -1.207198
 Sum of Mulliken charges =  -0.00000

 Dipole moment (field-independent basis, Debye):
    X=              5.0055    Y=              5.3626    Z=              0.3343  Tot=              7.3433

 Test job not archived.
 1\1\GINC-SE110\SP\RHF\Aug-CC-pVDZ\C2H6N4O2\OHZDE\08-Apr-2025\0\\#t hf
 aug-cc-pvdz iop(5/13=1,5/36=2,99/5=2) pseudo=read geom=check guess=(re
 ad,tcheck) scf=(maxcycle=1)\\title\\0,1\C,0,1.50144,-0.151519,-0.06384
 35\C,0,-1.67719,0.0165399,0.0492313\H,0,3.41662,-0.0237619,-0.797927\H
 ,0,2.88587,1.40403,-0.0153562\H,0,0.920279,0.881412,1.57338\H,0,-0.348
 623,-1.23723,0.729829\H,0,-0.709453,1.71564,-0.549348\H,0,-2.33595,1.4
 6413,-1.16723\N,0,2.77867,0.40093,-0.103546\N,0,0.553708,0.492519,0.67
 5855\N,0,-0.624501,-0.283677,0.913252\N,0,-1.6008,1.2101,-0.590678\O,0

 Normal termination of Gaussian 16 at Tue Apr  8 21:47:28 2025.
