 Gaussian 16, Revision C.01,

 ----------------------------------------------------------------------
 #t hf aug-cc-pvdz symm=none int=(grid=ultrafine) guess=(read,tcheck) s
 table=(opt,rrhf)
 ----------------------------------------------------------------------
 -----
 title
 -----
 Symbolic Z-matrix:
 Charge =  0 Multiplicity = 1

 SCF Done:  E(RHF) =  -460.250382530     A.U. after   16 cycles
 Normal termination of Gaussian 16 at Tue Apr  8 21:24:38 2025.
 Gaussian 16:  ES64L-G16RevC.01  3-Jul-2019

 ----------------------------------------------------------------------
 #t hf aug-cc-pvdz iop(5/13=1,5/36=2,99/5=2) pseudo=read geom=check gue
 ss=(read,tcheck) scf=(maxcycle=1)
 ----------------------------------------------------------------------
 -----
 title
 -----
 Structure from the checkpoint file:  "ANI1ccx_373_conf15_mol1.chk"
 Charge =  0 Multiplicity = 1

                         Standard orientation:
 ---------------------------------------------------------------------
 Center     Atomic      Atomic             Coordinates (Angstroms)
 Number     Number       Type             X           Y           Z
 ---------------------------------------------------------------------
      1          6           0        0.034305    0.050134    0.045464
      2          1           0        2.928509    1.063229    0.228014
      3          7           0       -1.457392   -0.015416   -0.065405
      4          7           0        0.799715   -1.104511   -0.062120
      5          7           0        1.988078   -0.752425   -0.092311
      6          7           0        1.971829    0.527463   -0.018210
      7          7           0        0.798193    1.165379    0.142198
      8          8           0       -1.952132   -1.055631    0.148947
      9          8           0       -2.027531    1.042199   -0.127680
 ---------------------------------------------------------------------

 SCF Done:  E(RHF) =  -460.699664842     A.U. after    2 cycles

 The electronic state is 1-A.
 Alpha  occ. eigenvalues --  -20.61906 -20.60589 -15.82602 -15.68767 -15.64966
 Alpha  occ. eigenvalues --  -15.63980 -15.59606 -11.40205  -1.73464  -1.56717
 Alpha  occ. eigenvalues --   -1.55911  -1.34713  -1.25626  -1.09896  -0.98161
 Alpha  occ. eigenvalues --   -0.94614  -0.86686  -0.81284  -0.79950  -0.77768
 Alpha  occ. eigenvalues --   -0.77313  -0.68241  -0.62423  -0.56340  -0.55269
 Alpha  occ. eigenvalues --   -0.52648  -0.51627  -0.49404  -0.47403
 Alpha virt. eigenvalues --    0.00510   0.01677   0.05298   0.07192   0.09844
 Alpha virt. eigenvalues --    0.10346   0.10907   0.11281   0.12203   0.12946
 Alpha virt. eigenvalues --    0.13733   0.15271   0.15473   0.16522   0.17307

 Mulliken charges:
               1
     1  C   -0.322090
     2  H    0.232919
     3  N    2.511900
     4  N    0.203984
     5  N   -0.326447
     6  N   -0.125328
     7  N    0.444954
     8  O   -1.258715
     9  O   -1.361178
 Sum of Mulliken charges =  -0.00000

 Dipole moment (field-independent basis, Debye):
    X=              4.0740    Y=              1.7154    Z=              0.4319  Tot=              4.4415

 Test job not archived.
 1\1\GINC-SE404\SP\RHF\Aug-CC-pVDZ\C1H1N5O2\OHZDE\08-Apr-2025\0\\#t hf
 aug-cc-pvdz iop(5/13=1,5/36=2,99/5=2) pseudo=read geom=check guess=(re
 ad,tcheck) scf=(maxcycle=1)\\title\\0,1\C,0,0.0343069,0.0501347,0.0454
 636\H,0,2.92851,1.06323,0.228014\N,0,-1.45739,-0.0154155,-0.0654051\N,
 0,0.799717,-1.10451,-0.0621202\N,0,1.98808,-0.752424,-0.0923106\N,0,1.
 97183,0.527464,-0.0182096\N,0,0.798194,1.16538,0.142198\O,0,-1.95213,-
 1.05563,0.148947\O,0,-2.02753,1.0422,-0.12768\\Version=ES64L-G16RevC.0
 1\State=1-A\HF=-460.6996648\RMSD=4.710e-02\Dipole=1.602829,0.6748955,0

 Normal termination of Gaussian 16 at Tue Apr  8 21:24:41 2025.
