 Gaussian 16, Revision C.01,

 ----------------------------------------------------------------------
 #t hf aug-cc-pvdz symm=none int=(grid=ultrafine) guess=(read,tcheck) s
 table=(opt,rrhf)
 ----------------------------------------------------------------------
 -----
 title
 -----
 Symbolic Z-matrix:
 Charge =  0 Multiplicity = 1

 SCF Done:  E(RHF) =  -380.133953062     A.U. after   12 cycles
 Normal termination of Gaussian 16 at Tue Apr  8 21:05:27 2025.
 Gaussian 16:  ES64L-G16RevC.01  3-Jul-2019

 ----------------------------------------------------------------------
 #t hf aug-cc-pvdz iop(5/13=1,5/36=2,99/5=2) pseudo=read geom=check gue
 ss=(read,tcheck) scf=(maxcycle=1)
 ----------------------------------------------------------------------
 -----
 title
 -----
 Structure from the checkpoint file:  "ANI1ccx_1843_conf586_mol1.chk"
 Charge =  0 Multiplicity = 1

                         Standard orientation:
 ---------------------------------------------------------------------
 Center     Atomic      Atomic             Coordinates (Angstroms)
 Number     Number       Type             X           Y           Z
 ---------------------------------------------------------------------
      1          1           0       -0.660689    0.319829    1.318690
      2          1           0       -2.026081   -0.690789    1.167280
      3          1           0        0.905782    1.438529    0.280444
      4          1           0       -0.239403    2.683569    0.444222
      5          1           0        0.122945   -1.623391    0.486392
      6          1           0       -0.154564   -1.267541   -1.017910
      7          1           0       -1.640160    0.208680   -2.356970
      8          1           0       -1.040690    0.891739   -0.914265
      9          1           0        1.622819   -0.481486   -0.093599
     10          1           0        2.967120    0.103492    0.484984
     11          8           0       -1.026261   -0.573997    1.611390
     12          8           0       -0.144089    1.699569    0.169911
     13          8           0        0.520926   -1.751441   -0.429120
     14          8           0       -1.608850    0.107764   -1.163000
     15          8           0        2.276140    0.320276   -0.164089
 ---------------------------------------------------------------------

 SCF Done:  E(RHF) =  -380.524365182     A.U. after    2 cycles

 The electronic state is 1-A.
 Alpha  occ. eigenvalues --  -20.59576 -20.56716 -20.55847 -20.55342 -20.54053
 Alpha  occ. eigenvalues --   -1.44652  -1.42522  -1.40510  -1.38532  -1.38275
 Alpha  occ. eigenvalues --   -0.72306  -0.69474  -0.68562  -0.66864  -0.66526
 Alpha  occ. eigenvalues --   -0.59319  -0.58187  -0.57136  -0.56602  -0.52823
 Alpha  occ. eigenvalues --   -0.51434  -0.49477  -0.48242  -0.47501  -0.46929
 Alpha virt. eigenvalues --    0.02656   0.03985   0.04654   0.05939   0.07733
 Alpha virt. eigenvalues --    0.08218   0.08470   0.09156   0.09818   0.11521
 Alpha virt. eigenvalues --    0.16179   0.17651   0.18411   0.19892   0.21025

 Mulliken charges:
               1
     1  H    0.730919
     2  H    0.518490
     3  H    0.754556
     4  H    0.505897
     5  H    0.623697
     6  H    0.604869
     7  H    0.451111
     8  H    0.836972
     9  H    0.717704
    10  H    0.366757
    11  O   -1.172491
    12  O   -1.577635
    13  O   -1.319194
    14  O   -1.017862
    15  O   -1.023792
 Sum of Mulliken charges =  -0.00000

 Dipole moment (field-independent basis, Debye):
    X=             -0.2057    Y=              3.5460    Z=             -0.1103  Tot=              3.5537

 Test job not archived.
 1\1\GINC-SE044\SP\RHF\Aug-CC-pVDZ\H10O5\OHZDE\08-Apr-2025\0\\#t hf aug
 -cc-pvdz iop(5/13=1,5/36=2,99/5=2) pseudo=read geom=check guess=(read,
 tcheck) scf=(maxcycle=1)\\title\\0,1\H,0,-0.660689,0.319829,1.31869\H,
 0,-2.02608,-0.690789,1.16728\H,0,0.905782,1.43853,0.280444\H,0,-0.2394
 04,2.68357,0.444222\H,0,0.122946,-1.62339,0.486392\H,0,-0.154563,-1.26
 754,-1.01791\H,0,-1.64016,0.20868,-2.35697\H,0,-1.04069,0.891739,-0.91
 4265\H,0,1.62282,-0.481484,-0.0935992\H,0,2.96712,0.103494,0.484984\O,
 0,-1.02626,-0.573997,1.61139\O,0,-0.144089,1.69957,0.169911\O,0,0.5209

 Normal termination of Gaussian 16 at Tue Apr  8 21:05:31 2025.
