 Gaussian 16, Revision C.01,

 ----------------------------------------------------------------------
 #t hf aug-cc-pvdz symm=none int=(grid=ultrafine) guess=(read,tcheck) s
 table=(opt,rrhf)
 ----------------------------------------------------------------------
 -----
 title
 -----
 Symbolic Z-matrix:
 Charge =  0 Multiplicity = 1

 SCF Done:  E(RHF) =  -923.189932457     A.U. after   14 cycles
 Normal termination of Gaussian 16 at Tue Apr  8 20:15:15 2025.
 Gaussian 16:  ES64L-G16RevC.01  3-Jul-2019

 ----------------------------------------------------------------------
 #t hf aug-cc-pvdz iop(5/13=1,5/36=2,99/5=2) pseudo=read geom=check gue
 ss=(read,tcheck) scf=(maxcycle=1)
 ----------------------------------------------------------------------
 -----
 title
 -----
 Structure from the checkpoint file:  "ANI1ccx_1584_conf18_mol1.chk"
 Charge =  0 Multiplicity = 1

                         Standard orientation:
 ---------------------------------------------------------------------
 Center     Atomic      Atomic             Coordinates (Angstroms)
 Number     Number       Type             X           Y           Z
 ---------------------------------------------------------------------
      1          6           0       -1.227272    1.896929    0.341007
      2          6           0        0.118495    1.435990    0.017433
      3          6           0       -2.270211    1.205678   -0.595406
      4          6           0       -2.689280   -0.242019   -0.073151
      5          6           0        1.716531   -0.455270    0.695181
      6          6           0        3.051250    0.086072    0.101724
      7          6           0        1.243662   -1.535248   -0.373686
      8          6           0       -0.043610   -2.180190   -0.052617
      9          1           0        2.298758    1.645173   -0.618344
     10          1           0       -0.214466   -2.858540   -1.944950
     11          1           0       -1.464116   -3.392821   -0.988007
     12          1           0        2.085263   -2.195717   -0.571783
     13          1           0        0.958484   -1.005959   -1.403160
     14          1           0        1.876431   -0.904425    1.653380
     15          1           0       -0.118862   -0.022417    1.522750
     16          1           0       -2.245799   -1.218642    1.421980
     17          1           0       -3.175102    1.828317   -0.473702
     18          1           0       -1.856602    1.329928   -1.665980
     19          1           0       -1.581912    1.634298    1.302580
     20          1           0       -0.984669    3.390039   -0.966373
     21          1           0       -1.856464    3.866318    0.302406
     22          7           0       -1.041434    3.341239    0.051296
     23          7           0        0.591489    0.483270    0.912946
     24          7           0       -0.535338   -3.021700   -1.036570
     25          8           0        0.821440    1.857421   -0.884825
     26          8           0       -3.113609   -1.117683   -0.767918
     27          8           0       -2.459990   -0.300684    1.178840
     28          8           0        3.932241   -0.732195    0.179608
     29          8           0       -0.651391   -2.122591    1.052920
     30          8           0        3.193639    1.292374   -0.437058
 ---------------------------------------------------------------------

 SCF Done:  E(RHF) =  -924.105543456     A.U. after    2 cycles

 The electronic state is 1-A.
 Alpha  occ. eigenvalues --  -20.61692 -20.57531 -20.55558 -20.55426 -20.55411
 Alpha  occ. eigenvalues --  -20.52550 -15.55644 -15.55160 -15.51483 -11.41718
 Alpha  occ. eigenvalues --  -11.41025 -11.39604 -11.39482 -11.32765 -11.30102
 Alpha  occ. eigenvalues --  -11.29827 -11.29348  -1.60047  -1.53964  -1.51346
 Alpha  occ. eigenvalues --   -1.48507  -1.48052  -1.44917  -1.26445  -1.25257
 Alpha  occ. eigenvalues --   -1.22250  -1.09441  -1.06261  -0.99255  -0.94498
 Alpha  occ. eigenvalues --   -0.87536  -0.85075  -0.84825  -0.82086  -0.78918
 Alpha  occ. eigenvalues --   -0.77664  -0.75320  -0.74060  -0.72378  -0.71507
 Alpha  occ. eigenvalues --   -0.70848  -0.70268  -0.67259  -0.66650  -0.65281
 Alpha  occ. eigenvalues --   -0.64494  -0.64316  -0.63388  -0.62252  -0.60445
 Alpha  occ. eigenvalues --   -0.59659  -0.57438  -0.56463  -0.55437  -0.54893
 Alpha  occ. eigenvalues --   -0.53969  -0.50370  -0.49226  -0.47749  -0.47029
 Alpha  occ. eigenvalues --   -0.46270  -0.46057  -0.45397  -0.44163  -0.42805
 Alpha virt. eigenvalues --    0.02527   0.02589   0.03660   0.04227   0.04676
 Alpha virt. eigenvalues --    0.04928   0.05490   0.05870   0.07021   0.07392
 Alpha virt. eigenvalues --    0.07714   0.09000   0.09252   0.09517   0.10198

 Mulliken charges:
               1
     1  C   -1.518110
     2  C    0.450809
     3  C   -0.468447
     4  C    2.461207
     5  C   -0.823788
     6  C    2.453320
     7  C   -0.601844
     8  C    0.320998
     9  H    0.632510
    10  H    0.055082
    11  H    0.092242
    12  H    0.149608
    13  H    0.456141
    14  H   -0.067907
    15  H    0.427440
    16  H    0.669078
    17  H    0.320054
    18  H    0.277721
    19  H   -0.002703
    20  H    0.310057
    21  H    0.144657
    22  N    0.809106
    23  N    1.556602
    24  N    0.915743
    25  O   -1.763242
    26  O   -1.410582
    27  O   -1.435428
    28  O   -1.355342
    29  O   -1.606479
    30  O   -1.448502
 Sum of Mulliken charges =   0.00000

 Dipole moment (field-independent basis, Debye):
    X=             -5.7646    Y=             -0.4151    Z=             -0.7042  Tot=              5.8222

 Test job not archived.
 1\1\GINC-SE127\SP\RHF\Aug-CC-pVDZ\C8H13N3O6\OHZDE\08-Apr-2025\0\\#t hf
  aug-cc-pvdz iop(5/13=1,5/36=2,99/5=2) pseudo=read geom=check guess=(r
 ead,tcheck) scf=(maxcycle=1)\\title\\0,1\C,0,-1.22727,1.89693,0.341007
 \C,0,0.118497,1.43599,0.0174329\C,0,-2.27021,1.20568,-0.595406\C,0,-2.
 68928,-0.242016,-0.0731513\C,0,1.71653,-0.455272,0.695181\C,0,3.05125,
 0.0860679,0.101724\C,0,1.24366,-1.53525,-0.373686\C,0,-0.0436124,-2.18
 019,-0.052617\H,0,2.29876,1.64517,-0.618344\H,0,-0.214469,-2.85854,-1.
 94495\H,0,-1.46412,-3.39282,-0.988007\H,0,2.08526,-2.19572,-0.571783\H

 Normal termination of Gaussian 16 at Tue Apr  8 20:16:00 2025.
