 Gaussian 16, Revision C.01,

 ----------------------------------------------------------------------
 #t hf aug-cc-pvdz symm=none int=(grid=ultrafine) guess=(read,tcheck) s
 table=(opt,rrhf)
 ----------------------------------------------------------------------
 -----
 title
 -----
 Symbolic Z-matrix:
 Charge =  0 Multiplicity = 1

 SCF Done:  E(RHF) =  -603.548652168     A.U. after   15 cycles
 Normal termination of Gaussian 16 at Tue Apr  8 22:19:17 2025.
 Gaussian 16:  ES64L-G16RevC.01  3-Jul-2019

 ----------------------------------------------------------------------
 #t hf aug-cc-pvdz iop(5/13=1,5/36=2,99/5=2) pseudo=read geom=check gue
 ss=(read,tcheck) scf=(maxcycle=1)
 ----------------------------------------------------------------------
 -----
 title
 -----
 Structure from the checkpoint file:  "ANI1ccx_999_conf26_mol1.chk"
 Charge =  0 Multiplicity = 1

                         Standard orientation:
 ---------------------------------------------------------------------
 Center     Atomic      Atomic             Coordinates (Angstroms)
 Number     Number       Type             X           Y           Z
 ---------------------------------------------------------------------
      1          6           0        2.111070    0.116679   -0.901295
      2          6           0        1.701230   -0.251562    0.576771
      3          6           0       -0.746867   -0.214367   -0.214929
      4          6           0       -1.710391    0.981044   -0.051110
      5          6           0       -1.373479   -1.562161    0.133759
      6          1           0       -0.078697    1.885440    0.046678
      7          1           0       -3.257629   -1.151492   -0.570602
      8          1           0       -0.676271   -2.386981   -0.185707
      9          1           0       -1.610469   -1.684401    1.209290
     10          1           0       -0.430700   -0.299162   -1.329110
     11          1           0        1.698540   -0.789578   -1.388190
     12          1           0        1.772049    1.179991   -1.083860
     13          1           0        3.947599    1.050762   -0.609804
     14          1           0        4.060220   -0.516521   -0.643597
     15          1           0       -0.160329    0.240854    1.556150
     16          7           0        3.595110    0.195534   -1.099740
     17          7           0        0.347278    0.155257    0.686807
     18          8           0       -2.508519   -1.760652   -0.652258
     19          8           0        2.377050   -0.679227    1.529440
     20          8           0       -2.904381    0.991069    0.025428
     21          8           0       -1.057951    2.148529    0.176151
 ---------------------------------------------------------------------

 SCF Done:  E(RHF) =  -604.154541784     A.U. after    2 cycles

 The electronic state is 1-A.
 Alpha  occ. eigenvalues --  -20.61048 -20.56597 -20.55951 -20.55730 -15.56348
 Alpha  occ. eigenvalues --  -15.51526 -11.41547 -11.40775 -11.34239 -11.32841
 Alpha  occ. eigenvalues --  -11.32684  -1.56047  -1.48090  -1.47369  -1.46421
 Alpha  occ. eigenvalues --   -1.28465  -1.20509  -1.06861  -0.99529  -0.93318
 Alpha  occ. eigenvalues --   -0.85039  -0.82737  -0.77541  -0.74750  -0.73854
 Alpha  occ. eigenvalues --   -0.71972  -0.69977  -0.67846  -0.66014  -0.64710
 Alpha  occ. eigenvalues --   -0.63171  -0.62986  -0.61021  -0.59417  -0.58735
 Alpha  occ. eigenvalues --   -0.54828  -0.52862  -0.50063  -0.49179  -0.48238
 Alpha  occ. eigenvalues --   -0.46761  -0.44109  -0.43645
 Alpha virt. eigenvalues --    0.02573   0.03756   0.03966   0.04206   0.05258
 Alpha virt. eigenvalues --    0.05597   0.06098   0.06791   0.07779   0.08692
 Alpha virt. eigenvalues --    0.09767   0.10059   0.10957   0.11853   0.12056

 Mulliken charges:
               1
     1  C   -1.262999
     2  C    0.552447
     3  C   -1.340879
     4  C    2.501673
     5  C    1.001417
     6  H    0.624878
     7  H    0.399398
     8  H    0.116814
     9  H    0.147646
    10  H    0.203173
    11  H    0.360890
    12  H    0.287216
    13  H    0.195341
    14  H    0.092317
    15  H    0.373853
    16  N    0.549840
    17  N    0.439324
    18  O   -1.270314
    19  O   -1.271781
    20  O   -1.281226
    21  O   -1.419026
 Sum of Mulliken charges =  -0.00000

 Dipole moment (field-independent basis, Debye):
    X=              1.7524    Y=             -0.1505    Z=             -0.5173  Tot=              1.8333

 Test job not archived.
 1\1\GINC-SE252\SP\RHF\Aug-CC-pVDZ\C5H10N2O4\OHZDE\08-Apr-2025\0\\#t hf
  aug-cc-pvdz iop(5/13=1,5/36=2,99/5=2) pseudo=read geom=check guess=(r
 ead,tcheck) scf=(maxcycle=1)\\title\\0,1\C,0,2.11107,0.116678,-0.90129
 5\C,0,1.70123,-0.251563,0.576771\C,0,-0.746867,-0.214366,-0.214929\C,0
 ,-1.71039,0.981045,-0.0511103\C,0,-1.37348,-1.56216,0.133759\H,0,-0.07
 8696,1.88544,0.0466781\H,0,-3.25763,-1.15149,-0.570602\H,0,-0.676272,-
 2.38698,-0.185707\H,0,-1.61047,-1.6844,1.20929\H,0,-0.4307,-0.299161,-
 1.32911\H,0,1.69854,-0.789579,-1.38819\H,0,1.77205,1.17999,-1.08386\H,

 Normal termination of Gaussian 16 at Tue Apr  8 22:19:29 2025.
