 Gaussian 16, Revision C.01,

 ----------------------------------------------------------------------
 #t hf aug-cc-pvdz symm=none int=(grid=ultrafine) guess=(read,tcheck) s
 table=(opt,rrhf)
 ----------------------------------------------------------------------
 -----
 title
 -----
 Symbolic Z-matrix:
 Charge =  0 Multiplicity = 1

 SCF Done:  E(RHF) =  -659.078213340     A.U. after   14 cycles
 Normal termination of Gaussian 16 at Tue Apr  8 19:32:36 2025.
 Gaussian 16:  ES64L-G16RevC.01  3-Jul-2019

 ----------------------------------------------------------------------
 #t hf aug-cc-pvdz iop(5/13=1,5/36=2,99/5=2) pseudo=read geom=check gue
 ss=(read,tcheck) scf=(maxcycle=1)
 ----------------------------------------------------------------------
 -----
 title
 -----
 Structure from the checkpoint file:  "ANI1ccx_1265_conf11_mol1.chk"
 Charge =  0 Multiplicity = 1

                         Standard orientation:
 ---------------------------------------------------------------------
 Center     Atomic      Atomic             Coordinates (Angstroms)
 Number     Number       Type             X           Y           Z
 ---------------------------------------------------------------------
      1          6           0        2.063730   -0.082738   -0.706624
      2          6           0        0.691035   -1.879940    0.280938
      3          6           0       -0.714653   -1.664201   -0.254021
      4          6           0       -1.640350   -1.232601    0.809974
      5          6           0       -2.636780   -0.148256    0.430656
      6          6           0       -1.902661    1.168338   -0.065932
      7          1           0       -0.125424    0.577897    0.593162
      8          1           0       -3.784031    0.308256   -1.142980
      9          1           0       -4.334750   -1.006003   -0.399242
     10          1           0       -3.170841    0.335593    1.326150
     11          1           0       -1.154240   -0.823285    1.616420
     12          1           0       -2.256879   -2.057972    1.324470
     13          1           0       -0.526206   -0.882900   -1.043560
     14          1           0       -1.180989   -2.517771   -0.828032
     15          1           0        0.633457   -2.347980    1.267930
     16          1           0        1.291481   -2.440330   -0.401697
     17          1           0        2.006680   -0.695590    1.252890
     18          1           0        3.806410   -0.749061    0.017975
     19          1           0        3.835370   -0.545041   -1.547790
     20          1           0        1.472810   -0.241525   -1.564500
     21          1           0        1.446629    1.800400   -0.229252
     22          1           0        2.482419    1.324781    1.688970
     23          1           0        3.672348    2.196432    0.715786
     24          7           0        3.114069    1.317991    0.811204
     25          7           0        2.355739    1.324041   -0.467561
     26          7           0        3.273140   -0.996906   -0.814299
     27          7           0        1.341310   -0.591745    0.463176
     28          7           0       -3.477130   -0.576097   -0.691596
     29          8           0       -0.654725    1.347169    0.440640
     30          8           0       -2.536032    2.085268   -0.531030
 ---------------------------------------------------------------------

 SCF Done:  E(RHF) =  -659.760728482     A.U. after    2 cycles

 The electronic state is 1-A.
 Alpha  occ. eigenvalues --  -20.57837 -20.53303 -15.53868 -15.53594 -15.50447
 Alpha  occ. eigenvalues --  -15.49469 -15.49396 -11.38989 -11.32437 -11.29498
 Alpha  occ. eigenvalues --  -11.26059 -11.24166 -11.23912  -1.53122  -1.44908
 Alpha  occ. eigenvalues --   -1.29910  -1.21751  -1.19639  -1.15319  -1.08294
 Alpha  occ. eigenvalues --   -1.05260  -0.98133  -0.90493  -0.87639  -0.82967
 Alpha  occ. eigenvalues --   -0.81621  -0.74483  -0.73516  -0.72413  -0.70520
 Alpha  occ. eigenvalues --   -0.69659  -0.67868  -0.66542  -0.65340  -0.64980
 Alpha  occ. eigenvalues --   -0.62875  -0.62083  -0.60053  -0.58751  -0.56693
 Alpha  occ. eigenvalues --   -0.56321  -0.54076  -0.52657  -0.50122  -0.49645
 Alpha  occ. eigenvalues --   -0.48232  -0.47853  -0.47009  -0.46543  -0.44676
 Alpha  occ. eigenvalues --   -0.43292  -0.41974
 Alpha virt. eigenvalues --    0.02806   0.03208   0.03660   0.03746   0.05026
 Alpha virt. eigenvalues --    0.05185   0.05251   0.05834   0.06491   0.07007
 Alpha virt. eigenvalues --    0.07621   0.07873   0.08388   0.09193   0.10079

 Mulliken charges:
               1
     1  C   -1.886147
     2  C   -0.574374
     3  C    0.030451
     4  C    0.115155
     5  C   -1.931975
     6  C    2.394554
     7  H    0.951801
     8  H    0.256087
     9  H    0.160503
    10  H    0.305263
    11  H   -0.034769
    12  H    0.205960
    13  H    0.248694
    14  H    0.093016
    15  H    0.000451
    16  H    0.150325
    17  H    0.718979
    18  H    0.298285
    19  H    0.297656
    20  H   -0.179563
    21  H    0.344250
    22  H    0.222776
    23  H    0.166836
    24  N    0.061097
    25  N    0.395499
    26  N    0.346980
    27  N   -0.694165
    28  N    0.518698
    29  O   -1.591442
    30  O   -1.390883
 Sum of Mulliken charges =   0.00000

 Dipole moment (field-independent basis, Debye):
    X=              0.8393    Y=             -2.0307    Z=              3.1865  Tot=              3.8707

 Test job not archived.
 1\1\GINC-SE105\SP\RHF\Aug-CC-pVDZ\C6H17N5O2\OHZDE\08-Apr-2025\0\\#t hf
  aug-cc-pvdz iop(5/13=1,5/36=2,99/5=2) pseudo=read geom=check guess=(r
 ead,tcheck) scf=(maxcycle=1)\\title\\0,1\C,0,2.06373,-0.0827391,-0.706
 624\C,0,0.691034,-1.87994,0.280938\C,0,-0.714654,-1.6642,-0.254021\C,0
 ,-1.64035,-1.2326,0.809974\C,0,-2.63678,-0.148254,0.430656\C,0,-1.9026
 6,1.16834,-0.0659318\H,0,-0.125423,0.577898,0.593162\H,0,-3.78403,0.30
 8259,-1.14298\H,0,-4.33475,-1.006,-0.399242\H,0,-3.17084,0.335595,1.32
 615\H,0,-1.15424,-0.823284,1.61642\H,0,-2.25688,-2.05797,1.32447\H,0,-

 Normal termination of Gaussian 16 at Tue Apr  8 19:33:12 2025.
