 Gaussian 16, Revision C.01,

 ----------------------------------------------------------------------
 #t hf aug-cc-pvdz symm=none int=(grid=ultrafine) guess=(read,tcheck) s
 table=(opt,rrhf)
 ----------------------------------------------------------------------
 -----
 title
 -----
 Symbolic Z-matrix:
 Charge =  0 Multiplicity = 1

 SCF Done:  E(RHF) =  -744.722666813     A.U. after   13 cycles
 Normal termination of Gaussian 16 at Tue Apr  8 22:26:43 2025.
 Gaussian 16:  ES64L-G16RevC.01  3-Jul-2019

 ----------------------------------------------------------------------
 #t hf aug-cc-pvdz iop(5/13=1,5/36=2,99/5=2) pseudo=read geom=check gue
 ss=(read,tcheck) scf=(maxcycle=1)
 ----------------------------------------------------------------------
 -----
 title
 -----
 Structure from the checkpoint file:  "ANI1ccx_96_conf2_mol1.chk"
 Charge =  0 Multiplicity = 1

                         Standard orientation:
 ---------------------------------------------------------------------
 Center     Atomic      Atomic             Coordinates (Angstroms)
 Number     Number       Type             X           Y           Z
 ---------------------------------------------------------------------
      1          6           0        2.699069    0.414236   -0.526923
      2          6           0        1.016388   -2.203691   -0.727453
      3          6           0       -0.963665   -2.027480    0.611921
      4          6           0       -2.128172   -1.154850    1.097890
      5          6           0       -2.826991   -0.105088   -0.955950
      6          6           0        2.166508   -1.971151    0.213336
      7          6           0       -0.620808    2.377290    0.413173
      8          6           0        0.710711    2.639099   -0.323134
      9          6           0        1.904219    0.797951    0.734954
     10          6           0       -2.519191    1.312340   -0.470849
     11          1           0       -2.576812   -1.770920    1.889870
     12          1           0        4.108168   -1.121652   -0.131941
     13          1           0        2.661348   -2.954322    0.408278
     14          1           0        1.810348   -1.693041    1.251350
     15          1           0        0.657216   -3.224021   -0.593465
     16          1           0        1.242018   -2.017571   -1.780340
     17          1           0       -0.320796   -2.110790    1.508390
     18          1           0       -1.276782   -2.903100    0.217882
     19          1           0       -1.782921   -0.199816    1.479350
     20          1           0       -1.990851   -0.464181   -1.489540
     21          1           0       -1.486210    3.155340    0.267558
     22          1           0       -3.162941    1.547811    0.374746
     23          1           0       -2.731251    2.037430   -1.269980
     24          1           0       -0.490715    2.297070    1.522420
     25          1           0        0.695561    2.069919   -1.245900
     26          1           0        0.801866    3.701679   -0.599516
     27          1           0        2.563839    0.597644    1.691690
     28          1           0        0.822152    0.372413    0.804042
     29          1           0        2.104609    0.503804   -1.419150
     30          1           0        3.541089    1.064708   -0.851435
     31          1           0       -3.777321   -0.206136   -1.438390
     32          7           0        3.142868   -0.964474   -0.321522
     33          8           0       -3.054222   -1.052919    0.099979
     34          8           0        1.777320    2.220649    0.567907
     35          8           0       -1.123941    1.162980   -0.101896
     36          8           0       -0.104169   -1.381071   -0.409371
 ---------------------------------------------------------------------

 SCF Done:  E(RHF) =  -745.493706093     A.U. after    2 cycles

 The electronic state is 1-A.
 Alpha  occ. eigenvalues --  -20.54222 -20.52635 -20.52402 -20.52292 -15.46537
 Alpha  occ. eigenvalues --  -11.28974 -11.28841 -11.28093 -11.27990 -11.27032
 Alpha  occ. eigenvalues --  -11.27016 -11.26865 -11.26685 -11.26174 -11.24686
 Alpha  occ. eigenvalues --   -1.47248  -1.45381  -1.42795  -1.42636  -1.17765
 Alpha  occ. eigenvalues --   -1.04528  -1.02306  -0.98666  -0.97619  -0.92569
 Alpha  occ. eigenvalues --   -0.88178  -0.85123  -0.82825  -0.80833  -0.78235
 Alpha  occ. eigenvalues --   -0.70692  -0.70064  -0.69854  -0.67639  -0.66878
 Alpha  occ. eigenvalues --   -0.64844  -0.63884  -0.62760  -0.61978  -0.61162
 Alpha  occ. eigenvalues --   -0.59865  -0.59137  -0.57672  -0.55999  -0.55311
 Alpha  occ. eigenvalues --   -0.54789  -0.54266  -0.53579  -0.52141  -0.51395
 Alpha  occ. eigenvalues --   -0.49674  -0.48716  -0.45569  -0.45219  -0.44527
 Alpha  occ. eigenvalues --   -0.42619  -0.41543  -0.40471  -0.38883  -0.35574
 Alpha virt. eigenvalues --    0.03042   0.03165   0.03667   0.03744   0.04733
 Alpha virt. eigenvalues --    0.04900   0.05188   0.05371   0.05766   0.06911
 Alpha virt. eigenvalues --    0.07100   0.07823   0.07938   0.08233   0.09042

 Mulliken charges:
               1
     1  C   -0.792497
     2  C    0.315341
     3  C    0.453943
     4  C    0.767658
     5  C    0.689455
     6  C   -0.598543
     7  C    0.125999
     8  C    0.521492
     9  C    0.532064
    10  C    0.331566
    11  H    0.003980
    12  H    0.096186
    13  H    0.005415
    14  H    0.222139
    15  H    0.278661
    16  H   -0.054249
    17  H    0.285821
    18  H   -0.323005
    19  H    0.266368
    20  H    0.156242
    21  H    0.209378
    22  H    0.094678
    23  H    0.001733
    24  H    0.150115
    25  H    0.291905
    26  H    0.024893
    27  H    0.235351
    28  H    0.364625
    29  H   -0.036945
    30  H    0.042595
    31  H   -0.132320
    32  N    0.825371
    33  O   -1.526354
    34  O   -1.561000
    35  O   -1.172286
    36  O   -1.095777
 Sum of Mulliken charges =  -0.00000

 Dipole moment (field-independent basis, Debye):
    X=             -0.6032    Y=             -0.0323    Z=              0.0720  Tot=              0.6084

 Test job not archived.
 1\1\GINC-SE041\SP\RHF\Aug-CC-pVDZ\C10H21N1O4\OHZDE\08-Apr-2025\0\\#t h
 f aug-cc-pvdz iop(5/13=1,5/36=2,99/5=2) pseudo=read geom=check guess=(
 read,tcheck) scf=(maxcycle=1)\\title\\0,1\C,0,2.69907,0.414238,-0.5269
 23\C,0,1.01639,-2.20369,-0.727453\C,0,-0.963663,-2.02748,0.611921\C,0,
 -2.12817,-1.15485,1.09789\C,0,-2.82699,-0.105088,-0.95595\C,0,2.16651,
 -1.97115,0.213336\C,0,-0.620808,2.37729,0.413173\C,0,0.710711,2.6391,-
 0.323134\C,0,1.90422,0.797952,0.734954\C,0,-2.51919,1.31234,-0.470849\
 H,0,-2.57681,-1.77092,1.88987\H,0,4.10817,-1.12165,-0.131941\H,0,2.661

 Normal termination of Gaussian 16 at Tue Apr  8 22:27:42 2025.
