 Gaussian 16, Revision C.01,

 ----------------------------------------------------------------------
 #t hf aug-cc-pvdz symm=none int=(grid=ultrafine) guess=(read,tcheck) s
 table=(opt,rrhf)
 ----------------------------------------------------------------------
 -----
 title
 -----
 Symbolic Z-matrix:
 Charge =  0 Multiplicity = 1

 SCF Done:  E(RHF) =  -538.485205096     A.U. after   16 cycles
 Normal termination of Gaussian 16 at Tue Apr  8 21:53:06 2025.
 Gaussian 16:  ES64L-G16RevC.01  3-Jul-2019

 ----------------------------------------------------------------------
 #t hf aug-cc-pvdz iop(5/13=1,5/36=2,99/5=2) pseudo=read geom=check gue
 ss=(read,tcheck) scf=(maxcycle=1)
 ----------------------------------------------------------------------
 -----
 title
 -----
 Structure from the checkpoint file:  "ANI1ccx_716_conf7_mol1.chk"
 Charge =  0 Multiplicity = 1

                         Standard orientation:
 ---------------------------------------------------------------------
 Center     Atomic      Atomic             Coordinates (Angstroms)
 Number     Number       Type             X           Y           Z
 ---------------------------------------------------------------------
      1          6           0       -0.699619    0.516035    0.397603
      2          6           0       -1.958949   -0.402580    0.013135
      3          6           0        0.660714    0.029739    0.037868
      4          1           0       -1.703269    2.205679    0.384171
      5          1           0       -0.897901    1.923969   -1.048940
      6          1           0       -0.750361    0.661366    1.474720
      7          1           0       -0.616332   -1.774481   -0.443148
      8          1           0        1.353141    1.752650   -0.627181
      9          7           0       -0.868362    1.871689   -0.074311
     10          7           0        1.271971   -1.134540    0.323536
     11          7           0        2.585661   -0.892149    0.202555
     12          7           0        2.842101    0.325166   -0.208225
     13          7           0        1.634721    0.873784   -0.221404
     14          8           0       -1.637189   -1.633411   -0.453142
     15          8           0       -3.070409    0.016412    0.129852
 ---------------------------------------------------------------------

 SCF Done:  E(RHF) =  -539.020905146     A.U. after    2 cycles

 The electronic state is 1-A.
 Alpha  occ. eigenvalues --  -20.62302 -20.56589 -15.63657 -15.62112 -15.60585
 Alpha  occ. eigenvalues --  -15.56986 -15.54113 -11.42697 -11.36080 -11.34834
 Alpha  occ. eigenvalues --   -1.55575  -1.51143  -1.48042  -1.29740  -1.27259
 Alpha  occ. eigenvalues --   -1.22829  -1.03487  -0.98383  -0.93989  -0.86203
 Alpha  occ. eigenvalues --   -0.83805  -0.78432  -0.78370  -0.74180  -0.70020
 Alpha  occ. eigenvalues --   -0.67619  -0.67322  -0.63782  -0.62060  -0.60093
 Alpha  occ. eigenvalues --   -0.56839  -0.54277  -0.52887  -0.52051  -0.49868
 Alpha  occ. eigenvalues --   -0.47547  -0.44586
 Alpha virt. eigenvalues --    0.01756   0.03665   0.04278   0.05218   0.06062
 Alpha virt. eigenvalues --    0.06344   0.07770   0.08848   0.09983   0.10269
 Alpha virt. eigenvalues --    0.11448   0.11720   0.12843   0.13437   0.14024

 Mulliken charges:
               1
     1  C   -0.970140
     2  C    2.244079
     3  C   -1.427308
     4  H    0.221696
     5  H    0.134386
     6  H    0.279770
     7  H    0.575342
     8  H    0.202644
     9  N    0.478907
    10  N    0.573734
    11  N   -0.249784
    12  N    0.070304
    13  N    0.397261
    14  O   -1.309946
    15  O   -1.220946
 Sum of Mulliken charges =   0.00000

 Dipole moment (field-independent basis, Debye):
    X=             -0.8452    Y=              3.9937    Z=             -1.0083  Tot=              4.2048

 Test job not archived.
 1\1\GINC-SE273\SP\RHF\Aug-CC-pVDZ\C3H5N5O2\OHZDE\08-Apr-2025\0\\#t hf
 aug-cc-pvdz iop(5/13=1,5/36=2,99/5=2) pseudo=read geom=check guess=(re
 ad,tcheck) scf=(maxcycle=1)\\title\\0,1\C,0,-0.69962,0.516036,0.397603
 \C,0,-1.95895,-0.402579,0.013135\C,0,0.660713,0.0297394,0.0378679\H,0,
 -1.70327,2.20568,0.384171\H,0,-0.897902,1.92397,-1.04894\H,0,-0.750362
 ,0.661367,1.47472\H,0,-0.616333,-1.77448,-0.443148\H,0,1.35314,1.75265
 ,-0.627181\N,0,-0.868363,1.87169,-0.0743111\N,0,1.27197,-1.13454,0.323
 536\N,0,2.58566,-0.892149,0.202555\N,0,2.8421,0.325166,-0.208225\N,0,1

 Normal termination of Gaussian 16 at Tue Apr  8 21:53:14 2025.
