 Gaussian 16, Revision C.01,

 ----------------------------------------------------------------------
 #t hf aug-cc-pvdz symm=none int=(grid=ultrafine) guess=(read,tcheck) s
 table=(opt,rrhf)
 ----------------------------------------------------------------------
 -----
 title
 -----
 Symbolic Z-matrix:
 Charge =  0 Multiplicity = 1

 SCF Done:  E(RHF) =  -849.473346446     A.U. after   14 cycles
 Normal termination of Gaussian 16 at Tue Apr  8 20:30:51 2025.
 Gaussian 16:  ES64L-G16RevC.01  3-Jul-2019

 ----------------------------------------------------------------------
 #t hf aug-cc-pvdz iop(5/13=1,5/36=2,99/5=2) pseudo=read geom=check gue
 ss=(read,tcheck) scf=(maxcycle=1)
 ----------------------------------------------------------------------
 -----
 title
 -----
 Structure from the checkpoint file:  "ANI1ccx_1611_conf4_mol1.chk"
 Charge =  0 Multiplicity = 1

                         Standard orientation:
 ---------------------------------------------------------------------
 Center     Atomic      Atomic             Coordinates (Angstroms)
 Number     Number       Type             X           Y           Z
 ---------------------------------------------------------------------
      1          6           0        2.021360    0.252105   -0.675401
      2          6           0        1.214280   -0.713757    0.120829
      3          6           0        3.489550   -0.099364   -0.552500
      4          6           0        4.007641    0.413156    0.783001
      5          6           0       -1.068550    0.304709   -0.729351
      6          6           0       -1.475169    1.458001    0.141749
      7          6           0       -2.375680   -0.410234   -1.165050
      8          6           0       -3.344440   -0.883412   -0.136285
      9          1           0       -1.256439    2.180421    1.897100
     10          1           0       -3.677120   -1.724168    1.582820
     11          1           0       -2.283910   -0.844051    1.708470
     12          1           0       -2.933900    0.269952   -1.826360
     13          1           0       -2.050860   -1.229819   -1.807640
     14          1           0       -0.551804    0.711772   -1.633510
     15          1           0       -0.621740   -1.399249    0.458193
     16          1           0        5.016970    0.037136    0.907451
     17          1           0        3.375280   -0.000147    1.584560
     18          1           0        4.004031    1.563769    0.878377
     19          1           0        3.232830   -1.884651    0.065694
     20          1           0        4.126190    0.333449   -1.331840
     21          1           0        1.725820    0.203600   -1.720700
     22          1           0        1.598641    1.888120    0.663112
     23          1           0        2.377861    2.272490   -0.793522
     24          7           0        1.712941    1.664170   -0.335081
     25          7           0       -0.153046   -0.662537   -0.078171
     26          7           0       -2.865230   -1.415299    1.091200
     27          8           0        1.701350   -1.478820    0.917733
     28          8           0        3.784850   -1.485421   -0.647368
     29          8           0       -2.125179    2.408301   -0.281179
     30          8           0       -4.536390   -0.984554   -0.424717
     31          8           0       -1.044439    1.364221    1.423050
 ---------------------------------------------------------------------

 SCF Done:  E(RHF) =  -850.325764131     A.U. after    2 cycles

 The electronic state is 1-A.
 Alpha  occ. eigenvalues --  -20.63582 -20.56511 -20.54452 -20.54395 -20.53156
 Alpha  occ. eigenvalues --  -15.54948 -15.54496 -15.51920 -11.42670 -11.39118
 Alpha  occ. eigenvalues --  -11.38922 -11.34148 -11.29297 -11.28840 -11.28424
 Alpha  occ. eigenvalues --  -11.22618  -1.57427  -1.51003  -1.47907  -1.47157
 Alpha  occ. eigenvalues --   -1.43443  -1.26761  -1.22889  -1.20997  -1.10607
 Alpha  occ. eigenvalues --   -1.04124  -0.99268  -0.97372  -0.88148  -0.86276
 Alpha  occ. eigenvalues --   -0.82997  -0.81100  -0.76836  -0.76352  -0.74715
 Alpha  occ. eigenvalues --   -0.73211  -0.71374  -0.70619  -0.68498  -0.67575
 Alpha  occ. eigenvalues --   -0.66538  -0.66102  -0.63798  -0.63229  -0.61835
 Alpha  occ. eigenvalues --   -0.61075  -0.59968  -0.59123  -0.58572  -0.56423
 Alpha  occ. eigenvalues --   -0.54912  -0.53315  -0.52377  -0.51661  -0.49723
 Alpha  occ. eigenvalues --   -0.48871  -0.47462  -0.47131  -0.44982  -0.44187
 Alpha  occ. eigenvalues --   -0.43630  -0.41849
 Alpha virt. eigenvalues --    0.02124   0.02946   0.03237   0.03911   0.04408
 Alpha virt. eigenvalues --    0.04789   0.05026   0.05672   0.05988   0.07207
 Alpha virt. eigenvalues --    0.07840   0.07910   0.08536   0.09153   0.09822

 Mulliken charges:
               1
     1  C   -1.057363
     2  C    0.844073
     3  C    1.173739
     4  C   -0.389278
     5  C   -2.429198
     6  C    3.168183
     7  C   -0.093062
     8  C    0.377097
     9  H    0.414387
    10  H    0.120548
    11  H    0.123919
    12  H    0.216603
    13  H    0.303941
    14  H    0.295043
    15  H    0.321980
    16  H    0.091124
    17  H    0.149709
    18  H    0.255187
    19  H    0.383034
    20  H   -0.000860
    21  H    0.187568
    22  H    0.214554
    23  H    0.225803
    24  N    0.375124
    25  N    1.210578
    26  N    0.579620
    27  O   -1.378150
    28  O   -1.465931
    29  O   -1.430072
    30  O   -1.316440
    31  O   -1.471461
 Sum of Mulliken charges =  -0.00000

 Dipole moment (field-independent basis, Debye):
    X=              1.0564    Y=              2.6682    Z=              1.6629  Tot=              3.3167

 Test job not archived.
 1\1\GINC-SE454\SP\RHF\Aug-CC-pVDZ\C8H15N3O5\OHZDE\08-Apr-2025\0\\#t hf
  aug-cc-pvdz iop(5/13=1,5/36=2,99/5=2) pseudo=read geom=check guess=(r
 ead,tcheck) scf=(maxcycle=1)\\title\\0,1\C,0,2.02136,0.252105,-0.67540
 1\C,0,1.21428,-0.713757,0.120829\C,0,3.48955,-0.0993627,-0.5525\C,0,4.
 00764,0.413157,0.783001\C,0,-1.06855,0.304708,-0.729351\C,0,-1.47517,1
 .458,0.141749\C,0,-2.37568,-0.410235,-1.16505\C,0,-3.34444,-0.883413,-
 0.136285\H,0,-1.25644,2.18042,1.8971\H,0,-3.67712,-1.72417,1.58282\H,0
 ,-2.28391,-0.844052,1.70847\H,0,-2.9339,0.269951,-1.82636\H,0,-2.05086

 Normal termination of Gaussian 16 at Tue Apr  8 20:31:32 2025.
