 Gaussian 16, Revision C.01,

 ----------------------------------------------------------------------
 #t hf aug-cc-pvdz symm=none int=(grid=ultrafine) guess=(read,tcheck) s
 table=(opt,rrhf)
 ----------------------------------------------------------------------
 -----
 title
 -----
 Symbolic Z-matrix:
 Charge =  0 Multiplicity = 1

 SCF Done:  E(RHF) =  -758.554601992     A.U. after   14 cycles
 Normal termination of Gaussian 16 at Tue Apr  8 20:55:43 2025.
 Gaussian 16:  ES64L-G16RevC.01  3-Jul-2019

 ----------------------------------------------------------------------
 #t hf aug-cc-pvdz iop(5/13=1,5/36=2,99/5=2) pseudo=read geom=check gue
 ss=(read,tcheck) scf=(maxcycle=1)
 ----------------------------------------------------------------------
 -----
 title
 -----
 Structure from the checkpoint file:  "ANI1ccx_1759_conf6_mol1.chk"
 Charge =  0 Multiplicity = 1

                         Standard orientation:
 ---------------------------------------------------------------------
 Center     Atomic      Atomic             Coordinates (Angstroms)
 Number     Number       Type             X           Y           Z
 ---------------------------------------------------------------------
      1          6           0       -1.751981    0.839672    0.251474
      2          6           0        2.624210    1.715430    0.563302
      3          6           0        2.724260    1.001270   -0.781944
      4          6           0        2.247859   -1.290470   -0.086111
      5          6           0        1.151740    1.558941    0.908616
      6          6           0       -3.683391   -0.475047   -0.816421
      7          6           0       -3.077671    0.006035    0.469104
      8          6           0       -0.623213   -0.032541   -0.140930
      9          6           0        1.733809   -0.065152   -0.721136
     10          1           0        3.664619    0.514800   -0.886190
     11          1           0        0.426804   -1.750379   -0.155577
     12          1           0        1.048670    1.189391    1.921610
     13          1           0        0.547131    2.508971    0.799109
     14          1           0        3.252630    1.219260    1.270910
     15          1           0        2.901690    2.816900    0.571374
     16          1           0        2.624630    1.711000   -1.614570
     17          1           0        1.376229   -0.191591   -1.710710
     18          1           0       -4.059991    0.302314   -1.464160
     19          1           0       -4.407301   -1.270488   -0.564149
     20          1           0       -2.093361   -1.580058    0.841881
     21          1           0       -3.794751    0.608152    1.014140
     22          1           0       -1.565020    1.270381    1.267610
     23          1           0       -2.910290    2.253752   -0.345530
     24          1           0       -1.310340    2.570821   -0.599866
     25          1           0       -3.009281   -1.044508   -1.449090
     26          7           0       -2.033220    1.844052   -0.728537
     27          7           0        0.619968    0.477769    0.044406
     28          8           0        3.415029   -1.437330    0.288199
     29          8           0       -0.805305   -1.125879   -0.690034
     30          8           0       -2.781591   -1.111328    1.340840
     31          8           0        1.312738   -2.191749    0.063040
 ---------------------------------------------------------------------

 SCF Done:  E(RHF) =  -759.327384496     A.U. after    2 cycles

 The electronic state is 1-A.
 Alpha  occ. eigenvalues --  -20.56835 -20.56356 -20.54937 -20.52354 -15.56813
 Alpha  occ. eigenvalues --  -15.53499 -11.40383 -11.38154 -11.31317 -11.30499
 Alpha  occ. eigenvalues --  -11.29971 -11.29155 -11.26185 -11.24429 -11.21892
 Alpha  occ. eigenvalues --   -1.54349  -1.51273  -1.44543  -1.42902  -1.31486
 Alpha  occ. eigenvalues --   -1.24314  -1.12842  -1.06470  -1.04124  -0.99147
 Alpha  occ. eigenvalues --   -0.93012  -0.87565  -0.86429  -0.81780  -0.81026
 Alpha  occ. eigenvalues --   -0.78037  -0.74361  -0.73676  -0.70392  -0.68934
 Alpha  occ. eigenvalues --   -0.68152  -0.67483  -0.65445  -0.63315  -0.62628
 Alpha  occ. eigenvalues --   -0.62094  -0.61719  -0.60628  -0.58635  -0.58115
 Alpha  occ. eigenvalues --   -0.56244  -0.54159  -0.52881  -0.52418  -0.52086
 Alpha  occ. eigenvalues --   -0.51733  -0.50023  -0.48364  -0.46360  -0.45244
 Alpha  occ. eigenvalues --   -0.44515  -0.44098  -0.42322
 Alpha virt. eigenvalues --    0.01581   0.02669   0.03160   0.03818   0.04158
 Alpha virt. eigenvalues --    0.04442   0.05135   0.05526   0.06285   0.07055
 Alpha virt. eigenvalues --    0.07612   0.07904   0.08620   0.09061   0.09185

 Mulliken charges:
               1
     1  C   -1.679105
     2  C   -0.462717
     3  C    0.095384
     4  C    2.329254
     5  C   -0.011648
     6  C   -0.178526
     7  C    1.248545
     8  C   -0.258615
     9  C   -0.309588
    10  H    0.134683
    11  H    0.794975
    12  H    0.040053
    13  H    0.060254
    14  H    0.078244
    15  H    0.241485
    16  H    0.037650
    17  H    0.027319
    18  H    0.161598
    19  H    0.202933
    20  H    0.417741
    21  H    0.006255
    22  H    0.355655
    23  H    0.311867
    24  H    0.186024
    25  H    0.046579
    26  N    0.717090
    27  N    1.544177
    28  O   -1.417442
    29  O   -1.661342
    30  O   -1.536634
    31  O   -1.522147
 Sum of Mulliken charges =   0.00000

 Dipole moment (field-independent basis, Debye):
    X=             -1.8575    Y=              7.3061    Z=             -0.5395  Tot=              7.5578

 Test job not archived.
 1\1\GINC-SE249\SP\RHF\Aug-CC-pVDZ\C9H16N2O4\OHZDE\08-Apr-2025\0\\#t hf
  aug-cc-pvdz iop(5/13=1,5/36=2,99/5=2) pseudo=read geom=check guess=(r
 ead,tcheck) scf=(maxcycle=1)\\title\\0,1\C,0,-1.75198,0.83967,0.251474
 \C,0,2.62421,1.71543,0.563302\C,0,2.72426,1.00127,-0.781944\C,0,2.2478
 6,-1.29047,-0.0861117\C,0,1.15174,1.55894,0.908616\C,0,-3.68339,-0.475
 049,-0.816421\C,0,-3.07767,0.006033,0.469104\C,0,-0.623212,-0.0325417,
 -0.14093\C,0,1.73381,-0.0651524,-0.721136\H,0,3.66462,0.5148,-0.88619\
 H,0,0.426805,-1.75038,-0.155577\H,0,1.04867,1.18939,1.92161\H,0,0.5471

 Normal termination of Gaussian 16 at Tue Apr  8 20:56:23 2025.
