 Gaussian 16, Revision C.01,

 ----------------------------------------------------------------------
 #t hf aug-cc-pvdz symm=none int=(grid=ultrafine) guess=(read,tcheck) s
 table=(opt,rrhf)
 ----------------------------------------------------------------------
 -----
 title
 -----
 Symbolic Z-matrix:
 Charge =  0 Multiplicity = 1

 SCF Done:  E(RHF) =  -542.445388868     A.U. after   14 cycles
 Normal termination of Gaussian 16 at Tue Apr  8 22:07:33 2025.
 Gaussian 16:  ES64L-G16RevC.01  3-Jul-2019

 ----------------------------------------------------------------------
 #t hf aug-cc-pvdz iop(5/13=1,5/36=2,99/5=2) pseudo=read geom=check gue
 ss=(read,tcheck) scf=(maxcycle=1)
 ----------------------------------------------------------------------
 -----
 title
 -----
 Structure from the checkpoint file:  "ANI1ccx_904_conf1_mol2.chk"
 Charge =  0 Multiplicity = 1

                         Standard orientation:
 ---------------------------------------------------------------------
 Center     Atomic      Atomic             Coordinates (Angstroms)
 Number     Number       Type             X           Y           Z
 ---------------------------------------------------------------------
      1          6           0        1.200191    0.048411   -0.321076
      2          6           0        0.301593    1.324451   -0.194268
      3          6           0       -1.677339   -0.131070    0.050047
      4          6           0        0.485538   -1.257149   -0.206636
      5          1           0        2.849040   -0.561311    0.590573
      6          1           0        2.545441    1.046250    0.760450
      7          1           0        1.557441    0.089147   -1.324860
      8          1           0       -1.620389    1.904681    0.024039
      9          1           0       -1.340710   -2.022839    0.497788
     10          7           0        2.167561    0.131776    0.650016
     11          7           0       -1.070489    1.125601   -0.307368
     12          7           0       -0.872760   -1.296119    0.044550
     13          8           0        0.773097    2.403430   -0.014592
     14          8           0       -2.851109   -0.145174    0.309460
     15          8           0        1.150400   -2.269830   -0.198215
 ---------------------------------------------------------------------

 SCF Done:  E(RHF) =  -542.982408451     A.U. after    2 cycles

 The electronic state is 1-A.
 Alpha  occ. eigenvalues --  -20.56589 -20.56453 -20.55888 -15.59155 -15.58563
 Alpha  occ. eigenvalues --  -15.50803 -11.44833 -11.40742 -11.40717 -11.32143
 Alpha  occ. eigenvalues --   -1.53393  -1.52288  -1.50981  -1.32135  -1.26933
 Alpha  occ. eigenvalues --   -1.25575  -1.04192  -0.94318  -0.93087  -0.86092
 Alpha  occ. eigenvalues --   -0.83090  -0.75589  -0.75124  -0.71498  -0.71049
 Alpha  occ. eigenvalues --   -0.69231  -0.67350  -0.66235  -0.63584  -0.62483
 Alpha  occ. eigenvalues --   -0.55945  -0.51674  -0.51201  -0.48640  -0.47202
 Alpha  occ. eigenvalues --   -0.45006  -0.44865
 Alpha virt. eigenvalues --    0.03029   0.04305   0.04789   0.04960   0.06638
 Alpha virt. eigenvalues --    0.08066   0.08735   0.09175   0.09374   0.10163
 Alpha virt. eigenvalues --    0.12001   0.12541   0.12846   0.13386   0.13710

 Mulliken charges:
               1
     1  C   -1.126239
     2  C    0.932863
     3  C    0.479706
     4  C    0.761391
     5  H    0.126067
     6  H    0.162630
     7  H    0.234083
     8  H    0.283987
     9  H    0.205235
    10  N    0.670845
    11  N    0.499358
    12  N    0.665651
    13  O   -1.341133
    14  O   -1.196535
    15  O   -1.357909
 Sum of Mulliken charges =  -0.00000

 Dipole moment (field-independent basis, Debye):
    X=              0.9150    Y=              0.2533    Z=             -0.4286  Tot=              1.0417

 Test job not archived.
 1\1\GINC-SE334\SP\RHF\Aug-CC-pVDZ\C4H5N3O3\OHZDE\08-Apr-2025\0\\#t hf
 aug-cc-pvdz iop(5/13=1,5/36=2,99/5=2) pseudo=read geom=check guess=(re
 ad,tcheck) scf=(maxcycle=1)\\title\\0,1\C,0,1.20019,0.0484103,-0.32107
 6\C,0,0.301592,1.32445,-0.194268\C,0,-1.67734,-0.131071,0.0500472\C,0,
 0.485538,-1.25715,-0.206636\H,0,2.84904,-0.561311,0.590573\H,0,2.54544
 ,1.04625,0.76045\H,0,1.55744,0.0891465,-1.32486\H,0,-1.62039,1.90468,0
 .0240389\H,0,-1.34071,-2.02284,0.497788\N,0,2.16756,0.131776,0.650016\
 N,0,-1.07049,1.1256,-0.307368\N,0,-0.87276,-1.29612,0.0445502\O,0,0.77

 Normal termination of Gaussian 16 at Tue Apr  8 22:07:40 2025.
