 Gaussian 16, Revision C.01,

 ----------------------------------------------------------------------
 #t hf aug-cc-pvdz symm=none int=(grid=ultrafine) guess=(read,tcheck) s
 table=(opt,rrhf)
 ----------------------------------------------------------------------
 -----
 title
 -----
 Symbolic Z-matrix:
 Charge =  0 Multiplicity = 1

 SCF Done:  E(RHF) =  -656.186202207     A.U. after   17 cycles

 1\1\GINC-SE095\Stability\RHF\Aug-CC-pVDZ\C10H9N5\OHZDE\08-Apr-2025\0\\
 #t hf aug-cc-pvdz symm=none int=(grid=ultrafine) guess=(read,tcheck) s
 table=(opt,rrhf)\\title\\0,1\C,0,3.69081,-1.28897,0.197365\C,0,1.1853,
 -1.06239,-0.065621\C,0,-1.19425,-0.863253,-0.0812229\C,0,-2.36806,-1.6
 494,0.0211722\C,0,-3.56579,-0.996781,0.104812\C,0,-3.60387,0.411619,0.
 076451\C,0,-2.46877,1.123,-0.0904671\C,0,-1.22214,0.495198,-0.139006\C
 ,0,0.585591,2.49232,0.0495353\C,0,1.18768,0.418674,-0.121841\H,0,-0.04
 95859,3.35293,0.288121\H,0,-2.4344,2.21335,-0.023758\H,0,-4.57085,0.89

 Normal termination of Gaussian 16 at Tue Apr  8 19:33:10 2025.
 Gaussian 16:  ES64L-G16RevC.01  3-Jul-2019

 ----------------------------------------------------------------------
 #t hf aug-cc-pvdz iop(5/13=1,5/36=2,99/5=2) pseudo=read geom=check gue
 ss=(read,tcheck) scf=(maxcycle=1)
 ----------------------------------------------------------------------
 -----
 title
 -----
 Structure from the checkpoint file:  "ANI1ccx_130_conf1_mol2.chk"
 Charge =  0 Multiplicity = 1

                         Standard orientation:
 ---------------------------------------------------------------------
 Center     Atomic      Atomic             Coordinates (Angstroms)
 Number     Number       Type             X           Y           Z
 ---------------------------------------------------------------------
      1          6           0        3.690810   -1.288971    0.197365
      2          6           0        1.185300   -1.062391   -0.065621
      3          6           0       -1.194250   -0.863254   -0.081223
      4          6           0       -2.368060   -1.649400    0.021172
      5          6           0       -3.565790   -0.996781    0.104812
      6          6           0       -3.603870    0.411619    0.076451
      7          6           0       -2.468770    1.123000   -0.090467
      8          6           0       -1.222140    0.495197   -0.139006
      9          6           0        0.585591    2.492319    0.049535
     10          6           0        1.187680    0.418673   -0.121841
     11          1           0       -0.049586    3.352929    0.288121
     12          1           0       -2.434400    2.213350   -0.023758
     13          1           0       -4.570850    0.897606    0.319342
     14          1           0       -4.460590   -1.504270    0.290737
     15          1           0        3.720690   -0.780931    1.167880
     16          1           0        2.126450   -2.758471   -0.306145
     17          1           0        4.356710   -2.201251    0.253788
     18          1           0        4.149740   -0.621743   -0.502212
     19          1           0       -2.201760   -2.705280    0.070585
     20          7           0        1.859650    2.488489    0.129218
     21          7           0        2.356340   -1.783351   -0.132828
     22          7           0        0.036364   -1.646121    0.039971
     23          7           0        0.057226    1.213629   -0.138315
     24          7           0        2.262510    1.102779   -0.078818
 ---------------------------------------------------------------------

 SCF Done:  E(RHF) =  -656.842310622     A.U. after    2 cycles

 The electronic state is 1-A.
 Alpha  occ. eigenvalues --  -15.59432 -15.53930 -15.53113 -15.52959 -15.50165
 Alpha  occ. eigenvalues --  -11.35076 -11.33233 -11.32428 -11.31049 -11.29200
 Alpha  occ. eigenvalues --  -11.27249 -11.26359 -11.25748 -11.25304 -11.25110
 Alpha  occ. eigenvalues --   -1.40069  -1.28913  -1.25053  -1.19392  -1.16632
 Alpha  occ. eigenvalues --   -1.15103  -1.04602  -1.03862  -0.96035  -0.92302
 Alpha  occ. eigenvalues --   -0.90371  -0.88094  -0.84410  -0.80170  -0.78132
 Alpha  occ. eigenvalues --   -0.73442  -0.71389  -0.69189  -0.68377  -0.67191
 Alpha  occ. eigenvalues --   -0.66433  -0.64562  -0.62879  -0.62130  -0.57443
 Alpha  occ. eigenvalues --   -0.56392  -0.55918  -0.54552  -0.53380  -0.52177
 Alpha  occ. eigenvalues --   -0.50878  -0.48357  -0.46844  -0.43312  -0.42631
 Alpha  occ. eigenvalues --   -0.36035  -0.33063
 Alpha virt. eigenvalues --    0.02775   0.03239   0.03559   0.04438   0.05256
 Alpha virt. eigenvalues --    0.05641   0.06092   0.06470   0.06666   0.07452
 Alpha virt. eigenvalues --    0.07895   0.09081   0.09492   0.09890   0.10635

 Mulliken charges:
               1
     1  C   -0.167914
     2  C   -2.824207
     3  C   -1.087222
     4  C    0.580625
     5  C    0.902302
     6  C   -0.270889
     7  C    2.134943
     8  C   -1.336383
     9  C   -0.526050
    10  C   -2.339250
    11  H   -0.126683
    12  H   -0.270992
    13  H   -0.194081
    14  H   -0.287754
    15  H    0.176184
    16  H    0.096759
    17  H    0.054233
    18  H    0.138693
    19  H   -0.273690
    20  N    0.564946
    21  N    1.306697
    22  N    1.295663
    23  N    1.788697
    24  N    0.665373
 Sum of Mulliken charges =   0.00000

 Dipole moment (field-independent basis, Debye):
    X=             -3.2443    Y=             -0.8797    Z=              0.3574  Tot=              3.3804

 Test job not archived.
 1\1\GINC-SE095\SP\RHF\Aug-CC-pVDZ\C10H9N5\OHZDE\08-Apr-2025\0\\#t hf a
 ug-cc-pvdz iop(5/13=1,5/36=2,99/5=2) pseudo=read geom=check guess=(rea
 d,tcheck) scf=(maxcycle=1)\\title\\0,1\C,0,3.69081,-1.28897,0.197365\C
 ,0,1.1853,-1.06239,-0.065621\C,0,-1.19425,-0.863253,-0.0812229\C,0,-2.
 36806,-1.6494,0.0211722\C,0,-3.56579,-0.996781,0.104812\C,0,-3.60387,0
 .411619,0.076451\C,0,-2.46877,1.123,-0.0904671\C,0,-1.22214,0.495198,-
 0.139006\C,0,0.585591,2.49232,0.0495353\C,0,1.18768,0.418674,-0.121841
 \H,0,-0.0495859,3.35293,0.288121\H,0,-2.4344,2.21335,-0.023758\H,0,-4.

 Normal termination of Gaussian 16 at Tue Apr  8 19:33:41 2025.
