 Gaussian 16, Revision C.01,

 ----------------------------------------------------------------------
 #t hf aug-cc-pvdz symm=none int=(grid=ultrafine) guess=(read,tcheck) s
 table=(opt,rrhf)
 ----------------------------------------------------------------------
 -----
 title
 -----
 Symbolic Z-matrix:
 Charge =  0 Multiplicity = 1

 SCF Done:  E(RHF) =  -263.695738075     A.U. after   13 cycles
 Normal termination of Gaussian 16 at Tue Apr  8 21:33:34 2025.
 Gaussian 16:  ES64L-G16RevC.01  3-Jul-2019

 ----------------------------------------------------------------------
 #t hf aug-cc-pvdz iop(5/13=1,5/36=2,99/5=2) pseudo=read geom=check gue
 ss=(read,tcheck) scf=(maxcycle=1)
 ----------------------------------------------------------------------
 -----
 title
 -----
 Structure from the checkpoint file:  "ANI1ccx_383_conf102_mol2.chk"
 Charge =  0 Multiplicity = 1

                         Standard orientation:
 ---------------------------------------------------------------------
 Center     Atomic      Atomic             Coordinates (Angstroms)
 Number     Number       Type             X           Y           Z
 ---------------------------------------------------------------------
      1          6           0       -0.056877   -0.133259    0.000510
      2          1           0        1.628240    0.708151    0.000699
      3          1           0       -1.445585    1.119681    0.003719
      4          8           0        1.276991   -0.193698   -0.000133
      5          8           0       -0.476500    1.153093   -0.000517
      6          8           0       -0.780665   -1.087930   -0.000285
 ---------------------------------------------------------------------

 SCF Done:  E(RHF) =  -263.952442362     A.U. after    2 cycles

 The electronic state is 1-A.
 Alpha  occ. eigenvalues --  -20.62859 -20.62424 -20.54721 -11.46126  -1.61058
 Alpha  occ. eigenvalues --   -1.50806  -1.47573  -0.89116  -0.81371  -0.73035
 Alpha  occ. eigenvalues --   -0.69240  -0.63536  -0.61492  -0.55163  -0.48647
 Alpha  occ. eigenvalues --   -0.47896
 Alpha virt. eigenvalues --    0.03058   0.04388   0.09003   0.10050   0.12642
 Alpha virt. eigenvalues --    0.12829   0.17749   0.19032   0.19735   0.20389
 Alpha virt. eigenvalues --    0.21218   0.22201   0.25266   0.27013   0.28445

 Mulliken charges:
               1
     1  C    2.301454
     2  H    0.338907
     3  H    0.363171
     4  O   -1.033757
     5  O   -0.981537
     6  O   -0.988238
 Sum of Mulliken charges =  -0.00000

 Dipole moment (field-independent basis, Debye):
    X=              0.3258    Y=              3.2924    Z=              0.0107  Tot=              3.3085

 Test job not archived.
 1\1\GINC-SE455\SP\RHF\Aug-CC-pVDZ\C1H2O3\OHZDE\08-Apr-2025\0\\#t hf au
 g-cc-pvdz iop(5/13=1,5/36=2,99/5=2) pseudo=read geom=check guess=(read
 ,tcheck) scf=(maxcycle=1)\\title\\0,1\C,0,-0.0568778,-0.133258,0.00051
 027\H,0,1.62825,0.708131,0.00069907\H,0,-1.44557,1.1197,0.00371937\O,0
 ,1.27699,-0.193713,-0.00013333\O,0,-0.476485,1.1531,-0.00051663\O,0,-0
 .780678,-1.08792,-0.00028503\\Version=ES64L-G16RevC.01\State=1-A\HF=-2
 63.9524424\RMSD=9.495e-03\Dipole=0.128197,1.2953196,0.0042143\Quadrupo
 le=2.4902434,-2.3115295,-0.1787139,-0.720476,-0.0083536,0.0077248\PG=C

 Normal termination of Gaussian 16 at Tue Apr  8 21:33:35 2025.
