 Gaussian 16, Revision C.01,

 ----------------------------------------------------------------------
 #t hf aug-cc-pvdz symm=none int=(grid=ultrafine) guess=(read,tcheck) s
 table=(opt,rrhf)
 ----------------------------------------------------------------------
 -----
 title
 -----
 Symbolic Z-matrix:
 Charge =  0 Multiplicity = 1

 SCF Done:  E(RHF) =  -504.796322485     A.U. after   14 cycles
 Normal termination of Gaussian 16 at Tue Apr  8 19:30:56 2025.
 Gaussian 16:  ES64L-G16RevC.01  3-Jul-2019

 ----------------------------------------------------------------------
 #t hf aug-cc-pvdz iop(5/13=1,5/36=2,99/5=2) pseudo=read geom=check gue
 ss=(read,tcheck) scf=(maxcycle=1)
 ----------------------------------------------------------------------
 -----
 title
 -----
 Structure from the checkpoint file:  "ANI1ccx_1369_conf2_mol2.chk"
 Charge =  0 Multiplicity = 1

                         Standard orientation:
 ---------------------------------------------------------------------
 Center     Atomic      Atomic             Coordinates (Angstroms)
 Number     Number       Type             X           Y           Z
 ---------------------------------------------------------------------
      1          6           0        2.845330    1.110089   -0.071206
      2          6           0        2.107150   -0.214693   -0.009639
      3          6           0        2.759820   -1.353731    0.033845
      4          6           0        0.616803   -0.116270    0.033015
      5          6           0       -1.377860   -1.073980    0.027399
      6          6           0       -1.198010    1.182630   -0.039497
      7          1           0       -2.760999    2.449010    0.276592
      8          1           0       -1.226649    3.188110    0.073836
      9          1           0       -3.129370   -2.078540   -0.297389
     10          1           0       -1.701211   -3.050020   -0.209986
     11          1           0        3.834280   -1.315461    0.058745
     12          1           0        3.897740    0.993757   -0.400833
     13          1           0        2.850910    1.539479    0.948485
     14          1           0        2.325300    1.836999   -0.687340
     15          1           0        2.282740   -2.325351    0.045291
     16          7           0       -1.798769    2.402070   -0.022098
     17          7           0       -0.028099   -1.254320    0.040122
     18          7           0       -2.168080   -2.182510    0.006357
     19          7           0       -2.009720    0.100565   -0.005842
     20          7           0        0.162934    1.156730    0.031332
 ---------------------------------------------------------------------

 SCF Done:  E(RHF) =  -505.312876972     A.U. after    2 cycles

 The electronic state is 1-A.
 Alpha  occ. eigenvalues --  -15.52745 -15.52556 -15.48877 -15.48813 -15.48672
 Alpha  occ. eigenvalues --  -11.36773 -11.36606 -11.32656 -11.23729 -11.22760
 Alpha  occ. eigenvalues --  -11.21952  -1.35062  -1.26651  -1.23509  -1.17699
 Alpha  occ. eigenvalues --   -1.16176  -1.08110  -0.93802  -0.92474  -0.91135
 Alpha  occ. eigenvalues --   -0.82039  -0.80759  -0.75387  -0.70869  -0.70648
 Alpha  occ. eigenvalues --   -0.68048  -0.65548  -0.65313  -0.60728  -0.58450
 Alpha  occ. eigenvalues --   -0.56785  -0.56392  -0.53418  -0.51352  -0.50557
 Alpha  occ. eigenvalues --   -0.47486  -0.46230  -0.43459  -0.41037  -0.36347
 Alpha virt. eigenvalues --    0.02862   0.04075   0.04239   0.04441   0.05314
 Alpha virt. eigenvalues --    0.05375   0.06914   0.07088   0.07425   0.08871
 Alpha virt. eigenvalues --    0.09785   0.10872   0.11200   0.11622   0.12451

 Mulliken charges:
               1
     1  C   -0.450673
     2  C    1.510433
     3  C    0.475822
     4  C   -3.670437
     5  C   -1.399525
     6  C   -1.569747
     7  H    0.112312
     8  H    0.132109
     9  H    0.125925
    10  H    0.189465
    11  H   -0.212074
    12  H    0.082965
    13  H    0.317074
    14  H    0.198645
    15  H   -0.162473
    16  N    0.802670
    17  N    1.158658
    18  N    0.711764
    19  N    0.598110
    20  N    1.048978
 Sum of Mulliken charges =  -0.00000

 Dipole moment (field-independent basis, Debye):
    X=             -1.3898    Y=              0.0885    Z=             -0.2683  Tot=              1.4183

 Test job not archived.
 1\1\GINC-SE456\SP\RHF\Aug-CC-pVDZ\C6H9N5\OHZDE\08-Apr-2025\0\\#t hf au
 g-cc-pvdz iop(5/13=1,5/36=2,99/5=2) pseudo=read geom=check guess=(read
 ,tcheck) scf=(maxcycle=1)\\title\\0,1\C,0,2.84533,1.11009,-0.0712061\C
 ,0,2.10715,-0.214692,-0.00963903\C,0,2.75982,-1.35373,0.0338448\C,0,0.
 616803,-0.11627,0.0330151\C,0,-1.37786,-1.07398,0.0273993\C,0,-1.19801
 ,1.18263,-0.0394966\H,0,-2.761,2.44901,0.276592\H,0,-1.22665,3.18811,0
 .0738361\H,0,-3.12937,-2.07854,-0.297389\H,0,-1.70121,-3.05002,-0.2099
 86\H,0,3.83428,-1.31546,0.0587452\H,0,3.89774,0.993758,-0.400833\H,0,2

 Normal termination of Gaussian 16 at Tue Apr  8 19:31:09 2025.
