 Gaussian 16, Revision C.01,

 ----------------------------------------------------------------------
 #t hf aug-cc-pvdz symm=none int=(grid=ultrafine) guess=(read,tcheck) s
 table=(opt,rrhf)
 ----------------------------------------------------------------------
 -----
 title
 -----
 Symbolic Z-matrix:
 Charge =  0 Multiplicity = 1

 SCF Done:  E(RHF) =  -304.186130980     A.U. after   11 cycles
 Normal termination of Gaussian 16 at Tue Apr  8 21:13:24 2025.
 Gaussian 16:  ES64L-G16RevC.01  3-Jul-2019

 ----------------------------------------------------------------------
 #t hf aug-cc-pvdz iop(5/13=1,5/36=2,99/5=2) pseudo=read geom=check gue
 ss=(read,tcheck) scf=(maxcycle=1)
 ----------------------------------------------------------------------
 -----
 title
 -----
 Structure from the checkpoint file:  "ANI1ccx_1904_conf15_mol2.chk"
 Charge =  0 Multiplicity = 1

                         Standard orientation:
 ---------------------------------------------------------------------
 Center     Atomic      Atomic             Coordinates (Angstroms)
 Number     Number       Type             X           Y           Z
 ---------------------------------------------------------------------
      1          1           0        0.265344   -2.397051   -0.722841
      2          1           0       -0.551204   -1.294660   -0.007287
      3          1           0        1.472360   -0.603112   -0.055187
      4          1           0        2.448671    0.297493    0.725594
      5          1           0        0.554951    1.372479    0.062525
      6          1           0       -0.296409    2.403520   -0.722226
      7          1           0       -1.453419    0.605726   -0.015553
      8          1           0       -2.330250   -0.391387    0.802875
      9          8           0        0.283869   -1.839131    0.067349
     10          8           0        1.919551    0.281471   -0.066762
     11          8           0       -0.308605    1.847840    0.064497
     12          8           0       -1.908570   -0.289306   -0.073572
 ---------------------------------------------------------------------

 SCF Done:  E(RHF) =  -304.502028583     A.U. after    2 cycles

 The electronic state is 1-A.
 Alpha  occ. eigenvalues --  -20.55565 -20.55406 -20.55043 -20.55029  -1.45360
 Alpha  occ. eigenvalues --   -1.43649  -1.43312  -1.41500  -0.72270  -0.71244
 Alpha  occ. eigenvalues --   -0.70561  -0.70400  -0.62305  -0.58718  -0.58203
 Alpha  occ. eigenvalues --   -0.54828  -0.49702  -0.49529  -0.48863  -0.48784
 Alpha virt. eigenvalues --    0.03713   0.04968   0.05100   0.05535   0.08191
 Alpha virt. eigenvalues --    0.09367   0.09616   0.10436   0.14835   0.19159
 Alpha virt. eigenvalues --    0.19975   0.20039   0.21643   0.22584   0.22996

 Mulliken charges:
               1
     1  H    0.317345
     2  H    0.735804
     3  H    0.671038
     4  H    0.325455
     5  H    0.685420
     6  H    0.330930
     7  H    0.703826
     8  H    0.343123
     9  O   -1.032299
    10  O   -0.997549
    11  O   -1.031338
    12  O   -1.051755
 Sum of Mulliken charges =  -0.00000

 Dipole moment (field-independent basis, Debye):
    X=              0.1869    Y=              0.1030    Z=              0.1114  Tot=              0.2407

 Test job not archived.
 1\1\GINC-SE030\SP\RHF\Aug-CC-pVDZ\H8O4\OHZDE\08-Apr-2025\0\\#t hf aug-
 cc-pvdz iop(5/13=1,5/36=2,99/5=2) pseudo=read geom=check guess=(read,t
 check) scf=(maxcycle=1)\\title\\0,1\H,0,0.265346,-2.39705,-0.722841\H,
 0,-0.551203,-1.29466,-0.00728734\H,0,1.47236,-0.60311,-0.0551867\H,0,2
 .44867,0.297496,0.725594\H,0,0.554949,1.37248,0.0625251\H,0,-0.296412,
 2.40352,-0.722226\H,0,-1.45342,0.605725,-0.0155533\H,0,-2.33025,-0.391
 389,0.802875\O,0,0.28387,-1.83913,0.0673494\O,0,1.91955,0.281473,-0.06
 67618\O,0,-0.308608,1.84784,0.0644966\O,0,-1.90857,-0.289308,-0.073571

 Normal termination of Gaussian 16 at Tue Apr  8 21:13:26 2025.
