 Gaussian 16, Revision C.01,

 ----------------------------------------------------------------------
 #t hf aug-cc-pvdz symm=none int=(grid=ultrafine) guess=(read,tcheck) s
 table=(opt,rrhf)
 ----------------------------------------------------------------------
 -----
 title
 -----
 Symbolic Z-matrix:
 Charge =  0 Multiplicity = 1

 SCF Done:  E(RHF) =  -535.512666029     A.U. after   16 cycles
 Normal termination of Gaussian 16 at Tue Apr  8 22:09:06 2025.
 Gaussian 16:  ES64L-G16RevC.01  3-Jul-2019

 ----------------------------------------------------------------------
 #t hf aug-cc-pvdz iop(5/13=1,5/36=2,99/5=2) pseudo=read geom=check gue
 ss=(read,tcheck) scf=(maxcycle=1)
 ----------------------------------------------------------------------
 -----
 title
 -----
 Structure from the checkpoint file:  "ANI1ccx_911_conf7_mol1.chk"
 Charge =  0 Multiplicity = 1

                         Standard orientation:
 ---------------------------------------------------------------------
 Center     Atomic      Atomic             Coordinates (Angstroms)
 Number     Number       Type             X           Y           Z
 ---------------------------------------------------------------------
      1          6           0        1.633459   -0.578474   -0.007510
      2          6           0        0.411267    1.345059    0.030963
      3          6           0       -0.875251    0.495509   -0.129548
      4          6           0       -2.219059    0.503721   -0.128576
      5          1           0        2.804527   -2.117264   -0.206424
      6          1           0        3.667839   -0.675123    0.268730
      7          1           0        1.154894    3.117788    0.063060
      8          1           0       -0.594726    3.153140    0.053229
      9          1           0       -2.863228    1.419093   -0.138323
     10          7           0        2.860799   -1.109614   -0.091696
     11          7           0        1.595831    0.760529    0.128250
     12          7           0        0.291145    2.692019    0.002355
     13          7           0       -2.714821   -0.741650    0.100805
     14          7           0       -1.745622   -1.561229    0.094888
     15          7           0       -0.586996   -0.839902   -0.048068
     16          7           0        0.603693   -1.413371    0.008859
 ---------------------------------------------------------------------

 SCF Done:  E(RHF) =  -536.052052781     A.U. after    2 cycles

 The electronic state is 1-A.
 Alpha  occ. eigenvalues --  -15.63248 -15.57613 -15.56927 -15.53970 -15.52680
 Alpha  occ. eigenvalues --  -15.52131 -15.52096 -11.40508 -11.36815 -11.30563
 Alpha  occ. eigenvalues --  -11.27415  -1.45807  -1.36043  -1.30888  -1.27265
 Alpha  occ. eigenvalues --   -1.21032  -1.14143  -1.10559  -0.96112  -0.93851
 Alpha  occ. eigenvalues --   -0.89454  -0.86131  -0.81386  -0.79213  -0.75294
 Alpha  occ. eigenvalues --   -0.72574  -0.71173  -0.69994  -0.65320  -0.63666
 Alpha  occ. eigenvalues --   -0.59489  -0.58146  -0.55637  -0.51956  -0.49753
 Alpha  occ. eigenvalues --   -0.47971  -0.46213  -0.41376  -0.35237
 Alpha virt. eigenvalues --    0.01856   0.03402   0.03884   0.05204   0.05816
 Alpha virt. eigenvalues --    0.06549   0.08032   0.08457   0.09712   0.10188
 Alpha virt. eigenvalues --    0.10653   0.10955   0.12174   0.12798   0.13242

 Mulliken charges:
               1
     1  C   -1.054871
     2  C   -1.718026
     3  C   -0.031782
     4  C    0.056171
     5  H    0.205250
     6  H    0.093182
     7  H    0.082368
     8  H    0.172429
     9  H   -0.081712
    10  N    0.671956
    11  N    0.836655
    12  N    0.868414
    13  N    0.221185
    14  N   -0.332075
    15  N   -0.286824
    16  N    0.297680
 Sum of Mulliken charges =   0.00000

 Dipole moment (field-independent basis, Debye):
    X=              3.6906    Y=              6.7131    Z=              0.0400  Tot=              7.6608

 Test job not archived.
 1\1\GINC-SE088\SP\RHF\Aug-CC-pVDZ\C4H5N7\OHZDE\08-Apr-2025\0\\#t hf au
 g-cc-pvdz iop(5/13=1,5/36=2,99/5=2) pseudo=read geom=check guess=(read
 ,tcheck) scf=(maxcycle=1)\\title\\0,1\C,0,1.63346,-0.578471,-0.0075101
 8\C,0,0.411265,1.34506,0.0309628\C,0,-0.875252,0.495509,-0.129548\C,0,
 -2.21906,0.503719,-0.128576\H,0,2.80453,-2.11726,-0.206424\H,0,3.66784
 ,-0.675118,0.26873\H,0,1.15489,3.11779,0.0630603\H,0,-0.59473,3.15314,
 0.0532294\H,0,-2.86323,1.41909,-0.138323\N,0,2.8608,-1.10961,-0.091695
 7\N,0,1.59583,0.760531,0.12825\N,0,0.291142,2.69202,0.00235536\N,0,-2.

 Normal termination of Gaussian 16 at Tue Apr  8 22:09:15 2025.
