 Gaussian 16, Revision C.01,

 ----------------------------------------------------------------------
 #t hf aug-cc-pvdz symm=none int=(grid=ultrafine) guess=(read,tcheck) s
 table=(opt,rrhf)
 ----------------------------------------------------------------------
 -----
 title
 -----
 Symbolic Z-matrix:
 Charge =  0 Multiplicity = 1

 SCF Done:  E(RHF) =  -927.498460541     A.U. after   15 cycles
 Normal termination of Gaussian 16 at Tue Apr  8 22:14:04 2025.
 Gaussian 16:  ES64L-G16RevC.01  3-Jul-2019

 ----------------------------------------------------------------------
 #t hf aug-cc-pvdz iop(5/13=1,5/36=2,99/5=2) pseudo=read geom=check gue
 ss=(read,tcheck) scf=(maxcycle=1)
 ----------------------------------------------------------------------
 -----
 title
 -----
 Structure from the checkpoint file:  "ANI1ccx_79_conf5_mol1.chk"
 Charge =  0 Multiplicity = 1

                         Standard orientation:
 ---------------------------------------------------------------------
 Center     Atomic      Atomic             Coordinates (Angstroms)
 Number     Number       Type             X           Y           Z
 ---------------------------------------------------------------------
      1          6           0       -2.231231    0.068849    0.792488
      2          6           0        4.350919   -1.120739    0.745447
      3          6           0        3.160919   -0.351827    0.088942
      4          6           0        2.042889    0.047652    1.134260
      5          6           0        0.939577    2.109100   -0.030711
      6          6           0        5.317930   -1.727838   -0.231964
      7          6           0       -4.497921   -0.548110   -0.188055
      8          6           0       -3.545411   -0.663171    0.912989
      9          6           0       -1.245361   -0.858674    0.027180
     10          6           0        0.731130    0.668237    0.549126
     11          1           0        2.619049   -0.913936   -0.759783
     12          1           0       -0.810802    1.802790   -0.877014
     13          1           0        6.024529   -0.904449   -2.122920
     14          1           0        6.806309   -0.219439   -1.025140
     15          1           0        6.086580   -2.221188    0.321014
     16          1           0        4.805790   -2.293519   -0.991159
     17          1           0        4.971739   -0.493604    1.470760
     18          1           0        3.894860   -1.933679    1.290030
     19          1           0        3.431779    0.632384   -0.369594
     20          1           0        2.014469   -0.667006    1.985640
     21          1           0       -2.332481    2.167029    0.720778
     22          1           0        0.083356    0.943201    1.406790
     23          1           0        0.442546   -0.684602   -1.057490
     24          1           0       -5.858020   -1.529322   -1.083660
     25          1           0       -3.958271   -0.057765    1.776090
     26          1           0       -3.455570   -1.685421    1.266310
     27          1           0       -1.753661    0.244275    1.745250
     28          1           0       -3.002161    1.363829   -0.588685
     29          1           0        2.506049    0.906523    1.723270
     30          7           0       -2.264021    1.326049    0.123393
     31          7           0       -0.024551   -0.259433   -0.236183
     32          7           0        5.851829   -0.626530   -1.150180
     33          8           0       -5.304740   -1.625851   -0.230196
     34          8           0        1.822518    2.924791    0.211728
     35          8           0       -1.618180   -1.965880   -0.398410
     36          8           0       -4.561471    0.313294   -1.065390
     37          8           0       -0.038069    2.443950   -0.866213
 ---------------------------------------------------------------------

 SCF Done:  E(RHF) =  -928.436880377     A.U. after    2 cycles

 The electronic state is 1-A.
 Alpha  occ. eigenvalues --  -20.62027 -20.56991 -20.55805 -20.54129 -20.52369
 Alpha  occ. eigenvalues --  -15.54734 -15.52039 -15.48205 -11.42144 -11.39156
 Alpha  occ. eigenvalues --  -11.38427 -11.32279 -11.31397 -11.27751 -11.26315
 Alpha  occ. eigenvalues --  -11.25202 -11.24520 -11.23866  -1.55910  -1.52324
 Alpha  occ. eigenvalues --   -1.46718  -1.45908  -1.42453  -1.27136  -1.23233
 Alpha  occ. eigenvalues --   -1.15708  -1.08637  -1.07483  -1.02717  -0.97070
 Alpha  occ. eigenvalues --   -0.95124  -0.86103  -0.85331  -0.82584  -0.80829
 Alpha  occ. eigenvalues --   -0.79250  -0.77058  -0.76138  -0.73551  -0.72140
 Alpha  occ. eigenvalues --   -0.69129  -0.68664  -0.67677  -0.66335  -0.65325
 Alpha  occ. eigenvalues --   -0.65044  -0.64747  -0.63620  -0.62129  -0.60878
 Alpha  occ. eigenvalues --   -0.60175  -0.59423  -0.58644  -0.56898  -0.56536
 Alpha  occ. eigenvalues --   -0.55744  -0.53461  -0.52911  -0.50813  -0.49474
 Alpha  occ. eigenvalues --   -0.49059  -0.48546  -0.47634  -0.46950  -0.46537
 Alpha  occ. eigenvalues --   -0.45302  -0.44674  -0.42666  -0.42165  -0.41125
 Alpha virt. eigenvalues --    0.02077   0.03122   0.03302   0.03637   0.03924
 Alpha virt. eigenvalues --    0.04381   0.04514   0.05759   0.06141   0.06240
 Alpha virt. eigenvalues --    0.06552   0.07262   0.07875   0.08190   0.08754

 Mulliken charges:
               1
     1  C   -1.092584
     2  C   -0.363884
     3  C   -0.365982
     4  C    0.036167
     5  C    2.599323
     6  C   -0.466736
     7  C    2.675794
     8  C   -0.641424
     9  C    0.708441
    10  C   -1.460416
    11  H    0.189941
    12  H    0.886238
    13  H    0.108871
    14  H    0.069194
    15  H    0.058273
    16  H    0.114132
    17  H    0.221889
    18  H    0.166331
    19  H    0.220776
    20  H   -0.060495
    21  H    0.340667
    22  H    0.460066
    23  H    0.362920
    24  H    0.444879
    25  H    0.475822
    26  H    0.054417
    27  H    0.123776
    28  H    0.399369
    29  H    0.277384
    30  N   -0.118111
    31  N    0.646497
    32  N    0.175575
    33  O   -1.431816
    34  O   -1.425448
    35  O   -1.380698
    36  O   -1.400805
    37  O   -1.608339
 Sum of Mulliken charges =  -0.00000

 Dipole moment (field-independent basis, Debye):
    X=             -1.7263    Y=             -3.3897    Z=              2.9628  Tot=              4.8217

 Test job not archived.
 1\1\GINC-SE229\SP\RHF\Aug-CC-pVDZ\C10H19N3O5\OHZDE\08-Apr-2025\0\\#t h
 f aug-cc-pvdz iop(5/13=1,5/36=2,99/5=2) pseudo=read geom=check guess=(
 read,tcheck) scf=(maxcycle=1)\\title\\0,1\C,0,-2.23123,0.06885,0.79248
 8\C,0,4.35092,-1.12074,0.745447\C,0,3.16092,-0.351828,0.0889424\C,0,2.
 04289,0.0476516,1.13426\C,0,0.939578,2.1091,-0.030711\C,0,5.31793,-1.7
 2784,-0.231964\C,0,-4.49792,-0.548109,-0.188055\C,0,-3.54541,-0.66317,
 0.912989\C,0,-1.24536,-0.858674,0.0271802\C,0,0.731131,0.668237,0.5491
 26\H,0,2.61905,-0.913937,-0.759783\H,0,-0.810801,1.80279,-0.877014\H,0

 Normal termination of Gaussian 16 at Tue Apr  8 22:15:05 2025.
