 Gaussian 16, Revision C.01,

 ----------------------------------------------------------------------
 #t hf aug-cc-pvdz symm=none int=(grid=ultrafine) guess=(read,tcheck) s
 table=(opt,rrhf)
 ----------------------------------------------------------------------
 -----
 title
 -----
 Symbolic Z-matrix:
 Charge =  0 Multiplicity = 1

 SCF Done:  E(RHF) =  -464.386656228     A.U. after   15 cycles
 Normal termination of Gaussian 16 at Tue Apr  8 21:42:13 2025.
 Gaussian 16:  ES64L-G16RevC.01  3-Jul-2019

 ----------------------------------------------------------------------
 #t hf aug-cc-pvdz iop(5/13=1,5/36=2,99/5=2) pseudo=read geom=check gue
 ss=(read,tcheck) scf=(maxcycle=1)
 ----------------------------------------------------------------------
 -----
 title
 -----
 Structure from the checkpoint file:  "ANI1ccx_474_conf7_mol1.chk"
 Charge =  0 Multiplicity = 1

                         Standard orientation:
 ---------------------------------------------------------------------
 Center     Atomic      Atomic             Coordinates (Angstroms)
 Number     Number       Type             X           Y           Z
 ---------------------------------------------------------------------
      1          6           0        1.134090   -0.548166    0.159304
      2          6           0        0.207355    1.616639    0.023660
      3          1           0        2.692570   -0.670295   -1.027220
      4          7           0        1.068751    0.795544   -0.135539
      5          7           0       -2.058060   -0.680470   -0.529429
      6          7           0       -2.907110   -1.141019   -0.001186
      7          8           0        2.117410   -1.227613   -0.490162
      8          8           0       -0.519904    2.519949    0.085508
      9          8           0        0.469206   -1.112202    0.978718
 ---------------------------------------------------------------------

 SCF Done:  E(RHF) =  -464.827049735     A.U. after    2 cycles

 The electronic state is 1-A.
 Alpha  occ. eigenvalues --  -20.65133 -20.62464 -20.55682 -15.62357 -15.62200
 Alpha  occ. eigenvalues --  -15.57323 -11.46922 -11.46566  -1.59671  -1.57218
 Alpha  occ. eigenvalues --   -1.49251  -1.48368  -1.34014  -1.00776  -0.84686
 Alpha  occ. eigenvalues --   -0.82397  -0.77974  -0.73436  -0.72959  -0.68812
 Alpha  occ. eigenvalues --   -0.67794  -0.67050  -0.66801  -0.64947  -0.62193
 Alpha  occ. eigenvalues --   -0.56023  -0.52922  -0.48483  -0.48163
 Alpha virt. eigenvalues --    0.02874   0.06691   0.07693   0.08733   0.09141
 Alpha virt. eigenvalues --    0.09451   0.09675   0.10203   0.10891   0.11393
 Alpha virt. eigenvalues --    0.11651   0.13365   0.13807   0.16325   0.17410

 Mulliken charges:
               1
     1  C    1.652163
     2  C    0.256744
     3  H    0.427892
     4  N    0.690439
     5  N    0.094398
     6  N   -0.157456
     7  O   -1.167989
     8  O   -0.773042
     9  O   -1.023150
 Sum of Mulliken charges =  -0.00000

 Dipole moment (field-independent basis, Debye):
    X=              1.5275    Y=              1.8062    Z=             -1.9900  Tot=              3.0913

 Test job not archived.
 1\1\GINC-SE247\SP\RHF\Aug-CC-pVDZ\C2H1N3O3\OHZDE\08-Apr-2025\0\\#t hf
 aug-cc-pvdz iop(5/13=1,5/36=2,99/5=2) pseudo=read geom=check guess=(re
 ad,tcheck) scf=(maxcycle=1)\\title\\0,1\C,0,1.13409,-0.548164,0.159304
 \C,0,0.207353,1.61664,0.0236604\H,0,2.69257,-0.670292,-1.02722\N,0,1.0
 6875,0.795546,-0.135539\N,0,-2.05806,-0.68047,-0.529429\N,0,-2.90711,-
 1.14102,-0.00118618\O,0,2.11741,-1.22761,-0.490162\O,0,-0.519907,2.519
 95,0.0855078\O,0,0.469206,-1.1122,0.978718\\Version=ES64L-G16RevC.01\S
 tate=1-A\HF=-464.8270497\RMSD=2.925e-02\Dipole=0.6009785,0.7106244,-0.

 Normal termination of Gaussian 16 at Tue Apr  8 21:42:17 2025.
