 Gaussian 16, Revision C.01,

 ----------------------------------------------------------------------
 #t hf aug-cc-pvdz symm=none int=(grid=ultrafine) guess=(read,tcheck) s
 table=(opt,rrhf)
 ----------------------------------------------------------------------
 -----
 title
 -----
 Symbolic Z-matrix:
 Charge =  0 Multiplicity = 1

 SCF Done:  E(RHF) =  -456.257871685     A.U. after   11 cycles
 Normal termination of Gaussian 16 at Tue Apr  8 21:07:42 2025.
 Gaussian 16:  ES64L-G16RevC.01  3-Jul-2019

 ----------------------------------------------------------------------
 #t hf aug-cc-pvdz iop(5/13=1,5/36=2,99/5=2) pseudo=read geom=check gue
 ss=(read,tcheck) scf=(maxcycle=1)
 ----------------------------------------------------------------------
 -----
 title
 -----
 Structure from the checkpoint file:  "ANI1ccx_1844_conf357_mol1.chk"
 Charge =  0 Multiplicity = 1

                         Standard orientation:
 ---------------------------------------------------------------------
 Center     Atomic      Atomic             Coordinates (Angstroms)
 Number     Number       Type             X           Y           Z
 ---------------------------------------------------------------------
      1          1           0       -1.173978    2.543723   -0.544716
      2          1           0       -2.755101    0.085164    0.369029
      3          1           0       -3.567032   -0.901893    1.391440
      4          1           0       -1.006534   -2.999687   -0.993673
      5          1           0       -1.597693   -1.932897   -0.101696
      6          1           0        3.498080    0.797260   -0.512969
      7          1           0       -2.624538    3.075764   -0.583624
      8          1           0        2.774429   -0.325127    0.203755
      9          1           0        2.319037   -2.612701   -0.597752
     10          1           0        0.810520   -2.094119   -0.227400
     11          1           0        1.336051    1.823540    0.972619
     12          1           0        1.709751    2.008250   -0.389245
     13          8           0       -0.752183   -2.408948   -0.223833
     14          8           0        1.839497   -1.863030   -0.193338
     15          8           0       -3.037452   -0.851037    0.554530
     16          8           0        3.048010    0.566191    0.327188
     17          8           0       -2.116168    2.309094   -0.577922
     18          8           0        1.052922    2.314320    0.240153
 ---------------------------------------------------------------------

 SCF Done:  E(RHF) =  -456.731450870     A.U. after    2 cycles

 The electronic state is 1-A.
 Alpha  occ. eigenvalues --  -20.57440 -20.57303 -20.54622 -20.53377 -20.53376
 Alpha  occ. eigenvalues --  -20.52587  -1.45184  -1.43848  -1.43434  -1.43327
 Alpha  occ. eigenvalues --   -1.41655  -1.39182  -0.72387  -0.72127  -0.71287
 Alpha  occ. eigenvalues --   -0.70141  -0.68988  -0.67725  -0.60827  -0.59759
 Alpha  occ. eigenvalues --   -0.58096  -0.56498  -0.55971  -0.52939  -0.51080
 Alpha  occ. eigenvalues --   -0.50344  -0.49386  -0.48069  -0.47341  -0.46750
 Alpha virt. eigenvalues --    0.03196   0.03697   0.04585   0.05265   0.06132
 Alpha virt. eigenvalues --    0.07653   0.08251   0.08972   0.09502   0.10618
 Alpha virt. eigenvalues --    0.11173   0.11587   0.17884   0.17908   0.19228

 Mulliken charges:
               1
     1  H    0.516788
     2  H    0.531817
     3  H    0.417310
     4  H    0.340612
     5  H    0.647752
     6  H    0.389534
     7  H    0.357905
     8  H    0.630467
     9  H    0.331668
    10  H    0.916823
    11  H    0.481099
    12  H    0.505432
    13  O   -1.097619
    14  O   -1.156285
    15  O   -0.997574
    16  O   -0.933935
    17  O   -0.867667
    18  O   -1.014127
 Sum of Mulliken charges =  -0.00000

 Dipole moment (field-independent basis, Debye):
    X=             -1.8899    Y=             -1.5156    Z=             -1.7711  Tot=              3.0009

 Test job not archived.
 1\1\GINC-SE458\SP\RHF\Aug-CC-pVDZ\H12O6\OHZDE\08-Apr-2025\0\\#t hf aug
 -cc-pvdz iop(5/13=1,5/36=2,99/5=2) pseudo=read geom=check guess=(read,
 tcheck) scf=(maxcycle=1)\\title\\0,1\H,0,-1.17398,2.54372,-0.544716\H,
 0,-2.7551,0.0851596,0.369029\H,0,-3.56703,-0.901898,1.39144\H,0,-1.006
 53,-2.99969,-0.993673\H,0,-1.59769,-1.9329,-0.101696\H,0,3.49808,0.797
 262,-0.512969\H,0,-2.62454,3.07576,-0.583624\H,0,2.77443,-0.325126,0.2
 03755\H,0,2.31904,-2.6127,-0.597752\H,0,0.810523,-2.09412,-0.2274\H,0,
 1.33605,1.82354,0.972619\H,0,1.70975,2.00825,-0.389245\O,0,-0.75218,-2

 Normal termination of Gaussian 16 at Tue Apr  8 21:07:47 2025.
