 Gaussian 16, Revision C.01,

 ----------------------------------------------------------------------
 #t hf aug-cc-pvdz symm=none int=(grid=ultrafine) guess=(read,tcheck) s
 table=(opt,rrhf)
 ----------------------------------------------------------------------
 -----
 title
 -----
 Symbolic Z-matrix:
 Charge =  0 Multiplicity = 1

 SCF Done:  E(RHF) =  -380.238902197     A.U. after   11 cycles
 Normal termination of Gaussian 16 at Tue Apr  8 21:04:27 2025.
 Gaussian 16:  ES64L-G16RevC.01  3-Jul-2019

 ----------------------------------------------------------------------
 #t hf aug-cc-pvdz iop(5/13=1,5/36=2,99/5=2) pseudo=read geom=check gue
 ss=(read,tcheck) scf=(maxcycle=1)
 ----------------------------------------------------------------------
 -----
 title
 -----
 Structure from the checkpoint file:  "ANI1ccx_1843_conf4_mol1.chk"
 Charge =  0 Multiplicity = 1

                         Standard orientation:
 ---------------------------------------------------------------------
 Center     Atomic      Atomic             Coordinates (Angstroms)
 Number     Number       Type             X           Y           Z
 ---------------------------------------------------------------------
      1          1           0        0.984221   -1.640831   -0.063755
      2          1           0        2.404715   -1.788499   -0.689787
      3          1           0       -1.345707   -1.469220   -0.074563
      4          1           0       -0.910906   -2.850487    0.542993
      5          1           0       -2.880250   -0.012176    0.832039
      6          1           0       -1.876596    0.763612   -0.060139
      7          1           0        0.235965    1.945933   -0.027030
      8          1           0       -0.818164    2.777824   -0.747541
      9          1           0        1.919467    0.410588   -0.028131
     10          1           0        2.436696    1.653662    0.759932
     11          8           0        1.910881   -1.312303    0.009648
     12          8           0       -0.622355   -2.140284   -0.048748
     13          8           0       -2.435289   -0.061875   -0.047827
     14          8           0       -0.720976    2.161425   -0.010194
     15          8           0        1.849059    1.379237    0.041619
 ---------------------------------------------------------------------

 SCF Done:  E(RHF) =  -380.633141325     A.U. after    2 cycles

 The electronic state is 1-A.
 Alpha  occ. eigenvalues --  -20.55366 -20.55252 -20.54579 -20.54328 -20.54298
 Alpha  occ. eigenvalues --   -1.44506  -1.43626  -1.43009  -1.41529  -1.41345
 Alpha  occ. eigenvalues --   -0.71582  -0.71297  -0.70870  -0.70415  -0.69499
 Alpha  occ. eigenvalues --   -0.61235  -0.60660  -0.56727  -0.55850  -0.53068
 Alpha  occ. eigenvalues --   -0.49968  -0.48991  -0.48836  -0.48697  -0.48535
 Alpha virt. eigenvalues --    0.03566   0.04392   0.04588   0.05788   0.06605
 Alpha virt. eigenvalues --    0.08369   0.09238   0.09561   0.10365   0.11852
 Alpha virt. eigenvalues --    0.17500   0.18757   0.19729   0.20275   0.20817

 Mulliken charges:
               1
     1  H    0.772535
     2  H    0.326312
     3  H    0.669287
     4  H    0.348249
     5  H    0.355245
     6  H    0.685433
     7  H    0.730826
     8  H    0.324514
     9  H    0.700730
    10  H    0.329054
    11  O   -1.044715
    12  O   -1.090974
    13  O   -1.038451
    14  O   -1.016740
    15  O   -1.051304
 Sum of Mulliken charges =  -0.00000

 Dipole moment (field-independent basis, Debye):
    X=              0.2515    Y=             -0.6170    Z=              0.9267  Tot=              1.1414

 Test job not archived.
 1\1\GINC-SE078\SP\RHF\Aug-CC-pVDZ\H10O5\OHZDE\08-Apr-2025\0\\#t hf aug
 -cc-pvdz iop(5/13=1,5/36=2,99/5=2) pseudo=read geom=check guess=(read,
 tcheck) scf=(maxcycle=1)\\title\\0,1\H,0,0.984207,-1.64084,-0.0637548\
 H,0,2.4047,-1.78852,-0.689787\H,0,-1.34572,-1.46921,-0.0745626\H,0,-0.
 91093,-2.85048,0.542993\H,0,-2.88025,-0.0121524,0.832039\H,0,-1.87659,
 0.763627,-0.0601386\H,0,0.235981,1.94593,-0.0270303\H,0,-0.818141,2.77
 783,-0.747541\H,0,1.91947,0.410571,-0.0281311\H,0,2.43671,1.65364,0.75
 9932\O,0,1.91087,-1.31232,0.00964773\O,0,-0.622373,-2.14028,-0.048748\

 Normal termination of Gaussian 16 at Tue Apr  8 21:04:30 2025.
