 Gaussian 16, Revision C.01,

 ----------------------------------------------------------------------
 #t hf aug-cc-pvdz symm=none int=(grid=ultrafine) guess=(read,tcheck) s
 table=(opt,rrhf)
 ----------------------------------------------------------------------
 -----
 title
 -----
 Symbolic Z-matrix:
 Charge =  0 Multiplicity = 1

 SCF Done:  E(RHF) =  -794.442009607     A.U. after   15 cycles
 Normal termination of Gaussian 16 at Tue Apr  8 20:18:25 2025.
 Gaussian 16:  ES64L-G16RevC.01  3-Jul-2019

 ----------------------------------------------------------------------
 #t hf aug-cc-pvdz iop(5/13=1,5/36=2,99/5=2) pseudo=read geom=check gue
 ss=(read,tcheck) scf=(maxcycle=1)
 ----------------------------------------------------------------------
 -----
 title
 -----
 Structure from the checkpoint file:  "ANI1ccx_1592_conf9_mol1.chk"
 Charge =  0 Multiplicity = 1

                         Standard orientation:
 ---------------------------------------------------------------------
 Center     Atomic      Atomic             Coordinates (Angstroms)
 Number     Number       Type             X           Y           Z
 ---------------------------------------------------------------------
      1          6           0        0.536262    1.309071   -0.312284
      2          6           0       -0.820462    1.805871    0.129501
      3          6           0        1.486331    1.224561    0.903417
      4          6           0        2.692291    0.405304    0.545434
      5          6           0        2.398310   -1.015019    0.136888
      6          6           0       -1.548649   -0.542958    0.659461
      7          6           0       -1.915080   -1.201679   -0.712691
      8          6           0       -2.381710   -1.171029    1.774890
      9          1           0       -0.129362   -1.918289   -0.833360
     10          1           0       -3.457340   -0.915322    1.589600
     11          1           0       -2.072700   -0.770482    2.756740
     12          1           0       -2.276350   -2.238069    1.790550
     13          1           0       -0.439510   -0.701576    0.905527
     14          1           0       -2.724259    1.200092    0.547489
     15          1           0        3.422940   -2.535200   -0.231653
     16          1           0        3.242611    0.940136   -0.247529
     17          1           0        3.474401    0.326960    1.378910
     18          1           0        1.798761    2.195431    1.394210
     19          1           0        0.905613    0.735229    1.630370
     20          1           0        0.348845    0.328132   -0.578779
     21          1           0        0.541917    1.731561   -2.218810
     22          1           0        0.971342    3.030731   -1.294930
     23          7           0        1.100481    2.062121   -1.387360
     24          7           0       -1.767379    0.851137    0.553532
     25          8           0       -1.176909    2.996061   -0.010416
     26          8           0        1.372290   -1.656629    0.267339
     27          8           0        3.547230   -1.557020   -0.240149
     28          8           0       -2.894820   -0.947843   -1.311360
     29          8           0       -1.050590   -2.170429   -1.142820
 ---------------------------------------------------------------------

 SCF Done:  E(RHF) =  -795.240509550     A.U. after    2 cycles

 The electronic state is 1-A.
 Alpha  occ. eigenvalues --  -20.63866 -20.58483 -20.58382 -20.53770 -20.51893
 Alpha  occ. eigenvalues --  -15.53127 -15.50525 -11.43952 -11.38464 -11.36898
 Alpha  occ. eigenvalues --  -11.30493 -11.28958 -11.28394 -11.26500 -11.25354
 Alpha  occ. eigenvalues --   -1.59501  -1.53580  -1.49732  -1.45333  -1.44517
 Alpha  occ. eigenvalues --   -1.25478  -1.22201  -1.10963  -1.05421  -1.00989
 Alpha  occ. eigenvalues --   -0.92267  -0.91013  -0.83387  -0.82761  -0.80801
 Alpha  occ. eigenvalues --   -0.76929  -0.75059  -0.74651  -0.73194  -0.71013
 Alpha  occ. eigenvalues --   -0.69172  -0.67610  -0.66950  -0.65153  -0.64399
 Alpha  occ. eigenvalues --   -0.62291  -0.61051  -0.60713  -0.59182  -0.57522
 Alpha  occ. eigenvalues --   -0.57097  -0.56428  -0.55706  -0.53543  -0.52961
 Alpha  occ. eigenvalues --   -0.51601  -0.50738  -0.48575  -0.47338  -0.47241
 Alpha  occ. eigenvalues --   -0.45226  -0.42283  -0.40389
 Alpha virt. eigenvalues --    0.02097   0.02716   0.03407   0.03906   0.05108
 Alpha virt. eigenvalues --    0.05343   0.05478   0.06316   0.06775   0.07544
 Alpha virt. eigenvalues --    0.08512   0.08823   0.09290   0.09881   0.10561

 Mulliken charges:
               1
     1  C   -2.326535
     2  C    0.828928
     3  C    0.169034
     4  C   -0.637910
     5  C    2.553887
     6  C   -1.530394
     7  C    2.669363
     8  C   -0.066340
     9  H    0.691223
    10  H    0.280544
    11  H    0.241713
    12  H    0.156026
    13  H    0.314611
    14  H    0.206680
    15  H    0.399324
    16  H    0.286924
    17  H    0.278020
    18  H    0.146255
    19  H    0.098610
    20  H    0.209639
    21  H    0.366176
    22  H    0.243494
    23  N    0.785629
    24  N    0.819594
    25  O   -1.438331
    26  O   -1.408582
    27  O   -1.435457
    28  O   -1.376547
    29  O   -1.525578
 Sum of Mulliken charges =  -0.00000

 Dipole moment (field-independent basis, Debye):
    X=              5.4196    Y=             -2.0018    Z=              3.3242  Tot=              6.6656

 Test job not archived.
 1\1\GINC-SE143\SP\RHF\Aug-CC-pVDZ\C8H14N2O5\OHZDE\08-Apr-2025\0\\#t hf
  aug-cc-pvdz iop(5/13=1,5/36=2,99/5=2) pseudo=read geom=check guess=(r
 ead,tcheck) scf=(maxcycle=1)\\title\\0,1\C,0,0.536261,1.30907,-0.31228
 4\C,0,-0.820463,1.80587,0.129501\C,0,1.48633,1.22456,0.903417\C,0,2.69
 229,0.405303,0.545434\C,0,2.39831,-1.01502,0.136888\C,0,-1.54865,-0.54
 2959,0.659461\C,0,-1.91508,-1.20168,-0.712691\C,0,-2.38171,-1.17103,1.
 77489\H,0,-0.129362,-1.91829,-0.83336\H,0,-3.45734,-0.915324,1.5896\H,
 0,-2.0727,-0.770483,2.75674\H,0,-2.27635,-2.23807,1.79055\H,0,-0.43951

 Normal termination of Gaussian 16 at Tue Apr  8 20:19:02 2025.
