 Gaussian 16, Revision C.01,

 ----------------------------------------------------------------------
 #t hf aug-cc-pvdz symm=none int=(grid=ultrafine) guess=(read,tcheck) s
 table=(opt,rrhf)
 ----------------------------------------------------------------------
 -----
 title
 -----
 Symbolic Z-matrix:
 Charge =  0 Multiplicity = 1

 SCF Done:  E(RHF) =  -866.304555050     A.U. after   15 cycles
 Normal termination of Gaussian 16 at Tue Apr  8 20:52:03 2025.
 Gaussian 16:  ES64L-G16RevC.01  3-Jul-2019

 ----------------------------------------------------------------------
 #t hf aug-cc-pvdz iop(5/13=1,5/36=2,99/5=2) pseudo=read geom=check gue
 ss=(read,tcheck) scf=(maxcycle=1)
 ----------------------------------------------------------------------
 -----
 title
 -----
 Structure from the checkpoint file:  "ANI1ccx_1746_conf2_mol1.chk"
 Charge =  0 Multiplicity = 1

                         Standard orientation:
 ---------------------------------------------------------------------
 Center     Atomic      Atomic             Coordinates (Angstroms)
 Number     Number       Type             X           Y           Z
 ---------------------------------------------------------------------
      1          6           0       -1.586370   -1.578249    0.720718
      2          6           0       -0.442239   -1.126529   -0.231576
      3          6           0       -2.829220   -1.117429   -0.111714
      4          6           0        1.765170    0.041543   -0.131205
      5          6           0        3.101750   -0.653179   -0.089822
      6          6           0        1.702620    1.465010    0.435239
      7          6           0        0.372159    1.975801    0.202264
      8          6           0       -0.103774    2.418191   -0.965608
      9          6           0       -1.773809    2.142761    0.417160
     10          1           0        2.019800   -2.190470   -0.227149
     11          1           0       -2.115659    2.923851   -1.487450
     12          1           0       -2.670389    2.203031    0.931069
     13          1           0        0.293783    2.752001   -1.883260
     14          1           0        2.406380    2.085080   -0.051857
     15          1           0        1.822300    1.317080    1.543570
     16          1           0        1.492710    0.133166   -1.207130
     17          1           0        0.698363   -1.170410    1.451600
     18          1           0       -2.415900   -1.852119   -1.818590
     19          1           0       -3.745810   -1.132769    0.488936
     20          1           0       -2.766990   -0.096683   -0.517956
     21          1           0       -1.448750   -2.671809    0.836463
     22          1           0       -2.259100   -0.965778    2.440440
     23          1           0       -1.141040   -0.044578    1.905940
     24          7           0       -1.395880   -0.984348    2.011230
     25          7           0        0.701887   -0.862645    0.483536
     26          7           0       -0.693386    1.799741    1.113000
     27          7           0       -1.442559    2.596301   -0.820232
     28          8           0       -0.588960   -0.918269   -1.426950
     29          8           0       -3.038950   -2.058219   -1.128490
     30          8           0        4.161540   -0.094188   -0.127446
     31          8           0        3.016640   -1.996880   -0.240871
 ---------------------------------------------------------------------

 SCF Done:  E(RHF) =  -867.179820864     A.U. after    2 cycles

 The electronic state is 1-A.
 Alpha  occ. eigenvalues --  -20.59749 -20.53994 -20.53825 -20.53695 -15.58458
 Alpha  occ. eigenvalues --  -15.55123 -15.51375 -15.48895 -11.39383 -11.38070
 Alpha  occ. eigenvalues --  -11.32371 -11.31822 -11.29400 -11.28860 -11.27902
 Alpha  occ. eigenvalues --  -11.26911 -11.25914  -1.53793  -1.49025  -1.45243
 Alpha  occ. eigenvalues --   -1.45039  -1.36688  -1.26972  -1.21866  -1.19780
 Alpha  occ. eigenvalues --   -1.11038  -1.04298  -1.00400  -0.95537  -0.89319
 Alpha  occ. eigenvalues --   -0.88324  -0.84049  -0.83720  -0.81421  -0.79626
 Alpha  occ. eigenvalues --   -0.76968  -0.75291  -0.72085  -0.69968  -0.69400
 Alpha  occ. eigenvalues --   -0.67632  -0.66571  -0.65735  -0.65214  -0.65080
 Alpha  occ. eigenvalues --   -0.63489  -0.62634  -0.60979  -0.60116  -0.59462
 Alpha  occ. eigenvalues --   -0.57407  -0.56660  -0.56017  -0.53677  -0.51693
 Alpha  occ. eigenvalues --   -0.50660  -0.48677  -0.47101  -0.46382  -0.45895
 Alpha  occ. eigenvalues --   -0.44565  -0.43691  -0.41562  -0.35627
 Alpha virt. eigenvalues --    0.01798   0.02891   0.03347   0.04101   0.04476
 Alpha virt. eigenvalues --    0.04804   0.04999   0.05190   0.06156   0.07517
 Alpha virt. eigenvalues --    0.07770   0.08062   0.08877   0.09497   0.10099

 Mulliken charges:
               1
     1  C   -1.780522
     2  C    0.809653
     3  C    1.402244
     4  C   -0.905536
     5  C    2.522287
     6  C   -0.521247
     7  C   -0.371969
     8  C   -0.036988
     9  C   -1.058147
    10  H    0.601014
    11  H   -0.093928
    12  H   -0.362031
    13  H   -0.425578
    14  H    0.068328
    15  H    0.286591
    16  H    0.387565
    17  H    0.240018
    18  H    0.369745
    19  H   -0.021634
    20  H    0.108944
    21  H    0.114961
    22  H    0.266235
    23  H    0.141343
    24  N    0.828558
    25  N    0.644681
    26  N    1.238382
    27  N    1.141005
    28  O   -1.493694
    29  O   -1.296821
    30  O   -1.343557
    31  O   -1.459900
 Sum of Mulliken charges =   0.00000

 Dipole moment (field-independent basis, Debye):
    X=             -5.2158    Y=              3.9384    Z=             -0.6490  Tot=              6.5679

 Test job not archived.
 1\1\GINC-SE074\SP\RHF\Aug-CC-pVDZ\C9H14N4O4\OHZDE\08-Apr-2025\0\\#t hf
  aug-cc-pvdz iop(5/13=1,5/36=2,99/5=2) pseudo=read geom=check guess=(r
 ead,tcheck) scf=(maxcycle=1)\\title\\0,1\C,0,-1.58637,-1.57825,0.72071
 8\C,0,-0.442239,-1.12653,-0.231576\C,0,-2.82922,-1.11743,-0.111714\C,0
 ,1.76517,0.0415424,-0.131205\C,0,3.10175,-0.653179,-0.0898213\C,0,1.70
 262,1.46501,0.435239\C,0,0.372159,1.9758,0.202264\C,0,-0.103775,2.4181
 9,-0.965608\C,0,-1.77381,2.14276,0.41716\H,0,2.0198,-2.19047,-0.227149
 \H,0,-2.11566,2.92385,-1.48745\H,0,-2.67039,2.20303,0.931069\H,0,0.293

 Normal termination of Gaussian 16 at Tue Apr  8 20:52:51 2025.
