 Gaussian 16, Revision C.01,

 ----------------------------------------------------------------------
 #t hf aug-cc-pvdz symm=none int=(grid=ultrafine) guess=(read,tcheck) s
 table=(opt,rrhf)
 ----------------------------------------------------------------------
 -----
 title
 -----
 Symbolic Z-matrix:
 Charge =  0 Multiplicity = 1

 SCF Done:  E(RHF) =  -522.609292185     A.U. after   14 cycles
 Normal termination of Gaussian 16 at Tue Apr  8 22:09:55 2025.
 Gaussian 16:  ES64L-G16RevC.01  3-Jul-2019

 ----------------------------------------------------------------------
 #t hf aug-cc-pvdz iop(5/13=1,5/36=2,99/5=2) pseudo=read geom=check gue
 ss=(read,tcheck) scf=(maxcycle=1)
 ----------------------------------------------------------------------
 -----
 title
 -----
 Structure from the checkpoint file:  "ANI1ccx_922_conf14_mol1.chk"
 Charge =  0 Multiplicity = 1

                         Standard orientation:
 ---------------------------------------------------------------------
 Center     Atomic      Atomic             Coordinates (Angstroms)
 Number     Number       Type             X           Y           Z
 ---------------------------------------------------------------------
      1          6           0       -1.900071    0.002090    0.321906
      2          6           0       -0.024590   -0.780587   -0.920901
      3          6           0        1.909139   -0.025818    0.281606
      4          6           0       -0.009932    0.821764   -0.923016
      5          1           0       -1.510911   -1.989420   -0.006866
      6          1           0        0.162098   -1.228220   -1.899960
      7          1           0        1.529319   -2.072050   -0.097514
      8          1           0        1.557960    2.031280   -0.182903
      9          1           0        0.134789    1.268060   -1.878190
     10          1           0       -1.409590    1.985140    0.196283
     11          7           0       -1.313551   -1.099040   -0.386337
     12          7           0        1.183229   -1.084640   -0.131619
     13          7           0        1.177600    1.118070   -0.114765
     14          7           0       -1.319720    1.108710   -0.325831
     15          8           0       -2.654591   -0.025575    1.235470
     16          8           0        2.854109   -0.024572    1.017210
 ---------------------------------------------------------------------

 SCF Done:  E(RHF) =  -523.127153713     A.U. after    2 cycles

 The electronic state is 1-A.
 Alpha  occ. eigenvalues --  -20.53796 -20.51371 -15.54411 -15.54092 -15.53777
 Alpha  occ. eigenvalues --  -15.53384 -11.40480 -11.39677 -11.35412 -11.35134
 Alpha  occ. eigenvalues --   -1.50381  -1.48178  -1.34051  -1.27258  -1.22968
 Alpha  occ. eigenvalues --   -1.17431  -1.02425  -0.90963  -0.90152  -0.86453
 Alpha  occ. eigenvalues --   -0.78717  -0.75867  -0.74785  -0.70698  -0.68483
 Alpha  occ. eigenvalues --   -0.67375  -0.66301  -0.64411  -0.62911  -0.59831
 Alpha  occ. eigenvalues --   -0.56539  -0.50963  -0.46847  -0.46577  -0.45250
 Alpha  occ. eigenvalues --   -0.44434  -0.43619
 Alpha virt. eigenvalues --    0.02250   0.03334   0.03583   0.04871   0.05207
 Alpha virt. eigenvalues --    0.05633   0.08569   0.09450   0.09873   0.11235
 Alpha virt. eigenvalues --    0.11312   0.11888   0.12452   0.12960   0.13028

 Mulliken charges:
               1
     1  C    0.841418
     2  C   -1.543714
     3  C    0.650237
     4  C   -1.404718
     5  H    0.198747
     6  H    0.009351
     7  H    0.207447
     8  H    0.130239
     9  H   -0.074913
    10  H    0.281916
    11  N    0.779166
    12  N    0.707602
    13  N    0.708704
    14  N    0.723970
    15  O   -1.086854
    16  O   -1.128599
 Sum of Mulliken charges =   0.00000

 Dipole moment (field-independent basis, Debye):
    X=              0.2570    Y=             -0.2530    Z=             -4.4155  Tot=              4.4302

 Test job not archived.
 1\1\GINC-SE038\SP\RHF\Aug-CC-pVDZ\C4H6N4O2\OHZDE\08-Apr-2025\0\\#t hf
 aug-cc-pvdz iop(5/13=1,5/36=2,99/5=2) pseudo=read geom=check guess=(re
 ad,tcheck) scf=(maxcycle=1)\\title\\0,1\C,0,-1.90007,0.00208944,0.3219
 06\C,0,-0.0245892,-0.780587,-0.920901\C,0,1.90914,-0.0258176,0.281606\
 C,0,-0.00993206,0.821764,-0.923016\H,0,-1.51091,-1.98942,-0.00686647\H
 ,0,0.162099,-1.22822,-1.89996\H,0,1.52932,-2.07205,-0.0975137\H,0,1.55
 796,2.03128,-0.182903\H,0,0.134789,1.26806,-1.87819\H,0,-1.40959,1.985
 14,0.196283\N,0,-1.31355,-1.09904,-0.386337\N,0,1.18323,-1.08464,-0.13

 Normal termination of Gaussian 16 at Tue Apr  8 22:10:03 2025.
