 Gaussian 16, Revision C.01,

 ----------------------------------------------------------------------
 #t hf aug-cc-pvdz symm=none int=(grid=ultrafine) guess=(read,tcheck) s
 table=(opt,rrhf)
 ----------------------------------------------------------------------
 -----
 title
 -----
 Symbolic Z-matrix:
 Charge =  0 Multiplicity = 1

 SCF Done:  E(RHF) =  -565.489666571     A.U. after   15 cycles
 Normal termination of Gaussian 16 at Tue Apr  8 19:29:57 2025.
 Gaussian 16:  ES64L-G16RevC.01  3-Jul-2019

 ----------------------------------------------------------------------
 #t hf aug-cc-pvdz iop(5/13=1,5/36=2,99/5=2) pseudo=read geom=check gue
 ss=(read,tcheck) scf=(maxcycle=1)
 ----------------------------------------------------------------------
 -----
 title
 -----
 Structure from the checkpoint file:  "ANI1ccx_1346_conf1_mol2.chk"
 Charge =  0 Multiplicity = 1

                         Standard orientation:
 ---------------------------------------------------------------------
 Center     Atomic      Atomic             Coordinates (Angstroms)
 Number     Number       Type             X           Y           Z
 ---------------------------------------------------------------------
      1          6           0        2.370171   -0.039645   -0.549119
      2          6           0        1.025970    0.007796    0.156560
      3          6           0        1.286110   -0.010350    1.687090
      4          6           0        0.228091    1.224651   -0.188828
      5          6           0       -1.828890    0.009449    0.074942
      6          6           0        0.218544   -1.220089   -0.209694
      7          1           0       -1.639667   -1.971371    0.011491
      8          1           0       -1.555812    2.023119   -0.140771
      9          1           0        0.362842    0.126680    2.281370
     10          1           0        1.720182   -0.993863    2.019430
     11          1           0        2.089300    0.735471    1.996130
     12          1           0        2.214450   -0.026626   -1.633180
     13          1           0        2.950571   -0.939799   -0.285915
     14          1           0        3.011370    0.837059   -0.312254
     15          7           0       -1.091231    1.151429    0.086536
     16          7           0       -1.094638   -1.155421    0.245956
     17          8           0        0.688528    2.261991   -0.659645
     18          8           0       -3.047230    0.000138   -0.085575
     19          8           0        0.652185   -2.211329   -0.765962
 ---------------------------------------------------------------------

 SCF Done:  E(RHF) =  -566.054974293     A.U. after    2 cycles

 The electronic state is 1-A.
 Alpha  occ. eigenvalues --  -20.56913 -20.55903 -20.55367 -15.58614 -15.58215
 Alpha  occ. eigenvalues --  -11.44137 -11.40911 -11.40467 -11.30401 -11.28420
 Alpha  occ. eigenvalues --  -11.25115  -1.51785  -1.50428  -1.49399  -1.34553
 Alpha  occ. eigenvalues --   -1.27824  -1.15066  -0.98987  -0.96493  -0.93986
 Alpha  occ. eigenvalues --   -0.93360  -0.81538  -0.81194  -0.73462  -0.72732
 Alpha  occ. eigenvalues --   -0.69427  -0.67445  -0.66767  -0.66233  -0.61133
 Alpha  occ. eigenvalues --   -0.60820  -0.57116  -0.56872  -0.55379  -0.54713
 Alpha  occ. eigenvalues --   -0.52153  -0.51169  -0.48244  -0.47550  -0.46205
 Alpha  occ. eigenvalues --   -0.44968
 Alpha virt. eigenvalues --    0.02961   0.03652   0.04262   0.04401   0.05428
 Alpha virt. eigenvalues --    0.05615   0.06838   0.07034   0.08193   0.08994
 Alpha virt. eigenvalues --    0.10448   0.11041   0.11077   0.12194   0.12436

 Mulliken charges:
               1
     1  C    0.060004
     2  C   -1.967821
     3  C   -0.033903
     4  C    1.133865
     5  C    0.221758
     6  C    1.108282
     7  H    0.272705
     8  H    0.280272
     9  H    0.258408
    10  H    0.256882
    11  H    0.300613
    12  H    0.177201
    13  H    0.234335
    14  H    0.210746
    15  N    0.814703
    16  N    0.685747
    17  O   -1.424473
    18  O   -1.209849
    19  O   -1.379477
 Sum of Mulliken charges =   0.00000

 Dipole moment (field-independent basis, Debye):
    X=              1.4644    Y=             -0.1547    Z=              2.1097  Tot=              2.5728

 Test job not archived.
 1\1\GINC-SE162\SP\RHF\Aug-CC-pVDZ\C6H8N2O3\OHZDE\08-Apr-2025\0\\#t hf
 aug-cc-pvdz iop(5/13=1,5/36=2,99/5=2) pseudo=read geom=check guess=(re
 ad,tcheck) scf=(maxcycle=1)\\title\\0,1\C,0,2.37017,-0.0396482,-0.5491
 19\C,0,1.02597,0.00779421,0.15656\C,0,1.28611,-0.0103524,1.68709\C,0,0
 .228092,1.22465,-0.188828\C,0,-1.82889,0.00945033,0.0749415\C,0,0.2185
 42,-1.22009,-0.209694\H,0,-1.63967,-1.97137,0.011491\H,0,-1.55581,2.02
 312,-0.140771\H,0,0.362842,0.126679,2.28137\H,0,1.72018,-0.993865,2.01
 943\H,0,2.0893,0.735468,1.99613\H,0,2.21445,-0.0266285,-1.63318\H,0,2.

 Normal termination of Gaussian 16 at Tue Apr  8 19:30:09 2025.
