 Gaussian 16, Revision C.01,

 ----------------------------------------------------------------------
 #t hf aug-cc-pvdz symm=none int=(grid=ultrafine) guess=(read,tcheck) s
 table=(opt,rrhf)
 ----------------------------------------------------------------------
 -----
 title
 -----
 Symbolic Z-matrix:
 Charge =  0 Multiplicity = 1

 SCF Done:  E(RHF) =  -369.094049392     A.U. after   13 cycles
 Normal termination of Gaussian 16 at Tue Apr  8 21:40:10 2025.
 Gaussian 16:  ES64L-G16RevC.01  3-Jul-2019

 ----------------------------------------------------------------------
 #t hf aug-cc-pvdz iop(5/13=1,5/36=2,99/5=2) pseudo=read geom=check gue
 ss=(read,tcheck) scf=(maxcycle=1)
 ----------------------------------------------------------------------
 -----
 title
 -----
 Structure from the checkpoint file:  "ANI1ccx_452_conf7_mol1.chk"
 Charge =  0 Multiplicity = 1

                         Standard orientation:
 ---------------------------------------------------------------------
 Center     Atomic      Atomic             Coordinates (Angstroms)
 Number     Number       Type             X           Y           Z
 ---------------------------------------------------------------------
      1          6           0       -0.054839   -0.345683   -0.111799
      2          1           0        1.723270    1.206538   -0.383611
      3          1           0        0.481444    1.902799   -1.263330
      4          1           0       -0.735500    1.290430    0.435449
      5          1           0       -1.538832   -1.621310   -0.643493
      6          1           0       -2.857890    0.720355   -0.085358
      7          1           0       -2.055151   -0.015162    1.206540
      8          1           0        2.807638   -1.518483    0.218020
      9          1           0        1.942159   -0.382388    1.173720
     10          7           0        0.882095    1.837508   -0.278141
     11          7           0        0.086334    0.853155    0.473162
     12          7           0       -1.459421   -0.675303   -0.491985
     13          7           0       -2.490951   -0.090430    0.300068
     14          7           0        0.875575   -1.136592   -0.170363
     15          7           0        2.186639   -0.718150    0.169098
 ---------------------------------------------------------------------

 SCF Done:  E(RHF) =  -369.485051939     A.U. after    2 cycles

 The electronic state is 1-A.
 Alpha  occ. eigenvalues --  -15.54220 -15.54043 -15.53911 -15.53611 -15.52763
 Alpha  occ. eigenvalues --  -15.50235 -11.32987  -1.36334  -1.28448  -1.26909
 Alpha  occ. eigenvalues --   -1.13876  -1.07310  -1.05509  -0.83978  -0.80089
 Alpha  occ. eigenvalues --   -0.76560  -0.75078  -0.70432  -0.69992  -0.69150
 Alpha  occ. eigenvalues --   -0.64655  -0.61763  -0.54572  -0.51139  -0.49201
 Alpha  occ. eigenvalues --   -0.47502  -0.44540  -0.39329
 Alpha virt. eigenvalues --    0.02893   0.04938   0.05121   0.05623   0.06063
 Alpha virt. eigenvalues --    0.06437   0.06891   0.07762   0.11360   0.12182
 Alpha virt. eigenvalues --    0.12465   0.13181   0.14050   0.15500   0.15991

 Mulliken charges:
               1
     1  C   -2.386349
     2  H    0.157979
     3  H    0.205827
     4  H    0.148985
     5  H    0.038937
     6  H    0.082087
     7  H    0.117616
     8  H    0.117839
     9  H    0.370709
    10  N    0.197898
    11  N    0.118203
    12  N    0.316978
    13  N    0.112798
    14  N    0.518259
    15  N   -0.117766
 Sum of Mulliken charges =  -0.00000

 Dipole moment (field-independent basis, Debye):
    X=             -0.6767    Y=              0.3035    Z=              0.5444  Tot=              0.9200

 Test job not archived.
 1\1\GINC-SE393\SP\RHF\Aug-CC-pVDZ\C1H8N6\OHZDE\08-Apr-2025\0\\#t hf au
 g-cc-pvdz iop(5/13=1,5/36=2,99/5=2) pseudo=read geom=check guess=(read
 ,tcheck) scf=(maxcycle=1)\\title\\0,1\C,0,-0.0548374,-0.345682,-0.1117
 99\H,0,1.72327,1.20654,-0.383611\H,0,0.481444,1.9028,-1.26333\H,0,-0.7
 355,1.29043,0.435449\H,0,-1.53883,-1.62131,-0.643493\H,0,-2.85789,0.72
 0354,-0.0853573\H,0,-2.05515,-0.0151628,1.20654\H,0,2.80764,-1.51848,0
 .21802\H,0,1.94216,-0.382386,1.17372\N,0,0.882095,1.83751,-0.278141\N,
 0,0.0863341,0.853156,0.473162\N,0,-1.45942,-0.675303,-0.491985\N,0,-2.

 Normal termination of Gaussian 16 at Tue Apr  8 21:40:16 2025.
