 Gaussian 16, Revision C.01,

 ----------------------------------------------------------------------
 #t hf aug-cc-pvdz symm=none int=(grid=ultrafine) guess=(read,tcheck) s
 table=(opt,rrhf)
 ----------------------------------------------------------------------
 -----
 title
 -----
 Symbolic Z-matrix:
 Charge =  0 Multiplicity = 1

 SCF Done:  E(RHF) =  -526.451194376     A.U. after   14 cycles
 Normal termination of Gaussian 16 at Tue Apr  8 21:54:40 2025.
 Gaussian 16:  ES64L-G16RevC.01  3-Jul-2019

 ----------------------------------------------------------------------
 #t hf aug-cc-pvdz iop(5/13=1,5/36=2,99/5=2) pseudo=read geom=check gue
 ss=(read,tcheck) scf=(maxcycle=1)
 ----------------------------------------------------------------------
 -----
 title
 -----
 Structure from the checkpoint file:  "ANI1ccx_765_conf1_mol1.chk"
 Charge =  0 Multiplicity = 1

                         Standard orientation:
 ---------------------------------------------------------------------
 Center     Atomic      Atomic             Coordinates (Angstroms)
 Number     Number       Type             X           Y           Z
 ---------------------------------------------------------------------
      1          6           0       -1.393638   -1.279432    0.073444
      2          6           0        0.068891   -0.877687   -0.156968
      3          6           0        0.504872    0.571346   -0.122293
      4          1           0        3.478180    0.262028    0.063639
      5          1           0        0.213631    2.427190    0.218876
      6          1           0        1.765972   -1.126309    0.737782
      7          1           0       -2.054691    1.135757    0.232030
      8          1           0       -3.088599   -1.021374   -1.194450
      9          1           0       -1.696578   -1.416112    1.147000
     10          1           0       -1.362787   -2.302892   -0.488167
     11          1           0        0.377291   -1.289470   -1.257350
     12          7           0       -0.419888    1.691239   -0.147330
     13          7           0        1.719060    0.834884   -0.244969
     14          8           0       -2.328819   -0.336101   -0.739741
     15          8           0        0.840949   -1.565640    0.880049
     16          8           0       -1.418991    1.402668    0.862194
     17          8           0        2.680941   -0.105558   -0.437297
 ---------------------------------------------------------------------

 SCF Done:  E(RHF) =  -526.978162635     A.U. after    2 cycles

 The electronic state is 1-A.
 Alpha  occ. eigenvalues --  -20.62408 -20.59041 -20.57261 -20.55827 -15.57558
 Alpha  occ. eigenvalues --  -15.55363 -11.33021 -11.32852 -11.32691  -1.54250
 Alpha  occ. eigenvalues --   -1.49063  -1.43336  -1.40637  -1.24063  -1.10269
 Alpha  occ. eigenvalues --   -1.02059  -0.88476  -0.79825  -0.75302  -0.73909
 Alpha  occ. eigenvalues --   -0.71188  -0.68526  -0.67261  -0.65511  -0.63819
 Alpha  occ. eigenvalues --   -0.62174  -0.58923  -0.55807  -0.55117  -0.52644
 Alpha  occ. eigenvalues --   -0.51737  -0.48136  -0.47604  -0.45669  -0.43478
 Alpha  occ. eigenvalues --   -0.41471
 Alpha virt. eigenvalues --    0.02892   0.03472   0.04758   0.05083   0.05668
 Alpha virt. eigenvalues --    0.06900   0.07185   0.08598   0.11353   0.11739
 Alpha virt. eigenvalues --    0.12213   0.12668   0.13503   0.14329   0.15156

 Mulliken charges:
               1
     1  C    0.554814
     2  C    0.513729
     3  C   -1.601526
     4  H    0.355482
     5  H    0.253115
     6  H    0.514669
     7  H    0.471351
     8  H    0.449028
     9  H    0.307465
    10  H    0.245749
    11  H    0.409494
    12  N    0.961768
    13  N    1.547342
    14  O   -1.274014
    15  O   -1.300352
    16  O   -1.063807
    17  O   -1.344308
 Sum of Mulliken charges =  -0.00000

 Dipole moment (field-independent basis, Debye):
    X=             -0.0793    Y=             -1.7143    Z=             -0.5266  Tot=              1.7951

 Test job not archived.
 1\1\GINC-SE368\SP\RHF\Aug-CC-pVDZ\C3H8N2O4\OHZDE\08-Apr-2025\0\\#t hf
 aug-cc-pvdz iop(5/13=1,5/36=2,99/5=2) pseudo=read geom=check guess=(re
 ad,tcheck) scf=(maxcycle=1)\\title\\0,1\C,0,-1.39364,-1.27943,0.073443
 7\C,0,0.06889,-0.877687,-0.156968\C,0,0.504872,0.571346,-0.122293\H,0,
 3.47818,0.262025,0.0636394\H,0,0.213633,2.42719,0.218876\H,0,1.76597,-
 1.12631,0.737782\H,0,-2.05469,1.13576,0.23203\H,0,-3.0886,-1.02137,-1.
 19445\H,0,-1.69658,-1.41611,1.147\H,0,-1.36279,-2.30289,-0.488167\H,0,
 0.377289,-1.28947,-1.25735\N,0,-0.419887,1.69124,-0.14733\N,0,1.71906,

 Normal termination of Gaussian 16 at Tue Apr  8 21:54:47 2025.
