 Gaussian 16, Revision C.01,

 ----------------------------------------------------------------------
 #t hf aug-cc-pvdz symm=none int=(grid=ultrafine) guess=(read,tcheck) s
 table=(opt,rrhf)
 ----------------------------------------------------------------------
 -----
 title
 -----
 Symbolic Z-matrix:
 Charge =  0 Multiplicity = 1

 SCF Done:  E(RHF) =  -451.834752125     A.U. after   13 cycles
 Normal termination of Gaussian 16 at Tue Apr  8 21:54:13 2025.
 Gaussian 16:  ES64L-G16RevC.01  3-Jul-2019

 ----------------------------------------------------------------------
 #t hf aug-cc-pvdz iop(5/13=1,5/36=2,99/5=2) pseudo=read geom=check gue
 ss=(read,tcheck) scf=(maxcycle=1)
 ----------------------------------------------------------------------
 -----
 title
 -----
 Structure from the checkpoint file:  "ANI1ccx_764_conf11_mol2.chk"
 Charge =  0 Multiplicity = 1

                         Standard orientation:
 ---------------------------------------------------------------------
 Center     Atomic      Atomic             Coordinates (Angstroms)
 Number     Number       Type             X           Y           Z
 ---------------------------------------------------------------------
      1          6           0       -2.249851    0.005743    0.314303
      2          6           0        0.110690    0.728257    0.067479
      3          6           0        1.857649   -0.779873    0.525697
      4          1           0       -2.380221   -0.987217   -1.340290
      5          1           0       -2.029761   -0.307204    1.352840
      6          1           0       -3.177051    0.594834    0.228499
      7          1           0       -1.484602    1.898609   -0.279502
      8          1           0       -0.161126   -1.267700    0.089030
      9          1           0        2.246199   -0.172911    1.387420
     10          1           0        2.033700   -1.831549    0.795452
     11          1           0        2.426289    0.406749   -0.826330
     12          7           0       -1.226991    0.924390   -0.121331
     13          7           0        0.437748   -0.539632    0.451671
     14          8           0       -2.270301   -1.201821   -0.410456
     15          8           0        0.918174    1.670160   -0.054575
     16          8           0        2.569669   -0.562299   -0.680515
 ---------------------------------------------------------------------

 SCF Done:  E(RHF) =  -452.293276974     A.U. after    2 cycles

 The electronic state is 1-A.
 Alpha  occ. eigenvalues --  -20.58585 -20.54348 -20.51327 -15.53770 -15.52884
 Alpha  occ. eigenvalues --  -11.39268 -11.35458 -11.32253  -1.49733  -1.46490
 Alpha  occ. eigenvalues --   -1.43743  -1.27886  -1.22077  -0.98138  -0.93851
 Alpha  occ. eigenvalues --   -0.83550  -0.80883  -0.75330  -0.70798  -0.69059
 Alpha  occ. eigenvalues --   -0.68204  -0.65737  -0.63025  -0.61933  -0.58055
 Alpha  occ. eigenvalues --   -0.55727  -0.53003  -0.50291  -0.46098  -0.45725
 Alpha  occ. eigenvalues --   -0.44856  -0.43253
 Alpha virt. eigenvalues --    0.02658   0.04116   0.04310   0.04960   0.05669
 Alpha virt. eigenvalues --    0.05878   0.07046   0.09073   0.09757   0.10805
 Alpha virt. eigenvalues --    0.12458   0.12613   0.13259   0.14866   0.15261

 Mulliken charges:
               1
     1  C    0.442743
     2  C    0.004561
     3  C    0.556250
     4  H    0.259179
     5  H    0.198706
     6  H    0.027809
     7  H    0.255424
     8  H    0.193718
     9  H    0.188217
    10  H   -0.007936
    11  H    0.379616
    12  N    0.526289
    13  N    0.396730
    14  O   -1.052506
    15  O   -1.232940
    16  O   -1.135860
 Sum of Mulliken charges =   0.00000

 Dipole moment (field-independent basis, Debye):
    X=             -4.2427    Y=             -0.3024    Z=              0.3148  Tot=              4.2651

 Test job not archived.
 1\1\GINC-SE252\SP\RHF\Aug-CC-pVDZ\C3H8N2O3\OHZDE\08-Apr-2025\0\\#t hf
 aug-cc-pvdz iop(5/13=1,5/36=2,99/5=2) pseudo=read geom=check guess=(re
 ad,tcheck) scf=(maxcycle=1)\\title\\0,1\C,0,-2.24985,0.00574422,0.3143
 03\C,0,0.110691,0.728257,0.0674792\C,0,1.85765,-0.779874,0.525697\H,0,
 -2.38022,-0.987216,-1.34029\H,0,-2.02976,-0.307203,1.35284\H,0,-3.1770
 5,0.594835,0.228499\H,0,-1.4846,1.89861,-0.279502\H,0,-0.161126,-1.267
 7,0.0890303\H,0,2.2462,-0.172912,1.38742\H,0,2.0337,-1.83155,0.795452\
 H,0,2.42629,0.406748,-0.82633\N,0,-1.22699,0.924391,-0.121331\N,0,0.43

 Normal termination of Gaussian 16 at Tue Apr  8 21:54:19 2025.
