 Gaussian 16, Revision C.01,

 ----------------------------------------------------------------------
 #t hf aug-cc-pvdz symm=none int=(grid=ultrafine) guess=(read,tcheck) s
 table=(opt,rrhf)
 ----------------------------------------------------------------------
 -----
 title
 -----
 Symbolic Z-matrix:
 Charge =  0 Multiplicity = 1

 SCF Done:  E(RHF) =  -451.824559783     A.U. after   13 cycles
 Normal termination of Gaussian 16 at Tue Apr  8 21:54:33 2025.
 Gaussian 16:  ES64L-G16RevC.01  3-Jul-2019

 ----------------------------------------------------------------------
 #t hf aug-cc-pvdz iop(5/13=1,5/36=2,99/5=2) pseudo=read geom=check gue
 ss=(read,tcheck) scf=(maxcycle=1)
 ----------------------------------------------------------------------
 -----
 title
 -----
 Structure from the checkpoint file:  "ANI1ccx_764_conf16_mol1.chk"
 Charge =  0 Multiplicity = 1

                         Standard orientation:
 ---------------------------------------------------------------------
 Center     Atomic      Atomic             Coordinates (Angstroms)
 Number     Number       Type             X           Y           Z
 ---------------------------------------------------------------------
      1          6           0       -2.223591   -0.004917    0.599745
      2          6           0        0.102625    0.686419   -0.162483
      3          6           0        1.895209   -0.964941   -0.312802
      4          1           0       -2.941701   -1.704011   -0.130495
      5          1           0       -3.124461    0.575269    0.864829
      6          1           0       -1.818891   -0.484664    1.512390
      7          1           0       -1.537271    1.873080   -0.042654
      8          1           0       -0.168806   -1.270500   -0.272248
      9          1           0        1.983059   -2.028050   -0.096327
     10          1           0        2.104129   -0.775833   -1.404170
     11          1           0        2.680959    0.665777    0.342868
     12          7           0       -1.244431    0.922385    0.058875
     13          7           0        0.518562   -0.644148   -0.026039
     14          8           0       -2.405281   -0.959585   -0.441149
     15          8           0        0.854706    1.606380   -0.414519
     16          8           0        2.707899   -0.284056    0.636818
 ---------------------------------------------------------------------

 SCF Done:  E(RHF) =  -452.282792827     A.U. after    2 cycles

 The electronic state is 1-A.
 Alpha  occ. eigenvalues --  -20.58057 -20.54245 -20.50744 -15.52565 -15.51164
 Alpha  occ. eigenvalues --  -11.38744 -11.35456 -11.32418  -1.48569  -1.47090
 Alpha  occ. eigenvalues --   -1.43558  -1.25684  -1.20797  -0.97301  -0.93310
 Alpha  occ. eigenvalues --   -0.82532  -0.78977  -0.75259  -0.70482  -0.69542
 Alpha  occ. eigenvalues --   -0.68656  -0.64018  -0.63053  -0.60336  -0.58429
 Alpha  occ. eigenvalues --   -0.56023  -0.52797  -0.48529  -0.46792  -0.44946
 Alpha  occ. eigenvalues --   -0.43838  -0.42454
 Alpha virt. eigenvalues --    0.02552   0.03588   0.04472   0.04925   0.05606
 Alpha virt. eigenvalues --    0.06077   0.07046   0.08872   0.10536   0.10710
 Alpha virt. eigenvalues --    0.12862   0.13350   0.14162   0.14723   0.15631

 Mulliken charges:
               1
     1  C    0.465653
     2  C    0.066582
     3  C    0.605096
     4  H    0.339660
     5  H    0.031825
     6  H    0.159248
     7  H    0.206037
     8  H    0.129899
     9  H   -0.000305
    10  H    0.181027
    11  H    0.416327
    12  N    0.591347
    13  N    0.291585
    14  O   -1.138663
    15  O   -1.201932
    16  O   -1.143387
 Sum of Mulliken charges =  -0.00000

 Dipole moment (field-independent basis, Debye):
    X=             -4.5661    Y=             -2.2885    Z=              0.5061  Tot=              5.1325

 Test job not archived.
 1\1\GINC-SE339\SP\RHF\Aug-CC-pVDZ\C3H8N2O3\OHZDE\08-Apr-2025\0\\#t hf
 aug-cc-pvdz iop(5/13=1,5/36=2,99/5=2) pseudo=read geom=check guess=(re
 ad,tcheck) scf=(maxcycle=1)\\title\\0,1\C,0,-2.22359,-0.0049163,0.5997
 45\C,0,0.102626,0.686419,-0.162483\C,0,1.89521,-0.964941,-0.312802\H,0
 ,-2.9417,-1.70401,-0.130495\H,0,-3.12446,0.57527,0.864829\H,0,-1.81889
 ,-0.484664,1.51239\H,0,-1.53727,1.87308,-0.0426542\H,0,-0.168805,-1.27
 05,-0.272248\H,0,1.98306,-2.02805,-0.096327\H,0,2.10413,-0.775833,-1.4
 0417\H,0,2.68096,0.665777,0.342868\N,0,-1.24443,0.922385,0.0588746\N,0

 Normal termination of Gaussian 16 at Tue Apr  8 21:54:39 2025.
