 Gaussian 16, Revision C.01,

 ----------------------------------------------------------------------
 #t hf aug-cc-pvdz symm=none int=(grid=ultrafine) guess=(read,tcheck) s
 table=(opt,rrhf)
 ----------------------------------------------------------------------
 -----
 title
 -----
 Symbolic Z-matrix:
 Charge =  0 Multiplicity = 1

 SCF Done:  E(RHF) =  -962.275517611     A.U. after   14 cycles
 Normal termination of Gaussian 16 at Tue Apr  8 21:00:52 2025.
 Gaussian 16:  ES64L-G16RevC.01  3-Jul-2019

 ----------------------------------------------------------------------
 #t hf aug-cc-pvdz iop(5/13=1,5/36=2,99/5=2) pseudo=read geom=check gue
 ss=(read,tcheck) scf=(maxcycle=1)
 ----------------------------------------------------------------------
 -----
 title
 -----
 Structure from the checkpoint file:  "ANI1ccx_1756_conf2_mol1.chk"
 Charge =  0 Multiplicity = 1

                         Standard orientation:
 ---------------------------------------------------------------------
 Center     Atomic      Atomic             Coordinates (Angstroms)
 Number     Number       Type             X           Y           Z
 ---------------------------------------------------------------------
      1          6           0       -1.328291   -1.818260   -0.508712
      2          6           0       -0.210798   -0.852145   -0.665452
      3          6           0       -2.158550   -1.610269    0.767978
      4          6           0       -2.386310   -0.217929    1.203160
      5          6           0       -3.350010    0.552921    0.220454
      6          6           0        1.974700   -0.109880   -0.158782
      7          6           0        3.261550   -0.797407    0.214686
      8          6           0        1.678511    1.097879    0.782997
      9          6           0        0.924171    2.268520    0.164579
     10          1           0        5.107800   -0.568288   -0.014706
     11          1           0        0.899557    3.606060   -1.043510
     12          1           0        2.646721    1.569549    1.052250
     13          1           0        1.138040    0.779550    1.683460
     14          1           0        1.996110    0.260677   -1.194400
     15          1           0        1.224849   -2.019661    0.315360
     16          1           0       -2.157009    2.279711    0.289644
     17          1           0       -3.591839    2.343731   -0.699244
     18          1           0       -2.844830   -0.135018    2.237000
     19          1           0       -1.460840    0.346063    1.161130
     20          1           0       -1.701671   -2.203379    1.534560
     21          1           0       -3.172511   -2.066269    0.556443
     22          1           0       -1.936800   -1.593879   -1.394290
     23          1           0       -0.456487   -3.387820   -1.456610
     24          1           0       -1.567581   -3.838759   -0.357458
     25          7           0       -0.879960   -3.165400   -0.562434
     26          7           0       -2.951109    1.818601   -0.084561
     27          7           0        0.974385   -1.111750   -0.091117
     28          8           0       -0.328268    0.238971   -1.212580
     29          8           0       -4.321990   -0.048155   -0.275685
     30          8           0        3.373469   -1.899881    0.738027
     31          8           0       -0.113833    2.761510    0.615090
     32          8           0        1.491541    2.836249   -0.919053
     33          8           0        4.329510   -0.044070   -0.149332
 ---------------------------------------------------------------------

 SCF Done:  E(RHF) =  -963.236803771     A.U. after    2 cycles

 The electronic state is 1-A.
 Alpha  occ. eigenvalues --  -20.62873 -20.61457 -20.57507 -20.54803 -20.51607
 Alpha  occ. eigenvalues --  -20.49350 -15.53753 -15.51002 -15.49914 -11.43099
 Alpha  occ. eigenvalues --  -11.41941 -11.35815 -11.35010 -11.32377 -11.29201
 Alpha  occ. eigenvalues --  -11.27615 -11.24596 -11.24157  -1.57645  -1.56117
 Alpha  occ. eigenvalues --   -1.48098  -1.47290  -1.44868  -1.42233  -1.27566
 Alpha  occ. eigenvalues --   -1.22186  -1.20291  -1.10172  -1.07308  -1.00437
 Alpha  occ. eigenvalues --   -0.96542  -0.89371  -0.85606  -0.84559  -0.82815
 Alpha  occ. eigenvalues --   -0.80542  -0.75208  -0.74721  -0.72955  -0.72514
 Alpha  occ. eigenvalues --   -0.71312  -0.70915  -0.70612  -0.69293  -0.68302
 Alpha  occ. eigenvalues --   -0.66900  -0.64671  -0.64413  -0.63523  -0.61554
 Alpha  occ. eigenvalues --   -0.60527  -0.60289  -0.58611  -0.58166  -0.57555
 Alpha  occ. eigenvalues --   -0.56843  -0.53729  -0.53247  -0.50796  -0.50439
 Alpha  occ. eigenvalues --   -0.50151  -0.48522  -0.48370  -0.45609  -0.44534
 Alpha  occ. eigenvalues --   -0.43025  -0.42837  -0.41260  -0.39954
 Alpha virt. eigenvalues --    0.02746   0.03317   0.03630   0.03717   0.04380
 Alpha virt. eigenvalues --    0.04828   0.05355   0.06014   0.06456   0.07418
 Alpha virt. eigenvalues --    0.07968   0.08085   0.08962   0.09054   0.09829

 Mulliken charges:
               1
     1  C   -1.163273
     2  C    0.046906
     3  C    0.093006
     4  C   -0.332979
     5  C    0.401413
     6  C   -2.055390
     7  C    3.284270
     8  C   -0.720017
     9  C    3.032049
    10  H    0.419451
    11  H    0.379937
    12  H    0.345471
    13  H    0.199370
    14  H    0.074316
    15  H    0.234370
    16  H   -0.032460
    17  H    0.181666
    18  H    0.223282
    19  H    0.195931
    20  H    0.102369
    21  H    0.312027
    22  H    0.117512
    23  H    0.196931
    24  H    0.096233
    25  N    0.662196
    26  N    0.816066
    27  N    1.664557
    28  O   -1.620957
    29  O   -1.410425
    30  O   -1.360216
    31  O   -1.554569
    32  O   -1.426915
    33  O   -1.402130
 Sum of Mulliken charges =  -0.00000

 Dipole moment (field-independent basis, Debye):
    X=              4.9447    Y=             -0.0945    Z=              0.3663  Tot=              4.9592

 Test job not archived.
 1\1\GINC-SE398\SP\RHF\Aug-CC-pVDZ\C9H15N3O6\OHZDE\08-Apr-2025\0\\#t hf
  aug-cc-pvdz iop(5/13=1,5/36=2,99/5=2) pseudo=read geom=check guess=(r
 ead,tcheck) scf=(maxcycle=1)\\title\\0,1\C,0,-1.32829,-1.81826,-0.5087
 12\C,0,-0.210798,-0.852145,-0.665452\C,0,-2.15855,-1.61027,0.767978\C,
 0,-2.38631,-0.21793,1.20316\C,0,-3.35001,0.55292,0.220454\C,0,1.9747,-
 0.109879,-0.158782\C,0,3.26155,-0.797406,0.214686\C,0,1.67851,1.09788,
 0.782997\C,0,0.92417,2.26852,0.164579\H,0,5.1078,-0.568286,-0.0147054\
 H,0,0.899555,3.60606,-1.04351\H,0,2.64672,1.56955,1.05225\H,0,1.13804,

 Normal termination of Gaussian 16 at Tue Apr  8 21:01:46 2025.
