 Gaussian 16, Revision C.01,

 ----------------------------------------------------------------------
 #t hf aug-cc-pvdz symm=none int=(grid=ultrafine) guess=(read,tcheck) s
 table=(opt,rrhf)
 ----------------------------------------------------------------------
 -----
 title
 -----
 Symbolic Z-matrix:
 Charge =  0 Multiplicity = 1

 SCF Done:  E(RHF) =  -381.957204494     A.U. after   13 cycles

 1\1\GINC-SE334\Stability\RHF\Aug-CC-pVDZ\C4H10O3\OHZDE\08-Apr-2025\0\\
 #t hf aug-cc-pvdz symm=none int=(grid=ultrafine) guess=(read,tcheck) s
 table=(opt,rrhf)\\title\\0,1\C,0,-2.12706,1.32137,-0.584857\C,0,-2.425
 9,-0.0433755,0.234272\C,0,-1.27418,-1.05514,0.0281584\C,0,0.0979934,-0
 .42118,0.191272\H,0,1.85713,-0.586589,-0.392304\H,0,-1.38979,-1.51741,
 -0.923432\H,0,-1.34285,-1.88814,0.741933\H,0,-3.33939,-0.47892,-0.1833
 15\H,0,-2.66978,0.119825,1.28765\H,0,-1.97369,1.01906,-1.62738\H,0,-1.
 22298,1.74378,-0.147704\H,0,-2.98366,2.04922,-0.522398\H,0,3.79939,1.3

 Normal termination of Gaussian 16 at Tue Apr  8 21:56:23 2025.
 Gaussian 16:  ES64L-G16RevC.01  3-Jul-2019

 ----------------------------------------------------------------------
 #t hf aug-cc-pvdz iop(5/13=1,5/36=2,99/5=2) pseudo=read geom=check gue
 ss=(read,tcheck) scf=(maxcycle=1)
 ----------------------------------------------------------------------
 -----
 title
 -----
 Structure from the checkpoint file:  "ANI1ccx_813_conf2_mol2.chk"
 Charge =  0 Multiplicity = 1

                         Standard orientation:
 ---------------------------------------------------------------------
 Center     Atomic      Atomic             Coordinates (Angstroms)
 Number     Number       Type             X           Y           Z
 ---------------------------------------------------------------------
      1          6           0       -2.127059    1.321372   -0.584857
      2          6           0       -2.425900   -0.043374    0.234272
      3          6           0       -1.274181   -1.055139    0.028158
      4          6           0        0.097993   -0.421179    0.191272
      5          1           0        1.857130   -0.586589   -0.392304
      6          1           0       -1.389791   -1.517409   -0.923432
      7          1           0       -1.342851   -1.888139    0.741933
      8          1           0       -3.339390   -0.478918   -0.183315
      9          1           0       -2.669780    0.119827    1.287650
     10          1           0       -1.973690    1.019062   -1.627380
     11          1           0       -1.222979    1.743781   -0.147704
     12          1           0       -2.983659    2.049222   -0.522398
     13          1           0        3.799391    1.301789    0.395792
     14          1           0        4.223680    0.161103   -0.608192
     15          8           0        3.498160    0.564618   -0.129712
     16          8           0        1.021839   -1.108730   -0.506142
     17          8           0        0.407103    0.452386    0.981639
 ---------------------------------------------------------------------

 SCF Done:  E(RHF) =  -382.351069504     A.U. after    2 cycles

 The electronic state is 1-A.
 Alpha  occ. eigenvalues --  -20.57872 -20.57594 -20.52045 -11.38074 -11.24421
 Alpha  occ. eigenvalues --  -11.23679 -11.22601  -1.52626  -1.46003  -1.42715
 Alpha  occ. eigenvalues --   -1.06648  -0.95306  -0.84905  -0.77116  -0.74633
 Alpha  occ. eigenvalues --   -0.69380  -0.67921  -0.64536  -0.60868  -0.59377
 Alpha  occ. eigenvalues --   -0.57489  -0.55099  -0.54211  -0.51936  -0.49609
 Alpha  occ. eigenvalues --   -0.48972  -0.47250  -0.45128  -0.42434
 Alpha virt. eigenvalues --    0.03046   0.04098   0.04539   0.04721   0.05727
 Alpha virt. eigenvalues --    0.05880   0.07402   0.07746   0.08839   0.09141
 Alpha virt. eigenvalues --    0.12166   0.14137   0.14611   0.15684   0.15790

 Mulliken charges:
               1
     1  C   -0.377723
     2  C   -0.264454
     3  C   -0.660223
     4  C    2.333825
     5  H    0.547608
     6  H    0.075037
     7  H    0.302198
     8  H    0.186685
     9  H    0.060846
    10  H    0.169850
    11  H    0.220328
    12  H    0.152420
    13  H    0.432746
    14  H    0.427404
    15  O   -0.902319
    16  O   -1.393037
    17  O   -1.311191
 Sum of Mulliken charges =   0.00000

 Dipole moment (field-independent basis, Debye):
    X=              1.8496    Y=             -0.2983    Z=             -1.1111  Tot=              2.1782

 Test job not archived.
 1\1\GINC-SE334\SP\RHF\Aug-CC-pVDZ\C4H10O3\OHZDE\08-Apr-2025\0\\#t hf a
 ug-cc-pvdz iop(5/13=1,5/36=2,99/5=2) pseudo=read geom=check guess=(rea
 d,tcheck) scf=(maxcycle=1)\\title\\0,1\C,0,-2.12706,1.32137,-0.584857\
 C,0,-2.4259,-0.0433755,0.234272\C,0,-1.27418,-1.05514,0.0281584\C,0,0.
 0979934,-0.42118,0.191272\H,0,1.85713,-0.586589,-0.392304\H,0,-1.38979
 ,-1.51741,-0.923432\H,0,-1.34285,-1.88814,0.741933\H,0,-3.33939,-0.478
 92,-0.183315\H,0,-2.66978,0.119825,1.28765\H,0,-1.97369,1.01906,-1.627
 38\H,0,-1.22298,1.74378,-0.147704\H,0,-2.98366,2.04922,-0.522398\H,0,3

 Normal termination of Gaussian 16 at Tue Apr  8 21:56:29 2025.
