 Gaussian 16, Revision C.01,

 ----------------------------------------------------------------------
 #t hf aug-cc-pvdz symm=none int=(grid=ultrafine) guess=(read,tcheck) s
 table=(opt,rrhf)
 ----------------------------------------------------------------------
 -----
 title
 -----
 Symbolic Z-matrix:
 Charge =  0 Multiplicity = 1

 SCF Done:  E(RHF) =  -280.723719144     A.U. after   16 cycles
 Normal termination of Gaussian 16 at Tue Apr  8 21:11:18 2025.
 Gaussian 16:  ES64L-G16RevC.01  3-Jul-2019

 ----------------------------------------------------------------------
 #t hf aug-cc-pvdz iop(5/13=1,5/36=2,99/5=2) pseudo=read geom=check gue
 ss=(read,tcheck) scf=(maxcycle=1)
 ----------------------------------------------------------------------
 -----
 title
 -----
 Structure from the checkpoint file:  "ANI1ccx_1870_conf3_mol2.chk"
 Charge =  0 Multiplicity = 1

                         Standard orientation:
 ---------------------------------------------------------------------
 Center     Atomic      Atomic             Coordinates (Angstroms)
 Number     Number       Type             X           Y           Z
 ---------------------------------------------------------------------
      1          1           0       -0.383666    0.093918   -0.116398
      2          1           0       -3.834250   -0.501231    0.367627
      3          1           0       -3.346250    0.921000    0.299724
      4          7           0        1.425270    0.473753   -0.089987
      5          8           0        0.401151   -0.476879   -0.072796
      6          8           0        2.451540   -0.045648    0.124542
      7          8           0       -3.154280    0.043783   -0.041876
 ---------------------------------------------------------------------

 SCF Done:  E(RHF) =  -280.995436946     A.U. after    2 cycles

 The electronic state is 1-A.
 Alpha  occ. eigenvalues --  -20.63317 -20.61842 -20.58013 -15.72209  -1.67793
 Alpha  occ. eigenvalues --   -1.49560  -1.46007  -0.96592  -0.79837  -0.74465
 Alpha  occ. eigenvalues --   -0.72693  -0.69701  -0.61417  -0.60237  -0.52032
 Alpha  occ. eigenvalues --   -0.50987  -0.45804
 Alpha virt. eigenvalues --    0.02702   0.04849   0.06583   0.07304   0.13226
 Alpha virt. eigenvalues --    0.14261   0.15312   0.17612   0.18485   0.19319
 Alpha virt. eigenvalues --    0.20590   0.22467   0.23036   0.23535   0.24677

 Mulliken charges:
               1
     1  H    0.369610
     2  H    0.404340
     3  H    0.380365
     4  N    1.558427
     5  O   -1.058948
     6  O   -0.876247
     7  O   -0.777546
 Sum of Mulliken charges =  -0.00000

 Dipole moment (field-independent basis, Debye):
    X=             -3.6391    Y=              1.2514    Z=              1.1395  Tot=              4.0134

 Test job not archived.
 1\1\GINC-SE036\SP\RHF\Aug-CC-pVDZ\H3N1O3\OHZDE\08-Apr-2025\0\\#t hf au
 g-cc-pvdz iop(5/13=1,5/36=2,99/5=2) pseudo=read geom=check guess=(read
 ,tcheck) scf=(maxcycle=1)\\title\\0,1\H,0,-0.383666,0.0939182,-0.11639
 8\H,0,-3.83425,-0.501231,0.367627\H,0,-3.34625,0.921,0.299724\N,0,1.42
 527,0.473753,-0.0899865\O,0,0.401151,-0.476879,-0.0727961\O,0,2.45154,
 -0.0456478,0.124542\O,0,-3.15428,0.0437825,-0.0418762\\Version=ES64L-G
 16RevC.01\State=1-A\HF=-280.9954369\RMSD=1.104e-02\Dipole=-1.4317281,0
 .4923445,0.4483191\Quadrupole=4.0408409,-1.7429235,-2.2979175,-1.04426

 Normal termination of Gaussian 16 at Tue Apr  8 21:11:20 2025.
