 Gaussian 16, Revision C.01,

 ----------------------------------------------------------------------
 #t hf aug-cc-pvdz symm=none int=(grid=ultrafine) guess=(read,tcheck) s
 table=(opt,rrhf)
 ----------------------------------------------------------------------
 -----
 title
 -----
 Symbolic Z-matrix:
 Charge =  0 Multiplicity = 1

 SCF Done:  E(RHF) =  -334.539160115     A.U. after   14 cycles
 Normal termination of Gaussian 16 at Tue Apr  8 21:10:19 2025.
 Gaussian 16:  ES64L-G16RevC.01  3-Jul-2019

 ----------------------------------------------------------------------
 #t hf aug-cc-pvdz iop(5/13=1,5/36=2,99/5=2) pseudo=read geom=check gue
 ss=(read,tcheck) scf=(maxcycle=1)
 ----------------------------------------------------------------------
 -----
 title
 -----
 Structure from the checkpoint file:  "ANI1ccx_1859_conf1_mol1.chk"
 Charge =  0 Multiplicity = 1

                         Standard orientation:
 ---------------------------------------------------------------------
 Center     Atomic      Atomic             Coordinates (Angstroms)
 Number     Number       Type             X           Y           Z
 ---------------------------------------------------------------------
      1          1           0        1.696361    1.492807   -0.541639
      2          1           0        0.908837   -1.469332   -0.454267
      3          7           0       -2.674781   -0.571468   -0.011163
      4          7           0       -2.138950    0.401445    0.013142
      5          8           0        0.851076    1.098738   -0.235470
      6          8           0        1.303480    0.048160    0.595454
      7          8           0        1.731809   -1.001063   -0.237227
 ---------------------------------------------------------------------

 SCF Done:  E(RHF) =  -334.856622981     A.U. after    2 cycles

 The electronic state is 1-A.
 Alpha  occ. eigenvalues --  -20.68910 -20.63673 -20.63653 -15.62520 -15.62340
 Alpha  occ. eigenvalues --   -1.68388  -1.48269  -1.46336  -1.19789  -0.82256
 Alpha  occ. eigenvalues --   -0.78188  -0.69151  -0.68606  -0.67981  -0.66372
 Alpha  occ. eigenvalues --   -0.66336  -0.65255  -0.50975  -0.50656  -0.48867
 Alpha virt. eigenvalues --    0.04333   0.04897   0.09119   0.09498   0.11770
 Alpha virt. eigenvalues --    0.12789   0.13887   0.16284   0.17014   0.17944
 Alpha virt. eigenvalues --    0.19128   0.20535   0.21037   0.21393   0.22391

 Mulliken charges:
               1
     1  H    0.514535
     2  H    0.448012
     3  N   -0.037162
     4  N    0.003806
     5  O   -0.555075
     6  O    0.111638
     7  O   -0.485756
 Sum of Mulliken charges =   0.00000

 Dipole moment (field-independent basis, Debye):
    X=              0.0760    Y=             -0.0011    Z=             -1.1483  Tot=              1.1508

 Test job not archived.
 1\1\GINC-SE030\SP\RHF\Aug-CC-pVDZ\H2N2O3\OHZDE\08-Apr-2025\0\\#t hf au
 g-cc-pvdz iop(5/13=1,5/36=2,99/5=2) pseudo=read geom=check guess=(read
 ,tcheck) scf=(maxcycle=1)\\title\\0,1\H,0,1.69636,1.49281,-0.541639\H,
 0,0.908838,-1.46933,-0.454267\N,0,-2.67478,-0.571468,-0.011163\N,0,-2.
 13895,0.401445,0.0131416\O,0,0.851075,1.09874,-0.23547\O,0,1.30348,0.0
 481627,0.595454\O,0,1.73181,-1.00106,-0.237227\\Version=ES64L-G16RevC.
 01\State=1-A\HF=-334.856623\RMSD=3.353e-02\Dipole=0.0299178,-0.0004322
 ,-0.4517811\Quadrupole=-1.0980193,1.8833995,-0.7853802,2.6497839,-1.25

 Normal termination of Gaussian 16 at Tue Apr  8 21:10:21 2025.
