 Gaussian 16, Revision C.01,

 ----------------------------------------------------------------------
 #t hf aug-cc-pvdz symm=none int=(grid=ultrafine) guess=(read,tcheck) s
 table=(opt,rrhf)
 ----------------------------------------------------------------------
 -----
 title
 -----
 Symbolic Z-matrix:
 Charge =  0 Multiplicity = 1

 SCF Done:  E(RHF) =  -532.262025441     A.U. after   12 cycles
 Normal termination of Gaussian 16 at Tue Apr  8 21:10:12 2025.
 Gaussian 16:  ES64L-G16RevC.01  3-Jul-2019

 ----------------------------------------------------------------------
 #t hf aug-cc-pvdz iop(5/13=1,5/36=2,99/5=2) pseudo=read geom=check gue
 ss=(read,tcheck) scf=(maxcycle=1)
 ----------------------------------------------------------------------
 -----
 title
 -----
 Structure from the checkpoint file:  "ANI1ccx_1845_conf421_mol1.chk"
 Charge =  0 Multiplicity = 1

                         Standard orientation:
 ---------------------------------------------------------------------
 Center     Atomic      Atomic             Coordinates (Angstroms)
 Number     Number       Type             X           Y           Z
 ---------------------------------------------------------------------
      1          1           0       -1.491841   -0.588701   -1.377790
      2          1           0       -3.116661    0.107314   -0.501201
      3          1           0       -4.625421    0.393148    0.247637
      4          1           0        2.265729    1.458130   -0.002617
      5          1           0        1.767059    2.132300   -1.438450
      6          1           0       -2.304451   -1.358490   -2.532610
      7          1           0       -2.523111   -0.255438    1.363990
      8          1           0        2.715459   -2.455780   -0.518724
      9          1           0       -1.659311    0.794059    2.142600
     10          1           0        3.246419   -0.387777    0.267449
     11          1           0        4.252689    0.764378    0.804672
     12          1           0       -0.353755   -0.397640    0.806432
     13          1           0        0.548338    0.270484   -0.290168
     14          1           0        1.529239   -1.479200    0.071321
     15          8           0       -2.331051   -0.527295   -1.844860
     16          8           0        2.446569   -1.850880    0.177959
     17          8           0        1.530919    2.067120   -0.435385
     18          8           0        3.640119    0.542750    0.056057
     19          8           0       -3.633191    0.665471    0.247368
     20          8           0       -1.749981   -0.234952    2.018260
     21          8           0        0.065318   -0.536810   -0.099716
 ---------------------------------------------------------------------

 SCF Done:  E(RHF) =  -532.811244511     A.U. after    2 cycles

 The electronic state is 1-A.
 Alpha  occ. eigenvalues --  -20.58457 -20.56472 -20.56144 -20.55949 -20.55661
 Alpha  occ. eigenvalues --  -20.55588 -20.53795  -1.45685  -1.44439  -1.43738
 Alpha  occ. eigenvalues --   -1.42236  -1.41082  -1.38980  -1.37848  -0.74441
 Alpha  occ. eigenvalues --   -0.71920  -0.71432  -0.70541  -0.68621  -0.67095
 Alpha  occ. eigenvalues --   -0.66496  -0.61552  -0.60715  -0.58847  -0.57539
 Alpha  occ. eigenvalues --   -0.56651  -0.54441  -0.53668  -0.50958  -0.50637
 Alpha  occ. eigenvalues --   -0.50237  -0.48324  -0.47989  -0.47834  -0.46919
 Alpha virt. eigenvalues --    0.02661   0.03658   0.04518   0.05246   0.05756
 Alpha virt. eigenvalues --    0.06256   0.07821   0.08798   0.09119   0.09840
 Alpha virt. eigenvalues --    0.10549   0.11139   0.13314   0.13943   0.17021

 Mulliken charges:
               1
     1  H    0.689559
     2  H    0.793514
     3  H    0.397790
     4  H    0.832986
     5  H    0.383574
     6  H    0.438774
     7  H    0.635288
     8  H    0.349204
     9  H    0.471452
    10  H    0.733450
    11  H    0.389655
    12  H    0.684935
    13  H    0.670241
    14  H    0.731509
    15  O   -1.145992
    16  O   -1.112320
    17  O   -1.104184
    18  O   -1.089535
    19  O   -1.100751
    20  O   -1.150148
    21  O   -1.499000
 Sum of Mulliken charges =  -0.00000

 Dipole moment (field-independent basis, Debye):
    X=              0.2490    Y=             -2.7327    Z=             -2.2025  Tot=              3.5186

 Test job not archived.
 1\1\GINC-SE250\SP\RHF\Aug-CC-pVDZ\H14O7\OHZDE\08-Apr-2025\0\\#t hf aug
 -cc-pvdz iop(5/13=1,5/36=2,99/5=2) pseudo=read geom=check guess=(read,
 tcheck) scf=(maxcycle=1)\\title\\0,1\H,0,-1.49184,-0.588701,-1.37779\H
 ,0,-3.11666,0.107314,-0.501201\H,0,-4.62542,0.393148,0.247637\H,0,2.26
 573,1.45813,-0.00261643\H,0,1.76706,2.1323,-1.43845\H,0,-2.30445,-1.35
 849,-2.53261\H,0,-2.52311,-0.255438,1.36399\H,0,2.71546,-2.45578,-0.51
 8724\H,0,-1.65931,0.794059,2.1426\H,0,3.24642,-0.387777,0.267449\H,0,4
 .25269,0.764378,0.804672\H,0,-0.353754,-0.39764,0.806432\H,0,0.548339,

 Normal termination of Gaussian 16 at Tue Apr  8 21:10:19 2025.
