 Gaussian 16, Revision C.01,

 ----------------------------------------------------------------------
 #t hf aug-cc-pvdz symm=none int=(grid=ultrafine) guess=(read,tcheck) s
 table=(opt,rrhf)
 ----------------------------------------------------------------------
 -----
 title
 -----
 Symbolic Z-matrix:
 Charge =  0 Multiplicity = 1

 SCF Done:  E(RHF) =  -431.399213514     A.U. after   15 cycles
 Normal termination of Gaussian 16 at Tue Apr  8 21:43:51 2025.
 Gaussian 16:  ES64L-G16RevC.01  3-Jul-2019

 ----------------------------------------------------------------------
 #t hf aug-cc-pvdz iop(5/13=1,5/36=2,99/5=2) pseudo=read geom=check gue
 ss=(read,tcheck) scf=(maxcycle=1)
 ----------------------------------------------------------------------
 -----
 title
 -----
 Structure from the checkpoint file:  "ANI1ccx_499_conf2_mol1.chk"
 Charge =  0 Multiplicity = 1

                         Standard orientation:
 ---------------------------------------------------------------------
 Center     Atomic      Atomic             Coordinates (Angstroms)
 Number     Number       Type             X           Y           Z
 ---------------------------------------------------------------------
      1          6           0        0.039373    0.720994   -0.034645
      2          6           0       -0.765865   -0.586368    0.020068
      3          1           0        1.563930   -1.259931   -0.131814
      4          1           0        1.990032    1.454729    0.069050
      5          1           0       -2.264179    0.596235    0.027366
      6          7           0        1.359361    0.622250    0.117396
      7          8           0        2.147440   -0.501021   -0.050004
      8          8           0       -0.634378    1.765930   -0.053617
      9          8           0       -2.034800   -0.331517    0.018714
     10          8           0       -0.284057   -1.677710   -0.002457
 ---------------------------------------------------------------------

 SCF Done:  E(RHF) =  -431.819387988     A.U. after    2 cycles

 The electronic state is 1-A.
 Alpha  occ. eigenvalues --  -20.62490 -20.62445 -20.58122 -20.55986 -15.62969
 Alpha  occ. eigenvalues --  -11.43668 -11.41383  -1.60145  -1.55351  -1.51228
 Alpha  occ. eigenvalues --   -1.48462  -1.22326  -0.98434  -0.90156  -0.84162
 Alpha  occ. eigenvalues --   -0.75564  -0.71836  -0.70907  -0.68941  -0.66003
 Alpha  occ. eigenvalues --   -0.63296  -0.60295  -0.55983  -0.53809  -0.51120
 Alpha  occ. eigenvalues --   -0.45317  -0.43117
 Alpha virt. eigenvalues --    0.03419   0.04798   0.05658   0.06191   0.08491
 Alpha virt. eigenvalues --    0.09559   0.10787   0.11340   0.11486   0.14320
 Alpha virt. eigenvalues --    0.14889   0.16285   0.17112   0.17744   0.18677

 Mulliken charges:
               1
     1  C    0.453371
     2  C    2.099082
     3  H    0.379970
     4  H    0.164211
     5  H    0.420991
     6  N    1.329945
     7  O   -1.185900
     8  O   -1.270675
     9  O   -1.204272
    10  O   -1.186723
 Sum of Mulliken charges =   0.00000

 Dipole moment (field-independent basis, Debye):
    X=              0.6950    Y=              1.1176    Z=             -0.1759  Tot=              1.3278

 Test job not archived.
 1\1\GINC-SE044\SP\RHF\Aug-CC-pVDZ\C2H3N1O4\OHZDE\08-Apr-2025\0\\#t hf
 aug-cc-pvdz iop(5/13=1,5/36=2,99/5=2) pseudo=read geom=check guess=(re
 ad,tcheck) scf=(maxcycle=1)\\title\\0,1\C,0,0.0393715,0.720994,-0.0346
 451\C,0,-0.765865,-0.586368,0.0200684\H,0,1.56393,-1.25993,-0.131814\H
 ,0,1.99003,1.45473,0.0690505\H,0,-2.26418,0.596234,0.0273659\N,0,1.359
 36,0.622251,0.117396\O,0,2.14744,-0.50102,-0.0500039\O,0,-0.63438,1.76
 593,-0.0536173\O,0,-2.0348,-0.331518,0.0187139\O,0,-0.284057,-1.67771,
 -0.00245667\\Version=ES64L-G16RevC.01\State=1-A\HF=-431.819388\RMSD=1.

 Normal termination of Gaussian 16 at Tue Apr  8 21:43:55 2025.
