 Gaussian 16, Revision C.01,

 ----------------------------------------------------------------------
 #t hf aug-cc-pvdz symm=none int=(grid=ultrafine) guess=(read,tcheck) s
 table=(opt,rrhf)
 ----------------------------------------------------------------------
 -----
 title
 -----
 Symbolic Z-matrix:
 Charge =  0 Multiplicity = 1

 SCF Done:  E(RHF) =  -466.626747633     A.U. after   13 cycles
 Normal termination of Gaussian 16 at Tue Apr  8 21:46:10 2025.
 Gaussian 16:  ES64L-G16RevC.01  3-Jul-2019

 ----------------------------------------------------------------------
 #t hf aug-cc-pvdz iop(5/13=1,5/36=2,99/5=2) pseudo=read geom=check gue
 ss=(read,tcheck) scf=(maxcycle=1)
 ----------------------------------------------------------------------
 -----
 title
 -----
 Structure from the checkpoint file:  "ANI1ccx_540_conf3_mol1.chk"
 Charge =  0 Multiplicity = 1

                         Standard orientation:
 ---------------------------------------------------------------------
 Center     Atomic      Atomic             Coordinates (Angstroms)
 Number     Number       Type             X           Y           Z
 ---------------------------------------------------------------------
      1          6           0        1.648260   -0.010284    0.006038
      2          6           0       -0.758831   -0.559987    0.010091
      3          1           0        2.320590    1.834620   -0.242880
      4          1           0        0.623889    1.699811   -0.498239
      5          1           0        0.982028   -1.804659   -0.161068
      6          1           0       -0.776441    1.211661    0.848059
      7          1           0       -2.855970   -0.124001    0.173608
      8          7           0        1.476450    1.366871   -0.076079
      9          7           0        0.562181   -0.838687   -0.014188
     10          7           0       -1.153470    0.765273    0.013074
     11          8           0        2.767250   -0.496935    0.107105
     12          8           0       -1.642060   -1.391439   -0.082850
     13          8           0       -2.603540    0.832123    0.016257
 ---------------------------------------------------------------------

 SCF Done:  E(RHF) =  -467.091649641     A.U. after    2 cycles

 The electronic state is 1-A.
 Alpha  occ. eigenvalues --  -20.60751 -20.55638 -20.53494 -15.60834 -15.59168
 Alpha  occ. eigenvalues --  -15.54904 -11.43451 -11.42466  -1.54554  -1.49583
 Alpha  occ. eigenvalues --   -1.47296  -1.32375  -1.23948  -1.19742  -0.96867
 Alpha  occ. eigenvalues --   -0.88551  -0.83637  -0.80625  -0.75787  -0.72500
 Alpha  occ. eigenvalues --   -0.70535  -0.67315  -0.65489  -0.62710  -0.59401
 Alpha  occ. eigenvalues --   -0.56306  -0.50427  -0.49793  -0.47658  -0.46534
 Alpha  occ. eigenvalues --   -0.45700
 Alpha virt. eigenvalues --    0.02575   0.04639   0.05227   0.06050   0.06480
 Alpha virt. eigenvalues --    0.09175   0.09609   0.09920   0.10680   0.12094
 Alpha virt. eigenvalues --    0.13332   0.13991   0.14475   0.14849   0.15237

 Mulliken charges:
               1
     1  C    0.021037
     2  C    0.064915
     3  H    0.158189
     4  H    0.111937
     5  H    0.393905
     6  H    0.345611
     7  H    0.393382
     8  N    0.545478
     9  N    0.685916
    10  N    0.882654
    11  O   -1.211730
    12  O   -1.217808
    13  O   -1.173486
 Sum of Mulliken charges =  -0.00000

 Dipole moment (field-independent basis, Debye):
    X=              0.0786    Y=              1.4848    Z=              0.2806  Tot=              1.5131

 Test job not archived.
 1\1\GINC-SE424\SP\RHF\Aug-CC-pVDZ\C2H5N3O3\OHZDE\08-Apr-2025\0\\#t hf
 aug-cc-pvdz iop(5/13=1,5/36=2,99/5=2) pseudo=read geom=check guess=(re
 ad,tcheck) scf=(maxcycle=1)\\title\\0,1\C,0,1.64826,-0.0102845,0.00603
 759\C,0,-0.758831,-0.559988,0.0100912\H,0,2.32059,1.83462,-0.24288\H,0
 ,0.623889,1.69981,-0.498239\H,0,0.982028,-1.80466,-0.161068\H,0,-0.776
 441,1.21166,0.848059\H,0,-2.85597,-0.124003,0.173608\N,0,1.47645,1.366
 87,-0.0760786\N,0,0.562181,-0.838688,-0.0141885\N,0,-1.15347,0.765272,
 0.0130742\O,0,2.76725,-0.496935,0.107105\O,0,-1.64206,-1.39144,-0.0828

 Normal termination of Gaussian 16 at Tue Apr  8 21:46:14 2025.
