 Gaussian 16, Revision C.01,

 ----------------------------------------------------------------------
 #t hf aug-cc-pvdz symm=none int=(grid=ultrafine) guess=(read,tcheck) s
 table=(opt,rrhf)
 ----------------------------------------------------------------------
 -----
 title
 -----
 Symbolic Z-matrix:
 Charge =  0 Multiplicity = 1

 SCF Done:  E(RHF) =  -535.520549933     A.U. after   16 cycles
 Normal termination of Gaussian 16 at Tue Apr  8 22:08:20 2025.
 Gaussian 16:  ES64L-G16RevC.01  3-Jul-2019

 ----------------------------------------------------------------------
 #t hf aug-cc-pvdz iop(5/13=1,5/36=2,99/5=2) pseudo=read geom=check gue
 ss=(read,tcheck) scf=(maxcycle=1)
 ----------------------------------------------------------------------
 -----
 title
 -----
 Structure from the checkpoint file:  "ANI1ccx_911_conf5_mol1.chk"
 Charge =  0 Multiplicity = 1

                         Standard orientation:
 ---------------------------------------------------------------------
 Center     Atomic      Atomic             Coordinates (Angstroms)
 Number     Number       Type             X           Y           Z
 ---------------------------------------------------------------------
      1          6           0       -1.605280   -0.563399   -0.006790
      2          6           0       -0.370172    1.272380   -0.054270
      3          6           0        0.815618    0.455925   -0.051326
      4          6           0        2.146669    0.615935   -0.045222
      5          1           0       -2.944210   -2.080981    0.223015
      6          1           0       -3.621620   -0.410073   -0.042675
      7          1           0       -1.118912    3.134350    0.274416
      8          1           0        0.559001    3.038071   -0.085151
      9          1           0        2.772969    1.469492   -0.118858
     10          7           0       -2.846590   -1.113881   -0.088022
     11          7           0       -1.587631    0.786141    0.070555
     12          7           0       -0.327253    2.608560    0.026373
     13          7           0        2.689400   -0.656591    0.027273
     14          7           0        1.799270   -1.562429    0.045815
     15          7           0        0.653194   -0.899611   -0.010542
     16          7           0       -0.604424   -1.424460    0.027820
 ---------------------------------------------------------------------

 SCF Done:  E(RHF) =  -536.059040294     A.U. after    2 cycles

 The electronic state is 1-A.
 Alpha  occ. eigenvalues --  -15.64057 -15.58884 -15.56101 -15.53709 -15.52618
 Alpha  occ. eigenvalues --  -15.51941 -15.51573 -11.38693 -11.36366 -11.30149
 Alpha  occ. eigenvalues --  -11.27986  -1.47411  -1.36064  -1.30585  -1.25904
 Alpha  occ. eigenvalues --   -1.20052  -1.14259  -1.12212  -0.96886  -0.93247
 Alpha  occ. eigenvalues --   -0.90853  -0.86645  -0.80615  -0.77881  -0.74557
 Alpha  occ. eigenvalues --   -0.73415  -0.70780  -0.69012  -0.68204  -0.63887
 Alpha  occ. eigenvalues --   -0.59200  -0.58888  -0.56624  -0.50848  -0.49383
 Alpha  occ. eigenvalues --   -0.48596  -0.45943  -0.42076  -0.36218
 Alpha virt. eigenvalues --    0.01886   0.03529   0.03806   0.04277   0.05793
 Alpha virt. eigenvalues --    0.06634   0.07860   0.08662   0.10148   0.10522
 Alpha virt. eigenvalues --    0.10825   0.10954   0.12149   0.12429   0.13179

 Mulliken charges:
               1
     1  C   -1.118746
     2  C   -1.866341
     3  C   -0.073893
     4  C    0.516845
     5  H    0.107153
     6  H    0.256716
     7  H    0.020086
     8  H    0.240589
     9  H   -0.241952
    10  N    0.590059
    11  N    0.794189
    12  N    0.818035
    13  N    0.082290
    14  N   -0.096959
    15  N   -0.888220
    16  N    0.860149
 Sum of Mulliken charges =  -0.00000

 Dipole moment (field-independent basis, Debye):
    X=             -3.2848    Y=              6.8040    Z=              0.3024  Tot=              7.5615

 Test job not archived.
 1\1\GINC-SE460\SP\RHF\Aug-CC-pVDZ\C4H5N7\OHZDE\08-Apr-2025\0\\#t hf au
 g-cc-pvdz iop(5/13=1,5/36=2,99/5=2) pseudo=read geom=check guess=(read
 ,tcheck) scf=(maxcycle=1)\\title\\0,1\C,0,-1.60528,-0.563399,-0.006789
 7\C,0,-0.370171,1.27238,-0.0542702\C,0,0.815619,0.455924,-0.0513258\C,
 0,2.14667,0.615934,-0.0452217\H,0,-2.94421,-2.08098,0.223015\H,0,-3.62
 162,-0.410072,-0.0426754\H,0,-1.11891,3.13435,0.274416\H,0,0.559003,3.
 03807,-0.0851508\H,0,2.77297,1.46949,-0.118858\N,0,-2.84659,-1.11388,-
 0.0880223\N,0,-1.58763,0.786141,0.0705545\N,0,-0.327251,2.60856,0.0263

 Normal termination of Gaussian 16 at Tue Apr  8 22:08:28 2025.
