 Gaussian 16, Revision C.01,

 ----------------------------------------------------------------------
 #t hf aug-cc-pvdz symm=none int=(grid=ultrafine) guess=(read,tcheck) s
 table=(opt,rrhf)
 ----------------------------------------------------------------------
 -----
 title
 -----
 Symbolic Z-matrix:
 Charge =  0 Multiplicity = 1

 SCF Done:  E(RHF) =  -314.143089842     A.U. after   13 cycles
 Normal termination of Gaussian 16 at Tue Apr  8 21:39:47 2025.
 Gaussian 16:  ES64L-G16RevC.01  3-Jul-2019

 ----------------------------------------------------------------------
 #t hf aug-cc-pvdz iop(5/13=1,5/36=2,99/5=2) pseudo=read geom=check gue
 ss=(read,tcheck) scf=(maxcycle=1)
 ----------------------------------------------------------------------
 -----
 title
 -----
 Structure from the checkpoint file:  "ANI1ccx_445_conf1_mol1.chk"
 Charge =  0 Multiplicity = 1

                         Standard orientation:
 ---------------------------------------------------------------------
 Center     Atomic      Atomic             Coordinates (Angstroms)
 Number     Number       Type             X           Y           Z
 ---------------------------------------------------------------------
      1          6           0        0.015301    0.105457   -0.032771
      2          1           0       -3.022360   -0.086322   -0.641609
      3          1           0       -2.584580   -0.088287    1.084000
      4          1           0       -1.133700   -1.510830    0.483555
      5          1           0       -0.848049    1.721490   -0.008857
      6          1           0        1.080800   -1.449720   -0.691571
      7          1           0        2.211830    0.951092   -0.233552
      8          1           0        2.706730    0.081684    0.988733
      9          7           0       -2.307130    0.092796    0.114076
     10          7           0       -1.143100   -0.687736   -0.172539
     11          7           0        0.147591    1.370000   -0.092366
     12          7           0        1.099890   -0.736721    0.011450
     13          7           0        2.416680   -0.074317    0.027368
 ---------------------------------------------------------------------

 SCF Done:  E(RHF) =  -314.469824264     A.U. after    2 cycles

 The electronic state is 1-A.
 Alpha  occ. eigenvalues --  -15.55901 -15.54578 -15.53095 -15.51925 -15.46450
 Alpha  occ. eigenvalues --  -11.33708  -1.33422  -1.26631  -1.17410  -1.10276
 Alpha  occ. eigenvalues --   -1.03255  -0.82691  -0.78274  -0.75249  -0.72230
 Alpha  occ. eigenvalues --   -0.68336  -0.65248  -0.64877  -0.57262  -0.50356
 Alpha  occ. eigenvalues --   -0.48779  -0.48056  -0.45330  -0.41506
 Alpha virt. eigenvalues --    0.02385   0.04758   0.04902   0.05581   0.06384
 Alpha virt. eigenvalues --    0.06969   0.07886   0.11103   0.13030   0.13303
 Alpha virt. eigenvalues --    0.13514   0.15036   0.15811   0.16758   0.17025

 Mulliken charges:
               1
     1  C   -2.094459
     2  H    0.195412
     3  H    0.203305
     4  H    0.258518
     5  H    0.225822
     6  H    0.200551
     7  H    0.169274
     8  H    0.154746
     9  N   -0.170118
    10  N   -0.067045
    11  N    0.653650
    12  N    0.175904
    13  N    0.094440
 Sum of Mulliken charges =  -0.00000

 Dipole moment (field-independent basis, Debye):
    X=             -3.4727    Y=             -2.2503    Z=              1.5315  Tot=              4.4124

 Test job not archived.
 1\1\GINC-SE186\SP\RHF\Aug-CC-pVDZ\C1H7N5\OHZDE\08-Apr-2025\0\\#t hf au
 g-cc-pvdz iop(5/13=1,5/36=2,99/5=2) pseudo=read geom=check guess=(read
 ,tcheck) scf=(maxcycle=1)\\title\\0,1\C,0,0.0153009,0.105457,-0.032770
 7\H,0,-3.02236,-0.0863225,-0.641609\H,0,-2.58458,-0.0882874,1.084\H,0,
 -1.1337,-1.51083,0.483555\H,0,-0.848049,1.72149,-0.00885744\H,0,1.0808
 ,-1.44972,-0.691571\H,0,2.21183,0.951093,-0.233552\H,0,2.70673,0.08168
 44,0.988733\N,0,-2.30713,0.0927962,0.114076\N,0,-1.1431,-0.687736,-0.1
 72539\N,0,0.147591,1.37,-0.0923659\N,0,1.09989,-0.736721,0.0114505\N,0

 Normal termination of Gaussian 16 at Tue Apr  8 21:39:51 2025.
