 Gaussian 16, Revision C.01,

 ----------------------------------------------------------------------
 #t hf aug-cc-pvdz symm=none int=(grid=ultrafine) guess=(read,tcheck) s
 table=(opt,rrhf)
 ----------------------------------------------------------------------
 -----
 title
 -----
 Symbolic Z-matrix:
 Charge =  0 Multiplicity = 1

 SCF Done:  E(RHF) =  -537.869201048     A.U. after   16 cycles
 Normal termination of Gaussian 16 at Tue Apr  8 22:17:40 2025.
 Gaussian 16:  ES64L-G16RevC.01  3-Jul-2019

 ----------------------------------------------------------------------
 #t hf aug-cc-pvdz iop(5/13=1,5/36=2,99/5=2) pseudo=read geom=check gue
 ss=(read,tcheck) scf=(maxcycle=1)
 ----------------------------------------------------------------------
 -----
 title
 -----
 Structure from the checkpoint file:  "ANI1ccx_988_conf3_mol1.chk"
 Charge =  0 Multiplicity = 1

                         Standard orientation:
 ---------------------------------------------------------------------
 Center     Atomic      Atomic             Coordinates (Angstroms)
 Number     Number       Type             X           Y           Z
 ---------------------------------------------------------------------
      1          6           0       -2.371341   -0.349393   -0.188029
      2          6           0       -0.835555    1.478230    0.610592
      3          6           0        0.631794    1.692490    0.317315
      4          6           0        1.407840    0.480986    0.054373
      5          1           0        3.085890    1.080509   -1.041490
      6          1           0        1.112410    2.187740    1.184340
      7          1           0        0.712682    2.347550   -0.552307
      8          1           0       -1.002670    0.953500    1.555680
      9          1           0       -1.296930    2.470640    0.679298
     10          1           0       -3.767131    0.042197   -1.460650
     11          1           0       -0.897095   -1.174560    0.945344
     12          1           0       -2.412901   -2.058189    0.808529
     13          1           0       -1.772900    1.249151   -1.263670
     14          7           0        3.019859   -0.859745   -0.454051
     15          7           0       -1.912471   -1.190629    0.804777
     16          7           0       -3.483691   -0.630434   -0.761923
     17          7           0       -1.487690    0.707140   -0.443887
     18          7           0        1.044989   -0.751256    0.442558
     19          7           0        2.116199   -1.520230    0.139350
     20          7           0        2.594550    0.400523   -0.529763
 ---------------------------------------------------------------------

 SCF Done:  E(RHF) =  -538.420424492     A.U. after    2 cycles

 The electronic state is 1-A.
 Alpha  occ. eigenvalues --  -15.62297 -15.59826 -15.58821 -15.54545 -15.51996
 Alpha  occ. eigenvalues --  -15.48413 -15.44115 -11.34949 -11.33710 -11.30013
 Alpha  occ. eigenvalues --  -11.28829  -1.50182  -1.28717  -1.28474  -1.23287
 Alpha  occ. eigenvalues --   -1.18474  -1.12776  -1.07971  -0.96562  -0.96036
 Alpha  occ. eigenvalues --   -0.89909  -0.83305  -0.83030  -0.76905  -0.74188
 Alpha  occ. eigenvalues --   -0.71787  -0.68312  -0.66866  -0.65051  -0.63905
 Alpha  occ. eigenvalues --   -0.62539  -0.60369  -0.56191  -0.55876  -0.53938
 Alpha  occ. eigenvalues --   -0.52624  -0.51634  -0.46029  -0.45278  -0.43893
 Alpha  occ. eigenvalues --   -0.38617
 Alpha virt. eigenvalues --    0.01458   0.02632   0.02796   0.04179   0.05166
 Alpha virt. eigenvalues --    0.06124   0.06639   0.07749   0.08751   0.09165
 Alpha virt. eigenvalues --    0.09744   0.10557   0.11179   0.12022   0.12618

 Mulliken charges:
               1
     1  C   -2.166423
     2  C   -0.353439
     3  C    0.050075
     4  C   -1.568677
     5  H    0.051818
     6  H    0.319606
     7  H    0.171617
     8  H    0.090212
     9  H    0.091113
    10  H    0.163596
    11  H    0.144676
    12  H    0.152081
    13  H    0.276144
    14  N   -0.227376
    15  N    0.714643
    16  N    0.757862
    17  N    0.316277
    18  N    0.439591
    19  N   -0.211533
    20  N    0.788139
 Sum of Mulliken charges =   0.00000

 Dipole moment (field-independent basis, Debye):
    X=              3.2858    Y=              7.9587    Z=             -0.7565  Tot=              8.6435

 Test job not archived.
 1\1\GINC-SE187\SP\RHF\Aug-CC-pVDZ\C4H9N7\OHZDE\08-Apr-2025\0\\#t hf au
 g-cc-pvdz iop(5/13=1,5/36=2,99/5=2) pseudo=read geom=check guess=(read
 ,tcheck) scf=(maxcycle=1)\\title\\0,1\C,0,-2.37134,-0.349394,-0.188029
 \C,0,-0.835555,1.47823,0.610592\C,0,0.631794,1.69249,0.317315\C,0,1.40
 784,0.480986,0.0543734\H,0,3.08589,1.08051,-1.04149\H,0,1.11241,2.1877
 4,1.18434\H,0,0.712682,2.34755,-0.552307\H,0,-1.00267,0.9535,1.55568\H
 ,0,-1.29693,2.47064,0.679298\H,0,-3.76713,0.0421956,-1.46065\H,0,-0.89
 7094,-1.17456,0.945344\H,0,-2.4129,-2.05819,0.808529\H,0,-1.7729,1.249

 Normal termination of Gaussian 16 at Tue Apr  8 22:17:53 2025.
