 Gaussian 16, Revision C.01,

 ----------------------------------------------------------------------
 #t hf aug-cc-pvdz symm=none int=(grid=ultrafine) guess=(read,tcheck) s
 table=(opt,rrhf)
 ----------------------------------------------------------------------
 -----
 title
 -----
 Symbolic Z-matrix:
 Charge =  0 Multiplicity = 1

 SCF Done:  E(RHF) =  -490.352551242     A.U. after   14 cycles
 Normal termination of Gaussian 16 at Tue Apr  8 21:51:05 2025.
 Gaussian 16:  ES64L-G16RevC.01  3-Jul-2019

 ----------------------------------------------------------------------
 #t hf aug-cc-pvdz iop(5/13=1,5/36=2,99/5=2) pseudo=read geom=check gue
 ss=(read,tcheck) scf=(maxcycle=1)
 ----------------------------------------------------------------------
 -----
 title
 -----
 Structure from the checkpoint file:  "ANI1ccx_703_conf2_mol2.chk"
 Charge =  0 Multiplicity = 1

                         Standard orientation:
 ---------------------------------------------------------------------
 Center     Atomic      Atomic             Coordinates (Angstroms)
 Number     Number       Type             X           Y           Z
 ---------------------------------------------------------------------
      1          6           0        0.028246    0.438630    0.552537
      2          6           0       -1.209620   -0.318421    0.019833
      3          6           0        1.299000   -0.163694   -0.055389
      4          1           0        0.816023    2.095040   -0.006697
      5          1           0        0.063832    0.265168    1.601210
      6          1           0       -1.961180    1.363670   -0.368215
      7          1           0        0.425592   -1.745370    0.208426
      8          8           0       -0.070714    1.810780    0.288360
      9          8           0       -2.171930    0.428423   -0.493238
     10          8           0       -1.282250   -1.520890    0.088324
     11          8           0        1.360920   -1.498770    0.023511
     12          8           0        2.157720    0.565756   -0.474033
 ---------------------------------------------------------------------

 SCF Done:  E(RHF) =  -490.831822479     A.U. after    2 cycles

 The electronic state is 1-A.
 Alpha  occ. eigenvalues --  -20.63995 -20.61679 -20.60894 -20.58461 -20.57288
 Alpha  occ. eigenvalues --  -11.44568 -11.43037 -11.36458  -1.59945  -1.57023
 Alpha  occ. eigenvalues --   -1.52379  -1.50379  -1.48631  -1.07372  -0.89275
 Alpha  occ. eigenvalues --   -0.86539  -0.81825  -0.78994  -0.74867  -0.70145
 Alpha  occ. eigenvalues --   -0.68994  -0.66537  -0.65293  -0.64594  -0.60926
 Alpha  occ. eigenvalues --   -0.58496  -0.53548  -0.51974  -0.50082  -0.48009
 Alpha  occ. eigenvalues --   -0.47384
 Alpha virt. eigenvalues --    0.03010   0.03958   0.05209   0.05886   0.08532
 Alpha virt. eigenvalues --    0.09372   0.10275   0.10611   0.11201   0.12026
 Alpha virt. eigenvalues --    0.13660   0.14262   0.14652   0.14996   0.16259

 Mulliken charges:
               1
     1  C    0.772210
     2  C    2.165029
     3  C    1.919729
     4  H    0.368140
     5  H    0.302749
     6  H    0.399530
     7  H    0.546504
     8  O   -1.438197
     9  O   -1.259543
    10  O   -1.309324
    11  O   -1.300111
    12  O   -1.166715
 Sum of Mulliken charges =   0.00000

 Dipole moment (field-independent basis, Debye):
    X=             -1.3453    Y=              2.2935    Z=              1.6353  Tot=              3.1215

 Test job not archived.
 1\1\GINC-SE334\SP\RHF\Aug-CC-pVDZ\C3H4O5\OHZDE\08-Apr-2025\0\\#t hf au
 g-cc-pvdz iop(5/13=1,5/36=2,99/5=2) pseudo=read geom=check guess=(read
 ,tcheck) scf=(maxcycle=1)\\title\\0,1\C,0,0.0282457,0.43863,0.552537\C
 ,0,-1.20962,-0.318421,0.0198328\C,0,1.299,-0.163694,-0.0553892\H,0,0.8
 16023,2.09504,-0.0066966\H,0,0.0638322,0.265168,1.60121\H,0,-1.96118,1
 .36367,-0.368215\H,0,0.425592,-1.74537,0.208426\O,0,-0.0707137,1.81078
 ,0.28836\O,0,-2.17193,0.428423,-0.493238\O,0,-1.28225,-1.52089,0.08832
 45\O,0,1.36092,-1.49877,0.0235111\O,0,2.15772,0.565756,-0.474033\\Vers

 Normal termination of Gaussian 16 at Tue Apr  8 21:51:10 2025.
