 Gaussian 16, Revision C.01,

 ----------------------------------------------------------------------
 #t hf aug-cc-pvdz symm=none int=(grid=ultrafine) guess=(read,tcheck) s
 table=(opt,rrhf)
 ----------------------------------------------------------------------
 -----
 title
 -----
 Symbolic Z-matrix:
 Charge =  0 Multiplicity = 1

 SCF Done:  E(RHF) =  -414.368439773     A.U. after   14 cycles
 Normal termination of Gaussian 16 at Tue Apr  8 21:37:36 2025.
 Gaussian 16:  ES64L-G16RevC.01  3-Jul-2019

 ----------------------------------------------------------------------
 #t hf aug-cc-pvdz iop(5/13=1,5/36=2,99/5=2) pseudo=read geom=check gue
 ss=(read,tcheck) scf=(maxcycle=1)
 ----------------------------------------------------------------------
 -----
 title
 -----
 Structure from the checkpoint file:  "ANI1ccx_410_conf5_mol1.chk"
 Charge =  0 Multiplicity = 1

                         Standard orientation:
 ---------------------------------------------------------------------
 Center     Atomic      Atomic             Coordinates (Angstroms)
 Number     Number       Type             X           Y           Z
 ---------------------------------------------------------------------
      1          6           0        2.102519   -0.109613    0.247709
      2          1           0       -1.417341   -0.443414    1.340680
      3          1           0       -3.540751   -0.248446   -0.396827
      4          1           0        1.681929    1.650151    0.756636
      5          1           0        1.701029   -0.372344    1.247390
      6          8           0       -1.307321   -0.899551    0.491069
      7          8           0       -1.681081    0.123385   -0.433895
      8          8           0       -2.996601    0.513798   -0.124051
      9          8           0        2.144769    1.204291    0.041473
     10          8           0        2.460239   -0.932954   -0.528864
 ---------------------------------------------------------------------

 SCF Done:  E(RHF) =  -414.769673147     A.U. after    2 cycles

 The electronic state is 1-A.
 Alpha  occ. eigenvalues --  -20.70082 -20.64974 -20.64947 -20.61380 -20.54273
 Alpha  occ. eigenvalues --  -11.39861  -1.69108  -1.55968  -1.47331  -1.47018
 Alpha  occ. eigenvalues --   -1.21437  -0.87148  -0.79652  -0.79287  -0.69319
 Alpha  occ. eigenvalues --   -0.68623  -0.67305  -0.67122  -0.63522  -0.59061
 Alpha  occ. eigenvalues --   -0.53780  -0.52234  -0.48674  -0.48158  -0.45035
 Alpha virt. eigenvalues --    0.02307   0.04037   0.04658   0.05929   0.10136
 Alpha virt. eigenvalues --    0.11359   0.12506   0.13586   0.14531   0.15168
 Alpha virt. eigenvalues --    0.16253   0.18245   0.19423   0.19974   0.20857

 Mulliken charges:
               1
     1  C    1.386247
     2  H    0.465623
     3  H    0.452952
     4  H    0.412420
     5  H    0.102883
     6  O   -0.489422
     7  O    0.109293
     8  O   -0.519133
     9  O   -0.956057
    10  O   -0.964807
 Sum of Mulliken charges =   0.00000

 Dipole moment (field-independent basis, Debye):
    X=             -3.1576    Y=              1.3131    Z=              4.2493  Tot=              5.4545

 Test job not archived.
 1\1\GINC-SE220\SP\RHF\Aug-CC-pVDZ\C1H4O5\OHZDE\08-Apr-2025\0\\#t hf au
 g-cc-pvdz iop(5/13=1,5/36=2,99/5=2) pseudo=read geom=check guess=(read
 ,tcheck) scf=(maxcycle=1)\\title\\0,1\C,0,2.10252,-0.109614,0.247709\H
 ,0,-1.41734,-0.443415,1.34068\H,0,-3.54075,-0.248447,-0.396827\H,0,1.6
 8193,1.65015,0.756636\H,0,1.70103,-0.372345,1.24739\O,0,-1.30732,-0.89
 9552,0.491069\O,0,-1.68108,0.123384,-0.433895\O,0,-2.9966,0.513797,-0.
 124051\O,0,2.14477,1.20429,0.0414733\O,0,2.46024,-0.932955,-0.528864\\
 Version=ES64L-G16RevC.01\State=1-A\HF=-414.7696731\RMSD=7.349e-03\Dipo

 Normal termination of Gaussian 16 at Tue Apr  8 21:37:39 2025.
