 Gaussian 16, Revision C.01,

 ----------------------------------------------------------------------
 #t hf aug-cc-pvdz symm=none int=(grid=ultrafine) guess=(read,tcheck) s
 table=(opt,rrhf)
 ----------------------------------------------------------------------
 -----
 title
 -----
 Symbolic Z-matrix:
 Charge =  0 Multiplicity = 1

 SCF Done:  E(RHF) =  -522.615645047     A.U. after   13 cycles
 Normal termination of Gaussian 16 at Tue Apr  8 22:09:59 2025.
 Gaussian 16:  ES64L-G16RevC.01  3-Jul-2019

 ----------------------------------------------------------------------
 #t hf aug-cc-pvdz iop(5/13=1,5/36=2,99/5=2) pseudo=read geom=check gue
 ss=(read,tcheck) scf=(maxcycle=1)
 ----------------------------------------------------------------------
 -----
 title
 -----
 Structure from the checkpoint file:  "ANI1ccx_922_conf6_mol1.chk"
 Charge =  0 Multiplicity = 1

                         Standard orientation:
 ---------------------------------------------------------------------
 Center     Atomic      Atomic             Coordinates (Angstroms)
 Number     Number       Type             X           Y           Z
 ---------------------------------------------------------------------
      1          6           0        1.969631   -0.010663   -0.232393
      2          6           0        0.012145   -0.735624    0.793408
      3          6           0       -1.941499   -0.029795   -0.301420
      4          6           0       -0.003498    0.791501    0.771158
      5          1           0        1.594272   -2.014649   -0.116781
      6          1           0       -0.074599   -1.043510    1.842100
      7          1           0       -1.633818   -1.988430    0.227068
      8          1           0       -1.670909    2.034950    0.087164
      9          1           0       -0.062664    1.138540    1.828070
     10          1           0        1.347031    2.032801   -0.352232
     11          7           0        1.299642   -1.090429    0.281769
     12          7           0       -1.119108   -1.144380   -0.018905
     13          7           0       -1.253689    1.131210    0.091615
     14          7           0        1.242321    1.153091    0.145649
     15          8           0        2.971051   -0.010805   -0.893118
     16          8           0       -3.084069   -0.064027   -0.756981
 ---------------------------------------------------------------------

 SCF Done:  E(RHF) =  -523.132750970     A.U. after    2 cycles

 The electronic state is 1-A.
 Alpha  occ. eigenvalues --  -20.52419 -20.51778 -15.55121 -15.54877 -15.54540
 Alpha  occ. eigenvalues --  -15.53805 -11.41038 -11.39717 -11.35063 -11.34979
 Alpha  occ. eigenvalues --   -1.48343  -1.46726  -1.34970  -1.27622  -1.23677
 Alpha  occ. eigenvalues --   -1.18077  -1.03281  -0.91105  -0.90379  -0.86371
 Alpha  occ. eigenvalues --   -0.79326  -0.77198  -0.74034  -0.71765  -0.70514
 Alpha  occ. eigenvalues --   -0.65913  -0.65648  -0.64641  -0.61756  -0.60663
 Alpha  occ. eigenvalues --   -0.57722  -0.48897  -0.48451  -0.45096  -0.44486
 Alpha  occ. eigenvalues --   -0.44406  -0.43837
 Alpha virt. eigenvalues --    0.02166   0.03389   0.03521   0.04741   0.05327
 Alpha virt. eigenvalues --    0.05528   0.08602   0.09186   0.09876   0.11242
 Alpha virt. eigenvalues --    0.11770   0.11974   0.12594   0.12815   0.13171

 Mulliken charges:
               1
     1  C    0.672626
     2  C   -1.804019
     3  C    0.733290
     4  C   -1.511592
     5  H    0.284173
     6  H    0.083579
     7  H    0.196690
     8  H    0.101633
     9  H    0.144840
    10  H    0.246319
    11  N    0.787835
    12  N    0.860062
    13  N    0.748974
    14  N    0.719916
    15  O   -1.122310
    16  O   -1.142015
 Sum of Mulliken charges =  -0.00000

 Dipole moment (field-independent basis, Debye):
    X=             -0.6275    Y=              0.0413    Z=              3.8835  Tot=              3.9341

 Test job not archived.
 1\1\GINC-SE092\SP\RHF\Aug-CC-pVDZ\C4H6N4O2\OHZDE\08-Apr-2025\0\\#t hf
 aug-cc-pvdz iop(5/13=1,5/36=2,99/5=2) pseudo=read geom=check guess=(re
 ad,tcheck) scf=(maxcycle=1)\\title\\0,1\C,0,1.96963,-0.0106641,-0.2323
 93\C,0,0.0121435,-0.735625,0.793408\C,0,-1.9415,-0.0297946,-0.30142\C,
 0,-0.00349924,0.7915,0.771158\H,0,1.59427,-2.01465,-0.116781\H,0,-0.07
 4601,-1.04351,1.8421\H,0,-1.63382,-1.98843,0.227068\H,0,-1.67091,2.034
 95,0.087164\H,0,-0.0626647,1.13854,1.82807\H,0,1.34703,2.0328,-0.35223
 2\N,0,1.29964,-1.09043,0.281769\N,0,-1.11911,-1.14438,-0.0189046\N,0,-

 Normal termination of Gaussian 16 at Tue Apr  8 22:10:08 2025.
