 Gaussian 16, Revision C.01,

 ----------------------------------------------------------------------
 #t hf aug-cc-pvdz symm=none int=(grid=ultrafine) guess=(read,tcheck) s
 table=(opt,rrhf)
 ----------------------------------------------------------------------
 -----
 title
 -----
 Symbolic Z-matrix:
 Charge =  0 Multiplicity = 1

 SCF Done:  E(RHF) =  -532.282942731     A.U. after   11 cycles
 Normal termination of Gaussian 16 at Tue Apr  8 21:10:09 2025.
 Gaussian 16:  ES64L-G16RevC.01  3-Jul-2019

 ----------------------------------------------------------------------
 #t hf aug-cc-pvdz iop(5/13=1,5/36=2,99/5=2) pseudo=read geom=check gue
 ss=(read,tcheck) scf=(maxcycle=1)
 ----------------------------------------------------------------------
 -----
 title
 -----
 Structure from the checkpoint file:  "ANI1ccx_1845_conf409_mol1.chk"
 Charge =  0 Multiplicity = 1

                         Standard orientation:
 ---------------------------------------------------------------------
 Center     Atomic      Atomic             Coordinates (Angstroms)
 Number     Number       Type             X           Y           Z
 ---------------------------------------------------------------------
      1          1           0       -3.742950   -0.705168   -0.186107
      2          1           0        0.521343   -3.452970   -1.094110
      3          1           0        1.225160   -2.069770   -0.698719
      4          1           0        1.039850    3.516010   -0.937061
      5          1           0       -0.040314    2.054990   -1.003050
      6          1           0       -2.817490   -0.393493    0.999882
      7          1           0       -0.685924   -1.580800    0.747348
      8          1           0        2.633980   -0.266632   -1.117290
      9          1           0       -0.349143   -0.259898    1.508820
     10          1           0        1.553860    1.557090    0.666923
     11          1           0        1.820650    1.297280    2.201940
     12          1           0       -0.716393    0.230613   -0.738765
     13          1           0       -2.072450    0.659756   -0.544229
     14          1           0        2.984390   -0.519398    0.341997
     15          8           0       -3.368670   -0.025273    0.348946
     16          8           0        2.773430   -0.938171   -0.448479
     17          8           0        0.710139    2.640480   -0.560665
     18          8           0        1.762930    0.852404    1.354640
     19          8           0        0.402101   -2.641650   -0.505294
     20          8           0       -1.008880   -0.681296    0.987361
     21          8           0       -1.440370    0.785055   -1.194960
 ---------------------------------------------------------------------

 SCF Done:  E(RHF) =  -532.836783645     A.U. after    2 cycles

 The electronic state is 1-A.
 Alpha  occ. eigenvalues --  -20.55989 -20.55916 -20.55845 -20.55723 -20.55025
 Alpha  occ. eigenvalues --  -20.53133 -20.51573  -1.45984  -1.45719  -1.43481
 Alpha  occ. eigenvalues --   -1.43268  -1.41196  -1.41078  -1.40033  -0.73985
 Alpha  occ. eigenvalues --   -0.73373  -0.72491  -0.72377  -0.71059  -0.68649
 Alpha  occ. eigenvalues --   -0.66563  -0.61480  -0.60211  -0.59063  -0.57949
 Alpha  occ. eigenvalues --   -0.56034  -0.53994  -0.52541  -0.50537  -0.50164
 Alpha  occ. eigenvalues --   -0.49527  -0.49429  -0.48667  -0.48077  -0.45899
 Alpha virt. eigenvalues --    0.03056   0.03816   0.04311   0.05329   0.06498
 Alpha virt. eigenvalues --    0.07034   0.07401   0.07960   0.08954   0.10104
 Alpha virt. eigenvalues --    0.10405   0.10754   0.11311   0.12744   0.17304

 Mulliken charges:
               1
     1  H    0.382409
     2  H    0.402948
     3  H    0.689165
     4  H    0.468080
     5  H    0.658557
     6  H    0.562320
     7  H    0.821217
     8  H    0.425967
     9  H    0.689646
    10  H    0.760388
    11  H    0.419093
    12  H    0.582446
    13  H    0.690891
    14  H    0.608223
    15  O   -0.901048
    16  O   -1.095454
    17  O   -1.156026
    18  O   -1.137288
    19  O   -1.004054
    20  O   -1.765181
    21  O   -1.102301
 Sum of Mulliken charges =  -0.00000

 Dipole moment (field-independent basis, Debye):
    X=              2.7319    Y=             -0.0227    Z=              0.5051  Tot=              2.7783

 Test job not archived.
 1\1\GINC-SE252\SP\RHF\Aug-CC-pVDZ\H14O7\OHZDE\08-Apr-2025\0\\#t hf aug
 -cc-pvdz iop(5/13=1,5/36=2,99/5=2) pseudo=read geom=check guess=(read,
 tcheck) scf=(maxcycle=1)\\title\\0,1\H,0,-3.74295,-0.705168,-0.186107\
 H,0,0.521343,-3.45297,-1.09411\H,0,1.22516,-2.06977,-0.698719\H,0,1.03
 985,3.51601,-0.937061\H,0,-0.0403138,2.05499,-1.00305\H,0,-2.81749,-0.
 393493,0.999882\H,0,-0.685924,-1.5808,0.747348\H,0,2.63398,-0.266632,-
 1.11729\H,0,-0.349143,-0.259898,1.50882\H,0,1.55386,1.55709,0.666923\H
 ,0,1.82065,1.29728,2.20194\H,0,-0.716393,0.230613,-0.738765\H,0,-2.072

 Normal termination of Gaussian 16 at Tue Apr  8 21:10:16 2025.
