 Gaussian 16, Revision C.01,

 ----------------------------------------------------------------------
 #t hf aug-cc-pvdz symm=none int=(grid=ultrafine) guess=(read,tcheck) s
 table=(opt,rrhf)
 ----------------------------------------------------------------------
 -----
 title
 -----
 Symbolic Z-matrix:
 Charge =  0 Multiplicity = 1

 SCF Done:  E(RHF) =  -617.822210860     A.U. after   14 cycles
 Normal termination of Gaussian 16 at Tue Apr  8 19:18:31 2025.
 Gaussian 16:  ES64L-G16RevC.01  3-Jul-2019

 ----------------------------------------------------------------------
 #t hf aug-cc-pvdz iop(5/13=1,5/36=2,99/5=2) pseudo=read geom=check gue
 ss=(read,tcheck) scf=(maxcycle=1)
 ----------------------------------------------------------------------
 -----
 title
 -----
 Structure from the checkpoint file:  "ANI1ccx_1023_conf7_mol2.chk"
 Charge =  0 Multiplicity = 1

                         Standard orientation:
 ---------------------------------------------------------------------
 Center     Atomic      Atomic             Coordinates (Angstroms)
 Number     Number       Type             X           Y           Z
 ---------------------------------------------------------------------
      1          6           0        1.805231   -0.815436    0.015919
      2          6           0        0.698585    1.302170    0.034839
      3          6           0       -1.744132    1.569767    0.224628
      4          6           0       -2.276371    0.373270   -0.574270
      5          6           0       -1.756309   -0.985518   -0.169029
      6          1           0       -1.879927   -2.090323    1.375200
      7          1           0       -2.053781    0.496110   -1.670790
      8          1           0       -3.388551    0.383297   -0.434712
      9          1           0       -1.838552    1.377567    1.323270
     10          1           0       -0.318559    3.046179   -0.062822
     11          1           0       -2.445433    2.436656   -0.002623
     12          1           0        2.653298    1.495053    0.202698
     13          1           0        3.720241   -1.028135    0.024008
     14          1           0        2.387984   -2.669747   -0.252683
     15          1           0        0.729626   -2.454969   -0.386982
     16          1           0        1.890926    3.044222   -0.218621
     17          7           0        1.600313   -2.157058    0.077982
     18          7           0        2.991660   -0.336329    0.065168
     19          7           0        0.613615   -0.023755    0.044826
     20          7           0        1.814107    2.048952    0.097838
     21          7           0       -0.431657    2.033169   -0.176007
     22          8           0       -2.105478   -1.184373    1.109760
     23          8           0       -1.136468   -1.772662   -0.841899
 ---------------------------------------------------------------------

 SCF Done:  E(RHF) =  -618.448280115     A.U. after    2 cycles

 The electronic state is 1-A.
 Alpha  occ. eigenvalues --  -20.59094 -20.51869 -15.52820 -15.51140 -15.48874
 Alpha  occ. eigenvalues --  -15.45378 -15.43368 -11.38721 -11.36313 -11.32590
 Alpha  occ. eigenvalues --  -11.29628 -11.25796  -1.53910  -1.44198  -1.31527
 Alpha  occ. eigenvalues --   -1.25720  -1.19612  -1.14227  -1.11878  -1.05670
 Alpha  occ. eigenvalues --   -0.93660  -0.87337  -0.81951  -0.78993  -0.77493
 Alpha  occ. eigenvalues --   -0.74051  -0.72328  -0.71121  -0.69426  -0.68200
 Alpha  occ. eigenvalues --   -0.66343  -0.64111  -0.63086  -0.62313  -0.58368
 Alpha  occ. eigenvalues --   -0.56413  -0.55117  -0.53815  -0.53074  -0.49076
 Alpha  occ. eigenvalues --   -0.45870  -0.43757  -0.43677  -0.43040  -0.41961
 Alpha  occ. eigenvalues --   -0.37661
 Alpha virt. eigenvalues --    0.02545   0.03591   0.04082   0.04699   0.04920
 Alpha virt. eigenvalues --    0.05683   0.06032   0.06826   0.07747   0.08359
 Alpha virt. eigenvalues --    0.09837   0.11408   0.11798   0.12125   0.12388

 Mulliken charges:
               1
     1  C   -1.982156
     2  C   -2.007011
     3  C   -0.631793
     4  C   -0.752402
     5  C    2.923977
     6  H    0.358252
     7  H    0.233264
     8  H    0.302393
     9  H    0.166155
    10  H    0.247888
    11  H    0.105541
    12  H    0.264422
    13  H   -0.001048
    14  H    0.222689
    15  H    0.110545
    16  H    0.075165
    17  N    0.595048
    18  N    0.884775
    19  N    0.462634
    20  N    0.766437
    21  N    0.595201
    22  O   -1.437524
    23  O   -1.502452
 Sum of Mulliken charges =  -0.00000

 Dipole moment (field-independent basis, Debye):
    X=             -1.9944    Y=              2.9011    Z=              0.1211  Tot=              3.5226

 Test job not archived.
 1\1\GINC-SE028\SP\RHF\Aug-CC-pVDZ\C5H11N5O2\OHZDE\08-Apr-2025\0\\#t hf
  aug-cc-pvdz iop(5/13=1,5/36=2,99/5=2) pseudo=read geom=check guess=(r
 ead,tcheck) scf=(maxcycle=1)\\title\\0,1\C,0,1.80523,-0.815438,0.01591
 95\C,0,0.698587,1.30217,0.0348388\C,0,-1.74413,1.56977,0.224628\C,0,-2
 .27637,0.373274,-0.57427\C,0,-1.75631,-0.985515,-0.169029\H,0,-1.87993
 ,-2.09032,1.3752\H,0,-2.05378,0.496113,-1.67079\H,0,-3.38855,0.383302,
 -0.434712\H,0,-1.83855,1.37757,1.32327\H,0,-0.318555,3.04618,-0.062821
 9\H,0,-2.44543,2.43666,-0.00262286\H,0,2.6533,1.49505,0.202698\H,0,3.7

 Normal termination of Gaussian 16 at Tue Apr  8 19:18:48 2025.
