 Gaussian 16, Revision C.01,

 ----------------------------------------------------------------------
 #t hf aug-cc-pvdz symm=none int=(grid=ultrafine) guess=(read,tcheck) s
 table=(opt,rrhf)
 ----------------------------------------------------------------------
 -----
 title
 -----
 Symbolic Z-matrix:
 Charge =  0 Multiplicity = 1

 SCF Done:  E(RHF) =  -408.764775626     A.U. after   13 cycles
 Normal termination of Gaussian 16 at Tue Apr  8 21:39:52 2025.
 Gaussian 16:  ES64L-G16RevC.01  3-Jul-2019

 ----------------------------------------------------------------------
 #t hf aug-cc-pvdz iop(5/13=1,5/36=2,99/5=2) pseudo=read geom=check gue
 ss=(read,tcheck) scf=(maxcycle=1)
 ----------------------------------------------------------------------
 -----
 title
 -----
 Structure from the checkpoint file:  "ANI1ccx_432_conf5_mol1.chk"
 Charge =  0 Multiplicity = 1

                         Standard orientation:
 ---------------------------------------------------------------------
 Center     Atomic      Atomic             Coordinates (Angstroms)
 Number     Number       Type             X           Y           Z
 ---------------------------------------------------------------------
      1          6           0       -0.020776   -0.120005    0.097599
      2          1           0        1.128346    2.668197   -0.675206
      3          1           0        0.917537    2.392676    0.959049
      4          1           0        1.896238    0.446933    0.156496
      5          1           0       -1.457787    1.324723   -0.154749
      6          1           0       -2.435704   -1.073512    0.403112
      7          1           0        1.692534   -2.510400    0.311211
      8          7           0        0.678058    2.124045    0.022739
      9          7           0        0.999400    0.750276   -0.221634
     10          7           0       -1.309092    0.387887    0.283529
     11          7           0        0.217513   -1.390058    0.131236
     12          8           0       -2.282747   -0.400944   -0.276675
     13          8           0        1.568039   -1.553260   -0.110399
 ---------------------------------------------------------------------

 SCF Done:  E(RHF) =  -409.181187575     A.U. after    2 cycles

 The electronic state is 1-A.
 Alpha  occ. eigenvalues --  -20.58297 -20.57897 -15.56561 -15.55154 -15.54076
 Alpha  occ. eigenvalues --  -15.51564 -11.33690  -1.51611  -1.48820  -1.31624
 Alpha  occ. eigenvalues --   -1.19270  -1.10396  -1.06799  -0.83688  -0.78314
 Alpha  occ. eigenvalues --   -0.76974  -0.75073  -0.70280  -0.66109  -0.65814
 Alpha  occ. eigenvalues --   -0.64894  -0.61005  -0.54265  -0.50773  -0.49803
 Alpha  occ. eigenvalues --   -0.46107  -0.44439  -0.36547
 Alpha virt. eigenvalues --    0.02885   0.04706   0.05436   0.05847   0.06133
 Alpha virt. eigenvalues --    0.06698   0.10831   0.12372   0.13315   0.14028
 Alpha virt. eigenvalues --    0.14896   0.15257   0.17033   0.17171   0.18273

 Mulliken charges:
               1
     1  C   -1.467387
     2  H    0.148371
     3  H    0.164845
     4  H    0.318402
     5  H    0.255760
     6  H    0.318200
     7  H    0.388908
     8  N   -0.105129
     9  N    0.036674
    10  N    1.052176
    11  N    1.279409
    12  O   -1.134731
    13  O   -1.255498
 Sum of Mulliken charges =  -0.00000

 Dipole moment (field-independent basis, Debye):
    X=              1.9882    Y=              2.2444    Z=              1.8266  Tot=              3.5110

 Test job not archived.
 1\1\GINC-SE099\SP\RHF\Aug-CC-pVDZ\C1H6N4O2\OHZDE\08-Apr-2025\0\\#t hf
 aug-cc-pvdz iop(5/13=1,5/36=2,99/5=2) pseudo=read geom=check guess=(re
 ad,tcheck) scf=(maxcycle=1)\\title\\0,1\C,0,-0.0207771,-0.120006,0.097
 5987\H,0,1.12836,2.66819,-0.675206\H,0,0.91755,2.39267,0.959049\H,0,1.
 89624,0.446922,0.156496\H,0,-1.45778,1.32473,-0.154749\H,0,-2.43571,-1
 .0735,0.403112\H,0,1.69252,-2.51041,0.311211\N,0,0.678069,2.12404,0.02
 27389\N,0,0.999404,0.75027,-0.221634\N,0,-1.30909,0.387893,0.283529\N,
 0,0.217505,-1.39006,0.131236\O,0,-2.28275,-0.400933,-0.276675\O,0,1.56

 Normal termination of Gaussian 16 at Tue Apr  8 21:39:57 2025.
