 Gaussian 16, Revision C.01,

 ----------------------------------------------------------------------
 #t hf aug-cc-pvdz symm=none int=(grid=ultrafine) guess=(read,tcheck) s
 table=(opt,rrhf)
 ----------------------------------------------------------------------
 -----
 title
 -----
 Symbolic Z-matrix:
 Charge =  0 Multiplicity = 1

 SCF Done:  E(RHF) =  -348.516461208     A.U. after   17 cycles
 Normal termination of Gaussian 16 at Tue Apr  8 21:42:09 2025.
 Gaussian 16:  ES64L-G16RevC.01  3-Jul-2019

 ----------------------------------------------------------------------
 #t hf aug-cc-pvdz iop(5/13=1,5/36=2,99/5=2) pseudo=read geom=check gue
 ss=(read,tcheck) scf=(maxcycle=1)
 ----------------------------------------------------------------------
 -----
 title
 -----
 Structure from the checkpoint file:  "ANI1ccx_476_conf2_mol1.chk"
 Charge =  0 Multiplicity = 1

                         Standard orientation:
 ---------------------------------------------------------------------
 Center     Atomic      Atomic             Coordinates (Angstroms)
 Number     Number       Type             X           Y           Z
 ---------------------------------------------------------------------
      1          6           0        1.670280   -0.031676   -0.007982
      2          6           0        0.337809   -0.031831    0.066414
      3          1           0       -2.473150   -1.055940   -0.093918
      4          7           0        2.802080   -0.008704   -0.033653
      5          7           0       -0.431671    1.115730    0.027027
      6          7           0       -1.630040    0.772927   -0.039188
      7          7           0       -1.634410   -0.563390   -0.004684
      8          7           0       -0.473872   -1.111280    0.013830
 ---------------------------------------------------------------------

 SCF Done:  E(RHF) =  -348.862881575     A.U. after    2 cycles

 The electronic state is 1-A.
 Alpha  occ. eigenvalues --  -15.67700 -15.64066 -15.62709 -15.59596 -15.54296
 Alpha  occ. eigenvalues --  -11.36059 -11.29893  -1.55435  -1.35689  -1.28088
 Alpha  occ. eigenvalues --   -1.23844  -1.04409  -1.00284  -0.90807  -0.82045
 Alpha  occ. eigenvalues --   -0.78040  -0.69051  -0.63581  -0.60303  -0.58699
 Alpha  occ. eigenvalues --   -0.56555  -0.55824  -0.53559  -0.45592
 Alpha virt. eigenvalues --    0.01984   0.02562   0.06583   0.07190   0.07956
 Alpha virt. eigenvalues --    0.09602   0.10207   0.11228   0.12188   0.12524
 Alpha virt. eigenvalues --    0.13106   0.14046   0.15219   0.15868   0.16246

 Mulliken charges:
               1
     1  C   -1.429389
     2  C   -0.148988
     3  H    0.041698
     4  N    0.956494
     5  N    0.390952
     6  N   -0.323260
     7  N   -0.043514
     8  N    0.556007
 Sum of Mulliken charges =  -0.00000

 Dipole moment (field-independent basis, Debye):
    X=             -4.5319    Y=             -2.0508    Z=             -0.0226  Tot=              4.9744

 Test job not archived.
 1\1\GINC-SE250\SP\RHF\Aug-CC-pVDZ\C2H1N5\OHZDE\08-Apr-2025\0\\#t hf au
 g-cc-pvdz iop(5/13=1,5/36=2,99/5=2) pseudo=read geom=check guess=(read
 ,tcheck) scf=(maxcycle=1)\\title\\0,1\C,0,1.67028,-0.0316753,-0.007981
 61\C,0,0.337809,-0.0318312,0.0664136\H,0,-2.47315,-1.05594,-0.0939184\
 N,0,2.80208,-0.00870327,-0.0336528\N,0,-0.431671,1.11573,0.0270268\N,0
 ,-1.63004,0.772927,-0.0391878\N,0,-1.63441,-0.56339,-0.0046839\N,0,-0.
 473872,-1.11128,0.0138301\\Version=ES64L-G16RevC.01\State=1-A\HF=-348.
 8628816\RMSD=1.004e-01\Dipole=-1.7829924,-0.806853,-0.0088861\Quadrupo

 Normal termination of Gaussian 16 at Tue Apr  8 21:42:11 2025.
