 Gaussian 16, Revision C.01,

 ----------------------------------------------------------------------
 #t hf aug-cc-pvdz symm=none int=(grid=ultrafine) guess=(read,tcheck) s
 table=(opt,rrhf)
 ----------------------------------------------------------------------
 -----
 title
 -----
 Symbolic Z-matrix:
 Charge =  0 Multiplicity = 1

 SCF Done:  E(RHF) =  -380.202739841     A.U. after   11 cycles
 Normal termination of Gaussian 16 at Tue Apr  8 21:01:32 2025.
 Gaussian 16:  ES64L-G16RevC.01  3-Jul-2019

 ----------------------------------------------------------------------
 #t hf aug-cc-pvdz iop(5/13=1,5/36=2,99/5=2) pseudo=read geom=check gue
 ss=(read,tcheck) scf=(maxcycle=1)
 ----------------------------------------------------------------------
 -----
 title
 -----
 Structure from the checkpoint file:  "ANI1ccx_1843_conf189_mol1.chk"
 Charge =  0 Multiplicity = 1

                         Standard orientation:
 ---------------------------------------------------------------------
 Center     Atomic      Atomic             Coordinates (Angstroms)
 Number     Number       Type             X           Y           Z
 ---------------------------------------------------------------------
      1          1           0       -1.285920   -1.188259   -0.097848
      2          1           0       -0.516766   -2.611219    0.049606
      3          1           0       -1.732649    0.908393   -0.322541
      4          1           0       -2.623120    0.298683    0.764226
      5          1           0        0.526800    2.476260   -0.346863
      6          1           0        0.408638    1.298321    0.617583
      7          1           0        1.833110   -0.126421    0.401773
      8          1           0        0.613855   -0.584014    1.169441
      9          1           0        0.967871    0.394025   -1.093989
     10          1           0        0.926592   -1.139310   -0.941488
     11          8           0       -0.433417   -1.630719    0.136715
     12          8           0       -2.353790    0.181673   -0.131947
     13          8           0       -0.000745    1.742221   -0.146049
     14          8           0        1.364410    0.100165    1.244341
     15          8           0        1.533740   -0.359147   -1.128049
 ---------------------------------------------------------------------

 SCF Done:  E(RHF) =  -380.599998100     A.U. after    2 cycles

 The electronic state is 1-A.
 Alpha  occ. eigenvalues --  -20.58129 -20.57314 -20.55406 -20.53339 -20.51769
 Alpha  occ. eigenvalues --   -1.47791  -1.46261  -1.45708  -1.43212  -1.38925
 Alpha  occ. eigenvalues --   -0.75340  -0.74386  -0.73380  -0.71140  -0.67367
 Alpha  occ. eigenvalues --   -0.64034  -0.61593  -0.59006  -0.58525  -0.54293
 Alpha  occ. eigenvalues --   -0.51928  -0.51087  -0.50416  -0.46938  -0.44882
 Alpha virt. eigenvalues --    0.03052   0.04046   0.04835   0.06477   0.07535
 Alpha virt. eigenvalues --    0.08115   0.08619   0.08994   0.09407   0.10733
 Alpha virt. eigenvalues --    0.16310   0.18656   0.19376   0.21093   0.21474

 Mulliken charges:
               1
     1  H    0.768644
     2  H    0.498874
     3  H    0.580166
     4  H    0.376783
     5  H    0.367937
     6  H    0.711378
     7  H    0.757951
     8  H    0.648062
     9  H    0.561816
    10  H    0.650536
    11  O   -1.386215
    12  O   -0.975360
    13  O   -1.114645
    14  O   -1.287974
    15  O   -1.157955
 Sum of Mulliken charges =  -0.00000

 Dipole moment (field-independent basis, Debye):
    X=             -2.4423    Y=             -0.7082    Z=              0.2354  Tot=              2.5538

 Test job not archived.
 1\1\GINC-SE458\SP\RHF\Aug-CC-pVDZ\H10O5\OHZDE\08-Apr-2025\0\\#t hf aug
 -cc-pvdz iop(5/13=1,5/36=2,99/5=2) pseudo=read geom=check guess=(read,
 tcheck) scf=(maxcycle=1)\\title\\0,1\H,0,-1.28592,-1.18826,-0.0978494\
 H,0,-0.516765,-2.61122,0.0496044\H,0,-1.73265,0.908391,-0.322542\H,0,-
 2.62312,0.298681,0.764225\H,0,0.526799,2.47626,-0.346864\H,0,0.408637,
 1.29832,0.617582\H,0,1.83311,-0.126421,0.401772\H,0,0.613855,-0.584014
 ,1.16944\H,0,0.967871,0.394025,-1.09399\H,0,0.926592,-1.13931,-0.94148
 9\O,0,-0.433416,-1.63072,0.136714\O,0,-2.35379,0.181671,-0.131948\O,0,

 Normal termination of Gaussian 16 at Tue Apr  8 21:01:36 2025.
