 Gaussian 16, Revision C.01,

 ----------------------------------------------------------------------
 #t hf aug-cc-pvdz symm=none int=(grid=ultrafine) guess=(read,tcheck) s
 table=(opt,rrhf)
 ----------------------------------------------------------------------
 -----
 title
 -----
 Symbolic Z-matrix:
 Charge =  0 Multiplicity = 1

 SCF Done:  E(RHF) =  -908.386228111     A.U. after   14 cycles
 Normal termination of Gaussian 16 at Tue Apr  8 21:07:48 2025.
 Gaussian 16:  ES64L-G16RevC.01  3-Jul-2019

 ----------------------------------------------------------------------
 #t hf aug-cc-pvdz iop(5/13=1,5/36=2,99/5=2) pseudo=read geom=check gue
 ss=(read,tcheck) scf=(maxcycle=1)
 ----------------------------------------------------------------------
 -----
 title
 -----
 Structure from the checkpoint file:  "ANI1ccx_1761_conf17_mol2.chk"
 Charge =  0 Multiplicity = 1

                         Standard orientation:
 ---------------------------------------------------------------------
 Center     Atomic      Atomic             Coordinates (Angstroms)
 Number     Number       Type             X           Y           Z
 ---------------------------------------------------------------------
      1          6           0        2.242319   -0.102119   -0.687529
      2          6           0       -2.934221    0.890069    0.900341
      3          6           0       -2.097951   -0.158961    1.577580
      4          6           0       -1.902172   -1.533119   -0.545730
      5          6           0       -2.214950    1.973191    0.095817
      6          6           0        3.978789   -0.702712    1.076740
      7          6           0        3.217419    0.393936    0.400478
      8          6           0        1.167508   -1.026150   -0.130999
      9          6           0       -1.178682   -1.054890    0.714471
     10          1           0       -0.901107   -1.958960    1.280910
     11          1           0       -3.146642   -2.709009   -1.161340
     12          1           0       -0.666996    2.997560    0.003719
     13          1           0       -3.580361    0.352940    0.188708
     14          1           0       -3.548801    1.459541    1.619220
     15          1           0       -2.767101   -0.881297    2.091720
     16          1           0       -1.448671    0.308978    2.339830
     17          1           0       -0.006896    0.538891    0.029259
     18          1           0        4.766349   -0.390522    1.781330
     19          1           0        4.515928   -1.297472    0.323090
     20          1           0        3.321088   -1.370851    1.640180
     21          1           0        4.722639    0.787999   -0.753184
     22          1           0        2.638929    0.978408    1.150880
     23          1           0        2.876959   -0.703357   -1.387030
     24          1           0        2.339109    1.728039   -1.551500
     25          1           0        1.092889    0.781931   -2.175190
     26          7           0        1.595669    1.083739   -1.340440
     27          7           0        0.054146   -0.384341    0.355862
     28          8           0        1.253568   -2.238910   -0.020139
     29          8           0        4.140419    1.330159   -0.195169
     30          8           0       -1.763622   -1.164399   -1.658870
     31          8           0       -2.711110    2.572161   -0.811564
     32          8           0       -1.010970    2.275190    0.581515
     33          8           0       -2.836332   -2.473459   -0.262714
 ---------------------------------------------------------------------

 SCF Done:  E(RHF) =  -909.299099036     A.U. after    2 cycles

 The electronic state is 1-A.
 Alpha  occ. eigenvalues --  -20.61424 -20.60471 -20.56638 -20.55091 -20.54283
 Alpha  occ. eigenvalues --  -20.51545 -15.51641 -15.50793 -11.40092 -11.39752
 Alpha  occ. eigenvalues --  -11.36090 -11.30990 -11.30805 -11.29461 -11.27293
 Alpha  occ. eigenvalues --  -11.26994 -11.23656  -1.56830  -1.56712  -1.46700
 Alpha  occ. eigenvalues --   -1.46546  -1.46312  -1.46090  -1.25527  -1.19443
 Alpha  occ. eigenvalues --   -1.11093  -1.05941  -1.02205  -0.95396  -0.90921
 Alpha  occ. eigenvalues --   -0.86542  -0.83865  -0.81840  -0.80872  -0.74707
 Alpha  occ. eigenvalues --   -0.72505  -0.72253  -0.71837  -0.70442  -0.69297
 Alpha  occ. eigenvalues --   -0.68014  -0.67572  -0.67329  -0.65156  -0.64908
 Alpha  occ. eigenvalues --   -0.62721  -0.61590  -0.61003  -0.60419  -0.59804
 Alpha  occ. eigenvalues --   -0.58739  -0.56774  -0.55142  -0.54653  -0.53696
 Alpha  occ. eigenvalues --   -0.53299  -0.52631  -0.49917  -0.48931  -0.48290
 Alpha  occ. eigenvalues --   -0.47584  -0.46055  -0.44725  -0.44701  -0.42905
 Alpha  occ. eigenvalues --   -0.41807
 Alpha virt. eigenvalues --    0.03059   0.03266   0.03684   0.03752   0.04039
 Alpha virt. eigenvalues --    0.04366   0.05235   0.05447   0.06090   0.07160
 Alpha virt. eigenvalues --    0.07616   0.07851   0.08458   0.09291   0.10152

 Mulliken charges:
               1
     1  C   -0.990490
     2  C   -0.784139
     3  C   -0.005056
     4  C    3.291124
     5  C    2.502053
     6  C   -0.255245
     7  C    0.948647
     8  C    0.805693
     9  C   -2.710059
    10  H    0.066307
    11  H    0.324782
    12  H    0.460323
    13  H    0.312346
    14  H    0.278305
    15  H    0.194041
    16  H    0.217259
    17  H    0.113441
    18  H    0.139401
    19  H    0.153568
    20  H    0.223746
    21  H    0.339421
    22  H    0.206868
    23  H    0.148036
    24  H    0.184897
    25  H    0.264398
    26  N    0.290980
    27  N    1.886175
    28  O   -1.544872
    29  O   -1.468331
    30  O   -1.344691
    31  O   -1.369392
    32  O   -1.504350
    33  O   -1.375188
 Sum of Mulliken charges =   0.00000

 Dipole moment (field-independent basis, Debye):
    X=              0.9446    Y=              0.1960    Z=              1.4527  Tot=              1.7439

 Test job not archived.
 1\1\GINC-SE116\SP\RHF\Aug-CC-pVDZ\C9H16N2O6\OHZDE\08-Apr-2025\0\\#t hf
  aug-cc-pvdz iop(5/13=1,5/36=2,99/5=2) pseudo=read geom=check guess=(r
 ead,tcheck) scf=(maxcycle=1)\\title\\0,1\C,0,2.24232,-0.102118,-0.6875
 29\C,0,-2.93422,0.890068,0.900341\C,0,-2.09795,-0.158962,1.57758\C,0,-
 1.90217,-1.53312,-0.54573\C,0,-2.21495,1.97319,0.095817\C,0,3.97879,-0
 .702711,1.07674\C,0,3.21742,0.393937,0.400478\C,0,1.16751,-1.02615,-0.
 130999\C,0,-1.17868,-1.05489,0.714471\H,0,-0.901105,-1.95896,1.28091\H
 ,0,-3.14664,-2.70901,-1.16134\H,0,-0.666996,2.99756,0.00371943\H,0,-3.

 Normal termination of Gaussian 16 at Tue Apr  8 21:08:39 2025.
