 Gaussian 16, Revision C.01,

 ----------------------------------------------------------------------
 #t hf aug-cc-pvdz symm=none int=(grid=ultrafine) guess=(read,tcheck) s
 table=(opt,rrhf)
 ----------------------------------------------------------------------
 -----
 title
 -----
 Symbolic Z-matrix:
 Charge =  0 Multiplicity = 1

 SCF Done:  E(RHF) =  -758.518404607     A.U. after   14 cycles
 Normal termination of Gaussian 16 at Tue Apr  8 20:57:25 2025.
 Gaussian 16:  ES64L-G16RevC.01  3-Jul-2019

 ----------------------------------------------------------------------
 #t hf aug-cc-pvdz iop(5/13=1,5/36=2,99/5=2) pseudo=read geom=check gue
 ss=(read,tcheck) scf=(maxcycle=1)
 ----------------------------------------------------------------------
 -----
 title
 -----
 Structure from the checkpoint file:  "ANI1ccx_1759_conf38_mol1.chk"
 Charge =  0 Multiplicity = 1

                         Standard orientation:
 ---------------------------------------------------------------------
 Center     Atomic      Atomic             Coordinates (Angstroms)
 Number     Number       Type             X           Y           Z
 ---------------------------------------------------------------------
      1          6           0       -2.124499    0.051209   -0.621517
      2          6           0        1.640700    2.163630   -0.004081
      3          6           0        2.516650    1.117890   -0.842098
      4          6           0        2.145901   -1.060710    0.509910
      5          6           0        0.222784    1.793120   -0.600094
      6          6           0       -1.542159   -0.535801    1.845879
      7          6           0       -2.256700    0.427842    0.853740
      8          6           0       -0.696352   -0.517710   -0.921028
      9          6           0        1.724371   -0.170068   -0.702249
     10          1           0        3.495240    0.928898   -0.302274
     11          1           0        0.522746   -2.015900    0.294951
     12          1           0       -0.610880    2.005830   -0.026521
     13          1           0        0.010306    2.236690   -1.553411
     14          1           0        1.869400    1.663420    0.975915
     15          1           0        1.875020    3.238020   -0.094336
     16          1           0        2.597940    1.400310   -1.922291
     17          1           0        1.764981   -0.756211   -1.525091
     18          1           0       -1.435659   -1.562210    1.551399
     19          1           0       -2.152189   -0.486079    2.717799
     20          1           0       -1.893300    1.924990    2.112989
     21          1           0       -3.277139    0.153478    1.090849
     22          1           0       -2.311190    0.995929   -1.080341
     23          1           0       -3.861909   -1.045521   -0.507880
     24          1           0       -2.785709   -1.935581   -1.314161
     25          1           0       -0.587663   -0.023105    2.031649
     26          7           0       -3.025939   -0.970385   -1.063461
     27          7           0        0.289207    0.316542   -0.708854
     28          8           0        3.180271   -0.938158    1.073249
     29          8           0       -0.548072   -1.574510   -1.455841
     30          8           0       -1.925920    1.800120    1.114189
     31          8           0        1.312841   -2.007760    0.874171
 ---------------------------------------------------------------------

 SCF Done:  E(RHF) =  -759.288212978     A.U. after    2 cycles

 The electronic state is 1-A.
 Alpha  occ. eigenvalues --  -20.59587 -20.58637 -20.53076 -20.52631 -15.53342
 Alpha  occ. eigenvalues --  -15.48937 -11.38922 -11.36120 -11.31213 -11.29272
 Alpha  occ. eigenvalues --  -11.28875 -11.26716 -11.26375 -11.25572 -11.24424
 Alpha  occ. eigenvalues --   -1.55899  -1.50122  -1.47454  -1.46078  -1.28042
 Alpha  occ. eigenvalues --   -1.20019  -1.09770  -1.05217  -1.03227  -0.96809
 Alpha  occ. eigenvalues --   -0.91682  -0.86225  -0.84969  -0.81972  -0.80078
 Alpha  occ. eigenvalues --   -0.75823  -0.73658  -0.73160  -0.69177  -0.68292
 Alpha  occ. eigenvalues --   -0.66963  -0.65911  -0.65446  -0.64923  -0.64097
 Alpha  occ. eigenvalues --   -0.61783  -0.60852  -0.59512  -0.58438  -0.57883
 Alpha  occ. eigenvalues --   -0.56548  -0.55206  -0.53836  -0.52714  -0.51615
 Alpha  occ. eigenvalues --   -0.50406  -0.48029  -0.47222  -0.46530  -0.44978
 Alpha  occ. eigenvalues --   -0.42964  -0.42112  -0.40182
 Alpha virt. eigenvalues --    0.02407   0.03014   0.03259   0.04093   0.04388
 Alpha virt. eigenvalues --    0.04790   0.05122   0.06019   0.06375   0.07607
 Alpha virt. eigenvalues --    0.08068   0.08410   0.08674   0.08883   0.10129

 Mulliken charges:
               1
     1  C   -1.597354
     2  C   -0.381170
     3  C   -0.287882
     4  C    2.348019
     5  C    0.566143
     6  C   -0.082954
     7  C    1.056905
     8  C    0.133318
     9  C   -0.500288
    10  H    0.199596
    11  H    0.520812
    12  H   -0.239367
    13  H   -0.096216
    14  H    0.258090
    15  H    0.071686
    16  H    0.098202
    17  H   -0.231765
    18  H    0.129981
    19  H   -0.127010
    20  H    0.412135
    21  H    0.034257
    22  H    0.139750
    23  H    0.199440
    24  H    0.140221
    25  H    0.381705
    26  N    0.841566
    27  N    1.945986
    28  O   -1.393813
    29  O   -1.481080
    30  O   -1.612324
    31  O   -1.446588
 Sum of Mulliken charges =  -0.00000

 Dipole moment (field-independent basis, Debye):
    X=             -3.3868    Y=              3.0827    Z=              0.9777  Tot=              4.6829

 Test job not archived.
 1\1\GINC-SE404\SP\RHF\Aug-CC-pVDZ\C9H16N2O4\OHZDE\08-Apr-2025\0\\#t hf
  aug-cc-pvdz iop(5/13=1,5/36=2,99/5=2) pseudo=read geom=check guess=(r
 ead,tcheck) scf=(maxcycle=1)\\title\\0,1\C,0,-2.1245,0.0512097,-0.6215
 16\C,0,1.6407,2.16363,-0.00408093\C,0,2.51665,1.11789,-0.842097\C,0,2.
 1459,-1.06071,0.509911\C,0,0.222784,1.79312,-0.600093\C,0,-1.54216,-0.
 535801,1.84588\C,0,-2.2567,0.427842,0.853741\C,0,-0.696353,-0.51771,-0
 .921027\C,0,1.72437,-0.170068,-0.702248\H,0,3.49524,0.928898,-0.302273
 \H,0,0.522745,-2.0159,0.294952\H,0,-0.61088,2.00583,-0.0265206\H,0,0.0

 Normal termination of Gaussian 16 at Tue Apr  8 20:58:07 2025.
