 Gaussian 16, Revision C.01,

 ----------------------------------------------------------------------
 #t hf aug-cc-pvdz symm=none int=(grid=ultrafine) guess=(read,tcheck) s
 table=(opt,rrhf)
 ----------------------------------------------------------------------
 -----
 title
 -----
 Symbolic Z-matrix:
 Charge =  0 Multiplicity = 1

 SCF Done:  E(RHF) =  -596.215070025     A.U. after   18 cycles
 Normal termination of Gaussian 16 at Tue Apr  8 22:01:55 2025.
 Gaussian 16:  ES64L-G16RevC.01  3-Jul-2019

 ----------------------------------------------------------------------
 #t hf aug-cc-pvdz iop(5/13=1,5/36=2,99/5=2) pseudo=read geom=check gue
 ss=(read,tcheck) scf=(maxcycle=1)
 ----------------------------------------------------------------------
 -----
 title
 -----
 Structure from the checkpoint file:  "ANI1ccx_883_conf1_mol1.chk"
 Charge =  0 Multiplicity = 1

                         Standard orientation:
 ---------------------------------------------------------------------
 Center     Atomic      Atomic             Coordinates (Angstroms)
 Number     Number       Type             X           Y           Z
 ---------------------------------------------------------------------
      1          6           0        1.801610   -0.197018    0.056402
      2          6           0        0.103402    1.245469   -0.031987
      3          6           0       -0.846220    0.197587   -0.033272
      4          6           0       -0.287240   -1.125561   -0.014961
      5          1           0        3.379361   -1.350648    0.185265
      6          1           0        3.734980    0.303425    0.403584
      7          1           0        0.476780    3.017239   -0.033014
      8          1           0       -0.470756   -2.984151   -0.034480
      9          7           0        3.153040   -0.398990   -0.086376
     10          7           0        1.415049    1.079960    0.042028
     11          7           0       -2.185371    0.620843    0.012207
     12          7           0        1.046531   -1.291530   -0.018446
     13          8           0       -0.362164    2.493959   -0.036347
     14          8           0       -3.044720   -0.273507    0.058564
     15          8           0       -1.062418   -2.193042   -0.025258
 ---------------------------------------------------------------------

 SCF Done:  E(RHF) =  -596.797064431     A.U. after    2 cycles

 The electronic state is 1-A.
 Alpha  occ. eigenvalues --  -20.62974 -20.61883 -20.58346 -15.63354 -15.54874
 Alpha  occ. eigenvalues --  -15.52320 -15.52045 -11.41122 -11.39583 -11.39471
 Alpha  occ. eigenvalues --  -11.27855  -1.55935  -1.54873  -1.53824  -1.35439
 Alpha  occ. eigenvalues --   -1.23551  -1.22823  -1.14054  -0.99339  -0.93720
 Alpha  occ. eigenvalues --   -0.90614  -0.85278  -0.80501  -0.74717  -0.73352
 Alpha  occ. eigenvalues --   -0.72284  -0.69213  -0.69148  -0.63659  -0.62940
 Alpha  occ. eigenvalues --   -0.62200  -0.61181  -0.60877  -0.58149  -0.57370
 Alpha  occ. eigenvalues --   -0.49899  -0.49608  -0.46159  -0.41033  -0.37453
 Alpha virt. eigenvalues --    0.02275   0.03742   0.03878   0.04362   0.05271
 Alpha virt. eigenvalues --    0.08209   0.09158   0.09572   0.10053   0.10992
 Alpha virt. eigenvalues --    0.11758   0.12058   0.12939   0.13076   0.13202

 Mulliken charges:
               1
     1  C   -1.560085
     2  C    0.861250
     3  C   -0.925818
     4  C    1.112958
     5  H    0.224323
     6  H    0.224834
     7  H    0.415867
     8  H    0.431342
     9  N    0.606978
    10  N    0.662350
    11  N    1.790378
    12  N    0.600282
    13  O   -1.583654
    14  O   -1.278966
    15  O   -1.582037
 Sum of Mulliken charges =  -0.00000

 Dipole moment (field-independent basis, Debye):
    X=              5.1999    Y=             -1.3989    Z=              1.1127  Tot=              5.4985

 Test job not archived.
 1\1\GINC-SE187\SP\RHF\Aug-CC-pVDZ\C4H4N4O3\OHZDE\08-Apr-2025\0\\#t hf
 aug-cc-pvdz iop(5/13=1,5/36=2,99/5=2) pseudo=read geom=check guess=(re
 ad,tcheck) scf=(maxcycle=1)\\title\\0,1\C,0,1.80161,-0.197018,0.056401
 5\C,0,0.103403,1.24547,-0.0319867\C,0,-0.84622,0.197589,-0.0332717\C,0
 ,-0.287241,-1.12556,-0.014961\H,0,3.37936,-1.35065,0.185265\H,0,3.7349
 8,0.303423,0.403584\H,0,0.476782,3.01724,-0.0330144\H,0,-0.470758,-2.9
 8415,-0.0344803\N,0,3.15304,-0.398991,-0.0863763\N,0,1.41505,1.07996,0
 .042028\N,0,-2.18537,0.620846,0.0122066\N,0,1.04653,-1.29153,-0.018446

 Normal termination of Gaussian 16 at Tue Apr  8 22:02:03 2025.
