 Gaussian 16, Revision C.01,

 ----------------------------------------------------------------------
 #t hf aug-cc-pvdz symm=none int=(grid=ultrafine) guess=(read,tcheck) s
 table=(opt,rrhf)
 ----------------------------------------------------------------------
 -----
 title
 -----
 Symbolic Z-matrix:
 Charge =  0 Multiplicity = 1

 SCF Done:  E(RHF) =  -810.389372600     A.U. after   15 cycles
 Normal termination of Gaussian 16 at Tue Apr  8 19:47:57 2025.
 Gaussian 16:  ES64L-G16RevC.01  3-Jul-2019

 ----------------------------------------------------------------------
 #t hf aug-cc-pvdz iop(5/13=1,5/36=2,99/5=2) pseudo=read geom=check gue
 ss=(read,tcheck) scf=(maxcycle=1)
 ----------------------------------------------------------------------
 -----
 title
 -----
 Structure from the checkpoint file:  "ANI1ccx_1427_conf34_mol1.chk"
 Charge =  0 Multiplicity = 1

                         Standard orientation:
 ---------------------------------------------------------------------
 Center     Atomic      Atomic             Coordinates (Angstroms)
 Number     Number       Type             X           Y           Z
 ---------------------------------------------------------------------
      1          6           0       -2.312970   -0.937722    0.089427
      2          6           0       -1.171810    0.136845    0.033675
      3          6           0       -3.719680   -0.284245   -0.088902
      4          6           0        1.268090    0.513768    0.608640
      5          6           0        1.558029    2.051620    0.417402
      6          6           0        2.188310   -0.114832   -0.396349
      7          6           0        2.294830   -1.669449   -0.344139
      8          1           0        0.118100    2.195120   -0.879881
      9          1           0        3.152570   -2.299869   -1.976450
     10          1           0        3.475630   -3.239759   -0.766594
     11          1           0        3.196360    0.150715   -0.100595
     12          1           0        2.086020    0.209372   -1.469450
     13          1           0        1.676460    0.337473    1.617030
     14          1           0        0.080526   -1.133810    0.943865
     15          1           0       -2.872811    0.978690   -1.070250
     16          1           0       -4.125580    0.160451    0.819447
     17          1           0       -4.411650   -1.085421   -0.384760
     18          1           0       -2.217620   -1.429990   -0.824086
     19          1           0       -2.921310   -2.488450    1.082030
     20          1           0       -2.636470   -1.069910    1.930430
     21          7           0       -2.180250   -1.727780    1.325240
     22          7           0       -0.085485   -0.169190    0.758089
     23          7           0        3.342220   -2.201369   -1.019690
     24          8           0       -1.219711    1.103540   -0.776648
     25          8           0       -3.829080    0.690901   -1.068370
     26          8           0        2.348369    2.681431    1.055300
     27          8           0        1.478930   -2.304150    0.344356
     28          8           0        0.875941    2.731760   -0.590225
 ---------------------------------------------------------------------

 SCF Done:  E(RHF) =  -811.204929087     A.U. after    2 cycles

 The electronic state is 1-A.
 Alpha  occ. eigenvalues --  -20.57112 -20.56729 -20.55758 -20.54558 -20.53174
 Alpha  occ. eigenvalues --  -15.55959 -15.55916 -15.53850 -11.40913 -11.40791
 Alpha  occ. eigenvalues --  -11.40105 -11.33606 -11.30675 -11.29543 -11.29238
 Alpha  occ. eigenvalues --   -1.52750  -1.49960  -1.49476  -1.44711  -1.43908
 Alpha  occ. eigenvalues --   -1.28123  -1.27103  -1.22577  -1.11039  -1.01382
 Alpha  occ. eigenvalues --   -0.96874  -0.90578  -0.86962  -0.85216  -0.80454
 Alpha  occ. eigenvalues --   -0.77103  -0.76124  -0.74922  -0.71762  -0.71568
 Alpha  occ. eigenvalues --   -0.69838  -0.68150  -0.67027  -0.66000  -0.65510
 Alpha  occ. eigenvalues --   -0.64879  -0.62667  -0.60603  -0.60171  -0.59223
 Alpha  occ. eigenvalues --   -0.57730  -0.57198  -0.55580  -0.55417  -0.53898
 Alpha  occ. eigenvalues --   -0.50424  -0.49308  -0.47285  -0.46660  -0.46316
 Alpha  occ. eigenvalues --   -0.44173  -0.43256  -0.42748
 Alpha virt. eigenvalues --    0.01378   0.02749   0.03597   0.04237   0.04764
 Alpha virt. eigenvalues --    0.05205   0.05397   0.05963   0.06517   0.07410
 Alpha virt. eigenvalues --    0.07941   0.08632   0.09516   0.10023   0.10266

 Mulliken charges:
               1
     1  C   -1.878044
     2  C    0.901686
     3  C    1.273675
     4  C   -0.835956
     5  C    2.370199
     6  C   -0.655678
     7  C    0.259810
     8  H    0.651840
     9  H    0.244687
    10  H    0.255151
    11  H    0.375913
    12  H    0.207075
    13  H    0.115610
    14  H    0.472285
    15  H    0.539661
    16  H    0.048652
    17  H    0.084482
    18  H    0.059567
    19  H    0.343141
    20  H    0.413729
    21  N    0.458610
    22  N    1.042861
    23  N    0.575247
    24  O   -1.787116
    25  O   -1.300404
    26  O   -1.381852
    27  O   -1.435869
    28  O   -1.418961
 Sum of Mulliken charges =  -0.00000

 Dipole moment (field-independent basis, Debye):
    X=              0.6291    Y=             -7.2534    Z=             -1.2771  Tot=              7.3918

 Test job not archived.
 1\1\GINC-SE460\SP\RHF\Aug-CC-pVDZ\C7H13N3O5\OHZDE\08-Apr-2025\0\\#t hf
  aug-cc-pvdz iop(5/13=1,5/36=2,99/5=2) pseudo=read geom=check guess=(r
 ead,tcheck) scf=(maxcycle=1)\\title\\0,1\C,0,-2.31297,-0.937722,0.0894
 269\C,0,-1.17181,0.136845,0.0336758\C,0,-3.71968,-0.284245,-0.0889013\
 C,0,1.26809,0.513768,0.60864\C,0,1.55803,2.05162,0.417402\C,0,2.18831,
 -0.114833,-0.396349\C,0,2.29483,-1.66945,-0.344139\H,0,0.118101,2.1951
 2,-0.879881\H,0,3.15257,-2.29987,-1.97645\H,0,3.47563,-3.23976,-0.7665
 94\H,0,3.19636,0.150714,-0.100595\H,0,2.08602,0.209371,-1.46945\H,0,1.

 Normal termination of Gaussian 16 at Tue Apr  8 19:48:27 2025.
