 Gaussian 16, Revision C.01,

 ----------------------------------------------------------------------
 #t hf aug-cc-pvdz symm=none int=(grid=ultrafine) guess=(read,tcheck) s
 table=(opt,rrhf)
 ----------------------------------------------------------------------
 -----
 title
 -----
 Symbolic Z-matrix:
 Charge =  0 Multiplicity = 1

 SCF Done:  E(RHF) =  -218.966530478     A.U. after   13 cycles
 Normal termination of Gaussian 16 at Tue Apr  8 21:10:16 2025.
 Gaussian 16:  ES64L-G16RevC.01  3-Jul-2019

 ----------------------------------------------------------------------
 #t hf aug-cc-pvdz iop(5/13=1,5/36=2,99/5=2) pseudo=read geom=check gue
 ss=(read,tcheck) scf=(maxcycle=1)
 ----------------------------------------------------------------------
 -----
 title
 -----
 Structure from the checkpoint file:  "ANI1ccx_1861_conf12_mol2.chk"
 Charge =  0 Multiplicity = 1

                         Standard orientation:
 ---------------------------------------------------------------------
 Center     Atomic      Atomic             Coordinates (Angstroms)
 Number     Number       Type             X           Y           Z
 ---------------------------------------------------------------------
      1          1           0       -2.711510    1.011450    0.225043
      2          1           0       -0.807255    0.394501    0.464882
      3          7           0       -2.605990    0.028423   -0.100990
      4          7           0       -1.423800   -0.346207    0.040165
      5          7           0        2.517270   -0.432639    0.021586
      6          7           0        2.015200    0.549573   -0.059322
 ---------------------------------------------------------------------

 SCF Done:  E(RHF) =  -219.174293479     A.U. after    2 cycles

 The electronic state is 1-A.
 Alpha  occ. eigenvalues --  -15.63426 -15.63223 -15.58547 -15.58067  -1.49702
 Alpha  occ. eigenvalues --   -1.36229  -0.95471  -0.83207  -0.80335  -0.69532
 Alpha  occ. eigenvalues --   -0.67646  -0.67587  -0.63095  -0.56790  -0.46189
 Alpha virt. eigenvalues --    0.03160   0.05540   0.06508   0.08191   0.08517
 Alpha virt. eigenvalues --    0.11207   0.13598   0.14806   0.15928   0.16794
 Alpha virt. eigenvalues --    0.17456   0.18036   0.18708   0.20264   0.20584

 Mulliken charges:
               1
     1  H    0.103922
     2  H    0.140205
     3  N   -0.193665
     4  N   -0.031915
     5  N   -0.041147
     6  N    0.022599
 Sum of Mulliken charges =   0.00000

 Dipole moment (field-independent basis, Debye):
    X=              0.8807    Y=              2.7550    Z=              1.1988  Tot=              3.1309

 Test job not archived.
 1\1\GINC-SE393\SP\RHF\Aug-CC-pVDZ\H2N4\OHZDE\08-Apr-2025\0\\#t hf aug-
 cc-pvdz iop(5/13=1,5/36=2,99/5=2) pseudo=read geom=check guess=(read,t
 check) scf=(maxcycle=1)\\title\\0,1\H,0,-2.71151,1.01145,0.225043\H,0,
 -0.807255,0.394501,0.464882\N,0,-2.60599,0.0284231,-0.10099\N,0,-1.423
 8,-0.346207,0.0401655\N,0,2.51727,-0.432639,0.0215858\N,0,2.0152,0.549
 573,-0.0593219\\Version=ES64L-G16RevC.01\State=1-A\HF=-219.1742935\RMS
 D=5.040e-02\Dipole=0.3465038,1.0838959,0.4716341\Quadrupole=-1.3252371
 ,0.5927627,0.7324744,-3.9691538,-1.7015571,0.2973\PG=C01 [X(H2N4)]\\@

 Normal termination of Gaussian 16 at Tue Apr  8 21:10:18 2025.
