 Gaussian 16, Revision C.01,

 ----------------------------------------------------------------------
 #t hf aug-cc-pvdz symm=none int=(grid=ultrafine) guess=(read,tcheck) s
 table=(opt,rrhf)
 ----------------------------------------------------------------------
 -----
 title
 -----
 Symbolic Z-matrix:
 Charge =  0 Multiplicity = 1

 SCF Done:  E(RHF) =  -774.644024728     A.U. after   14 cycles
 Normal termination of Gaussian 16 at Tue Apr  8 20:23:33 2025.
 Gaussian 16:  ES64L-G16RevC.01  3-Jul-2019

 ----------------------------------------------------------------------
 #t hf aug-cc-pvdz iop(5/13=1,5/36=2,99/5=2) pseudo=read geom=check gue
 ss=(read,tcheck) scf=(maxcycle=1)
 ----------------------------------------------------------------------
 -----
 title
 -----
 Structure from the checkpoint file:  "ANI1ccx_1610_conf2_mol2.chk"
 Charge =  0 Multiplicity = 1

                         Standard orientation:
 ---------------------------------------------------------------------
 Center     Atomic      Atomic             Coordinates (Angstroms)
 Number     Number       Type             X           Y           Z
 ---------------------------------------------------------------------
      1          6           0       -2.676629   -1.320940    0.059331
      2          6           0       -1.389030   -0.783694    0.698593
      3          6           0       -2.295009   -2.084500   -1.202810
      4          6           0        0.097805    1.273621    0.768942
      5          6           0        0.217081    2.608881   -0.012937
      6          6           0        1.435519    0.530050    0.801157
      7          6           0        1.771940   -0.063968   -0.569643
      8          6           0        2.724761   -1.264857   -0.410717
      9          1           0       -0.661421    3.708411   -1.203190
     10          1           0        1.304011   -2.380868    0.698857
     11          1           0        2.753152   -3.148317    0.343168
     12          1           0        2.301649    0.678869   -1.166230
     13          1           0        0.897225   -0.450015   -1.091500
     14          1           0        1.387690   -0.209476    1.613950
     15          1           0        2.175389    1.310333    1.078590
     16          1           0       -1.656711    0.865858   -0.354052
     17          1           0       -1.612208   -2.907680   -0.946232
     18          1           0       -1.721809   -1.459820   -1.914540
     19          1           0       -3.192969   -2.439551   -1.716750
     20          1           0       -3.036489   -2.024691    0.827805
     21          1           0       -3.885840    0.254031    0.598372
     22          1           0       -4.422580   -0.589133   -0.682130
     23          1           0       -0.153632    1.585801    1.806070
     24          7           0       -3.583230   -0.204793   -0.262829
     25          7           0       -1.007061    0.438702    0.273524
     26          7           0        2.160831   -2.363007    0.193895
     27          8           0        3.905120   -1.233036   -0.739053
     28          8           0       -0.697308   -1.468469    1.453780
     29          8           0        1.029978    3.467132    0.134384
     30          8           0       -0.836273    2.827171   -0.863590
 ---------------------------------------------------------------------

 SCF Done:  E(RHF) =  -775.428343338     A.U. after    2 cycles

 The electronic state is 1-A.
 Alpha  occ. eigenvalues --  -20.61821 -20.56450 -20.52390 -20.50037 -15.54030
 Alpha  occ. eigenvalues --  -15.52418 -15.50717 -11.42137 -11.37246 -11.35282
 Alpha  occ. eigenvalues --  -11.32519 -11.30007 -11.25528 -11.25510 -11.24756
 Alpha  occ. eigenvalues --   -1.57481  -1.47723  -1.46870  -1.44113  -1.27135
 Alpha  occ. eigenvalues --   -1.21518  -1.20647  -1.10092  -1.04041  -1.01196
 Alpha  occ. eigenvalues --   -0.91160  -0.90016  -0.83301  -0.82683  -0.80366
 Alpha  occ. eigenvalues --   -0.76108  -0.74610  -0.73004  -0.72615  -0.70685
 Alpha  occ. eigenvalues --   -0.69780  -0.67581  -0.65825  -0.64385  -0.64169
 Alpha  occ. eigenvalues --   -0.62737  -0.61183  -0.59681  -0.59005  -0.57621
 Alpha  occ. eigenvalues --   -0.56529  -0.55468  -0.55021  -0.53387  -0.51944
 Alpha  occ. eigenvalues --   -0.51473  -0.49968  -0.47314  -0.46939  -0.43519
 Alpha  occ. eigenvalues --   -0.42993  -0.42234  -0.40784
 Alpha virt. eigenvalues --    0.02115   0.03245   0.03647   0.03956   0.04107
 Alpha virt. eigenvalues --    0.04748   0.05165   0.05632   0.06413   0.07580
 Alpha virt. eigenvalues --    0.08072   0.08464   0.09127   0.09638   0.10300

 Mulliken charges:
               1
     1  C   -1.666282
     2  C    0.623190
     3  C   -0.012242
     4  C   -1.672230
     5  C    3.049755
     6  C   -0.419215
     7  C    0.014408
     8  C    0.465521
     9  H    0.400499
    10  H   -0.063373
    11  H    0.119133
    12  H    0.071771
    13  H    0.255726
    14  H    0.233851
    15  H    0.180122
    16  H    0.438986
    17  H    0.249475
    18  H    0.266521
    19  H    0.095429
    20  H    0.155882
    21  H    0.209694
    22  H    0.195342
    23  H    0.291141
    24  N    0.536268
    25  N    1.038273
    26  N    0.801087
    27  O   -1.378252
    28  O   -1.670220
    29  O   -1.394705
    30  O   -1.415555
 Sum of Mulliken charges =   0.00000

 Dipole moment (field-independent basis, Debye):
    X=             -7.5665    Y=              0.1986    Z=              0.1274  Tot=              7.5702

 Test job not archived.
 1\1\GINC-SE365\SP\RHF\Aug-CC-pVDZ\C8H15N3O4\OHZDE\08-Apr-2025\0\\#t hf
  aug-cc-pvdz iop(5/13=1,5/36=2,99/5=2) pseudo=read geom=check guess=(r
 ead,tcheck) scf=(maxcycle=1)\\title\\0,1\C,0,-2.67663,-1.32094,0.05933
 12\C,0,-1.38903,-0.783694,0.698593\C,0,-2.29501,-2.0845,-1.20281\C,0,0
 .0978063,1.27362,0.768942\C,0,0.217083,2.60888,-0.0129368\C,0,1.43552,
 0.530048,0.801157\C,0,1.77194,-0.0639707,-0.569643\C,0,2.72476,-1.2648
 6,-0.410717\H,0,-0.661418,3.70841,-1.20319\H,0,1.30401,-2.38087,0.6988
 57\H,0,2.75315,-3.14832,0.343168\H,0,2.30165,0.678866,-1.16623\H,0,0.8

 Normal termination of Gaussian 16 at Tue Apr  8 20:24:04 2025.
