 Gaussian 16, Revision C.01,

 ----------------------------------------------------------------------
 #t hf aug-cc-pvdz symm=none int=(grid=ultrafine) guess=(read,tcheck) s
 table=(opt,rrhf)
 ----------------------------------------------------------------------
 -----
 title
 -----
 Symbolic Z-matrix:
 Charge =  0 Multiplicity = 1

 SCF Done:  E(RHF) =  -810.391343642     A.U. after   14 cycles
 Normal termination of Gaussian 16 at Tue Apr  8 19:47:23 2025.
 Gaussian 16:  ES64L-G16RevC.01  3-Jul-2019

 ----------------------------------------------------------------------
 #t hf aug-cc-pvdz iop(5/13=1,5/36=2,99/5=2) pseudo=read geom=check gue
 ss=(read,tcheck) scf=(maxcycle=1)
 ----------------------------------------------------------------------
 -----
 title
 -----
 Structure from the checkpoint file:  "ANI1ccx_1427_conf36_mol1.chk"
 Charge =  0 Multiplicity = 1

                         Standard orientation:
 ---------------------------------------------------------------------
 Center     Atomic      Atomic             Coordinates (Angstroms)
 Number     Number       Type             X           Y           Z
 ---------------------------------------------------------------------
      1          6           0        2.198460   -0.599445    0.697639
      2          6           0        1.222760    0.260109   -0.021019
      3          6           0        3.398590   -1.105790   -0.288274
      4          6           0       -1.039080    0.708097   -0.515532
      5          6           0       -1.084170    2.014390    0.295048
      6          6           0       -2.519340    0.132061   -0.380631
      7          6           0       -2.556830   -1.407440   -0.165858
      8          1           0        0.128057    2.874480   -0.773065
      9          1           0       -3.649860   -1.812990   -1.847000
     10          1           0       -3.347290   -3.056540   -0.514230
     11          1           0       -3.078400    0.729294    0.395559
     12          1           0       -3.151540    0.201523   -1.296310
     13          1           0       -0.838252    1.148500   -1.554080
     14          1           0       -0.269421   -0.911943    0.680617
     15          1           0        3.634690    0.760718   -1.094910
     16          1           0        3.253350   -1.904900   -0.938559
     17          1           0        4.052890   -1.544040    0.459431
     18          1           0        2.478860    0.079812    1.508230
     19          1           0        2.025070   -2.591040    0.803363
     20          1           0        1.476090   -1.733230    2.180940
     21          7           0        1.555930   -1.808780    1.173920
     22          7           0       -0.053450   -0.156132    0.093840
     23          7           0       -3.424080   -2.089770   -0.911975
     24          8           0        1.580050    1.217240   -0.642191
     25          8           0        4.130360   -0.030957   -0.872066
     26          8           0       -1.850580    2.164460    1.248990
     27          8           0       -1.789620   -1.997930    0.555820
     28          8           0       -0.443382    3.163590   -0.069145
 ---------------------------------------------------------------------

 SCF Done:  E(RHF) =  -811.208599181     A.U. after    2 cycles

 The electronic state is 1-A.
 Alpha  occ. eigenvalues --  -20.59410 -20.53701 -20.52970 -20.52890 -20.52515
 Alpha  occ. eigenvalues --  -15.54630 -15.53139 -15.50480 -11.39164 -11.37709
 Alpha  occ. eigenvalues --  -11.35762 -11.33513 -11.30446 -11.29232 -11.28189
 Alpha  occ. eigenvalues --   -1.53689  -1.50356  -1.49496  -1.43524  -1.43042
 Alpha  occ. eigenvalues --   -1.27744  -1.25209  -1.21523  -1.07691  -1.00516
 Alpha  occ. eigenvalues --   -0.96237  -0.92180  -0.86057  -0.83272  -0.81390
 Alpha  occ. eigenvalues --   -0.78399  -0.75987  -0.75313  -0.72128  -0.71832
 Alpha  occ. eigenvalues --   -0.69264  -0.67212  -0.65919  -0.65229  -0.64112
 Alpha  occ. eigenvalues --   -0.63863  -0.62743  -0.62078  -0.59799  -0.58971
 Alpha  occ. eigenvalues --   -0.58157  -0.56853  -0.55023  -0.52992  -0.49276
 Alpha  occ. eigenvalues --   -0.48652  -0.47385  -0.45579  -0.45305  -0.44342
 Alpha  occ. eigenvalues --   -0.44053  -0.42165  -0.41168
 Alpha virt. eigenvalues --    0.01847   0.03274   0.03631   0.04179   0.04808
 Alpha virt. eigenvalues --    0.05011   0.05415   0.05822   0.06531   0.07117
 Alpha virt. eigenvalues --    0.07946   0.08507   0.09549   0.10525   0.10997

 Mulliken charges:
               1
     1  C   -1.986572
     2  C    0.303255
     3  C    1.374750
     4  C   -0.596407
     5  C    2.612112
     6  C   -0.483210
     7  C    0.426440
     8  H    0.424271
     9  H    0.109993
    10  H    0.276185
    11  H    0.296321
    12  H    0.174938
    13  H    0.155731
    14  H    0.339264
    15  H    0.426837
    16  H    0.058637
    17  H    0.118791
    18  H    0.281539
    19  H    0.350828
    20  H    0.300978
    21  N    0.341024
    22  N    1.143005
    23  N    0.726690
    24  O   -1.489519
    25  O   -1.363067
    26  O   -1.443598
    27  O   -1.459371
    28  O   -1.419843
 Sum of Mulliken charges =  -0.00000

 Dipole moment (field-independent basis, Debye):
    X=             -1.6961    Y=             -4.3767    Z=             -2.8907  Tot=              5.5126

 Test job not archived.
 1\1\GINC-SE051\SP\RHF\Aug-CC-pVDZ\C7H13N3O5\OHZDE\08-Apr-2025\0\\#t hf
  aug-cc-pvdz iop(5/13=1,5/36=2,99/5=2) pseudo=read geom=check guess=(r
 ead,tcheck) scf=(maxcycle=1)\\title\\0,1\C,0,2.19846,-0.599445,0.69763
 9\C,0,1.22276,0.260109,-0.021019\C,0,3.39859,-1.10579,-0.288274\C,0,-1
 .03908,0.708097,-0.515532\C,0,-1.08417,2.01439,0.295048\C,0,-2.51934,0
 .132061,-0.380631\C,0,-2.55683,-1.40744,-0.165858\H,0,0.128057,2.87448
 ,-0.773065\H,0,-3.64986,-1.81299,-1.847\H,0,-3.34729,-3.05654,-0.51423
 \H,0,-3.0784,0.729294,0.395559\H,0,-3.15154,0.201523,-1.29631\H,0,-0.8

 Normal termination of Gaussian 16 at Tue Apr  8 19:47:55 2025.
