 Gaussian 16, Revision C.01,

 ----------------------------------------------------------------------
 #t hf aug-cc-pvdz symm=none int=(grid=ultrafine) guess=(read,tcheck) s
 table=(opt,rrhf)
 ----------------------------------------------------------------------
 -----
 title
 -----
 Symbolic Z-matrix:
 Charge =  0 Multiplicity = 1

 SCF Done:  E(RHF) =  -355.344475888     A.U. after   14 cycles
 Normal termination of Gaussian 16 at Tue Apr  8 21:40:34 2025.
 Gaussian 16:  ES64L-G16RevC.01  3-Jul-2019

 ----------------------------------------------------------------------
 #t hf aug-cc-pvdz iop(5/13=1,5/36=2,99/5=2) pseudo=read geom=check gue
 ss=(read,tcheck) scf=(maxcycle=1)
 ----------------------------------------------------------------------
 -----
 title
 -----
 Structure from the checkpoint file:  "ANI1ccx_469_conf11_mol1.chk"
 Charge =  0 Multiplicity = 1

                         Standard orientation:
 ---------------------------------------------------------------------
 Center     Atomic      Atomic             Coordinates (Angstroms)
 Number     Number       Type             X           Y           Z
 ---------------------------------------------------------------------
      1          6           0        0.786754    0.041863   -0.028890
      2          6           0       -1.349079    0.500235    0.007725
      3          1           0       -2.159629    1.163291    0.052204
      4          7           0       -1.360440   -0.748476   -0.054523
      5          8           0        1.993020    0.034992   -0.012742
      6          8           0       -0.130810    1.105570    0.012869
      7          8           0        0.019872   -1.037630    0.056929
 ---------------------------------------------------------------------

 SCF Done:  E(RHF) =  -355.687136808     A.U. after    2 cycles

 The electronic state is 1-A.
 Alpha  occ. eigenvalues --  -20.67589 -20.66602 -20.57507 -15.62254 -11.48713
 Alpha  occ. eigenvalues --  -11.40269  -1.68450  -1.54688  -1.50901  -1.26140
 Alpha  occ. eigenvalues --   -0.95245  -0.93059  -0.80028  -0.76706  -0.70832
 Alpha  occ. eigenvalues --   -0.68866  -0.62941  -0.60266  -0.59978  -0.58205
 Alpha  occ. eigenvalues --   -0.49871  -0.45752
 Alpha virt. eigenvalues --    0.02507   0.06561   0.07378   0.07746   0.09733
 Alpha virt. eigenvalues --    0.10476   0.10997   0.12828   0.13753   0.15523
 Alpha virt. eigenvalues --    0.17061   0.17167   0.18629   0.19578   0.22600

 Mulliken charges:
               1
     1  C    2.100403
     2  C    0.282692
     3  H   -0.043418
     4  N    1.012055
     5  O   -1.061368
     6  O   -1.088172
     7  O   -1.202192
 Sum of Mulliken charges =  -0.00000

 Dipole moment (field-independent basis, Debye):
    X=             -3.3624    Y=              2.3908    Z=              0.0347  Tot=              4.1259

 Test job not archived.
 1\1\GINC-SE099\SP\RHF\Aug-CC-pVDZ\C2H1N1O3\OHZDE\08-Apr-2025\0\\#t hf
 aug-cc-pvdz iop(5/13=1,5/36=2,99/5=2) pseudo=read geom=check guess=(re
 ad,tcheck) scf=(maxcycle=1)\\title\\0,1\C,0,0.786754,0.0418637,-0.0288
 897\C,0,-1.34908,0.500234,0.0077249\H,0,-2.15963,1.16329,0.0522036\N,0
 ,-1.36044,-0.748477,-0.0545227\O,0,1.99302,0.0349925,-0.0127421\O,0,-0
 .130811,1.10557,0.0128686\O,0,0.0198718,-1.03763,0.056929\\Version=ES6
 4L-G16RevC.01\State=1-A\HF=-355.6871368\RMSD=1.362e-02\Dipole=-1.32288
 86,0.9406244,0.0136622\Quadrupole=-1.2830127,-0.3788468,1.6618595,-3.8

 Normal termination of Gaussian 16 at Tue Apr  8 21:40:37 2025.
