 Gaussian 16, Revision C.01,

 ----------------------------------------------------------------------
 #t hf aug-cc-pvdz symm=none int=(grid=ultrafine) guess=(read,tcheck) s
 table=(opt,rrhf)
 ----------------------------------------------------------------------
 -----
 title
 -----
 Symbolic Z-matrix:
 Charge =  0 Multiplicity = 1

 SCF Done:  E(RHF) =  -646.689720244     A.U. after   15 cycles
 Normal termination of Gaussian 16 at Tue Apr  8 21:54:47 2025.
 Gaussian 16:  ES64L-G16RevC.01  3-Jul-2019

 ----------------------------------------------------------------------
 #t hf aug-cc-pvdz iop(5/13=1,5/36=2,99/5=2) pseudo=read geom=check gue
 ss=(read,tcheck) scf=(maxcycle=1)
 ----------------------------------------------------------------------
 -----
 title
 -----
 Structure from the checkpoint file:  "ANI1ccx_51_conf1_mol2.chk"
 Charge =  0 Multiplicity = 1

                         Standard orientation:
 ---------------------------------------------------------------------
 Center     Atomic      Atomic             Coordinates (Angstroms)
 Number     Number       Type             X           Y           Z
 ---------------------------------------------------------------------
      1          6           0       -3.114920    0.014443   -0.039669
      2          6           0        0.882880   -1.057710   -0.932606
      3          6           0        1.959450   -1.656901    0.888256
      4          6           0        2.989120    0.074175   -0.575449
      5          6           0        2.814230    1.503019   -0.002834
      6          6           0        0.673081   -2.182250    0.800029
      7          6           0        0.332889    1.547030    0.687187
      8          6           0       -1.042880    1.459020   -0.023844
      9          6           0       -2.040930    0.644059    0.818140
     10          6           0        1.417351    2.100099   -0.238814
     11          1           0        3.079810    1.585189    1.077220
     12          1           0        0.768987   -0.549408   -1.882860
     13          1           0        0.127934   -2.818680    1.493840
     14          1           0        2.798920   -1.822031    1.590450
     15          1           0        4.002820   -0.223830   -0.250268
     16          1           0        2.989110    0.164995   -1.685110
     17          1           0        3.547421    2.137369   -0.506869
     18          1           0        1.418491    3.215289   -0.189721
     19          1           0       -0.881795    1.013600   -0.972955
     20          1           0        0.613552    0.483833    0.978951
     21          1           0        0.261198    2.145960    1.616450
     22          1           0       -1.441189    2.447350   -0.211031
     23          1           0       -1.423280   -0.116078    1.327020
     24          1           0       -2.525650    1.336290    1.543890
     25          1           0       -1.900870   -1.403470   -0.462044
     26          1           0        1.103550    1.777600   -1.294420
     27          7           0        2.042060   -0.922275   -0.220534
     28          7           0       -0.005773   -1.813320   -0.329260
     29          8           0       -2.804850   -1.122870   -0.666227
     30          8           0       -4.196980    0.511030   -0.159569
 ---------------------------------------------------------------------

 SCF Done:  E(RHF) =  -647.358690420     A.U. after    2 cycles

 The electronic state is 1-A.
 Alpha  occ. eigenvalues --  -20.56227 -20.50178 -15.58441 -15.52045 -11.36212
 Alpha  occ. eigenvalues --  -11.32318 -11.31164 -11.29277 -11.27593 -11.26320
 Alpha  occ. eigenvalues --  -11.25573 -11.24404 -11.24241 -11.23765  -1.51731
 Alpha  occ. eigenvalues --   -1.42627  -1.38601  -1.23407  -1.11464  -1.07832
 Alpha  occ. eigenvalues --   -1.04445  -1.00321  -0.93655  -0.87346  -0.86503
 Alpha  occ. eigenvalues --   -0.82185  -0.81037  -0.80510  -0.75438  -0.71439
 Alpha  occ. eigenvalues --   -0.70238  -0.67537  -0.66265  -0.65404  -0.63113
 Alpha  occ. eigenvalues --   -0.62668  -0.61772  -0.61430  -0.59964  -0.57664
 Alpha  occ. eigenvalues --   -0.57153  -0.55279  -0.55073  -0.52175  -0.51312
 Alpha  occ. eigenvalues --   -0.50144  -0.48882  -0.48525  -0.47862  -0.44969
 Alpha  occ. eigenvalues --   -0.43865  -0.40821  -0.35251
 Alpha virt. eigenvalues --    0.01911   0.02352   0.02542   0.03524   0.04057
 Alpha virt. eigenvalues --    0.04470   0.04774   0.05996   0.06253   0.07564
 Alpha virt. eigenvalues --    0.08034   0.08402   0.08885   0.09010   0.09661

 Mulliken charges:
               1
     1  C    2.577376
     2  C   -1.923612
     3  C   -0.089023
     4  C   -0.971463
     5  C   -0.186365
     6  C   -0.293451
     7  C   -0.265845
     8  C   -0.376150
     9  C   -0.335275
    10  C   -0.353016
    11  H    0.158536
    12  H   -0.332199
    13  H   -0.232401
    14  H   -0.245096
    15  H    0.064927
    16  H    0.187920
    17  H    0.147780
    18  H    0.078614
    19  H    0.013986
    20  H    0.381711
    21  H    0.086207
    22  H    0.039409
    23  H    0.293611
    24  H    0.113438
    25  H    0.702600
    26  H    0.374187
    27  N    1.905905
    28  N    1.429241
    29  O   -1.550429
    30  O   -1.401122
 Sum of Mulliken charges =  -0.00000

 Dipole moment (field-independent basis, Debye):
    X=              9.5436    Y=              1.3678    Z=              1.3133  Tot=              9.7301

 Test job not archived.
 1\1\GINC-SE364\SP\RHF\Aug-CC-pVDZ\C10H16N2O2\OHZDE\08-Apr-2025\0\\#t h
 f aug-cc-pvdz iop(5/13=1,5/36=2,99/5=2) pseudo=read geom=check guess=(
 read,tcheck) scf=(maxcycle=1)\\title\\0,1\C,0,-3.11492,0.0144428,-0.03
 96694\C,0,0.88288,-1.05771,-0.932606\C,0,1.95945,-1.6569,0.888256\C,0,
 2.98912,0.0741761,-0.575449\C,0,2.81423,1.50302,-0.00283383\C,0,0.6730
 81,-2.18225,0.800029\C,0,0.332889,1.54703,0.687187\C,0,-1.04288,1.4590
 2,-0.0238436\C,0,-2.04093,0.644059,0.81814\C,0,1.41735,2.1001,-0.23881
 4\H,0,3.07981,1.58519,1.07722\H,0,0.768987,-0.549408,-1.88286\H,0,0.12

 Normal termination of Gaussian 16 at Tue Apr  8 21:55:22 2025.
