 Gaussian 16, Revision C.01,

 ----------------------------------------------------------------------
 #t hf aug-cc-pvdz symm=none int=(grid=ultrafine) guess=(read,tcheck) s
 table=(opt,rrhf)
 ----------------------------------------------------------------------
 -----
 title
 -----
 Symbolic Z-matrix:
 Charge =  0 Multiplicity = 1

 SCF Done:  E(RHF) =  -660.938919000     A.U. after   17 cycles
 Normal termination of Gaussian 16 at Tue Apr  8 20:27:35 2025.
 Gaussian 16:  ES64L-G16RevC.01  3-Jul-2019

 ----------------------------------------------------------------------
 #t hf aug-cc-pvdz iop(5/13=1,5/36=2,99/5=2) pseudo=read geom=check gue
 ss=(read,tcheck) scf=(maxcycle=1)
 ----------------------------------------------------------------------
 -----
 title
 -----
 Structure from the checkpoint file:  "ANI1ccx_1675_conf1_mol2.chk"
 Charge =  0 Multiplicity = 1

                         Standard orientation:
 ---------------------------------------------------------------------
 Center     Atomic      Atomic             Coordinates (Angstroms)
 Number     Number       Type             X           Y           Z
 ---------------------------------------------------------------------
      1          6           0        1.467009   -1.097322    0.472170
      2          6           0       -0.741339   -0.818631   -0.149731
      3          6           0       -1.955771   -1.505810   -0.157268
      4          6           0       -3.126171   -0.777702   -0.079726
      5          6           0       -3.123720    0.596357    0.081778
      6          6           0       -1.894330    1.275490    0.224461
      7          6           0       -0.713506    0.552722    0.063599
      8          6           0        1.701990    0.413915    0.135955
      9          1           0        1.706881    2.607158   -0.305083
     10          1           0       -1.858599    2.375750    0.491419
     11          1           0       -4.097410    1.097371    0.114265
     12          1           0        1.171909   -1.311731    1.501660
     13          1           0       -1.940681   -2.589840   -0.292429
     14          1           0        3.222989   -1.031702   -0.269764
     15          1           0       -4.094771   -1.270429   -0.161404
     16          7           0        0.578838    1.150309    0.148929
     17          8           0        0.716919    2.468549   -0.229379
     18          8           0        2.625219   -1.750682    0.058406
     19          8           0        0.390676   -1.563211   -0.316055
     20          8           0        2.786290    0.874988   -0.221546
 ---------------------------------------------------------------------

 SCF Done:  E(RHF) =  -661.592677871     A.U. after    2 cycles

 The electronic state is 1-A.
 Alpha  occ. eigenvalues --  -20.62352 -20.59854 -20.57248 -20.56286 -15.62456
 Alpha  occ. eigenvalues --  -11.39830 -11.39029 -11.32832 -11.31722 -11.27918
 Alpha  occ. eigenvalues --  -11.26354 -11.26184 -11.26035  -1.56510  -1.54620
 Alpha  occ. eigenvalues --   -1.49529  -1.45975  -1.25469  -1.17226  -1.05421
 Alpha  occ. eigenvalues --   -1.04256  -0.96527  -0.92206  -0.88008  -0.81812
 Alpha  occ. eigenvalues --   -0.80605  -0.76103  -0.74419  -0.71469  -0.70626
 Alpha  occ. eigenvalues --   -0.67967  -0.67265  -0.65974  -0.63801  -0.61927
 Alpha  occ. eigenvalues --   -0.60370  -0.58503  -0.55437  -0.55060  -0.54484
 Alpha  occ. eigenvalues --   -0.53090  -0.51115  -0.49294  -0.46454  -0.45167
 Alpha  occ. eigenvalues --   -0.36015  -0.34224
 Alpha virt. eigenvalues --    0.03067   0.03547   0.03743   0.04902   0.05472
 Alpha virt. eigenvalues --    0.05769   0.06958   0.07969   0.08566   0.09094
 Alpha virt. eigenvalues --    0.09579   0.10073   0.11497   0.12750   0.12967

 Mulliken charges:
               1
     1  C    1.913579
     2  C    1.464197
     3  C    0.148025
     4  C    0.455901
     5  C    0.086605
     6  C    0.666590
     7  C   -0.997593
     8  C    0.487596
     9  H    0.438010
    10  H   -0.142524
    11  H   -0.204783
    12  H    0.228241
    13  H   -0.253642
    14  H    0.295497
    15  H   -0.208910
    16  N    1.948455
    17  O   -1.521518
    18  O   -1.362768
    19  O   -2.019914
    20  O   -1.421044
 Sum of Mulliken charges =   0.00000

 Dipole moment (field-independent basis, Debye):
    X=             -2.5962    Y=              0.9213    Z=              1.1958  Tot=              3.0031

 Test job not archived.
 1\1\GINC-SE455\SP\RHF\Aug-CC-pVDZ\C8H7N1O4\OHZDE\08-Apr-2025\0\\#t hf
 aug-cc-pvdz iop(5/13=1,5/36=2,99/5=2) pseudo=read geom=check guess=(re
 ad,tcheck) scf=(maxcycle=1)\\title\\0,1\C,0,1.46701,-1.09732,0.47217\C
 ,0,-0.741338,-0.818631,-0.149731\C,0,-1.95577,-1.50581,-0.157268\C,0,-
 3.12617,-0.777703,-0.0797259\C,0,-3.12372,0.596356,0.0817777\C,0,-1.89
 433,1.27549,0.224461\C,0,-0.713506,0.552722,0.0635993\C,0,1.70199,0.41
 3917,0.135955\H,0,1.70688,2.60716,-0.305083\H,0,-1.8586,2.37575,0.4914
 19\H,0,-4.09741,1.09737,0.114265\H,0,1.17191,-1.31173,1.50166\H,0,-1.9

 Normal termination of Gaussian 16 at Tue Apr  8 20:27:50 2025.
