 Gaussian 16, Revision C.01,

 ----------------------------------------------------------------------
 #t hf aug-cc-pvdz symm=none int=(grid=ultrafine) guess=(read,tcheck) s
 table=(opt,rrhf)
 ----------------------------------------------------------------------
 -----
 title
 -----
 Symbolic Z-matrix:
 Charge =  0 Multiplicity = 1

 SCF Done:  E(RHF) =  -488.003656346     A.U. after   14 cycles
 Normal termination of Gaussian 16 at Tue Apr  8 21:55:41 2025.
 Gaussian 16:  ES64L-G16RevC.01  3-Jul-2019

 ----------------------------------------------------------------------
 #t hf aug-cc-pvdz iop(5/13=1,5/36=2,99/5=2) pseudo=read geom=check gue
 ss=(read,tcheck) scf=(maxcycle=1)
 ----------------------------------------------------------------------
 -----
 title
 -----
 Structure from the checkpoint file:  "ANI1ccx_796_conf1_mol2.chk"
 Charge =  0 Multiplicity = 1

                         Standard orientation:
 ---------------------------------------------------------------------
 Center     Atomic      Atomic             Coordinates (Angstroms)
 Number     Number       Type             X           Y           Z
 ---------------------------------------------------------------------
      1          6           0        1.328860   -0.008507    0.009383
      2          6           0       -0.807771   -0.749965    0.021021
      3          6           0       -0.764705    0.771599    0.010081
      4          8           0        2.496800   -0.019894   -0.027134
      5          8           0        0.514477   -1.138261   -0.004448
      6          8           0       -1.712221   -1.504740   -0.004541
      7          8           0       -1.671930    1.534670   -0.030640
      8          8           0        0.555586    1.118379    0.036399
 ---------------------------------------------------------------------

 SCF Done:  E(RHF) =  -488.462767001     A.U. after    2 cycles

 The electronic state is 1-A.
 Alpha  occ. eigenvalues --  -20.70206 -20.69470 -20.63210 -20.63145 -20.61468
 Alpha  occ. eigenvalues --  -11.52086 -11.48217 -11.47958  -1.70536  -1.61308
 Alpha  occ. eigenvalues --   -1.58839  -1.55102  -1.54084  -1.04983  -0.96072
 Alpha  occ. eigenvalues --   -0.93448  -0.79250  -0.78621  -0.75020  -0.73841
 Alpha  occ. eigenvalues --   -0.71342  -0.67565  -0.66061  -0.64668  -0.59730
 Alpha  occ. eigenvalues --   -0.54728  -0.53602  -0.53169  -0.50588
 Alpha virt. eigenvalues --    0.01225   0.05468   0.06521   0.06879   0.07664
 Alpha virt. eigenvalues --    0.10321   0.10559   0.10840   0.10994   0.11365
 Alpha virt. eigenvalues --    0.14100   0.14650   0.17285   0.18055   0.21124

 Mulliken charges:
               1
     1  C    2.224911
     2  C    1.674451
     3  C    1.704894
     4  O   -1.054771
     5  O   -1.175266
     6  O   -1.111303
     7  O   -1.113823
     8  O   -1.149092
 Sum of Mulliken charges =  -0.00000

 Dipole moment (field-independent basis, Debye):
    X=              0.1710    Y=              0.0945    Z=              0.1679  Tot=              0.2576

 Test job not archived.
 1\1\GINC-SE058\SP\RHF\Aug-CC-pVDZ\C3O5\OHZDE\08-Apr-2025\0\\#t hf aug-
 cc-pvdz iop(5/13=1,5/36=2,99/5=2) pseudo=read geom=check guess=(read,t
 check) scf=(maxcycle=1)\\title\\0,1\C,0,1.32886,-0.00850596,0.00938314
 \C,0,-0.807771,-0.749965,0.0210214\C,0,-0.764705,0.771599,0.0100806\O,
 0,2.4968,-0.0198928,-0.0271339\O,0,0.514478,-1.13826,-0.00444846\O,0,-
 1.71222,-1.50474,-0.00454076\O,0,-1.67193,1.53467,-0.0306401\O,0,0.555
 586,1.11838,0.0363992\\Version=ES64L-G16RevC.01\State=1-A\HF=-488.4627
 67\RMSD=1.293e-02\Dipole=0.0672721,0.0371713,0.0660483\Quadrupole=-5.2

 Normal termination of Gaussian 16 at Tue Apr  8 21:55:44 2025.
