 Gaussian 16, Revision C.01,

 ----------------------------------------------------------------------
 #t hf aug-cc-pvdz symm=none int=(grid=ultrafine) guess=(read,tcheck) s
 table=(opt,rrhf)
 ----------------------------------------------------------------------
 -----
 title
 -----
 Symbolic Z-matrix:
 Charge =  0 Multiplicity = 1

 SCF Done:  E(RHF) =  -509.550197096     A.U. after   14 cycles
 Normal termination of Gaussian 16 at Tue Apr  8 22:12:04 2025.
 Gaussian 16:  ES64L-G16RevC.01  3-Jul-2019

 ----------------------------------------------------------------------
 #t hf aug-cc-pvdz iop(5/13=1,5/36=2,99/5=2) pseudo=read geom=check gue
 ss=(read,tcheck) scf=(maxcycle=1)
 ----------------------------------------------------------------------
 -----
 title
 -----
 Structure from the checkpoint file:  "ANI1ccx_939_conf3_mol1.chk"
 Charge =  0 Multiplicity = 1

                         Standard orientation:
 ---------------------------------------------------------------------
 Center     Atomic      Atomic             Coordinates (Angstroms)
 Number     Number       Type             X           Y           Z
 ---------------------------------------------------------------------
      1          6           0        0.769214   -0.577839   -0.762241
      2          6           0        1.316681    0.604978    0.004665
      3          6           0       -0.712943   -0.490555   -1.078259
      4          6           0       -1.604820   -0.067076    0.058710
      5          1           0        1.700188   -2.379022   -0.513412
      6          1           0        1.543269   -1.473882    0.885037
      7          1           0        1.357450   -0.660117   -1.650539
      8          1           0       -0.882860    0.263870   -1.864469
      9          1           0       -1.091521   -1.437449   -1.452839
     10          1           0       -1.977160   -0.360079    1.873441
     11          1           0        1.189403    2.463238   -0.048096
     12          7           0        1.109379   -1.741362    0.005964
     13          8           0        2.118841    0.562739    0.914143
     14          8           0       -2.542769    0.681970   -0.036812
     15          8           0       -1.272890   -0.592318    1.212691
     16          8           0        0.670168    1.717099   -0.416036
 ---------------------------------------------------------------------

 SCF Done:  E(RHF) =  -510.057528009     A.U. after    2 cycles

 The electronic state is 1-A.
 Alpha  occ. eigenvalues --  -20.62002 -20.60226 -20.56056 -20.52874 -15.48472
 Alpha  occ. eigenvalues --  -11.41116 -11.39008 -11.29646 -11.26223  -1.56359
 Alpha  occ. eigenvalues --   -1.56112  -1.47175  -1.44733  -1.21448  -1.06448
 Alpha  occ. eigenvalues --   -0.96011  -0.85334  -0.81108  -0.75561  -0.73230
 Alpha  occ. eigenvalues --   -0.71831  -0.69197  -0.67581  -0.66380  -0.64552
 Alpha  occ. eigenvalues --   -0.60828  -0.59479  -0.58540  -0.56942  -0.54375
 Alpha  occ. eigenvalues --   -0.49568  -0.47078  -0.46347  -0.44902  -0.43056
 Alpha virt. eigenvalues --    0.02961   0.03835   0.04254   0.05015   0.05276
 Alpha virt. eigenvalues --    0.06529   0.07473   0.09308   0.10607   0.11384
 Alpha virt. eigenvalues --    0.12437   0.13246   0.13865   0.14000   0.14990

 Mulliken charges:
               1
     1  C   -1.969551
     2  C    2.649504
     3  C   -0.343656
     4  C    2.301740
     5  H    0.226163
     6  H    0.178127
     7  H    0.134431
     8  H    0.279760
     9  H    0.234852
    10  H    0.373240
    11  H    0.394695
    12  N    0.746708
    13  O   -1.331128
    14  O   -1.324558
    15  O   -1.255986
    16  O   -1.294341
 Sum of Mulliken charges =  -0.00000

 Dipole moment (field-independent basis, Debye):
    X=              1.7251    Y=             -0.4521    Z=             -1.3850  Tot=              2.2580

 Test job not archived.
 1\1\GINC-SE132\SP\RHF\Aug-CC-pVDZ\C4H7N1O4\OHZDE\08-Apr-2025\0\\#t hf
 aug-cc-pvdz iop(5/13=1,5/36=2,99/5=2) pseudo=read geom=check guess=(re
 ad,tcheck) scf=(maxcycle=1)\\title\\0,1\C,0,0.769214,-0.577838,-0.7622
 42\C,0,1.31668,0.60498,0.00466382\C,0,-0.712943,-0.490555,-1.07826\C,0
 ,-1.60482,-0.0670775,0.0587091\H,0,1.70019,-2.37902,-0.513413\H,0,1.54
 327,-1.47388,0.885036\H,0,1.35745,-0.660115,-1.65054\H,0,-0.882861,0.2
 6387,-1.86447\H,0,-1.09152,-1.43745,-1.45284\H,0,-1.97716,-0.360081,1.
 87344\H,0,1.1894,2.46324,-0.0480969\N,0,1.10938,-1.74136,0.00596327\O,

 Normal termination of Gaussian 16 at Tue Apr  8 22:12:12 2025.
