 Gaussian 16, Revision C.01,

 ----------------------------------------------------------------------
 #t hf aug-cc-pvdz symm=none int=(grid=ultrafine) guess=(read,tcheck) s
 table=(opt,rrhf)
 ----------------------------------------------------------------------
 -----
 title
 -----
 Symbolic Z-matrix:
 Charge =  0 Multiplicity = 1

 SCF Done:  E(RHF) =  -809.795887775     A.U. after   14 cycles
 Normal termination of Gaussian 16 at Tue Apr  8 20:33:33 2025.
 Gaussian 16:  ES64L-G16RevC.01  3-Jul-2019

 ----------------------------------------------------------------------
 #t hf aug-cc-pvdz iop(5/13=1,5/36=2,99/5=2) pseudo=read geom=check gue
 ss=(read,tcheck) scf=(maxcycle=1)
 ----------------------------------------------------------------------
 -----
 title
 -----
 Structure from the checkpoint file:  "ANI1ccx_1634_conf1_mol2.chk"
 Charge =  0 Multiplicity = 1

                         Standard orientation:
 ---------------------------------------------------------------------
 Center     Atomic      Atomic             Coordinates (Angstroms)
 Number     Number       Type             X           Y           Z
 ---------------------------------------------------------------------
      1          6           0        2.900580    1.032857   -0.517313
      2          6           0        2.327369   -0.378319   -0.341409
      3          6           0        0.188863   -1.633251   -0.287212
      4          6           0       -1.145832   -1.590470   -1.025370
      5          6           0        0.065123   -1.957391    1.191560
      6          6           0       -0.144506   -0.856101    2.171360
      7          6           0       -1.277441    0.132073    1.902210
      8          6           0       -1.359180    1.791780    0.027141
      9          1           0       -2.076712   -0.706347   -2.388360
     10          1           0       -3.174070    2.275511   -0.778512
     11          1           0       -3.192840    1.948211    0.853271
     12          1           0       -1.210649    2.534790   -1.673520
     13          1           0        0.200370    1.531919    1.267200
     14          1           0       -1.572361    0.544282    2.874680
     15          1           0       -2.161021   -0.295153    1.476180
     16          1           0       -0.381050   -1.298171    3.140900
     17          1           0        0.780103   -0.271085    2.312840
     18          1           0       -0.701713   -2.735581    1.269070
     19          1           0        1.032377   -2.374682    1.470250
     20          1           0        0.706652   -2.478632   -0.794143
     21          1           0        0.467945    0.177248   -1.322180
     22          1           0        3.060880    1.116017   -1.600680
     23          1           0        3.883980    0.977089   -0.076605
     24          1           0        1.335071    2.319868   -0.452314
     25          1           0        2.749981    2.925727    0.137757
     26          7           0        2.146320    2.117207    0.138391
     27          7           0        0.987349   -0.436208   -0.597969
     28          7           0       -0.800490    1.274779    1.161040
     29          7           0       -0.587662    2.312439   -0.887536
     30          7           0       -2.787840    1.699041   -0.054872
     31          8           0        3.030828   -1.294573    0.021040
     32          8           0       -2.092443   -2.295450   -0.814533
     33          8           0       -1.160952   -0.686087   -2.050880
 ---------------------------------------------------------------------

 SCF Done:  E(RHF) =  -810.619828354     A.U. after    2 cycles

 The electronic state is 1-A.
 Alpha  occ. eigenvalues --  -20.61403 -20.55191 -20.50802 -15.53820 -15.51742
 Alpha  occ. eigenvalues --  -15.51162 -15.47878 -15.46804 -11.40807 -11.36526
 Alpha  occ. eigenvalues --  -11.34815 -11.29819 -11.27122 -11.25767 -11.23737
 Alpha  occ. eigenvalues --  -11.23395  -1.56206  -1.46648  -1.45797  -1.30107
 Alpha  occ. eigenvalues --   -1.23495  -1.19797  -1.17225  -1.15431  -1.08818
 Alpha  occ. eigenvalues --   -1.02380  -0.95508  -0.93401  -0.85804  -0.84180
 Alpha  occ. eigenvalues --   -0.81450  -0.78407  -0.74921  -0.74123  -0.72928
 Alpha  occ. eigenvalues --   -0.71580  -0.69361  -0.69276  -0.68090  -0.66470
 Alpha  occ. eigenvalues --   -0.65302  -0.65071  -0.63727  -0.62641  -0.61541
 Alpha  occ. eigenvalues --   -0.61156  -0.58563  -0.58236  -0.57265  -0.54753
 Alpha  occ. eigenvalues --   -0.53647  -0.51490  -0.50879  -0.49716  -0.49152
 Alpha  occ. eigenvalues --   -0.48200  -0.46224  -0.45432  -0.45012  -0.41407
 Alpha  occ. eigenvalues --   -0.40253  -0.39162
 Alpha virt. eigenvalues --    0.02258   0.03421   0.03938   0.04211   0.04407
 Alpha virt. eigenvalues --    0.04694   0.05019   0.05399   0.05790   0.07641
 Alpha virt. eigenvalues --    0.07739   0.08206   0.08751   0.09078   0.09327

 Mulliken charges:
               1
     1  C   -0.578349
     2  C    0.789126
     3  C   -2.101547
     4  C    3.138915
     5  C   -0.023130
     6  C   -0.415850
     7  C   -0.398130
     8  C   -3.344926
     9  H    0.415154
    10  H    0.107495
    11  H    0.206410
    12  H    0.052317
    13  H    0.306636
    14  H   -0.033160
    15  H   -0.035195
    16  H    0.126509
    17  H    0.083397
    18  H    0.124164
    19  H    0.258675
    20  H    0.223055
    21  H    0.356889
    22  H    0.232853
    23  H    0.022939
    24  H   -0.084075
    25  H    0.290380
    26  N    0.125309
    27  N    1.594623
    28  N    1.237694
    29  N    1.243929
    30  N    0.584617
    31  O   -1.484921
    32  O   -1.494611
    33  O   -1.527194
 Sum of Mulliken charges =  -0.00000

 Dipole moment (field-independent basis, Debye):
    X=             -3.9787    Y=              3.1017    Z=             -0.5803  Tot=              5.0782

 Test job not archived.
 1\1\GINC-SE044\SP\RHF\Aug-CC-pVDZ\C8H17N5O3\OHZDE\08-Apr-2025\0\\#t hf
  aug-cc-pvdz iop(5/13=1,5/36=2,99/5=2) pseudo=read geom=check guess=(r
 ead,tcheck) scf=(maxcycle=1)\\title\\0,1\C,0,2.90058,1.03286,-0.517313
 \C,0,2.32737,-0.378316,-0.341409\C,0,0.188865,-1.63325,-0.287212\C,0,-
 1.14583,-1.59047,-1.02537\C,0,0.0651259,-1.95739,1.19156\C,0,-0.144504
 ,-0.8561,2.17136\C,0,-1.27744,0.132073,1.90221\C,0,-1.35918,1.79178,0.
 0271418\H,0,-2.07671,-0.706347,-2.38836\H,0,-3.17407,2.27551,-0.778512
 \H,0,-3.19284,1.94821,0.853271\H,0,-1.21065,2.53479,-1.67352\H,0,0.200

 Normal termination of Gaussian 16 at Tue Apr  8 20:34:23 2025.
