 Gaussian 16, Revision C.01,

 ----------------------------------------------------------------------
 #t hf aug-cc-pvdz symm=none int=(grid=ultrafine) guess=(read,tcheck) s
 table=(opt,rrhf)
 ----------------------------------------------------------------------
 -----
 title
 -----
 Symbolic Z-matrix:
 Charge =  0 Multiplicity = 1

 SCF Done:  E(RHF) =  -689.302737940     A.U. after   15 cycles
 Normal termination of Gaussian 16 at Tue Apr  8 21:55:00 2025.
 Gaussian 16:  ES64L-G16RevC.01  3-Jul-2019

 ----------------------------------------------------------------------
 #t hf aug-cc-pvdz iop(5/13=1,5/36=2,99/5=2) pseudo=read geom=check gue
 ss=(read,tcheck) scf=(maxcycle=1)
 ----------------------------------------------------------------------
 -----
 title
 -----
 Structure from the checkpoint file:  "ANI1ccx_756_conf7_mol1.chk"
 Charge =  0 Multiplicity = 1

                         Standard orientation:
 ---------------------------------------------------------------------
 Center     Atomic      Atomic             Coordinates (Angstroms)
 Number     Number       Type             X           Y           Z
 ---------------------------------------------------------------------
      1          6           0       -2.714811   -0.165223   -0.189138
      2          6           0        0.180157    1.572510    0.561286
      3          6           0        1.877559    0.177695    0.001150
      4          1           0        3.969899    0.884963    0.498860
      5          1           0       -0.211940    2.446069    1.102330
      6          1           0       -0.228698    0.259385   -0.965391
      7          1           0        3.241050   -1.606389   -0.607632
      8          1           0       -2.643130   -2.051602    0.376313
      9          1           0       -0.167888   -1.292981    0.556620
     10          1           0       -2.446412    1.629558   -1.102370
     11          7           0       -2.034170   -1.261122    0.256145
     12          7           0       -2.035961    1.089498   -0.313422
     13          7           0       -0.670053    1.000099   -0.393750
     14          7           0        1.414729    1.248640    0.726056
     15          7           0        3.203859    0.289467   -0.227332
     16          8           0        1.293430   -0.854907   -0.405221
     17          8           0       -1.009940   -1.273911    1.165100
     18          8           0       -3.834891   -0.209729   -0.597375
     19          8           0        3.961510   -0.954576   -0.466556
 ---------------------------------------------------------------------

 SCF Done:  E(RHF) =  -689.981458960     A.U. after    2 cycles

 The electronic state is 1-A.
 Alpha  occ. eigenvalues --  -20.61099 -20.60361 -20.56152 -20.52672 -15.61190
 Alpha  occ. eigenvalues --  -15.58931 -15.58508 -15.58311 -15.52698 -11.42529
 Alpha  occ. eigenvalues --  -11.40383 -11.39013  -1.52758  -1.51934  -1.49699
 Alpha  occ. eigenvalues --   -1.47106  -1.36429  -1.29356  -1.19668  -1.17778
 Alpha  occ. eigenvalues --   -1.12171  -0.95220  -0.90004  -0.85817  -0.82696
 Alpha  occ. eigenvalues --   -0.81112  -0.76960  -0.73870  -0.72618  -0.70641
 Alpha  occ. eigenvalues --   -0.69424  -0.67684  -0.65307  -0.63477  -0.61770
 Alpha  occ. eigenvalues --   -0.60860  -0.59364  -0.56700  -0.54434  -0.52264
 Alpha  occ. eigenvalues --   -0.49487  -0.48272  -0.47487  -0.44934  -0.44048
 Alpha  occ. eigenvalues --   -0.43150
 Alpha virt. eigenvalues --    0.02939   0.04074   0.04586   0.04815   0.04989
 Alpha virt. eigenvalues --    0.05763   0.06321   0.08073   0.08896   0.09502
 Alpha virt. eigenvalues --    0.10089   0.11764   0.12314   0.12753   0.13174

 Mulliken charges:
               1
     1  C    0.320039
     2  C   -1.011506
     3  C    0.011956
     4  H    0.333474
     5  H   -0.104938
     6  H    0.136805
     7  H    0.405794
     8  H    0.162002
     9  H    0.630461
    10  H    0.259329
    11  N    1.213731
    12  N   -0.177519
    13  N    0.788197
    14  N    1.036690
    15  N    0.999454
    16  O   -1.365171
    17  O   -1.418916
    18  O   -1.148719
    19  O   -1.071164
 Sum of Mulliken charges =  -0.00000

 Dipole moment (field-independent basis, Debye):
    X=              1.5887    Y=              1.5904    Z=              0.2100  Tot=              2.2578

 Test job not archived.
 1\1\GINC-SE073\SP\RHF\Aug-CC-pVDZ\C3H7N5O4\OHZDE\08-Apr-2025\0\\#t hf
 aug-cc-pvdz iop(5/13=1,5/36=2,99/5=2) pseudo=read geom=check guess=(re
 ad,tcheck) scf=(maxcycle=1)\\title\\0,1\C,0,-2.71481,-0.165221,-0.1891
 38\C,0,0.180159,1.57251,0.561286\C,0,1.87756,0.177695,0.00114999\H,0,3
 .9699,0.884962,0.49886\H,0,-0.211938,2.44607,1.10233\H,0,-0.228697,0.2
 59386,-0.965391\H,0,3.24105,-1.60639,-0.607632\H,0,-2.64313,-2.0516,0.
 376313\H,0,-0.167888,-1.29298,0.55662\H,0,-2.44641,1.62956,-1.10237\N,
 0,-2.03417,-1.26112,0.256145\N,0,-2.03596,1.0895,-0.313422\N,0,-0.6700

 Normal termination of Gaussian 16 at Tue Apr  8 21:55:12 2025.
