 Gaussian 16, Revision C.01,

 ----------------------------------------------------------------------
 #t hf aug-cc-pvdz symm=none int=(grid=ultrafine) guess=(read,tcheck) s
 table=(opt,rrhf)
 ----------------------------------------------------------------------
 -----
 title
 -----
 Symbolic Z-matrix:
 Charge =  0 Multiplicity = 1

 SCF Done:  E(RHF) =  -242.205235335     A.U. after   12 cycles
 Normal termination of Gaussian 16 at Tue Apr  8 21:13:23 2025.
 Gaussian 16:  ES64L-G16RevC.01  3-Jul-2019

 ----------------------------------------------------------------------
 #t hf aug-cc-pvdz iop(5/13=1,5/36=2,99/5=2) pseudo=read geom=check gue
 ss=(read,tcheck) scf=(maxcycle=1)
 ----------------------------------------------------------------------
 -----
 title
 -----
 Structure from the checkpoint file:  "ANI1ccx_1902_conf4_mol2.chk"
 Charge =  0 Multiplicity = 1

                         Standard orientation:
 ---------------------------------------------------------------------
 Center     Atomic      Atomic             Coordinates (Angstroms)
 Number     Number       Type             X           Y           Z
 ---------------------------------------------------------------------
      1          1           0       -1.641160    0.908412   -1.002430
      2          1           0       -2.199650    1.357320    0.407991
      3          1           0       -2.695600   -0.753176    0.954835
      4          1           0       -1.911200   -1.326520   -0.274357
      5          1           0        2.354160   -1.083609    0.746240
      6          1           0        1.010950    0.667992    0.439988
      7          1           0        2.609120    1.121641    0.537483
      8          7           0       -1.654230    0.604951   -0.026619
      9          7           0       -2.539680   -0.572364   -0.029979
     10          7           0        1.918530    0.648985   -0.040440
     11          8           0        2.300130   -0.707882   -0.141310
 ---------------------------------------------------------------------

 SCF Done:  E(RHF) =  -242.463709055     A.U. after    2 cycles

 The electronic state is 1-A.
 Alpha  occ. eigenvalues --  -20.57050 -15.53812 -15.52453 -15.51975  -1.47410
 Alpha  occ. eigenvalues --   -1.25405  -1.08342  -1.04149  -0.73715  -0.72388
 Alpha  occ. eigenvalues --   -0.71603  -0.65156  -0.61730  -0.58604  -0.58228
 Alpha  occ. eigenvalues --   -0.47362  -0.45561  -0.42173
 Alpha virt. eigenvalues --    0.02907   0.04574   0.05107   0.06183   0.06652
 Alpha virt. eigenvalues --    0.07243   0.08586   0.14447   0.14761   0.15837
 Alpha virt. eigenvalues --    0.17425   0.17761   0.18603   0.19076   0.19899

 Mulliken charges:
               1
     1  H    0.143702
     2  H    0.157664
     3  H    0.125727
     4  H    0.130028
     5  H    0.255838
     6  H    0.039276
     7  H    0.115572
     8  N   -0.334629
     9  N   -0.253881
    10  N    0.614819
    11  O   -0.994116
 Sum of Mulliken charges =  -0.00000

 Dipole moment (field-independent basis, Debye):
    X=             -0.6373    Y=              0.3862    Z=              3.3894  Tot=              3.4704

 Test job not archived.
 1\1\GINC-SE226\SP\RHF\Aug-CC-pVDZ\H7N3O1\OHZDE\08-Apr-2025\0\\#t hf au
 g-cc-pvdz iop(5/13=1,5/36=2,99/5=2) pseudo=read geom=check guess=(read
 ,tcheck) scf=(maxcycle=1)\\title\\0,1\H,0,-1.64116,0.908412,-1.00243\H
 ,0,-2.19965,1.35732,0.407991\H,0,-2.6956,-0.753176,0.954835\H,0,-1.911
 2,-1.32652,-0.274357\H,0,2.35416,-1.08361,0.74624\H,0,1.01095,0.667992
 ,0.439988\H,0,2.60912,1.12164,0.537483\N,0,-1.65423,0.604951,-0.026619
 5\N,0,-2.53968,-0.572364,-0.0299793\N,0,1.91853,0.648984,-0.0404403\O,
 0,2.30013,-0.707883,-0.14131\\Version=ES64L-G16RevC.01\State=1-A\HF=-2

 Normal termination of Gaussian 16 at Tue Apr  8 21:13:25 2025.
