 Gaussian 16, Revision C.01,

 ----------------------------------------------------------------------
 #t hf aug-cc-pvdz symm=none int=(grid=ultrafine) guess=(read,tcheck) s
 table=(opt,rrhf)
 ----------------------------------------------------------------------
 -----
 title
 -----
 Symbolic Z-matrix:
 Charge =  0 Multiplicity = 1

 SCF Done:  E(RHF) =  -471.592870755     A.U. after   14 cycles
 Normal termination of Gaussian 16 at Tue Apr  8 21:53:25 2025.
 Gaussian 16:  ES64L-G16RevC.01  3-Jul-2019

 ----------------------------------------------------------------------
 #t hf aug-cc-pvdz iop(5/13=1,5/36=2,99/5=2) pseudo=read geom=check gue
 ss=(read,tcheck) scf=(maxcycle=1)
 ----------------------------------------------------------------------
 -----
 title
 -----
 Structure from the checkpoint file:  "ANI1ccx_745_conf1_mol2.chk"
 Charge =  0 Multiplicity = 1

                         Standard orientation:
 ---------------------------------------------------------------------
 Center     Atomic      Atomic             Coordinates (Angstroms)
 Number     Number       Type             X           Y           Z
 ---------------------------------------------------------------------
      1          6           0        2.213490    0.081806    0.436197
      2          6           0        1.385131    1.045098   -0.401919
      3          6           0       -0.732976    0.149654   -0.027200
      4          1           0        1.422819   -1.591762   -0.101926
      5          1           0        1.946950    0.095751    1.521190
      6          1           0        3.275940    0.452941    0.392210
      7          1           0        1.662271    2.068878   -0.401297
      8          1           0        1.398460    0.633890   -1.431440
      9          1           0       -2.296469    1.359491    0.089713
     10          1           0       -2.410421   -1.342059   -0.200203
     11          7           0       -2.002300    0.416777    0.388086
     12          8           0        2.302269   -1.255542   -0.007078
     13          8           0        0.014243    1.250999   -0.027144
     14          8           0       -0.399688   -0.986553   -0.276938
     15          8           0       -2.938990   -0.540644   -0.017256
 ---------------------------------------------------------------------

 SCF Done:  E(RHF) =  -472.065376622     A.U. after    2 cycles

 The electronic state is 1-A.
 Alpha  occ. eigenvalues --  -20.62142 -20.60448 -20.55824 -20.53756 -15.59593
 Alpha  occ. eigenvalues --  -11.43809 -11.31859 -11.30339  -1.58967  -1.52484
 Alpha  occ. eigenvalues --   -1.48554  -1.44846  -1.19940  -1.03619  -0.91246
 Alpha  occ. eigenvalues --   -0.85639  -0.79298  -0.75586  -0.73491  -0.68794
 Alpha  occ. eigenvalues --   -0.67871  -0.66528  -0.62698  -0.60649  -0.59627
 Alpha  occ. eigenvalues --   -0.57165  -0.54805  -0.52852  -0.49329  -0.47388
 Alpha  occ. eigenvalues --   -0.44428  -0.43765
 Alpha virt. eigenvalues --    0.03124   0.04003   0.04533   0.05020   0.06012
 Alpha virt. eigenvalues --    0.06643   0.07889   0.10783   0.11381   0.12113
 Alpha virt. eigenvalues --    0.12947   0.14335   0.14840   0.15175   0.15933

 Mulliken charges:
               1
     1  C    0.532970
     2  C    0.433978
     3  C    1.026423
     4  H    0.453062
     5  H    0.164319
     6  H    0.116824
     7  H   -0.139633
     8  H    0.259762
     9  H    0.221410
    10  H    0.373243
    11  N    1.261929
    12  O   -1.182345
    13  O   -1.266790
    14  O   -1.138819
    15  O   -1.116333
 Sum of Mulliken charges =  -0.00000

 Dipole moment (field-independent basis, Debye):
    X=             -0.0059    Y=              2.7810    Z=             -0.6929  Tot=              2.8660

 Test job not archived.
 1\1\GINC-SE334\SP\RHF\Aug-CC-pVDZ\C3H7N1O4\OHZDE\08-Apr-2025\0\\#t hf
 aug-cc-pvdz iop(5/13=1,5/36=2,99/5=2) pseudo=read geom=check guess=(re
 ad,tcheck) scf=(maxcycle=1)\\title\\0,1\C,0,2.21349,0.0818083,0.436197
 \C,0,1.38513,1.0451,-0.401919\C,0,-0.732976,0.149655,-0.0272002\H,0,1.
 42282,-1.59176,-0.101926\H,0,1.94695,0.0957536,1.52119\H,0,3.27594,0.4
 52944,0.39221\H,0,1.66227,2.06888,-0.401297\H,0,1.39846,0.633892,-1.43
 144\H,0,-2.29647,1.35949,0.0897131\H,0,-2.41042,-1.34206,-0.200203\N,0
 ,-2.0023,0.416777,0.388086\O,0,2.30227,-1.25554,-0.00707776\O,0,0.0142

 Normal termination of Gaussian 16 at Tue Apr  8 21:53:30 2025.
