 Gaussian 16, Revision C.01,

 ----------------------------------------------------------------------
 #t hf aug-cc-pvdz symm=none int=(grid=ultrafine) guess=(read,tcheck) s
 table=(opt,rrhf)
 ----------------------------------------------------------------------
 -----
 title
 -----
 Symbolic Z-matrix:
 Charge =  0 Multiplicity = 1

 SCF Done:  E(RHF) =  -486.731087702     A.U. after   15 cycles
 Normal termination of Gaussian 16 at Tue Apr  8 19:18:19 2025.
 Gaussian 16:  ES64L-G16RevC.01  3-Jul-2019

 ----------------------------------------------------------------------
 #t hf aug-cc-pvdz iop(5/13=1,5/36=2,99/5=2) pseudo=read geom=check gue
 ss=(read,tcheck) scf=(maxcycle=1)
 ----------------------------------------------------------------------
 -----
 title
 -----
 Structure from the checkpoint file:  "ANI1ccx_1154_conf1_mol1.chk"
 Charge =  0 Multiplicity = 1

                         Standard orientation:
 ---------------------------------------------------------------------
 Center     Atomic      Atomic             Coordinates (Angstroms)
 Number     Number       Type             X           Y           Z
 ---------------------------------------------------------------------
      1          6           0        3.325370    0.032603    0.000895
      2          6           0        0.900756   -0.263962   -0.045912
      3          6           0        0.580824    1.048370    0.006825
      4          6           0       -0.851569    1.464680   -0.007059
      5          6           0       -1.394420   -0.833240   -0.049160
      6          1           0        0.146730   -2.098270   -0.557834
      7          1           0       -3.212130   -1.409641    0.238077
      8          1           0       -2.062149   -2.535751    0.658313
      9          1           0        1.346810    1.798370    0.160923
     10          1           0        2.167600   -1.592159    0.687649
     11          1           0        3.144210    0.772966   -0.806334
     12          1           0        4.203860   -0.538331   -0.319076
     13          1           0        3.456420    0.541549    0.981610
     14          7           0        2.156640   -0.841395    0.012053
     15          7           0       -1.809870    0.417124   -0.011737
     16          7           0       -2.346599   -1.839871   -0.034715
     17          7           0       -0.095998   -1.248200   -0.056762
     18          8           0       -1.235791    2.619620    0.020158
 ---------------------------------------------------------------------

 SCF Done:  E(RHF) =  -487.227442626     A.U. after    2 cycles

 The electronic state is 1-A.
 Alpha  occ. eigenvalues --  -20.48877 -15.57576 -15.54274 -15.54128 -15.48294
 Alpha  occ. eigenvalues --  -11.38467 -11.35194 -11.34115 -11.29298 -11.23427
 Alpha  occ. eigenvalues --   -1.43154  -1.35872  -1.27916  -1.22175  -1.18285
 Alpha  occ. eigenvalues --   -1.05337  -0.98363  -0.89929  -0.87723  -0.81577
 Alpha  occ. eigenvalues --   -0.79614  -0.72910  -0.71745  -0.70764  -0.68796
 Alpha  occ. eigenvalues --   -0.65226  -0.63707  -0.61323  -0.59465  -0.56620
 Alpha  occ. eigenvalues --   -0.55234  -0.53663  -0.48529  -0.48066  -0.41046
 Alpha  occ. eigenvalues --   -0.40049  -0.35344
 Alpha virt. eigenvalues --    0.01581   0.03031   0.03752   0.04242   0.04866
 Alpha virt. eigenvalues --    0.05579   0.06342   0.07930   0.08869   0.10241
 Alpha virt. eigenvalues --    0.10760   0.11387   0.11804   0.12038   0.12810

 Mulliken charges:
               1
     1  C   -0.333025
     2  C   -2.246149
     3  C    1.457946
     4  C    0.403071
     5  C   -1.514528
     6  H    0.184568
     7  H    0.251431
     8  H    0.197443
     9  H   -0.304857
    10  H    0.168969
    11  H    0.225342
    12  H    0.042874
    13  H    0.171270
    14  N    0.871799
    15  N    0.664463
    16  N    0.780998
    17  N    0.411274
    18  O   -1.432889
 Sum of Mulliken charges =  -0.00000

 Dipole moment (field-independent basis, Debye):
    X=              4.8194    Y=             -7.1360    Z=              1.4701  Tot=              8.7356

 Test job not archived.
 1\1\GINC-SE461\SP\RHF\Aug-CC-pVDZ\C5H8N4O1\OHZDE\08-Apr-2025\0\\#t hf
 aug-cc-pvdz iop(5/13=1,5/36=2,99/5=2) pseudo=read geom=check guess=(re
 ad,tcheck) scf=(maxcycle=1)\\title\\0,1\C,0,3.32537,0.0326019,0.000894
 62\C,0,0.900756,-0.263962,-0.0459118\C,0,0.580824,1.04837,0.00682534\C
 ,0,-0.851569,1.46468,-0.00705903\C,0,-1.39442,-0.83324,-0.0491604\H,0,
 0.146729,-2.09827,-0.557834\H,0,-3.21213,-1.40964,0.238077\H,0,-2.0621
 5,-2.53575,0.658313\H,0,1.34681,1.79837,0.160923\H,0,2.1676,-1.59216,0
 .687649\H,0,3.14421,0.772965,-0.806334\H,0,4.20386,-0.538332,-0.319076

 Normal termination of Gaussian 16 at Tue Apr  8 19:18:28 2025.
