 Gaussian 16, Revision C.01,

 ----------------------------------------------------------------------
 #t hf aug-cc-pvdz symm=none int=(grid=ultrafine) guess=(read,tcheck) s
 table=(opt,rrhf)
 ----------------------------------------------------------------------
 -----
 title
 -----
 Symbolic Z-matrix:
 Charge =  0 Multiplicity = 1

 SCF Done:  E(RHF) =  -456.234576004     A.U. after   11 cycles
 Normal termination of Gaussian 16 at Tue Apr  8 21:08:41 2025.
 Gaussian 16:  ES64L-G16RevC.01  3-Jul-2019

 ----------------------------------------------------------------------
 #t hf aug-cc-pvdz iop(5/13=1,5/36=2,99/5=2) pseudo=read geom=check gue
 ss=(read,tcheck) scf=(maxcycle=1)
 ----------------------------------------------------------------------
 -----
 title
 -----
 Structure from the checkpoint file:  "ANI1ccx_1844_conf452_mol1.chk"
 Charge =  0 Multiplicity = 1

                         Standard orientation:
 ---------------------------------------------------------------------
 Center     Atomic      Atomic             Coordinates (Angstroms)
 Number     Number       Type             X           Y           Z
 ---------------------------------------------------------------------
      1          1           0       -2.416561    0.961342    0.185183
      2          1           0       -0.326799    1.886441    0.304481
      3          1           0        1.134509    2.349631    1.243560
      4          1           0        3.208329    1.232101   -0.938581
      5          1           0        2.041929    1.052781   -0.057307
      6          1           0       -0.651985   -1.989879    1.678040
      7          1           0       -2.229001    2.552651   -0.175509
      8          1           0        0.348170   -1.664929    0.533238
      9          1           0        1.881729   -1.102689   -0.807017
     10          1           0        2.750389   -1.754929    0.137825
     11          1           0       -2.181721   -1.283259   -0.266343
     12          1           0       -2.719231   -0.415584   -1.485100
     13          8           0        2.783939    0.522028   -0.500838
     14          8           0        1.772779   -1.777419   -0.131767
     15          8           0        0.711746    2.004801    0.396634
     16          8           0       -0.628892   -1.912049    0.723377
     17          8           0       -1.761451    1.736151    0.104644
     18          8           0       -2.983091   -0.801470   -0.636108
 ---------------------------------------------------------------------

 SCF Done:  E(RHF) =  -456.707689098     A.U. after    2 cycles

 The electronic state is 1-A.
 Alpha  occ. eigenvalues --  -20.58907 -20.55274 -20.54789 -20.53739 -20.53445
 Alpha  occ. eigenvalues --  -20.52447  -1.46507  -1.44464  -1.42269  -1.41711
 Alpha  occ. eigenvalues --   -1.39521  -1.38816  -0.74530  -0.73132  -0.70345
 Alpha  occ. eigenvalues --   -0.69421  -0.69190  -0.66776  -0.61752  -0.59933
 Alpha  occ. eigenvalues --   -0.58668  -0.55829  -0.53545  -0.53027  -0.50157
 Alpha  occ. eigenvalues --   -0.48846  -0.48507  -0.48308  -0.47534  -0.46441
 Alpha virt. eigenvalues --    0.02941   0.03980   0.04778   0.05175   0.06399
 Alpha virt. eigenvalues --    0.06966   0.07909   0.08306   0.09820   0.10550
 Alpha virt. eigenvalues --    0.10670   0.11766   0.17867   0.19004   0.19345

 Mulliken charges:
               1
     1  H    0.593978
     2  H    1.041433
     3  H    0.396221
     4  H    0.346148
     5  H    0.821387
     6  H    0.367493
     7  H    0.389005
     8  H    0.908178
     9  H    0.550074
    10  H    0.467573
    11  H    0.638037
    12  H    0.407347
    13  O   -1.040916
    14  O   -1.214886
    15  O   -1.304715
    16  O   -1.169283
    17  O   -1.212531
    18  O   -0.984544
 Sum of Mulliken charges =  -0.00000

 Dipole moment (field-independent basis, Debye):
    X=              0.8972    Y=              3.8395    Z=              0.5708  Tot=              3.9840

 Test job not archived.
 1\1\GINC-SE184\SP\RHF\Aug-CC-pVDZ\H12O6\OHZDE\08-Apr-2025\0\\#t hf aug
 -cc-pvdz iop(5/13=1,5/36=2,99/5=2) pseudo=read geom=check guess=(read,
 tcheck) scf=(maxcycle=1)\\title\\0,1\H,0,-2.41656,0.961341,0.185183\H,
 0,-0.326798,1.88644,0.304481\H,0,1.13451,2.34963,1.24356\H,0,3.20833,1
 .2321,-0.938581\H,0,2.04193,1.05278,-0.0573064\H,0,-0.651984,-1.98988,
 1.67804\H,0,-2.229,2.55265,-0.175509\H,0,0.348171,-1.66493,0.533238\H,
 0,1.88173,-1.10269,-0.807017\H,0,2.75039,-1.75493,0.137825\H,0,-2.1817
 2,-1.28326,-0.266343\H,0,-2.71923,-0.415585,-1.4851\O,0,2.78394,0.5220

 Normal termination of Gaussian 16 at Tue Apr  8 21:08:47 2025.
