 Gaussian 16, Revision C.01,

 ----------------------------------------------------------------------
 #t hf aug-cc-pvdz symm=none int=(grid=ultrafine) guess=(read,tcheck) s
 table=(opt,rrhf)
 ----------------------------------------------------------------------
 -----
 title
 -----
 Symbolic Z-matrix:
 Charge =  0 Multiplicity = 1

 SCF Done:  E(RHF) =  -502.731676493     A.U. after   15 cycles
 Normal termination of Gaussian 16 at Tue Apr  8 22:13:28 2025.
 Gaussian 16:  ES64L-G16RevC.01  3-Jul-2019

 ----------------------------------------------------------------------
 #t hf aug-cc-pvdz iop(5/13=1,5/36=2,99/5=2) pseudo=read geom=check gue
 ss=(read,tcheck) scf=(maxcycle=1)
 ----------------------------------------------------------------------
 -----
 title
 -----
 Structure from the checkpoint file:  "ANI1ccx_948_conf1_mol1.chk"
 Charge =  0 Multiplicity = 1

                         Standard orientation:
 ---------------------------------------------------------------------
 Center     Atomic      Atomic             Coordinates (Angstroms)
 Number     Number       Type             X           Y           Z
 ---------------------------------------------------------------------
      1          6           0       -3.294260   -0.468182    0.076062
      2          6           0       -0.968323    0.390786   -0.013221
      3          6           0        1.923669   -1.521831    0.069921
      4          6           0        1.517540    0.498476    0.003400
      5          1           0        2.287140    2.372639    0.132446
      6          1           0        0.492361    2.255780    0.165674
      7          1           0       -1.476311   -1.526840    0.174732
      8          1           0        2.415359   -2.474911    0.152722
      9          1           0       -3.494930    0.601130    0.133364
     10          1           0       -3.645251   -0.960773    0.992118
     11          1           0       -3.822971   -0.891463   -0.796532
     12          7           0        1.453400    1.862769   -0.082050
     13          7           0       -1.861291   -0.635523   -0.130429
     14          7           0        0.366952   -0.172293   -0.112174
     15          7           0        0.637024   -1.521660   -0.075321
     16          7           0        2.545270   -0.329639    0.081493
     17          8           0       -1.227080    1.600420    0.057235
 ---------------------------------------------------------------------

 SCF Done:  E(RHF) =  -503.240697743     A.U. after    2 cycles

 The electronic state is 1-A.
 Alpha  occ. eigenvalues --  -20.55099 -15.59266 -15.54449 -15.53195 -15.52910
 Alpha  occ. eigenvalues --  -15.49335 -11.43220 -11.36973 -11.30764 -11.28493
 Alpha  occ. eigenvalues --   -1.49523  -1.42649  -1.27488  -1.24316  -1.21593
 Alpha  occ. eigenvalues --   -1.13064  -1.00539  -0.90875  -0.89179  -0.83893
 Alpha  occ. eigenvalues --   -0.80925  -0.73992  -0.72694  -0.71330  -0.68414
 Alpha  occ. eigenvalues --   -0.67130  -0.64452  -0.63147  -0.58039  -0.57332
 Alpha  occ. eigenvalues --   -0.55654  -0.53906  -0.50636  -0.48439  -0.46783
 Alpha  occ. eigenvalues --   -0.44642  -0.39509
 Alpha virt. eigenvalues --    0.03112   0.04120   0.04608   0.04937   0.05320
 Alpha virt. eigenvalues --    0.06853   0.08166   0.08469   0.08927   0.10363
 Alpha virt. eigenvalues --    0.10695   0.11010   0.11801   0.13529   0.13763

 Mulliken charges:
               1
     1  C   -0.323833
     2  C    0.325579
     3  C   -0.254883
     4  C   -1.701680
     5  H    0.135068
     6  H    0.274054
     7  H    0.255297
     8  H   -0.109015
     9  H    0.038538
    10  H    0.134667
    11  H    0.197257
    12  N    0.730793
    13  N    0.389301
    14  N    0.274655
    15  N    0.067349
    16  N    0.869787
    17  O   -1.302936
 Sum of Mulliken charges =  -0.00000

 Dipole moment (field-independent basis, Debye):
    X=             -1.7715    Y=             -0.4388    Z=              1.4255  Tot=              2.3158

 Test job not archived.
 1\1\GINC-SE087\SP\RHF\Aug-CC-pVDZ\C4H7N5O1\OHZDE\08-Apr-2025\0\\#t hf
 aug-cc-pvdz iop(5/13=1,5/36=2,99/5=2) pseudo=read geom=check guess=(re
 ad,tcheck) scf=(maxcycle=1)\\title\\0,1\C,0,-3.29426,-0.468183,0.07606
 18\C,0,-0.968323,0.390786,-0.0132208\C,0,1.92367,-1.52183,0.0699205\C,
 0,1.51754,0.498477,0.00339955\H,0,2.28714,2.37264,0.132446\H,0,0.49236
 1,2.25578,0.165674\H,0,-1.47631,-1.52684,0.174732\H,0,2.41536,-2.47491
 ,0.152722\H,0,-3.49493,0.601129,0.133364\H,0,-3.64525,-0.960774,0.9921
 18\H,0,-3.82297,-0.891464,-0.796532\N,0,1.4534,1.86277,-0.0820502\N,0,

 Normal termination of Gaussian 16 at Tue Apr  8 22:13:37 2025.
