 Gaussian 16, Revision C.01,

 ----------------------------------------------------------------------
 #t hf aug-cc-pvdz symm=none int=(grid=ultrafine) guess=(read,tcheck) s
 table=(opt,rrhf)
 ----------------------------------------------------------------------
 -----
 title
 -----
 Symbolic Z-matrix:
 Charge =  0 Multiplicity = 1

 SCF Done:  E(RHF) =  -598.343639547     A.U. after   15 cycles
 Normal termination of Gaussian 16 at Tue Apr  8 19:28:09 2025.
 Gaussian 16:  ES64L-G16RevC.01  3-Jul-2019

 ----------------------------------------------------------------------
 #t hf aug-cc-pvdz iop(5/13=1,5/36=2,99/5=2) pseudo=read geom=check gue
 ss=(read,tcheck) scf=(maxcycle=1)
 ----------------------------------------------------------------------
 -----
 title
 -----
 Structure from the checkpoint file:  "ANI1ccx_1320_conf5_mol1.chk"
 Charge =  0 Multiplicity = 1

                         Standard orientation:
 ---------------------------------------------------------------------
 Center     Atomic      Atomic             Coordinates (Angstroms)
 Number     Number       Type             X           Y           Z
 ---------------------------------------------------------------------
      1          6           0       -1.618291   -2.161260    0.041842
      2          6           0        0.364022   -0.796935   -0.052616
      3          6           0        2.482869   -1.281262   -0.020199
      4          6           0        1.040800    0.400197   -0.032024
      5          6           0        0.345853    1.658759    0.023518
      6          6           0       -1.728770    0.303423   -0.026846
      7          1           0       -1.584029    2.368400   -0.043952
      8          1           0        3.099520    0.754397   -0.147125
      9          1           0        3.466279   -1.778093   -0.072427
     10          1           0       -2.682951   -1.958419    0.155557
     11          1           0       -1.392451   -2.771630    0.934838
     12          1           0       -1.408431   -2.755590   -0.882735
     13          7           0       -1.004630   -0.869793    0.064308
     14          7           0        1.293299   -1.829591    0.042707
     15          7           0        2.367490    0.099253   -0.041587
     16          7           0       -1.012079    1.524390    0.041268
     17          8           0        0.917196    2.741319    0.064139
     18          8           0       -2.957870    0.375380   -0.100774
 ---------------------------------------------------------------------

 SCF Done:  E(RHF) =  -598.935802745     A.U. after    2 cycles

 The electronic state is 1-A.
 Alpha  occ. eigenvalues --  -20.52953 -20.52665 -15.58938 -15.58019 -15.57205
 Alpha  occ. eigenvalues --  -15.52687 -11.42579 -11.38722 -11.35503 -11.33869
 Alpha  occ. eigenvalues --  -11.28678 -11.28467  -1.48593  -1.47023  -1.38012
 Alpha  occ. eigenvalues --   -1.32360  -1.26765  -1.20768  -1.08206  -1.00902
 Alpha  occ. eigenvalues --   -0.95452  -0.92429  -0.88430  -0.84972  -0.80553
 Alpha  occ. eigenvalues --   -0.74841  -0.72925  -0.71795  -0.68240  -0.67463
 Alpha  occ. eigenvalues --   -0.65590  -0.65177  -0.63304  -0.62056  -0.56939
 Alpha  occ. eigenvalues --   -0.55521  -0.52351  -0.50406  -0.47721  -0.46470
 Alpha  occ. eigenvalues --   -0.44427  -0.44296  -0.34535
 Alpha virt. eigenvalues --    0.02334   0.04048   0.04392   0.05225   0.05309
 Alpha virt. eigenvalues --    0.06295   0.06494   0.07455   0.09186   0.09377
 Alpha virt. eigenvalues --    0.09619   0.10600   0.11380   0.12433   0.12733

 Mulliken charges:
               1
     1  C   -0.193952
     2  C   -2.181288
     3  C   -0.662115
     4  C   -0.527264
     5  C    1.089304
     6  C    0.906642
     7  H    0.262452
     8  H    0.000086
     9  H   -0.002182
    10  H    0.035761
    11  H    0.210772
    12  H    0.232717
    13  N    1.022503
    14  N    1.014273
    15  N    0.954989
    16  N    0.698104
    17  O   -1.532958
    18  O   -1.327845
 Sum of Mulliken charges =  -0.00000

 Dipole moment (field-independent basis, Debye):
    X=              3.5198    Y=             -2.3343    Z=             -0.4241  Tot=              4.2448

 Test job not archived.
 1\1\GINC-SE186\SP\RHF\Aug-CC-pVDZ\C6H6N4O2\OHZDE\08-Apr-2025\0\\#t hf
 aug-cc-pvdz iop(5/13=1,5/36=2,99/5=2) pseudo=read geom=check guess=(re
 ad,tcheck) scf=(maxcycle=1)\\title\\0,1\C,0,-1.61829,-2.16126,0.041842
 2\C,0,0.364022,-0.796934,-0.0526156\C,0,2.48287,-1.28126,-0.0201988\C,
 0,1.0408,0.400198,-0.0320241\C,0,0.345852,1.65876,0.0235183\C,0,-1.728
 77,0.303423,-0.0268462\H,0,-1.58403,2.3684,-0.0439523\H,0,3.09952,0.75
 4399,-0.147125\H,0,3.46628,-1.77809,-0.0724273\H,0,-2.68295,-1.95842,0
 .155557\H,0,-1.39245,-2.77163,0.934838\H,0,-1.40843,-2.75559,-0.882735

 Normal termination of Gaussian 16 at Tue Apr  8 19:28:22 2025.
