 Gaussian 16, Revision C.01,

 ----------------------------------------------------------------------
 #t hf aug-cc-pvdz symm=none int=(grid=ultrafine) guess=(read,tcheck) s
 table=(opt,rrhf)
 ----------------------------------------------------------------------
 -----
 title
 -----
 Symbolic Z-matrix:
 Charge =  0 Multiplicity = 1

 SCF Done:  E(RHF) =  -923.182209509     A.U. after   15 cycles
 Normal termination of Gaussian 16 at Tue Apr  8 20:17:57 2025.
 Gaussian 16:  ES64L-G16RevC.01  3-Jul-2019

 ----------------------------------------------------------------------
 #t hf aug-cc-pvdz iop(5/13=1,5/36=2,99/5=2) pseudo=read geom=check gue
 ss=(read,tcheck) scf=(maxcycle=1)
 ----------------------------------------------------------------------
 -----
 title
 -----
 Structure from the checkpoint file:  "ANI1ccx_1584_conf24_mol1.chk"
 Charge =  0 Multiplicity = 1

                         Standard orientation:
 ---------------------------------------------------------------------
 Center     Atomic      Atomic             Coordinates (Angstroms)
 Number     Number       Type             X           Y           Z
 ---------------------------------------------------------------------
      1          6           0        1.403080   -0.344199    0.979638
      2          6           0        1.158360   -1.021400   -0.437406
      3          6           0        2.903460   -0.114573    1.050540
      4          6           0        3.334370    0.846298   -0.150013
      5          6           0       -1.210970   -0.368374   -0.344844
      6          6           0       -2.397571   -1.308769   -0.113615
      7          6           0       -1.657770    1.010281   -0.978898
      8          6           0       -2.312810    1.771461    0.163806
      9          1           0       -3.324331   -2.677819   -0.965642
     10          1           0       -3.322049    2.913571   -1.123500
     11          1           0       -3.433029    3.434121    0.614571
     12          1           0       -2.438640    1.011001   -1.682750
     13          1           0       -0.727441    1.517781   -1.361870
     14          1           0       -1.028800   -0.051518    0.640089
     15          1           0       -0.091971   -1.496320   -1.858850
     16          1           0        2.895581    2.154479   -1.220310
     17          1           0        3.225560    0.330250    1.967300
     18          1           0        3.416560   -1.068881    0.838843
     19          1           0        0.905338    0.603232    1.076190
     20          1           0        1.325009   -2.213310    1.864140
     21          1           0       -0.164621   -1.410980    1.848140
     22          7           0        0.862706   -1.325980    1.907370
     23          7           0       -0.071358   -1.024690   -0.953231
     24          7           0       -2.989059    2.903241   -0.172071
     25          8           0        2.078889   -1.691820   -0.860543
     26          8           0        4.489310    0.952812   -0.559097
     27          8           0        2.380110    1.678700   -0.534577
     28          8           0       -3.183230   -1.196789    0.774561
     29          8           0       -2.022850    1.366841    1.315480
     30          8           0       -2.388991   -2.326989   -1.026590
 ---------------------------------------------------------------------

 SCF Done:  E(RHF) =  -924.097339833     A.U. after    2 cycles

 The electronic state is 1-A.
 Alpha  occ. eigenvalues --  -20.62220 -20.61622 -20.56294 -20.53190 -20.53136
 Alpha  occ. eigenvalues --  -20.50889 -15.56810 -15.54359 -15.49700 -11.41440
 Alpha  occ. eigenvalues --  -11.39836 -11.38833 -11.35385 -11.31222 -11.28838
 Alpha  occ. eigenvalues --  -11.28381 -11.25409  -1.56742  -1.56386  -1.47904
 Alpha  occ. eigenvalues --   -1.46737  -1.46220  -1.43689  -1.27062  -1.25722
 Alpha  occ. eigenvalues --   -1.19669  -1.09427  -1.04437  -0.98539  -0.91188
 Alpha  occ. eigenvalues --   -0.85752  -0.84076  -0.83069  -0.80615  -0.78731
 Alpha  occ. eigenvalues --   -0.76440  -0.74035  -0.72711  -0.72320  -0.70760
 Alpha  occ. eigenvalues --   -0.69493  -0.67713  -0.67301  -0.65747  -0.65208
 Alpha  occ. eigenvalues --   -0.64435  -0.63940  -0.62567  -0.61363  -0.59737
 Alpha  occ. eigenvalues --   -0.58158  -0.56308  -0.56044  -0.55676  -0.54380
 Alpha  occ. eigenvalues --   -0.51877  -0.50002  -0.48140  -0.47070  -0.46629
 Alpha  occ. eigenvalues --   -0.45540  -0.43980  -0.43518  -0.42249  -0.39347
 Alpha virt. eigenvalues --    0.01188   0.02666   0.03441   0.04153   0.04963
 Alpha virt. eigenvalues --    0.05055   0.05482   0.06539   0.06808   0.07607
 Alpha virt. eigenvalues --    0.08112   0.08488   0.09652   0.10405   0.10879

 Mulliken charges:
               1
     1  C   -0.824795
     2  C    0.529035
     3  C   -0.598347
     4  C    2.417908
     5  C   -1.945961
     6  C    3.258680
     7  C   -0.270825
     8  C    0.289362
     9  H    0.422328
    10  H    0.159166
    11  H    0.169625
    12  H   -0.011083
    13  H    0.324263
    14  H    0.320573
    15  H    0.251798
    16  H    0.399921
    17  H    0.186994
    18  H    0.341066
    19  H   -0.022631
    20  H    0.189916
    21  H    0.124703
    22  N    0.799083
    23  N    1.091234
    24  N    0.792536
    25  O   -1.493525
    26  O   -1.399380
    27  O   -1.270770
    28  O   -1.348851
    29  O   -1.365857
    30  O   -1.516164
 Sum of Mulliken charges =  -0.00000

 Dipole moment (field-independent basis, Debye):
    X=             -6.8118    Y=              3.0820    Z=             -3.6604  Tot=              8.3245

 Test job not archived.
 1\1\GINC-SE342\SP\RHF\Aug-CC-pVDZ\C8H13N3O6\OHZDE\08-Apr-2025\0\\#t hf
  aug-cc-pvdz iop(5/13=1,5/36=2,99/5=2) pseudo=read geom=check guess=(r
 ead,tcheck) scf=(maxcycle=1)\\title\\0,1\C,0,1.40308,-0.344199,0.97963
 8\C,0,1.15836,-1.0214,-0.437406\C,0,2.90346,-0.114572,1.05054\C,0,3.33
 437,0.846299,-0.150013\C,0,-1.21097,-0.368375,-0.344844\C,0,-2.39757,-
 1.30877,-0.113615\C,0,-1.65777,1.01028,-0.978898\C,0,-2.31281,1.77146,
 0.163806\H,0,-3.32433,-2.67782,-0.965642\H,0,-3.32205,2.91357,-1.1235\
 H,0,-3.43303,3.43412,0.614571\H,0,-2.43864,1.011,-1.68275\H,0,-0.72744

 Normal termination of Gaussian 16 at Tue Apr  8 20:18:38 2025.
