 Gaussian 16, Revision C.01,

 ----------------------------------------------------------------------
 #t hf aug-cc-pvdz symm=none int=(grid=ultrafine) guess=(read,tcheck) s
 table=(opt,rrhf)
 ----------------------------------------------------------------------
 -----
 title
 -----
 Symbolic Z-matrix:
 Charge =  0 Multiplicity = 1

 SCF Done:  E(RHF) =  -601.809495263     A.U. after   17 cycles
 Normal termination of Gaussian 16 at Tue Apr  8 21:00:21 2025.
 Gaussian 16:  ES64L-G16RevC.01  3-Jul-2019

 ----------------------------------------------------------------------
 #t hf aug-cc-pvdz iop(5/13=1,5/36=2,99/5=2) pseudo=read geom=check gue
 ss=(read,tcheck) scf=(maxcycle=1)
 ----------------------------------------------------------------------
 -----
 title
 -----
 Structure from the checkpoint file:  "ANI1ccx_1803_conf2_mol1.chk"
 Charge =  0 Multiplicity = 1

                         Standard orientation:
 ---------------------------------------------------------------------
 Center     Atomic      Atomic             Coordinates (Angstroms)
 Number     Number       Type             X           Y           Z
 ---------------------------------------------------------------------
      1          6           0       -0.190307    1.543460   -0.012276
      2          6           0        0.849215    0.481750    0.006574
      3          6           0        2.180890    0.916795   -0.012614
      4          6           0        3.170390   -0.016331    0.033966
      5          6           0       -3.118450   -0.622218   -0.074273
      6          6           0        1.528321   -1.863760   -0.072559
      7          6           0        0.493518   -0.881988    0.042881
      8          6           0       -1.723260   -0.261589    0.033131
      9          6           0        2.790961   -1.377350    0.013610
     10          1           0        1.250301   -2.858540   -0.306878
     11          1           0        3.574971   -2.105260    0.044731
     12          1           0        4.264130    0.299361    0.046947
     13          1           0        2.361690    1.975280    0.031096
     14          7           0       -0.812359   -1.197211    0.015251
     15          7           0       -4.229850   -0.909556   -0.068894
     16          8           0       -0.033903    2.738500   -0.180667
     17          8           0       -1.471510    1.001989    0.281789
 ---------------------------------------------------------------------

 SCF Done:  E(RHF) =  -602.395170081     A.U. after    2 cycles

 The electronic state is 1-A.
 Alpha  occ. eigenvalues --  -20.66394 -20.57777 -15.56043 -15.55511 -11.44664
 Alpha  occ. eigenvalues --  -11.44160 -11.33168 -11.31940 -11.28998 -11.28524
 Alpha  occ. eigenvalues --  -11.28301 -11.28179 -11.27817  -1.61962  -1.50103
 Alpha  occ. eigenvalues --   -1.31127  -1.27303  -1.19545  -1.09491  -1.07962
 Alpha  occ. eigenvalues --   -0.99461  -0.95341  -0.88189  -0.85355  -0.81974
 Alpha  occ. eigenvalues --   -0.77879  -0.72554  -0.71862  -0.68936  -0.67641
 Alpha  occ. eigenvalues --   -0.66266  -0.64678  -0.63517  -0.59449  -0.58122
 Alpha  occ. eigenvalues --   -0.57446  -0.56335  -0.54841  -0.53855  -0.51308
 Alpha  occ. eigenvalues --   -0.49108  -0.48349  -0.39242  -0.35974
 Alpha virt. eigenvalues --   -0.00239   0.02373   0.03143   0.03968   0.04354
 Alpha virt. eigenvalues --    0.05837   0.06501   0.07637   0.08122   0.09067
 Alpha virt. eigenvalues --    0.09578   0.10307   0.10738   0.11041   0.11737

 Mulliken charges:
               1
     1  C    1.484619
     2  C    1.240552
     3  C    0.503039
     4  C   -0.241934
     5  C   -2.039561
     6  C    0.902711
     7  C   -1.931476
     8  C    0.738907
     9  C    0.683401
    10  H   -0.288131
    11  H   -0.238453
    12  H   -0.119484
    13  H   -0.316893
    14  N    1.514062
    15  N    1.068276
    16  O   -1.403822
    17  O   -1.555816
 Sum of Mulliken charges =  -0.00000

 Dipole moment (field-independent basis, Debye):
    X=              5.7416    Y=             -1.1709    Z=              0.0441  Tot=              5.8600

 Test job not archived.
 1\1\GINC-SE249\SP\RHF\Aug-CC-pVDZ\C9H4N2O2\OHZDE\08-Apr-2025\0\\#t hf
 aug-cc-pvdz iop(5/13=1,5/36=2,99/5=2) pseudo=read geom=check guess=(re
 ad,tcheck) scf=(maxcycle=1)\\title\\0,1\C,0,-0.190307,1.54346,-0.01227
 62\C,0,0.849215,0.48175,0.00657408\C,0,2.18089,0.916795,-0.0126138\C,0
 ,3.17039,-0.0163308,0.0339655\C,0,-3.11845,-0.622217,-0.0742729\C,0,1.
 52832,-1.86376,-0.0725588\C,0,0.493518,-0.881988,0.0428805\C,0,-1.7232
 6,-0.261588,0.0331305\C,0,2.79096,-1.37735,0.0136096\H,0,1.2503,-2.858
 54,-0.306878\H,0,3.57497,-2.10526,0.0447313\H,0,4.26413,0.299361,0.046

 Normal termination of Gaussian 16 at Tue Apr  8 21:00:34 2025.
