 Gaussian 16, Revision C.01,

 ----------------------------------------------------------------------
 #t hf aug-cc-pvdz symm=none int=(grid=ultrafine) guess=(read,tcheck) s
 table=(opt,rrhf)
 ----------------------------------------------------------------------
 -----
 title
 -----
 Symbolic Z-matrix:
 Charge =  0 Multiplicity = 1

 SCF Done:  E(RHF) =  -447.774944892     A.U. after   14 cycles
 Normal termination of Gaussian 16 at Tue Apr  8 21:48:30 2025.
 Gaussian 16:  ES64L-G16RevC.01  3-Jul-2019

 ----------------------------------------------------------------------
 #t hf aug-cc-pvdz iop(5/13=1,5/36=2,99/5=2) pseudo=read geom=check gue
 ss=(read,tcheck) scf=(maxcycle=1)
 ----------------------------------------------------------------------
 -----
 title
 -----
 Structure from the checkpoint file:  "ANI1ccx_586_conf7_mol1.chk"
 Charge =  0 Multiplicity = 1

                         Standard orientation:
 ---------------------------------------------------------------------
 Center     Atomic      Atomic             Coordinates (Angstroms)
 Number     Number       Type             X           Y           Z
 ---------------------------------------------------------------------
      1          6           0       -1.483090   -1.597272    0.526226
      2          6           0        0.290567    0.017877   -0.074735
      3          1           0       -1.594280   -1.319062    1.605540
      4          1           0       -0.814809   -2.449271    0.541464
      5          1           0       -2.406700   -1.947072    0.079212
      6          1           0       -2.806371    0.295536    0.158829
      7          1           0       -2.358871    0.406434   -1.414360
      8          1           0        1.010720   -1.628190   -0.967306
      9          1           0        2.514209    0.241953    0.152673
     10          1           0       -0.781914    2.159579    0.122467
     11          7           0       -1.041971   -0.427229   -0.240024
     12          7           0       -2.002251    0.610658   -0.445939
     13          7           0        1.145620   -1.111740   -0.087013
     14          7           0        0.846471    1.123690    0.117387
     15          8           0        2.515280   -0.721628   -0.136462
     16          8           0        0.204479    2.265229    0.336669
 ---------------------------------------------------------------------

 SCF Done:  E(RHF) =  -448.231966524     A.U. after    2 cycles

 The electronic state is 1-A.
 Alpha  occ. eigenvalues --  -20.57533 -20.56141 -15.57950 -15.56299 -15.56067
 Alpha  occ. eigenvalues --  -15.53736 -11.34413 -11.29446  -1.51370  -1.46828
 Alpha  occ. eigenvalues --   -1.33386  -1.21550  -1.12397  -1.08514  -0.97118
 Alpha  occ. eigenvalues --   -0.83339  -0.78652  -0.76580  -0.74458  -0.70004
 Alpha  occ. eigenvalues --   -0.68713  -0.63401  -0.62171  -0.60600  -0.59678
 Alpha  occ. eigenvalues --   -0.57321  -0.55651  -0.54434  -0.49063  -0.46386
 Alpha  occ. eigenvalues --   -0.41099  -0.37325
 Alpha virt. eigenvalues --    0.02095   0.03888   0.04281   0.04440   0.05569
 Alpha virt. eigenvalues --    0.06237   0.07165   0.07587   0.09914   0.11916
 Alpha virt. eigenvalues --    0.12933   0.14185   0.14428   0.15245   0.15498

 Mulliken charges:
               1
     1  C   -0.285586
     2  C   -1.805564
     3  H    0.288358
     4  H    0.026640
     5  H    0.101933
     6  H    0.254683
     7  H    0.317042
     8  H    0.307201
     9  H    0.481728
    10  H    0.412795
    11  N    0.129786
    12  N   -0.364080
    13  N    1.169633
    14  N    1.697891
    15  O   -1.245826
    16  O   -1.486634
 Sum of Mulliken charges =  -0.00000

 Dipole moment (field-independent basis, Debye):
    X=             -5.9995    Y=             -2.3857    Z=             -1.0881  Tot=              6.5475

 Test job not archived.
 1\1\GINC-SE229\SP\RHF\Aug-CC-pVDZ\C2H8N4O2\OHZDE\08-Apr-2025\0\\#t hf
 aug-cc-pvdz iop(5/13=1,5/36=2,99/5=2) pseudo=read geom=check guess=(re
 ad,tcheck) scf=(maxcycle=1)\\title\\0,1\C,0,-1.48309,-1.59727,0.526226
 \C,0,0.290568,0.0178776,-0.0747351\H,0,-1.59428,-1.31906,1.60554\H,0,-
 0.81481,-2.44927,0.541464\H,0,-2.4067,-1.94707,0.0792122\H,0,-2.80637,
 0.295538,0.158829\H,0,-2.35887,0.406436,-1.41436\H,0,1.01072,-1.62819,
 -0.967306\H,0,2.51421,0.241952,0.152673\H,0,-0.781912,2.15958,0.122467
 \N,0,-1.04197,-0.427228,-0.240024\N,0,-2.00225,0.61066,-0.445939\N,0,1

 Normal termination of Gaussian 16 at Tue Apr  8 21:48:36 2025.
