 Gaussian 16, Revision C.01,

 ----------------------------------------------------------------------
 #t hf aug-cc-pvdz symm=none int=(grid=ultrafine) guess=(read,tcheck) s
 table=(opt,rrhf)
 ----------------------------------------------------------------------
 -----
 title
 -----
 Symbolic Z-matrix:
 Charge =  0 Multiplicity = 1

 SCF Done:  E(RHF) =  -535.538235884     A.U. after   16 cycles
 Normal termination of Gaussian 16 at Tue Apr  8 22:08:20 2025.
 Gaussian 16:  ES64L-G16RevC.01  3-Jul-2019

 ----------------------------------------------------------------------
 #t hf aug-cc-pvdz iop(5/13=1,5/36=2,99/5=2) pseudo=read geom=check gue
 ss=(read,tcheck) scf=(maxcycle=1)
 ----------------------------------------------------------------------
 -----
 title
 -----
 Structure from the checkpoint file:  "ANI1ccx_911_conf4_mol2.chk"
 Charge =  0 Multiplicity = 1

                         Standard orientation:
 ---------------------------------------------------------------------
 Center     Atomic      Atomic             Coordinates (Angstroms)
 Number     Number       Type             X           Y           Z
 ---------------------------------------------------------------------
      1          6           0        1.649430   -0.519405   -0.020041
      2          6           0        0.258080    1.331711   -0.049249
      3          6           0       -0.872882    0.469319   -0.060951
      4          6           0       -2.260540    0.428281   -0.076402
      5          1           0        3.152959   -1.904029   -0.264905
      6          1           0        3.665030   -0.246906   -0.165226
      7          1           0        0.936422    3.156801    0.258898
      8          1           0       -0.813362    3.024651    0.215275
      9          1           0       -2.961500    1.260151   -0.110411
     10          7           0        2.963730   -0.940763    0.032223
     11          7           0        1.476380    0.856100   -0.004836
     12          7           0        0.107443    2.657301    0.018545
     13          7           0       -2.652340   -0.845930    0.015347
     14          7           0       -1.587760   -1.647639    0.044092
     15          7           0       -0.542805   -0.872551    0.033993
     16          7           0        0.717632   -1.427959    0.047239
 ---------------------------------------------------------------------

 SCF Done:  E(RHF) =  -536.073210532     A.U. after    2 cycles

 The electronic state is 1-A.
 Alpha  occ. eigenvalues --  -15.65252 -15.58171 -15.56123 -15.53786 -15.53384
 Alpha  occ. eigenvalues --  -15.53080 -15.51262 -11.38143 -11.37385 -11.30012
 Alpha  occ. eigenvalues --  -11.28988  -1.46792  -1.35132  -1.30461  -1.25033
 Alpha  occ. eigenvalues --   -1.19864  -1.14371  -1.13152  -0.95846  -0.94005
 Alpha  occ. eigenvalues --   -0.89916  -0.86180  -0.80129  -0.77361  -0.74380
 Alpha  occ. eigenvalues --   -0.73087  -0.71155  -0.69591  -0.67469  -0.63499
 Alpha  occ. eigenvalues --   -0.59517  -0.57384  -0.56538  -0.50818  -0.50078
 Alpha  occ. eigenvalues --   -0.49110  -0.46163  -0.40559  -0.38130
 Alpha virt. eigenvalues --    0.01917   0.03440   0.03877   0.04666   0.05623
 Alpha virt. eigenvalues --    0.06649   0.07957   0.08500   0.09801   0.10552
 Alpha virt. eigenvalues --    0.10833   0.11125   0.11974   0.12396   0.13624

 Mulliken charges:
               1
     1  C   -1.099779
     2  C   -1.895614
     3  C   -0.069336
     4  C    0.212828
     5  H    0.127468
     6  H    0.158414
     7  H    0.095167
     8  H    0.220719
     9  H   -0.158324
    10  N    0.626627
    11  N    0.756970
    12  N    0.885922
    13  N    0.250275
    14  N   -0.194893
    15  N   -0.615569
    16  N    0.699127
 Sum of Mulliken charges =   0.00000

 Dipole moment (field-independent basis, Debye):
    X=              2.8821    Y=              6.7251    Z=             -0.4718  Tot=              7.3319

 Test job not archived.
 1\1\GINC-SE364\SP\RHF\Aug-CC-pVDZ\C4H5N7\OHZDE\08-Apr-2025\0\\#t hf au
 g-cc-pvdz iop(5/13=1,5/36=2,99/5=2) pseudo=read geom=check guess=(read
 ,tcheck) scf=(maxcycle=1)\\title\\0,1\C,0,1.64943,-0.519406,-0.0200412
 \C,0,0.25808,1.33171,-0.0492485\C,0,-0.872882,0.469318,-0.060951\C,0,-
 2.26054,0.42828,-0.0764016\H,0,3.15296,-1.90403,-0.264905\H,0,3.66503,
 -0.246907,-0.165226\H,0,0.936422,3.1568,0.258898\H,0,-0.813362,3.02465
 ,0.215275\H,0,-2.9615,1.26015,-0.110411\N,0,2.96373,-0.940764,0.032223
 1\N,0,1.47638,0.856099,-0.00483635\N,0,0.107443,2.6573,0.0185447\N,0,-

 Normal termination of Gaussian 16 at Tue Apr  8 22:08:29 2025.
