 Gaussian 16, Revision C.01,

 ----------------------------------------------------------------------
 #t hf aug-cc-pvdz symm=none int=(grid=ultrafine) guess=(read,tcheck) s
 table=(opt,rrhf)
 ----------------------------------------------------------------------
 -----
 title
 -----
 Symbolic Z-matrix:
 Charge =  0 Multiplicity = 1

 SCF Done:  E(RHF) =  -453.851418748     A.U. after   14 cycles
 Normal termination of Gaussian 16 at Tue Apr  8 22:17:15 2025.
 Gaussian 16:  ES64L-G16RevC.01  3-Jul-2019

 ----------------------------------------------------------------------
 #t hf aug-cc-pvdz iop(5/13=1,5/36=2,99/5=2) pseudo=read geom=check gue
 ss=(read,tcheck) scf=(maxcycle=1)
 ----------------------------------------------------------------------
 -----
 title
 -----
 Structure from the checkpoint file:  "ANI1ccx_997_conf1_mol2.chk"
 Charge =  0 Multiplicity = 1

                         Standard orientation:
 ---------------------------------------------------------------------
 Center     Atomic      Atomic             Coordinates (Angstroms)
 Number     Number       Type             X           Y           Z
 ---------------------------------------------------------------------
      1          6           0       -1.810151    0.160428    0.090418
      2          6           0       -0.881376   -0.598946    0.976884
      3          6           0        0.048692   -1.517100    0.199215
      4          6           0        0.888746   -0.762526   -0.793543
      5          6           0        1.869499    0.181348   -0.167109
      6          1           0        0.407655    1.456940   -0.129315
      7          1           0        0.220664   -0.213934   -1.454200
      8          1           0        1.425089   -1.470900   -1.432350
      9          1           0       -0.570297   -2.234079   -0.379976
     10          1           0        0.664162   -2.162450    0.854876
     11          1           0       -0.299217    0.134593    1.571720
     12          1           0       -1.390071   -1.153579    1.787820
     13          1           0       -2.856711   -1.314598   -0.428673
     14          1           0       -1.342800    2.038481    0.884116
     15          1           0       -2.208700    1.933971   -0.519323
     16          7           0       -1.441170    1.473931    0.021345
     17          7           0       -2.806451   -0.341716   -0.581809
     18          8           0        1.388700    1.415770   -0.031516
     19          8           0        2.985189   -0.130666    0.198185
 ---------------------------------------------------------------------

 SCF Done:  E(RHF) =  -454.315819239     A.U. after    2 cycles

 The electronic state is 1-A.
 Alpha  occ. eigenvalues --  -20.58218 -20.52300 -15.56024 -15.49883 -11.38343
 Alpha  occ. eigenvalues --  -11.34945 -11.26893 -11.26829 -11.25453  -1.53278
 Alpha  occ. eigenvalues --   -1.43715  -1.30029  -1.18119  -1.11748  -1.01283
 Alpha  occ. eigenvalues --   -0.90223  -0.84467  -0.82977  -0.75523  -0.72714
 Alpha  occ. eigenvalues --   -0.70979  -0.69097  -0.66955  -0.64967  -0.62414
 Alpha  occ. eigenvalues --   -0.60016  -0.58702  -0.55749  -0.54068  -0.52265
 Alpha  occ. eigenvalues --   -0.50741  -0.48256  -0.45681  -0.44394  -0.42864
 Alpha virt. eigenvalues --    0.02210   0.03214   0.03576   0.04776   0.05154
 Alpha virt. eigenvalues --    0.05428   0.06730   0.07084   0.07565   0.08733
 Alpha virt. eigenvalues --    0.10683   0.11237   0.11364   0.12337   0.13432

 Mulliken charges:
               1
     1  C   -2.246139
     2  C   -0.271093
     3  C   -0.407553
     4  C   -0.475866
     5  C    2.527568
     6  H    0.802131
     7  H    0.296440
     8  H    0.097811
     9  H    0.206427
    10  H    0.115239
    11  H    0.172288
    12  H    0.091513
    13  H    0.263317
    14  H    0.318522
    15  H    0.189633
    16  N    0.316444
    17  N    0.936162
    18  O   -1.517949
    19  O   -1.414895
 Sum of Mulliken charges =  -0.00000

 Dipole moment (field-independent basis, Debye):
    X=             -3.9732    Y=             -0.1851    Z=              1.3124  Tot=              4.1884

 Test job not archived.
 1\1\GINC-SE362\SP\RHF\Aug-CC-pVDZ\C5H10N2O2\OHZDE\08-Apr-2025\0\\#t hf
  aug-cc-pvdz iop(5/13=1,5/36=2,99/5=2) pseudo=read geom=check guess=(r
 ead,tcheck) scf=(maxcycle=1)\\title\\0,1\C,0,-1.81015,0.160427,0.09041
 75\C,0,-0.881375,-0.598947,0.976884\C,0,0.0486937,-1.5171,0.199215\C,0
 ,0.888747,-0.762526,-0.793543\C,0,1.8695,0.181348,-0.167109\H,0,0.4076
 55,1.45694,-0.129315\H,0,0.220665,-0.213934,-1.4542\H,0,1.42509,-1.470
 9,-1.43235\H,0,-0.570295,-2.23408,-0.379976\H,0,0.664164,-2.16245,0.85
 4876\H,0,-0.299216,0.134592,1.57172\H,0,-1.39007,-1.15358,1.78782\H,0,

 Normal termination of Gaussian 16 at Tue Apr  8 22:17:24 2025.
