 Gaussian 16, Revision C.01,

 ----------------------------------------------------------------------
 #t hf aug-cc-pvdz symm=none int=(grid=ultrafine) guess=(read,tcheck) s
 table=(opt,rrhf)
 ----------------------------------------------------------------------
 -----
 title
 -----
 Symbolic Z-matrix:
 Charge =  0 Multiplicity = 1

 SCF Done:  E(RHF) =  -986.105637358     A.U. after   16 cycles
 Normal termination of Gaussian 16 at Tue Apr  8 21:39:34 2025.
 Gaussian 16:  ES64L-G16RevC.01  3-Jul-2019

 ----------------------------------------------------------------------
 #t hf aug-cc-pvdz iop(5/13=1,5/36=2,99/5=2) pseudo=read geom=check gue
 ss=(read,tcheck) scf=(maxcycle=1)
 ----------------------------------------------------------------------
 -----
 title
 -----
 Structure from the checkpoint file:  "ANI1ccx_325_conf2_mol1.chk"
 Charge =  0 Multiplicity = 1

                         Standard orientation:
 ---------------------------------------------------------------------
 Center     Atomic      Atomic             Coordinates (Angstroms)
 Number     Number       Type             X           Y           Z
 ---------------------------------------------------------------------
      1          6           0       -0.633174   -1.461450    0.696810
      2          6           0       -4.469100    1.431519    0.272427
      3          6           0       -3.223770    0.529170    0.234484
      4          6           0       -2.082790    0.976012   -0.694874
      5          6           0        3.998860    0.655241   -0.118859
      6          6           0        3.626900   -0.374217   -0.957741
      7          6           0       -1.183090    1.976020   -0.036651
      8          6           0        2.529581   -1.182160   -0.613341
      9          6           0        2.397730   -0.067567    1.516850
     10          6           0        1.881291   -1.035730    0.621552
     11          6           0        0.773109   -1.941370    1.053330
     12          6           0       -0.805343   -1.330620   -0.781873
     13          6           0        3.424010    0.805559    1.108440
     14          1           0       -1.616130   -0.378291   -2.282730
     15          1           0        0.435259    1.288900   -0.983170
     16          1           0       -4.169980    2.468289    0.477125
     17          1           0       -5.194780    1.115939    0.991387
     18          1           0       -4.953990    1.412039   -0.719826
     19          1           0       -4.133409   -0.657968   -1.068220
     20          1           0       -2.846250    0.345405    1.294500
     21          1           0       -2.571380    1.483449   -1.586890
     22          1           0        5.164520    1.534941   -1.412520
     23          1           0        1.902080    0.137588    2.456280
     24          1           0        3.746810    1.540480    1.875350
     25          1           0        2.053341   -1.917980   -1.275190
     26          1           0        0.960578   -2.921310    0.606932
     27          1           0        0.855638   -2.136180    2.118220
     28          1           0       -0.793648   -0.468325    1.168290
     29          1           0       -2.515289   -2.079781    1.161130
     30          1           0       -1.583059   -3.281300    0.709319
     31          1           0        4.115071   -0.539837   -1.922720
     32          7           0       -1.590279   -2.407310    1.232360
     33          7           0       -1.404130   -0.171951   -1.328250
     34          8           0       -3.693179   -0.767099   -0.191662
     35          8           0       -0.450721   -2.225360   -1.541880
     36          8           0        4.938210    1.611921   -0.482719
     37          8           0       -1.608820    2.861000    0.672104
     38          8           0        0.152034    1.922830   -0.298267
 ---------------------------------------------------------------------

 SCF Done:  E(RHF) =  -987.099995082     A.U. after    2 cycles

 The electronic state is 1-A.
 Alpha  occ. eigenvalues --  -20.60674 -20.57664 -20.57417 -20.55180 -20.53016
 Alpha  occ. eigenvalues --  -15.55050 -15.48958 -11.41566 -11.37564 -11.33739
 Alpha  occ. eigenvalues --  -11.33227 -11.30577 -11.28699 -11.24987 -11.24830
 Alpha  occ. eigenvalues --  -11.24700 -11.24624 -11.24008 -11.23709 -11.23667
 Alpha  occ. eigenvalues --   -1.54760  -1.48005  -1.47564  -1.47143  -1.46103
 Alpha  occ. eigenvalues --   -1.25579  -1.20869  -1.15659  -1.08596  -1.06337
 Alpha  occ. eigenvalues --   -1.01773  -1.00388  -0.98733  -0.91680  -0.87810
 Alpha  occ. eigenvalues --   -0.85754  -0.84960  -0.82040  -0.79798  -0.76697
 Alpha  occ. eigenvalues --   -0.75498  -0.73717  -0.72804  -0.70825  -0.68464
 Alpha  occ. eigenvalues --   -0.67583  -0.66906  -0.66459  -0.64222  -0.63949
 Alpha  occ. eigenvalues --   -0.63508  -0.62807  -0.61450  -0.60704  -0.60006
 Alpha  occ. eigenvalues --   -0.58827  -0.58466  -0.57760  -0.56852  -0.55847
 Alpha  occ. eigenvalues --   -0.54995  -0.54449  -0.52476  -0.51542  -0.50458
 Alpha  occ. eigenvalues --   -0.49162  -0.48366  -0.48173  -0.47659  -0.47107
 Alpha  occ. eigenvalues --   -0.46485  -0.43975  -0.42073  -0.34713  -0.32254
 Alpha virt. eigenvalues --    0.01768   0.02886   0.03349   0.03863   0.04145
 Alpha virt. eigenvalues --    0.04474   0.04649   0.05053   0.05913   0.06639
 Alpha virt. eigenvalues --    0.06960   0.07356   0.07617   0.07948   0.09065

 Mulliken charges:
               1
     1  C   -1.535033
     2  C   -0.455346
     3  C    0.813176
     4  C   -1.294905
     5  C    1.859349
     6  C   -0.171337
     7  C    2.855822
     8  C   -0.200412
     9  C    0.000625
    10  C    1.875167
    11  C   -0.661272
    12  C    0.583329
    13  C    0.014104
    14  H    0.359196
    15  H    0.499104
    16  H    0.260822
    17  H    0.102057
    18  H    0.191173
    19  H    0.322775
    20  H    0.051638
    21  H    0.332938
    22  H    0.404989
    23  H   -0.394179
    24  H   -0.202487
    25  H   -0.307352
    26  H    0.178452
    27  H    0.094087
    28  H    0.197049
    29  H    0.092201
    30  H    0.220536
    31  H   -0.285983
    32  N    0.993840
    33  N    0.894029
    34  O   -1.412089
    35  O   -1.647492
    36  O   -1.750703
    37  O   -1.448924
    38  O   -1.428945
 Sum of Mulliken charges =  -0.00000

 Dipole moment (field-independent basis, Debye):
    X=             -2.8301    Y=             -0.1500    Z=             -3.7075  Tot=              4.6666

 Test job not archived.
 1\1\GINC-SE159\SP\RHF\Aug-CC-pVDZ\C13H18N2O5\OHZDE\08-Apr-2025\0\\#t h
 f aug-cc-pvdz iop(5/13=1,5/36=2,99/5=2) pseudo=read geom=check guess=(
 read,tcheck) scf=(maxcycle=1)\\title\\0,1\C,0,-0.633175,-1.46145,0.696
 81\C,0,-4.4691,1.43152,0.272427\C,0,-3.22377,0.529171,0.234484\C,0,-2.
 08279,0.976013,-0.694874\C,0,3.99886,0.655241,-0.118859\C,0,3.6269,-0.
 374217,-0.957741\C,0,-1.18309,1.97602,-0.0366508\C,0,2.52958,-1.18216,
 -0.613341\C,0,2.39773,-0.0675676,1.51685\C,0,1.88129,-1.03573,0.621552
 \C,0,0.773108,-1.94137,1.05333\C,0,-0.805344,-1.33062,-0.781873\C,0,3.

 Normal termination of Gaussian 16 at Tue Apr  8 21:40:55 2025.
