 Gaussian 16, Revision C.01,

 ----------------------------------------------------------------------
 #t hf aug-cc-pvdz symm=none int=(grid=ultrafine) guess=(read,tcheck) s
 table=(opt,rrhf)
 ----------------------------------------------------------------------
 -----
 title
 -----
 Symbolic Z-matrix:
 Charge =  0 Multiplicity = 1

 SCF Done:  E(RHF) =  -297.749802342     A.U. after   13 cycles
 Normal termination of Gaussian 16 at Tue Apr  8 21:28:29 2025.
 Gaussian 16:  ES64L-G16RevC.01  3-Jul-2019

 ----------------------------------------------------------------------
 #t hf aug-cc-pvdz iop(5/13=1,5/36=2,99/5=2) pseudo=read geom=check gue
 ss=(read,tcheck) scf=(maxcycle=1)
 ----------------------------------------------------------------------
 -----
 title
 -----
 Structure from the checkpoint file:  "ANI1ccx_376_conf5_mol2.chk"
 Charge =  0 Multiplicity = 1

                         Standard orientation:
 ---------------------------------------------------------------------
 Center     Atomic      Atomic             Coordinates (Angstroms)
 Number     Number       Type             X           Y           Z
 ---------------------------------------------------------------------
      1          6           0       -1.576281   -0.292226    0.118316
      2          1           0        0.087624    0.421055    0.369938
      3          1           0       -1.069851   -1.198460    0.498818
      4          7           0        3.262689   -0.178680   -0.165973
      5          7           0        2.214599   -0.045664    0.113039
      6          8           0       -0.760225    0.755614    0.023096
      7          8           0       -2.727411   -0.242968   -0.174111
 ---------------------------------------------------------------------

 SCF Done:  E(RHF) =  -298.033662403     A.U. after    2 cycles

 The electronic state is 1-A.
 Alpha  occ. eigenvalues --  -20.61357 -20.54465 -15.65639 -15.65262 -11.40020
 Alpha  occ. eigenvalues --   -1.56127  -1.53386  -1.46908  -0.86926  -0.85666
 Alpha  occ. eigenvalues --   -0.79742  -0.72297  -0.70769  -0.70756  -0.67190
 Alpha  occ. eigenvalues --   -0.63482  -0.59622  -0.48147  -0.45458
 Alpha virt. eigenvalues --    0.03264   0.04930   0.06372   0.06929   0.08701
 Alpha virt. eigenvalues --    0.09803   0.10751   0.12883   0.14799   0.15091
 Alpha virt. eigenvalues --    0.16637   0.17005   0.18747   0.19627   0.20917

 Mulliken charges:
               1
     1  C    1.377473
     2  H    0.567954
     3  H    0.111779
     4  N   -0.025807
     5  N    0.010538
     6  O   -1.043884
     7  O   -0.998054
 Sum of Mulliken charges =  -0.00000

 Dipole moment (field-independent basis, Debye):
    X=              4.2519    Y=             -1.3218    Z=              1.2969  Tot=              4.6376

 Test job not archived.
 1\1\GINC-SE404\SP\RHF\Aug-CC-pVDZ\C1H2N2O2\OHZDE\08-Apr-2025\0\\#t hf
 aug-cc-pvdz iop(5/13=1,5/36=2,99/5=2) pseudo=read geom=check guess=(re
 ad,tcheck) scf=(maxcycle=1)\\title\\0,1\C,0,-1.57628,-0.292225,0.11831
 6\H,0,0.0876253,0.421055,0.369938\H,0,-1.06985,-1.19846,0.498818\N,0,3
 .26269,-0.17868,-0.165973\N,0,2.2146,-0.0456639,0.113039\O,0,-0.760224
 ,0.755614,0.0230963\O,0,-2.72741,-0.242967,-0.174111\\Version=ES64L-G1
 6RevC.01\State=1-A\HF=-298.0336624\RMSD=4.226e-02\Dipole=1.6728267,-0.
 5200414,0.5102348\Quadrupole=-5.2492975,2.2098836,3.039414,0.632469,-0

 Normal termination of Gaussian 16 at Tue Apr  8 21:28:31 2025.
