 Gaussian 16, Revision C.01,

 ----------------------------------------------------------------------
 #t hf aug-cc-pvdz symm=none int=(grid=ultrafine) guess=(read,tcheck) s
 table=(opt,rrhf)
 ----------------------------------------------------------------------
 -----
 title
 -----
 Symbolic Z-matrix:
 Charge =  0 Multiplicity = 1

 SCF Done:  E(RHF) =  -428.537329698     A.U. after   13 cycles
 Normal termination of Gaussian 16 at Tue Apr  8 21:37:49 2025.
 Gaussian 16:  ES64L-G16RevC.01  3-Jul-2019

 ----------------------------------------------------------------------
 #t hf aug-cc-pvdz iop(5/13=1,5/36=2,99/5=2) pseudo=read geom=check gue
 ss=(read,tcheck) scf=(maxcycle=1)
 ----------------------------------------------------------------------
 -----
 title
 -----
 Structure from the checkpoint file:  "ANI1ccx_419_conf11_mol1.chk"
 Charge =  0 Multiplicity = 1

                         Standard orientation:
 ---------------------------------------------------------------------
 Center     Atomic      Atomic             Coordinates (Angstroms)
 Number     Number       Type             X           Y           Z
 ---------------------------------------------------------------------
      1          6           0       -0.033665    0.026707    0.080580
      2          1           0        1.337943   -1.483250    0.978533
      3          1           0       -0.856262   -1.717761   -0.052481
      4          1           0        1.756971    0.090604   -0.577415
      5          1           0        0.131487    2.012490   -0.554000
      6          1           0       -2.901009    0.368757    0.578287
      7          7           0       -0.002529   -1.259821   -0.437156
      8          7           0        1.156641    0.613549    0.164643
      9          7           0       -1.080509    0.684811    0.196618
     10          8           0        1.190543   -1.790060    0.123519
     11          8           0        1.043480    1.948540   -0.096191
     12          8           0       -2.206818   -0.121088   -0.067971
 ---------------------------------------------------------------------

 SCF Done:  E(RHF) =  -428.972274090     A.U. after    2 cycles

 The electronic state is 1-A.
 Alpha  occ. eigenvalues --  -20.61167 -20.60548 -20.59309 -15.60097 -15.58507
 Alpha  occ. eigenvalues --  -15.54827 -11.35135  -1.55043  -1.52449  -1.49989
 Alpha  occ. eigenvalues --   -1.27714  -1.14964  -1.14251  -0.84931  -0.81838
 Alpha  occ. eigenvalues --   -0.79818  -0.72820  -0.72574  -0.68235  -0.66799
 Alpha  occ. eigenvalues --   -0.62394  -0.60796  -0.57322  -0.54048  -0.50688
 Alpha  occ. eigenvalues --   -0.48756  -0.46549  -0.41045
 Alpha virt. eigenvalues --    0.03158   0.04473   0.05737   0.06165   0.06420
 Alpha virt. eigenvalues --    0.10415   0.11094   0.12309   0.13206   0.13940
 Alpha virt. eigenvalues --    0.15343   0.16170   0.16961   0.18316   0.18779

 Mulliken charges:
               1
     1  C   -2.022156
     2  H    0.330451
     3  H    0.315409
     4  H    0.389615
     5  H    0.464009
     6  H    0.408878
     7  N    1.025839
     8  N    1.351456
     9  N    1.354702
    10  O   -1.038771
    11  O   -1.261847
    12  O   -1.317586
 Sum of Mulliken charges =  -0.00000

 Dipole moment (field-independent basis, Debye):
    X=             -1.3183    Y=             -1.2065    Z=              1.1128  Tot=              2.1052

 Test job not archived.
 1\1\GINC-SE365\SP\RHF\Aug-CC-pVDZ\C1H5N3O3\OHZDE\08-Apr-2025\0\\#t hf
 aug-cc-pvdz iop(5/13=1,5/36=2,99/5=2) pseudo=read geom=check guess=(re
 ad,tcheck) scf=(maxcycle=1)\\title\\0,1\C,0,-0.0336665,0.026708,0.0805
 803\H,0,1.33794,-1.48325,0.978533\H,0,-0.856265,-1.71776,-0.0524807\H,
 0,1.75697,0.0906033,-0.577415\H,0,0.131487,2.01249,-0.554\H,0,-2.90101
 ,0.36876,0.578287\N,0,-0.00253147,-1.25982,-0.437156\N,0,1.15664,0.613
 549,0.164643\N,0,-1.08051,0.684812,0.196618\O,0,1.19054,-1.79006,0.123
 519\O,0,1.04348,1.94854,-0.0961912\O,0,-2.20682,-0.121086,-0.067971\\V

 Normal termination of Gaussian 16 at Tue Apr  8 21:37:53 2025.
