 Gaussian 16, Revision C.01,

 ----------------------------------------------------------------------
 #t hf aug-cc-pvdz symm=none int=(grid=ultrafine) guess=(read,tcheck) s
 table=(opt,rrhf)
 ----------------------------------------------------------------------
 -----
 title
 -----
 Symbolic Z-matrix:
 Charge =  0 Multiplicity = 1

 SCF Done:  E(RHF) =  -259.757651295     A.U. after   13 cycles
 Normal termination of Gaussian 16 at Tue Apr  8 21:10:17 2025.
 Gaussian 16:  ES64L-G16RevC.01  3-Jul-2019

 ----------------------------------------------------------------------
 #t hf aug-cc-pvdz iop(5/13=1,5/36=2,99/5=2) pseudo=read geom=check gue
 ss=(read,tcheck) scf=(maxcycle=1)
 ----------------------------------------------------------------------
 -----
 title
 -----
 Structure from the checkpoint file:  "ANI1ccx_1858_conf6_mol1.chk"
 Charge =  0 Multiplicity = 1

                         Standard orientation:
 ---------------------------------------------------------------------
 Center     Atomic      Atomic             Coordinates (Angstroms)
 Number     Number       Type             X           Y           Z
 ---------------------------------------------------------------------
      1          1           0        1.916951    1.156720    0.132146
      2          1           0        1.192801   -1.031030    0.777360
      3          7           0       -2.146199    0.522814    0.168739
      4          7           0       -1.748759   -0.415488   -0.263200
      5          8           0        2.131941    0.257029   -0.165436
      6          8           0        0.887429   -0.366650    0.134400
 ---------------------------------------------------------------------

 SCF Done:  E(RHF) =  -260.005429054     A.U. after    2 cycles

 The electronic state is 1-A.
 Alpha  occ. eigenvalues --  -20.62146 -20.62064 -15.61505 -15.61255  -1.60162
 Alpha  occ. eigenvalues --   -1.47730  -1.27549  -0.81399  -0.72166  -0.70756
 Alpha  occ. eigenvalues --   -0.67686  -0.65804  -0.65695  -0.60963  -0.51413
 Alpha  occ. eigenvalues --   -0.46805
 Alpha virt. eigenvalues --    0.04317   0.04825   0.09751   0.10208   0.11918
 Alpha virt. eigenvalues --    0.13656   0.15349   0.16926   0.17952   0.19683
 Alpha virt. eigenvalues --    0.19955   0.21685   0.22316   0.23526   0.24448

 Mulliken charges:
               1
     1  H    0.479920
     2  H    0.511868
     3  N   -0.022339
     4  N   -0.024272
     5  O   -0.408472
     6  O   -0.536705
 Sum of Mulliken charges =   0.00000

 Dipole moment (field-independent basis, Debye):
    X=              0.3304    Y=              0.3613    Z=              1.5831  Tot=              1.6571

 Test job not archived.
 1\1\GINC-SE088\SP\RHF\Aug-CC-pVDZ\H2N2O2\OHZDE\08-Apr-2025\0\\#t hf au
 g-cc-pvdz iop(5/13=1,5/36=2,99/5=2) pseudo=read geom=check guess=(read
 ,tcheck) scf=(maxcycle=1)\\title\\0,1\H,0,1.91695,1.15672,0.132146\H,0
 ,1.1928,-1.03103,0.77736\N,0,-2.1462,0.522814,0.168739\N,0,-1.74876,-0
 .415488,-0.2632\O,0,2.13194,0.257029,-0.165436\O,0,0.887428,-0.36665,0
 .1344\\Version=ES64L-G16RevC.01\State=1-A\HF=-260.0054291\RMSD=3.843e-
 02\Dipole=0.1299912,0.1421392,0.6228422\Quadrupole=-1.8385479,2.175668
 6,-0.3371207,1.2014873,1.977765,-1.1304986\PG=C01 [X(H2N2O2)]\\@

 Normal termination of Gaussian 16 at Tue Apr  8 21:10:19 2025.
