 Gaussian 16, Revision C.01,

 ----------------------------------------------------------------------
 #t hf aug-cc-pvdz symm=none int=(grid=ultrafine) guess=(read,tcheck) s
 table=(opt,rrhf)
 ----------------------------------------------------------------------
 -----
 title
 -----
 Symbolic Z-matrix:
 Charge =  0 Multiplicity = 1

 SCF Done:  E(RHF) =  -563.428724998     A.U. after   14 cycles
 Normal termination of Gaussian 16 at Tue Apr  8 22:08:39 2025.
 Gaussian 16:  ES64L-G16RevC.01  3-Jul-2019

 ----------------------------------------------------------------------
 #t hf aug-cc-pvdz iop(5/13=1,5/36=2,99/5=2) pseudo=read geom=check gue
 ss=(read,tcheck) scf=(maxcycle=1)
 ----------------------------------------------------------------------
 -----
 title
 -----
 Structure from the checkpoint file:  "ANI1ccx_918_conf10_mol2.chk"
 Charge =  0 Multiplicity = 1

                         Standard orientation:
 ---------------------------------------------------------------------
 Center     Atomic      Atomic             Coordinates (Angstroms)
 Number     Number       Type             X           Y           Z
 ---------------------------------------------------------------------
      1          6           0       -1.126639   -0.094280    0.025572
      2          6           0        0.951096   -1.217705   -0.066397
      3          6           0        1.518860    0.073385    0.440026
      4          6           0        0.808189    1.311564   -0.151056
      5          1           0       -1.555085    0.851601    1.767700
      6          1           0       -1.872396   -0.742708    1.759290
      7          1           0       -2.991623    0.587098   -0.560597
      8          1           0       -2.190898   -0.383133   -1.636050
      9          1           0        1.367510    0.112673    1.503040
     10          1           0        2.628450    0.062897    0.317116
     11          7           0       -1.178970   -0.036056    1.467840
     12          7           0       -2.359099   -0.234054   -0.642914
     13          8           0       -0.369807   -1.218983   -0.357619
     14          8           0        1.627912   -2.181211   -0.258895
     15          8           0        1.316727    2.386097   -0.262645
     16          8           0       -0.515896    1.134667   -0.422570
 ---------------------------------------------------------------------

 SCF Done:  E(RHF) =  -563.984867622     A.U. after    2 cycles

 The electronic state is 1-A.
 Alpha  occ. eigenvalues --  -20.62345 -20.61979 -20.55768 -20.55356 -15.54121
 Alpha  occ. eigenvalues --  -15.53393 -11.45992 -11.42105 -11.41574 -11.29020
 Alpha  occ. eigenvalues --   -1.60909  -1.55771  -1.49665  -1.47301  -1.26709
 Alpha  occ. eigenvalues --   -1.20187  -1.08235  -0.95389  -0.89444  -0.80505
 Alpha  occ. eigenvalues --   -0.79293  -0.77252  -0.74999  -0.72158  -0.70135
 Alpha  occ. eigenvalues --   -0.68421  -0.67054  -0.65083  -0.62982  -0.60906
 Alpha  occ. eigenvalues --   -0.57057  -0.56546  -0.52825  -0.51181  -0.49393
 Alpha  occ. eigenvalues --   -0.48690  -0.47383  -0.44444
 Alpha virt. eigenvalues --    0.02140   0.03941   0.04734   0.05149   0.05714
 Alpha virt. eigenvalues --    0.06059   0.08623   0.09192   0.09882   0.11384
 Alpha virt. eigenvalues --    0.11655   0.12463   0.13425   0.13970   0.14468

 Mulliken charges:
               1
     1  C   -0.157582
     2  C    1.800137
     3  C   -0.561678
     4  C    1.773125
     5  H    0.345510
     6  H    0.381429
     7  H    0.237485
     8  H    0.250950
     9  H    0.498580
    10  H    0.125672
    11  N    0.245875
    12  N    0.750662
    13  O   -1.517214
    14  O   -1.338170
    15  O   -1.324865
    16  O   -1.509914
 Sum of Mulliken charges =  -0.00000

 Dipole moment (field-independent basis, Debye):
    X=             -3.7291    Y=              0.9975    Z=              1.6526  Tot=              4.1991

 Test job not archived.
 1\1\GINC-SE184\SP\RHF\Aug-CC-pVDZ\C4H6N2O4\OHZDE\08-Apr-2025\0\\#t hf
 aug-cc-pvdz iop(5/13=1,5/36=2,99/5=2) pseudo=read geom=check guess=(re
 ad,tcheck) scf=(maxcycle=1)\\title\\0,1\C,0,-1.12664,-0.0942732,0.0255
 724\C,0,0.951089,-1.21771,-0.0663969\C,0,1.51886,0.0733768,0.440026\C,
 0,0.808196,1.31156,-0.151056\H,0,-1.55508,0.85161,1.7677\H,0,-1.8724,-
 0.742697,1.75929\H,0,-2.99162,0.587115,-0.560597\H,0,-2.1909,-0.38312,
 -1.63605\H,0,1.36751,0.112666,1.50304\H,0,2.62845,0.0628828,0.317116\N
 ,0,-1.17897,-0.0360487,1.46784\N,0,-2.3591,-0.23404,-0.642914\O,0,-0.3

 Normal termination of Gaussian 16 at Tue Apr  8 22:08:47 2025.
