 Gaussian 16, Revision C.01,

 ----------------------------------------------------------------------
 #t hf aug-cc-pvdz symm=none int=(grid=ultrafine) guess=(read,tcheck) s
 table=(opt,rrhf)
 ----------------------------------------------------------------------
 -----
 title
 -----
 Symbolic Z-matrix:
 Charge =  0 Multiplicity = 1

 SCF Done:  E(RHF) =  -434.644629703     A.U. after   14 cycles
 Normal termination of Gaussian 16 at Tue Apr  8 22:10:40 2025.
 Gaussian 16:  ES64L-G16RevC.01  3-Jul-2019

 ----------------------------------------------------------------------
 #t hf aug-cc-pvdz iop(5/13=1,5/36=2,99/5=2) pseudo=read geom=check gue
 ss=(read,tcheck) scf=(maxcycle=1)
 ----------------------------------------------------------------------
 -----
 title
 -----
 Structure from the checkpoint file:  "ANI1ccx_938_conf1_mol1.chk"
 Charge =  0 Multiplicity = 1

                         Standard orientation:
 ---------------------------------------------------------------------
 Center     Atomic      Atomic             Coordinates (Angstroms)
 Number     Number       Type             X           Y           Z
 ---------------------------------------------------------------------
      1          6           0        0.974817    1.564150    0.102310
      2          6           0       -0.507482   -0.302303   -0.834363
      3          6           0       -1.751669   -0.133876   -0.004768
      4          6           0        1.767351   -0.761688   -0.058219
      5          1           0        0.758271    1.799530    1.138650
      6          1           0        2.024731    1.795840   -0.083518
      7          1           0        0.319220    2.181670   -0.537319
      8          1           0       -0.578262    0.152249   -1.791790
      9          1           0       -0.328923   -1.387330   -0.927093
     10          1           0       -0.578468   -0.397466    1.348880
     11          1           0        1.446771   -1.814330   -0.274939
     12          7           0        0.762854    0.141443   -0.204383
     13          8           0       -1.539889   -0.346203    1.271990
     14          8           0       -2.838239    0.084850   -0.472740
     15          8           0        2.965451   -0.428392    0.116753
 ---------------------------------------------------------------------

 SCF Done:  E(RHF) =  -435.077800913     A.U. after    2 cycles

 The electronic state is 1-A.
 Alpha  occ. eigenvalues --  -20.62544 -20.55185 -20.53981 -15.57423 -11.41262
 Alpha  occ. eigenvalues --  -11.39274 -11.32853 -11.30001  -1.58480  -1.47718
 Alpha  occ. eigenvalues --   -1.45809  -1.29335  -1.05819  -1.01159  -0.86609
 Alpha  occ. eigenvalues --   -0.83379  -0.79371  -0.75603  -0.71954  -0.67634
 Alpha  occ. eigenvalues --   -0.66819  -0.65455  -0.61766  -0.60769  -0.59329
 Alpha  occ. eigenvalues --   -0.58012  -0.55883  -0.48936  -0.47378  -0.45117
 Alpha  occ. eigenvalues --   -0.43017
 Alpha virt. eigenvalues --    0.02649   0.03734   0.04191   0.05221   0.05497
 Alpha virt. eigenvalues --    0.06089   0.06289   0.08937   0.09309   0.11395
 Alpha virt. eigenvalues --    0.11771   0.12526   0.13146   0.13810   0.14134

 Mulliken charges:
               1
     1  C   -0.319287
     2  C   -0.805447
     3  C    2.248745
     4  C    0.644684
     5  H    0.119183
     6  H    0.066171
     7  H    0.175633
     8  H   -0.025061
     9  H    0.274951
    10  H    0.554330
    11  H    0.131017
    12  N    0.603475
    13  O   -1.281596
    14  O   -1.256865
    15  O   -1.129935
 Sum of Mulliken charges =  -0.00000

 Dipole moment (field-independent basis, Debye):
    X=              0.8269    Y=             -0.1708    Z=             -0.6438  Tot=              1.0618

 Test job not archived.
 1\1\GINC-SE029\SP\RHF\Aug-CC-pVDZ\C4H7N1O3\OHZDE\08-Apr-2025\0\\#t hf
 aug-cc-pvdz iop(5/13=1,5/36=2,99/5=2) pseudo=read geom=check guess=(re
 ad,tcheck) scf=(maxcycle=1)\\title\\0,1\C,0,0.974816,1.56415,0.10231\C
 ,0,-0.507483,-0.302303,-0.834363\C,0,-1.75167,-0.133876,-0.0047683\C,0
 ,1.76735,-0.761688,-0.0582194\H,0,0.75827,1.79953,1.13865\H,0,2.02473,
 1.79584,-0.0835183\H,0,0.319219,2.18167,-0.537319\H,0,-0.578263,0.1522
 49,-1.79179\H,0,-0.328924,-1.38733,-0.927093\H,0,-0.578469,-0.397466,1
 .34888\H,0,1.44677,-1.81433,-0.274939\N,0,0.762853,0.141443,-0.204383\

 Normal termination of Gaussian 16 at Tue Apr  8 22:10:46 2025.
