 Gaussian 16, Revision C.01,

 ----------------------------------------------------------------------
 #t hf aug-cc-pvdz symm=none int=(grid=ultrafine) guess=(read,tcheck) s
 table=(opt,rrhf)
 ----------------------------------------------------------------------
 -----
 title
 -----
 Symbolic Z-matrix:
 Charge =  0 Multiplicity = 1

 SCF Done:  E(RHF) =  -604.230258615     A.U. after   14 cycles
 Normal termination of Gaussian 16 at Tue Apr  8 22:10:06 2025.
 Gaussian 16:  ES64L-G16RevC.01  3-Jul-2019

 ----------------------------------------------------------------------
 #t hf aug-cc-pvdz iop(5/13=1,5/36=2,99/5=2) pseudo=read geom=check gue
 ss=(read,tcheck) scf=(maxcycle=1)
 ----------------------------------------------------------------------
 -----
 title
 -----
 Structure from the checkpoint file:  "ANI1ccx_934_conf12_mol2.chk"
 Charge =  0 Multiplicity = 1

                         Standard orientation:
 ---------------------------------------------------------------------
 Center     Atomic      Atomic             Coordinates (Angstroms)
 Number     Number       Type             X           Y           Z
 ---------------------------------------------------------------------
      1          6           0        0.534738   -0.859744    0.387168
      2          6           0       -0.629272   -0.613124   -0.616867
      3          6           0       -1.109399    0.784697   -0.303558
      4          6           0        1.714001    0.002212    0.013562
      5          1           0       -0.734487   -1.131950    1.778990
      6          1           0        0.750433   -1.941519    0.395375
      7          1           0       -0.230966   -0.711505   -1.636240
      8          1           0       -2.462019   -1.160280   -0.730782
      9          1           0       -2.598290    1.775430    0.255077
     10          1           0        1.883471   -0.904020   -1.729060
     11          8           0        0.031684   -0.560732    1.704890
     12          8           0       -1.668119   -1.558860   -0.363791
     13          8           0       -2.420649    0.831099    0.042417
     14          8           0       -0.353325    1.747250   -0.327187
     15          8           0        2.239831   -0.271691   -1.170650
     16          8           0        2.212011    0.836633    0.712422
 ---------------------------------------------------------------------

 SCF Done:  E(RHF) =  -604.823269729     A.U. after    2 cycles

 The electronic state is 1-A.
 Alpha  occ. eigenvalues --  -20.63825 -20.60604 -20.59826 -20.57505 -20.56318
 Alpha  occ. eigenvalues --  -20.53102 -11.42658 -11.40094 -11.35433 -11.34348
 Alpha  occ. eigenvalues --   -1.57488  -1.56912  -1.50321  -1.47835  -1.46834
 Alpha  occ. eigenvalues --   -1.45504  -1.09256  -0.97533  -0.88675  -0.85161
 Alpha  occ. eigenvalues --   -0.79006  -0.74729  -0.73587  -0.71651  -0.70704
 Alpha  occ. eigenvalues --   -0.67141  -0.65567  -0.63873  -0.62838  -0.60927
 Alpha  occ. eigenvalues --   -0.58988  -0.57393  -0.54897  -0.52838  -0.49317
 Alpha  occ. eigenvalues --   -0.47659  -0.47107  -0.45313  -0.44615
 Alpha virt. eigenvalues --    0.02187   0.02921   0.03883   0.04439   0.06204
 Alpha virt. eigenvalues --    0.06555   0.08274   0.10478   0.11052   0.11381
 Alpha virt. eigenvalues --    0.12124   0.12889   0.13788   0.13994   0.14208

 Mulliken charges:
               1
     1  C    0.438129
     2  C    0.639307
     3  C    2.501758
     4  C    2.698433
     5  H    0.306440
     6  H    0.201458
     7  H    0.184016
     8  H    0.365630
     9  H    0.354070
    10  H    0.384940
    11  O   -1.342908
    12  O   -1.437920
    13  O   -1.306528
    14  O   -1.300397
    15  O   -1.370117
    16  O   -1.316310
 Sum of Mulliken charges =  -0.00000

 Dipole moment (field-independent basis, Debye):
    X=             -4.7607    Y=             -3.5073    Z=             -3.2128  Tot=              6.7295

 Test job not archived.
 1\1\GINC-SE457\SP\RHF\Aug-CC-pVDZ\C4H6O6\OHZDE\08-Apr-2025\0\\#t hf au
 g-cc-pvdz iop(5/13=1,5/36=2,99/5=2) pseudo=read geom=check guess=(read
 ,tcheck) scf=(maxcycle=1)\\title\\0,1\C,0,0.534737,-0.859745,0.387168\
 C,0,-0.629273,-0.613124,-0.616867\C,0,-1.1094,0.784697,-0.303558\C,0,1
 .714,0.00221145,0.0135614\H,0,-0.734488,-1.13195,1.77899\H,0,0.750432,
 -1.94152,0.395375\H,0,-0.230967,-0.711505,-1.63624\H,0,-2.46202,-1.160
 28,-0.730782\H,0,-2.59829,1.77543,0.255077\H,0,1.88347,-0.904021,-1.72
 906\O,0,0.0316838,-0.560732,1.70489\O,0,-1.66812,-1.55886,-0.363791\O,

 Normal termination of Gaussian 16 at Tue Apr  8 22:10:14 2025.
