 Gaussian 16, Revision C.01,

 ----------------------------------------------------------------------
 #t hf aug-cc-pvdz symm=none int=(grid=ultrafine) guess=(read,tcheck) s
 table=(opt,rrhf)
 ----------------------------------------------------------------------
 -----
 title
 -----
 Symbolic Z-matrix:
 Charge =  0 Multiplicity = 1

 SCF Done:  E(RHF) =  -506.636490395     A.U. after   17 cycles
 Normal termination of Gaussian 16 at Tue Apr  8 21:55:59 2025.
 Gaussian 16:  ES64L-G16RevC.01  3-Jul-2019

 ----------------------------------------------------------------------
 #t hf aug-cc-pvdz iop(5/13=1,5/36=2,99/5=2) pseudo=read geom=check gue
 ss=(read,tcheck) scf=(maxcycle=1)
 ----------------------------------------------------------------------
 -----
 title
 -----
 Structure from the checkpoint file:  "ANI1ccx_787_conf1_mol1.chk"
 Charge =  0 Multiplicity = 1

                         Standard orientation:
 ---------------------------------------------------------------------
 Center     Atomic      Atomic             Coordinates (Angstroms)
 Number     Number       Type             X           Y           Z
 ---------------------------------------------------------------------
      1          6           0        0.376273    1.635950   -0.760868
      2          6           0        1.160140    0.229455    1.123221
      3          6           0        1.928070   -0.908490    0.407373
      4          1           0       -1.741460   -1.242130   -0.964753
      5          1           0        3.136540   -0.956370   -1.106719
      6          1           0        2.637370   -1.301150    1.128981
      7          1           0        0.835587   -0.071265    2.136511
      8          1           0        1.240850   -1.700190    0.063528
      9          1           0       -0.520174    2.190090   -1.089139
     10          1           0        1.112190    2.386360   -0.480534
     11          1           0        0.848226    1.064750   -1.602779
     12          1           0        1.952210    1.004900    1.297101
     13          7           0        0.024282    0.815590    0.423769
     14          7           0       -0.929846   -0.069019    0.188803
     15          7           0       -2.166530    0.262486    0.508128
     16          8           0       -0.763970   -1.055420   -0.779351
     17          8           0        2.660930   -0.286453   -0.613795
     18          8           0       -2.994910   -0.430611   -0.087533
 ---------------------------------------------------------------------

 SCF Done:  E(RHF) =  -507.148507966     A.U. after    2 cycles

 The electronic state is 1-A.
 Alpha  occ. eigenvalues --  -20.61243 -20.58468 -20.55815 -15.68552 -15.65465
 Alpha  occ. eigenvalues --  -15.55716 -11.29110 -11.27926 -11.26916  -1.61363
 Alpha  occ. eigenvalues --   -1.51879  -1.46866  -1.35453  -1.20009  -1.02613
 Alpha  occ. eigenvalues --   -0.98881  -0.90367  -0.84110  -0.81400  -0.75824
 Alpha  occ. eigenvalues --   -0.74961  -0.72141  -0.67221  -0.67155  -0.62781
 Alpha  occ. eigenvalues --   -0.61811  -0.59911  -0.57844  -0.56607  -0.55332
 Alpha  occ. eigenvalues --   -0.54561  -0.51642  -0.46559  -0.45541  -0.43114
 Alpha  occ. eigenvalues --   -0.41972
 Alpha virt. eigenvalues --    0.03337   0.03917   0.04301   0.04463   0.05525
 Alpha virt. eigenvalues --    0.05735   0.06823   0.07138   0.07872   0.09249
 Alpha virt. eigenvalues --    0.11101   0.11649   0.13062   0.14101   0.14276

 Mulliken charges:
               1
     1  C   -0.300856
     2  C   -0.778751
     3  C    0.893348
     4  H    0.480699
     5  H    0.305072
     6  H    0.063855
     7  H    0.030509
     8  H    0.174527
     9  H    0.132435
    10  H    0.087690
    11  H    0.318511
    12  H    0.162628
    13  N    0.717332
    14  N   -0.264157
    15  N    1.880748
    16  O   -1.542880
    17  O   -1.185090
    18  O   -1.175620
 Sum of Mulliken charges =  -0.00000

 Dipole moment (field-independent basis, Debye):
    X=              3.1321    Y=             -1.1630    Z=             -0.8256  Tot=              3.4415

 Test job not archived.
 1\1\GINC-SE334\SP\RHF\Aug-CC-pVDZ\C3H9N3O3\OHZDE\08-Apr-2025\0\\#t hf
 aug-cc-pvdz iop(5/13=1,5/36=2,99/5=2) pseudo=read geom=check guess=(re
 ad,tcheck) scf=(maxcycle=1)\\title\\0,1\C,0,0.376273,1.63595,-0.760869
 \C,0,1.16014,0.229455,1.12322\C,0,1.92807,-0.90849,0.407372\H,0,-1.741
 46,-1.24213,-0.964754\H,0,3.13654,-0.95637,-1.10672\H,0,2.63737,-1.301
 15,1.12898\H,0,0.835587,-0.0712648,2.13651\H,0,1.24085,-1.70019,0.0635
 277\H,0,-0.520174,2.19009,-1.08914\H,0,1.11219,2.38636,-0.480535\H,0,0
 .848226,1.06475,-1.60278\H,0,1.95221,1.0049,1.2971\N,0,0.0242816,0.815

 Normal termination of Gaussian 16 at Tue Apr  8 21:56:07 2025.
