 Gaussian 16, Revision C.01,

 ----------------------------------------------------------------------
 #t hf aug-cc-pvdz symm=none int=(grid=ultrafine) guess=(read,tcheck) s
 table=(opt,rrhf)
 ----------------------------------------------------------------------
 -----
 title
 -----
 Symbolic Z-matrix:
 Charge =  0 Multiplicity = 1

 SCF Done:  E(RHF) =  -532.286332084     A.U. after   11 cycles
 Normal termination of Gaussian 16 at Tue Apr  8 21:10:11 2025.
 Gaussian 16:  ES64L-G16RevC.01  3-Jul-2019

 ----------------------------------------------------------------------
 #t hf aug-cc-pvdz iop(5/13=1,5/36=2,99/5=2) pseudo=read geom=check gue
 ss=(read,tcheck) scf=(maxcycle=1)
 ----------------------------------------------------------------------
 -----
 title
 -----
 Structure from the checkpoint file:  "ANI1ccx_1845_conf241_mol1.chk"
 Charge =  0 Multiplicity = 1

                         Standard orientation:
 ---------------------------------------------------------------------
 Center     Atomic      Atomic             Coordinates (Angstroms)
 Number     Number       Type             X           Y           Z
 ---------------------------------------------------------------------
      1          1           0       -0.903522   -3.158681    0.671922
      2          1           0        1.529581   -2.216301   -1.159000
      3          1           0        0.369462   -1.794251   -0.167623
      4          1           0       -2.911289    0.054221    0.092769
      5          1           0       -3.644379   -1.339731   -0.395134
      6          1           0       -1.673139   -1.884701   -0.105192
      7          1           0       -1.688918    1.897019    0.027627
      8          1           0        2.788662    0.991824   -0.357955
      9          1           0       -2.792928    1.861139    1.117190
     10          1           0        2.708101   -1.014071    0.610394
     11          1           0        2.769771   -0.126683    1.890230
     12          1           0        0.077707    3.381809   -0.593265
     13          1           0        0.629490    2.043169   -0.138767
     14          1           0        1.772551    0.141227   -1.047480
     15          8           0       -0.931891   -2.563001   -0.142748
     16          8           0        2.025432    1.124659   -0.999709
     17          8           0       -2.906019   -1.005851    0.240297
     18          8           0        3.301641   -0.378876    1.104990
     19          8           0        1.244151   -1.480411   -0.537424
     20          8           0       -2.618228    1.711549    0.131801
     21          8           0        0.006019    2.737429    0.147077
 ---------------------------------------------------------------------

 SCF Done:  E(RHF) =  -532.837439896     A.U. after    2 cycles

 The electronic state is 1-A.
 Alpha  occ. eigenvalues --  -20.57633 -20.57420 -20.55736 -20.55127 -20.54909
 Alpha  occ. eigenvalues --  -20.54713 -20.52945  -1.45634  -1.45044  -1.42936
 Alpha  occ. eigenvalues --   -1.42377  -1.41600  -1.40539  -1.38949  -0.73618
 Alpha  occ. eigenvalues --   -0.72088  -0.71863  -0.69288  -0.69135  -0.68793
 Alpha  occ. eigenvalues --   -0.65807  -0.62429  -0.60956  -0.60251  -0.57701
 Alpha  occ. eigenvalues --   -0.56677  -0.55622  -0.53315  -0.50759  -0.50195
 Alpha  occ. eigenvalues --   -0.49290  -0.49032  -0.48318  -0.48156  -0.46333
 Alpha virt. eigenvalues --    0.02873   0.03925   0.04386   0.04988   0.06052
 Alpha virt. eigenvalues --    0.06244   0.08069   0.08243   0.08940   0.09757
 Alpha virt. eigenvalues --    0.10326   0.10640   0.11637   0.12088   0.16988

 Mulliken charges:
               1
     1  H    0.377876
     2  H    0.456659
     3  H    1.000702
     4  H    0.763893
     5  H    0.386657
     6  H    0.839949
     7  H    0.639077
     8  H    0.542408
     9  H    0.399928
    10  H    0.681724
    11  H    0.391153
    12  H    0.341947
    13  H    0.731125
    14  H    0.767750
    15  O   -1.208594
    16  O   -1.300936
    17  O   -1.198167
    18  O   -0.978053
    19  O   -1.519364
    20  O   -1.087399
    21  O   -1.028334
 Sum of Mulliken charges =  -0.00000

 Dipole moment (field-independent basis, Debye):
    X=             -3.3640    Y=             -2.2496    Z=              1.0168  Tot=              4.1726

 Test job not archived.
 1\1\GINC-SE043\SP\RHF\Aug-CC-pVDZ\H14O7\OHZDE\08-Apr-2025\0\\#t hf aug
 -cc-pvdz iop(5/13=1,5/36=2,99/5=2) pseudo=read geom=check guess=(read,
 tcheck) scf=(maxcycle=1)\\title\\0,1\H,0,-0.903523,-3.15868,0.671922\H
 ,0,1.52958,-2.2163,-1.159\H,0,0.369461,-1.79425,-0.167623\H,0,-2.91129
 ,0.0542218,0.0927692\H,0,-3.64438,-1.33973,-0.395134\H,0,-1.67314,-1.8
 847,-0.105192\H,0,-1.68892,1.89702,0.027627\H,0,2.78866,0.991825,-0.35
 7955\H,0,-2.79293,1.86114,1.11719\H,0,2.7081,-1.01407,0.610394\H,0,2.7
 6977,-0.126682,1.89023\H,0,0.0777053,3.38181,-0.593265\H,0,0.629488,2.

 Normal termination of Gaussian 16 at Tue Apr  8 21:10:20 2025.
