 Gaussian 16, Revision C.01,

 ----------------------------------------------------------------------
 #t hf aug-cc-pvdz symm=none int=(grid=ultrafine) guess=(read,tcheck) s
 table=(opt,rrhf)
 ----------------------------------------------------------------------
 -----
 title
 -----
 Symbolic Z-matrix:
 Charge =  0 Multiplicity = 1

 SCF Done:  E(RHF) =  -853.783543434     A.U. after   14 cycles
 Normal termination of Gaussian 16 at Tue Apr  8 22:35:45 2025.
 Gaussian 16:  ES64L-G16RevC.01  3-Jul-2019

 ----------------------------------------------------------------------
 #t hf aug-cc-pvdz iop(5/13=1,5/36=2,99/5=2) pseudo=read geom=check gue
 ss=(read,tcheck) scf=(maxcycle=1)
 ----------------------------------------------------------------------
 -----
 title
 -----
 Structure from the checkpoint file:  "ANI1ccx_97_conf9_mol1.chk"
 Charge =  0 Multiplicity = 1

                         Standard orientation:
 ---------------------------------------------------------------------
 Center     Atomic      Atomic             Coordinates (Angstroms)
 Number     Number       Type             X           Y           Z
 ---------------------------------------------------------------------
      1          6           0       -1.116599    1.721360    0.520583
      2          6           0        2.500540   -0.960077    1.013980
      3          6           0        2.789780    0.200767   -1.228960
      4          6           0        2.416100    0.315144    0.176299
      5          6           0       -4.441050   -1.096578   -0.654602
      6          6           0        3.527409   -1.936861    0.788666
      7          6           0       -2.760620   -0.043236    1.020440
      8          6           0       -2.468290    1.207831    0.257464
      9          6           0       -0.160487    0.697589   -0.079557
     10          6           0       -4.140020   -0.591464    0.783703
     11          1           0       -3.679171   -2.988339   -0.898981
     12          1           0        1.151170   -0.728571   -1.669340
     13          1           0        3.379239   -2.821661    1.469800
     14          1           0        3.267679   -2.354781   -0.164708
     15          1           0        4.564140   -1.557131    0.783619
     16          1           0        2.391150   -1.291501    2.904210
     17          1           0        1.574530   -1.432600    0.706561
     18          1           0        3.052960    1.026319    0.615076
     19          1           0        1.174650    1.398210    1.236550
     20          1           0       -2.517731   -1.751519   -1.015530
     21          1           0       -4.925920    0.094514    1.096950
     22          1           0       -5.383821   -1.673898   -0.775964
     23          1           0       -0.895624    2.974110   -1.130560
     24          1           0       -4.596810   -0.293831   -1.304940
     25          1           0       -0.942215    1.769760    1.663450
     26          1           0       -2.547280    1.062741   -0.862429
     27          1           0        0.068305    3.294310    0.151009
     28          1           0       -1.985260   -0.816898    0.772823
     29          1           0       -2.685980    0.195922    2.070340
     30          1           0       -4.264160   -1.533429    1.431990
     31          1           0       -3.141919    1.992701    0.534674
     32          7           0       -0.877106    3.032690   -0.101634
     33          7           0       -3.460181   -2.032669   -1.174620
     34          7           0        1.132360    0.934106    0.404365
     35          8           0        2.485670   -0.477861    2.361230
     36          8           0       -0.520183   -0.181277   -0.813766
     37          8           0        3.705350    0.748464   -1.767530
     38          8           0        2.141160   -0.738099   -1.917370
 ---------------------------------------------------------------------

 SCF Done:  E(RHF) =  -854.664154702     A.U. after    2 cycles

 The electronic state is 1-A.
 Alpha  occ. eigenvalues --  -20.58634 -20.57932 -20.56134 -20.53909 -15.54797
 Alpha  occ. eigenvalues --  -15.51588 -15.46789 -11.39133 -11.38951 -11.31118
 Alpha  occ. eigenvalues --  -11.30101 -11.29562 -11.24625 -11.24509 -11.23195
 Alpha  occ. eigenvalues --  -11.23168 -11.22955  -1.54723  -1.52140  -1.47721
 Alpha  occ. eigenvalues --   -1.44919  -1.28641  -1.21612  -1.17296  -1.10633
 Alpha  occ. eigenvalues --   -1.09300  -1.03094  -1.00357  -0.92841  -0.89338
 Alpha  occ. eigenvalues --   -0.87452  -0.84365  -0.81227  -0.79652  -0.76837
 Alpha  occ. eigenvalues --   -0.75178  -0.73948  -0.71112  -0.70318  -0.69581
 Alpha  occ. eigenvalues --   -0.67913  -0.66892  -0.66383  -0.65645  -0.64773
 Alpha  occ. eigenvalues --   -0.62227  -0.62011  -0.61164  -0.60369  -0.58832
 Alpha  occ. eigenvalues --   -0.58103  -0.55886  -0.55222  -0.54564  -0.53720
 Alpha  occ. eigenvalues --   -0.52065  -0.52027  -0.50781  -0.49416  -0.48852
 Alpha  occ. eigenvalues --   -0.47926  -0.47238  -0.46914  -0.46389  -0.44057
 Alpha  occ. eigenvalues --   -0.42636  -0.40214
 Alpha virt. eigenvalues --    0.02064   0.02749   0.03175   0.03760   0.03923
 Alpha virt. eigenvalues --    0.04468   0.04605   0.05378   0.05765   0.06176
 Alpha virt. eigenvalues --    0.06514   0.07273   0.07402   0.08041   0.08664

 Mulliken charges:
               1
     1  C   -1.972522
     2  C    1.380352
     3  C    2.565666
     4  C   -1.478291
     5  C   -0.528454
     6  C   -0.473017
     7  C   -0.361544
     8  C    0.206896
     9  C    0.095148
    10  C   -0.381309
    11  H    0.285707
    12  H    0.566979
    13  H    0.188442
    14  H    0.214999
    15  H    0.214556
    16  H    0.347132
    17  H    0.184305
    18  H   -0.099151
    19  H    0.419072
    20  H   -0.111118
    21  H    0.133577
    22  H    0.089068
    23  H    0.258914
    24  H   -0.072632
    25  H    0.195347
    26  H    0.319517
    27  H    0.283813
    28  H    0.356243
    29  H    0.088875
    30  H    0.283111
    31  H    0.132723
    32  N    0.791465
    33  N    0.403917
    34  N    1.271465
    35  O   -1.554004
    36  O   -1.374058
    37  O   -1.429605
    38  O   -1.441584
 Sum of Mulliken charges =  -0.00000

 Dipole moment (field-independent basis, Debye):
    X=             -1.4785    Y=             -1.3338    Z=              5.3410  Tot=              5.7001

 Test job not archived.
 1\1\GINC-SE221\SP\RHF\Aug-CC-pVDZ\C10H21N3O4\OHZDE\08-Apr-2025\0\\#t h
 f aug-cc-pvdz iop(5/13=1,5/36=2,99/5=2) pseudo=read geom=check guess=(
 read,tcheck) scf=(maxcycle=1)\\title\\0,1\C,0,-1.1166,1.72136,0.520583
 \C,0,2.50054,-0.960076,1.01398\C,0,2.78978,0.200768,-1.22896\C,0,2.416
 1,0.315145,0.176299\C,0,-4.44105,-1.09658,-0.654602\C,0,3.52741,-1.936
 86,0.788666\C,0,-2.76062,-0.0432367,1.02044\C,0,-2.46829,1.20783,0.257
 464\C,0,-0.160487,0.697589,-0.0795576\C,0,-4.14002,-0.591465,0.783703\
 H,0,-3.67917,-2.98834,-0.898981\H,0,1.15117,-0.728571,-1.66934\H,0,3.3

 Normal termination of Gaussian 16 at Tue Apr  8 22:36:49 2025.
