 Gaussian 16, Revision C.01,

 ----------------------------------------------------------------------
 #t hf aug-cc-pvdz symm=none int=(grid=ultrafine) guess=(read,tcheck) s
 table=(opt,rrhf)
 ----------------------------------------------------------------------
 -----
 title
 -----
 Symbolic Z-matrix:
 Charge =  0 Multiplicity = 1

 SCF Done:  E(RHF) =  -528.200410763     A.U. after   15 cycles
 Normal termination of Gaussian 16 at Tue Apr  8 22:05:12 2025.
 Gaussian 16:  ES64L-G16RevC.01  3-Jul-2019

 ----------------------------------------------------------------------
 #t hf aug-cc-pvdz iop(5/13=1,5/36=2,99/5=2) pseudo=read geom=check gue
 ss=(read,tcheck) scf=(maxcycle=1)
 ----------------------------------------------------------------------
 -----
 title
 -----
 Structure from the checkpoint file:  "ANI1ccx_893_conf3_mol2.chk"
 Charge =  0 Multiplicity = 1

                         Standard orientation:
 ---------------------------------------------------------------------
 Center     Atomic      Atomic             Coordinates (Angstroms)
 Number     Number       Type             X           Y           Z
 ---------------------------------------------------------------------
      1          6           0       -1.853489   -0.144466   -0.029874
      2          6           0       -0.691152   -0.997731   -0.002218
      3          6           0        0.658476   -0.719606    0.013169
      4          6           0        1.474961    0.544739   -0.016446
      5          1           0       -2.576619    1.583299    0.062783
      6          1           0       -0.942306   -2.047010    0.011799
      7          1           0        2.382162   -1.444510    0.032538
      8          1           0       -0.061051    1.697830   -0.045856
      9          8           0       -1.649109    1.220820    0.016930
     10          8           0       -2.989689   -0.569254    0.004377
     11          8           0        1.472652   -1.792510   -0.006130
     12          8           0        0.916594    1.751650   -0.011513
     13          8           0        2.707681    0.403390    0.015204
 ---------------------------------------------------------------------

 SCF Done:  E(RHF) =  -528.714730088     A.U. after    2 cycles

 The electronic state is 1-A.
 Alpha  occ. eigenvalues --  -20.64647 -20.62621 -20.61358 -20.57692 -20.56762
 Alpha  occ. eigenvalues --  -11.44616 -11.43442 -11.39186 -11.29138  -1.58552
 Alpha  occ. eigenvalues --   -1.57336  -1.54043  -1.48005  -1.47120  -1.11399
 Alpha  occ. eigenvalues --   -0.97778  -0.89903  -0.86125  -0.80525  -0.75298
 Alpha  occ. eigenvalues --   -0.73906  -0.68817  -0.67969  -0.66504  -0.65619
 Alpha  occ. eigenvalues --   -0.64263  -0.62304  -0.60344  -0.56413  -0.51888
 Alpha  occ. eigenvalues --   -0.49568  -0.49447  -0.48366  -0.39668
 Alpha virt. eigenvalues --    0.01854   0.02780   0.04208   0.05294   0.06136
 Alpha virt. eigenvalues --    0.08371   0.09704   0.10379   0.11279   0.11863
 Alpha virt. eigenvalues --    0.12838   0.13133   0.13540   0.15025   0.15571

 Mulliken charges:
               1
     1  C    1.739766
     2  C    0.630975
     3  C    1.663978
     4  C    1.575615
     5  H    0.457017
     6  H   -0.293995
     7  H    0.485115
     8  H    0.643572
     9  O   -1.510172
    10  O   -1.219025
    11  O   -1.626692
    12  O   -1.319026
    13  O   -1.227129
 Sum of Mulliken charges =   0.00000

 Dipole moment (field-independent basis, Debye):
    X=             -1.3611    Y=              0.9434    Z=             -0.0174  Tot=              1.6562

 Test job not archived.
 1\1\GINC-SE187\SP\RHF\Aug-CC-pVDZ\C4H4O5\OHZDE\08-Apr-2025\0\\#t hf au
 g-cc-pvdz iop(5/13=1,5/36=2,99/5=2) pseudo=read geom=check guess=(read
 ,tcheck) scf=(maxcycle=1)\\title\\0,1\C,0,-1.85349,-0.144465,-0.029874
 1\C,0,-0.691153,-0.997731,-0.00221825\C,0,0.658475,-0.719606,0.0131691
 \C,0,1.47496,0.544739,-0.0164463\H,0,-2.57662,1.5833,0.0627827\H,0,-0.
 942308,-2.04701,0.0117989\H,0,2.38216,-1.44451,0.0325384\H,0,-0.061051
 8,1.69783,-0.0458561\O,0,-1.64911,1.22082,0.0169299\O,0,-2.98969,-0.56
 9253,0.00437732\O,0,1.47265,-1.79251,-0.00612958\O,0,0.916593,1.75165,

 Normal termination of Gaussian 16 at Tue Apr  8 22:05:17 2025.
