 Gaussian 16, Revision C.01,

 ----------------------------------------------------------------------
 #t hf aug-cc-pvdz symm=none int=(grid=ultrafine) guess=(read,tcheck) s
 table=(opt,rrhf)
 ----------------------------------------------------------------------
 -----
 title
 -----
 Symbolic Z-matrix:
 Charge =  0 Multiplicity = 1

 SCF Done:  E(RHF) =  -334.537145491     A.U. after   14 cycles
 Normal termination of Gaussian 16 at Tue Apr  8 21:10:20 2025.
 Gaussian 16:  ES64L-G16RevC.01  3-Jul-2019

 ----------------------------------------------------------------------
 #t hf aug-cc-pvdz iop(5/13=1,5/36=2,99/5=2) pseudo=read geom=check gue
 ss=(read,tcheck) scf=(maxcycle=1)
 ----------------------------------------------------------------------
 -----
 title
 -----
 Structure from the checkpoint file:  "ANI1ccx_1859_conf2_mol1.chk"
 Charge =  0 Multiplicity = 1

                         Standard orientation:
 ---------------------------------------------------------------------
 Center     Atomic      Atomic             Coordinates (Angstroms)
 Number     Number       Type             X           Y           Z
 ---------------------------------------------------------------------
      1          1           0       -1.902869    1.408463   -0.413522
      2          1           0       -1.539270   -1.236588    0.954526
      3          7           0        1.861490   -0.069424   -0.248328
      4          7           0        2.858640   -0.074783    0.228944
      5          8           0       -1.193999    1.185072    0.198673
      6          8           0       -0.761198   -0.073908   -0.285396
      7          8           0       -1.744650   -1.006467    0.036058
 ---------------------------------------------------------------------

 SCF Done:  E(RHF) =  -334.856113618     A.U. after    2 cycles

 The electronic state is 1-A.
 Alpha  occ. eigenvalues --  -20.68587 -20.63510 -20.63342 -15.61351 -15.61259
 Alpha  occ. eigenvalues --   -1.68938  -1.47898  -1.46595  -1.19873  -0.81498
 Alpha  occ. eigenvalues --   -0.78531  -0.69752  -0.68397  -0.67014  -0.65874
 Alpha  occ. eigenvalues --   -0.65774  -0.65406  -0.51309  -0.50392  -0.48442
 Alpha virt. eigenvalues --    0.04203   0.04811   0.10091   0.10220   0.11371
 Alpha virt. eigenvalues --    0.13201   0.14339   0.16854   0.17750   0.18530
 Alpha virt. eigenvalues --    0.19185   0.19652   0.20889   0.21417   0.23043

 Mulliken charges:
               1
     1  H    0.450883
     2  H    0.431336
     3  N    0.122742
     4  N   -0.200202
     5  O   -0.545859
     6  O    0.231777
     7  O   -0.490677
 Sum of Mulliken charges =   0.00000

 Dipole moment (field-independent basis, Debye):
    X=             -1.1963    Y=              0.0182    Z=              0.5983  Tot=              1.3377

 Test job not archived.
 1\1\GINC-SE096\SP\RHF\Aug-CC-pVDZ\H2N2O3\OHZDE\08-Apr-2025\0\\#t hf au
 g-cc-pvdz iop(5/13=1,5/36=2,99/5=2) pseudo=read geom=check guess=(read
 ,tcheck) scf=(maxcycle=1)\\title\\0,1\H,0,-1.90287,1.40846,-0.413522\H
 ,0,-1.53927,-1.23659,0.954526\N,0,1.86149,-0.069424,-0.248328\N,0,2.85
 864,-0.0747824,0.228944\O,0,-1.194,1.18507,0.198673\O,0,-0.761198,-0.0
 739102,-0.285396\O,0,-1.74465,-1.00647,0.0360584\\Version=ES64L-G16Rev
 C.01\State=1-A\HF=-334.8561136\RMSD=3.982e-02\Dipole=-0.4706713,0.0071
 598,0.2353918\Quadrupole=-0.2011495,0.1413542,0.0597953,-1.6248998,-0.

 Normal termination of Gaussian 16 at Tue Apr  8 21:10:22 2025.
