 Gaussian 16, Revision C.01,

 ----------------------------------------------------------------------
 #t hf aug-cc-pvdz symm=none int=(grid=ultrafine) guess=(read,tcheck) s
 table=(opt,rrhf)
 ----------------------------------------------------------------------
 -----
 title
 -----
 Symbolic Z-matrix:
 Charge =  0 Multiplicity = 1

 SCF Done:  E(RHF) =  -450.688787497     A.U. after   13 cycles
 Normal termination of Gaussian 16 at Tue Apr  8 21:52:18 2025.
 Gaussian 16:  ES64L-G16RevC.01  3-Jul-2019

 ----------------------------------------------------------------------
 #t hf aug-cc-pvdz iop(5/13=1,5/36=2,99/5=2) pseudo=read geom=check gue
 ss=(read,tcheck) scf=(maxcycle=1)
 ----------------------------------------------------------------------
 -----
 title
 -----
 Structure from the checkpoint file:  "ANI1ccx_724_conf2_mol1.chk"
 Charge =  0 Multiplicity = 1

                         Standard orientation:
 ---------------------------------------------------------------------
 Center     Atomic      Atomic             Coordinates (Angstroms)
 Number     Number       Type             X           Y           Z
 ---------------------------------------------------------------------
      1          6           0       -3.015140   -0.007015   -0.042296
      2          6           0       -0.719551   -0.035293    0.044466
      3          6           0        1.789140   -0.158886   -0.023931
      4          1           0       -3.220030    0.201182    0.941961
      5          1           0       -2.990050    0.833855   -0.725600
      6          1           0       -3.802090   -0.699391   -0.338397
      7          1           0        0.416603   -1.693860    0.079643
      8          1           0        0.950724    1.776790   -0.255764
      9          1           0        2.719620    1.508290   -0.236858
     10          7           0        0.485396   -0.685522    0.065821
     11          7           0        1.780910    1.193260   -0.001253
     12          8           0       -1.767380   -0.831642   -0.057125
     13          8           0       -0.755232    1.216150    0.097935
     14          8           0        2.739410   -0.918741   -0.014110
 ---------------------------------------------------------------------

 SCF Done:  E(RHF) =  -451.137349808     A.U. after    2 cycles

 The electronic state is 1-A.
 Alpha  occ. eigenvalues --  -20.62807 -20.53760 -20.51774 -15.55778 -15.52283
 Alpha  occ. eigenvalues --  -11.44412 -11.40335 -11.31780  -1.57232  -1.47629
 Alpha  occ. eigenvalues --   -1.45558  -1.28102  -1.21108  -1.01243  -0.91386
 Alpha  occ. eigenvalues --   -0.84662  -0.80004  -0.76456  -0.71598  -0.71479
 Alpha  occ. eigenvalues --   -0.66732  -0.64979  -0.63637  -0.61606  -0.58682
 Alpha  occ. eigenvalues --   -0.56221  -0.49496  -0.47576  -0.47277  -0.45638
 Alpha  occ. eigenvalues --   -0.43654
 Alpha virt. eigenvalues --    0.02973   0.04128   0.04706   0.04835   0.05744
 Alpha virt. eigenvalues --    0.08053   0.09143   0.10298   0.11549   0.11923
 Alpha virt. eigenvalues --    0.13326   0.13889   0.14655   0.14977   0.15043

 Mulliken charges:
               1
     1  C    0.192833
     2  C    1.232752
     3  C    0.160481
     4  H    0.011887
     5  H    0.198916
     6  H    0.024913
     7  H    0.205815
     8  H    0.150256
     9  H    0.251615
    10  N    0.821100
    11  N    0.498064
    12  O   -1.317519
    13  O   -1.207097
    14  O   -1.224018
 Sum of Mulliken charges =  -0.00000

 Dipole moment (field-independent basis, Debye):
    X=             -4.1430    Y=              0.5833    Z=             -0.8681  Tot=              4.2729

 Test job not archived.
 1\1\GINC-SE398\SP\RHF\Aug-CC-pVDZ\C3H6N2O3\OHZDE\08-Apr-2025\0\\#t hf
 aug-cc-pvdz iop(5/13=1,5/36=2,99/5=2) pseudo=read geom=check guess=(re
 ad,tcheck) scf=(maxcycle=1)\\title\\0,1\C,0,-3.01514,-0.00701441,-0.04
 22956\C,0,-0.719551,-0.0352931,0.0444662\C,0,1.78914,-0.158886,-0.0239
 311\H,0,-3.22003,0.201182,0.941961\H,0,-2.99005,0.833855,-0.7256\H,0,-
 3.80209,-0.699391,-0.338397\H,0,0.416603,-1.69386,0.0796428\H,0,0.9507
 24,1.77679,-0.255764\H,0,2.71962,1.50829,-0.236858\N,0,0.485396,-0.685
 522,0.0658209\N,0,1.78091,1.19326,-0.00125272\O,0,-1.76738,-0.831642,-

 Normal termination of Gaussian 16 at Tue Apr  8 21:52:23 2025.
