 Gaussian 16, Revision C.01,

 ----------------------------------------------------------------------
 #t hf aug-cc-pvdz symm=none int=(grid=ultrafine) guess=(read,tcheck) s
 table=(opt,rrhf)
 ----------------------------------------------------------------------
 -----
 title
 -----
 Symbolic Z-matrix:
 Charge =  0 Multiplicity = 1

 SCF Done:  E(RHF) =  -486.380302789     A.U. after   14 cycles
 Normal termination of Gaussian 16 at Tue Apr  8 21:44:58 2025.
 Gaussian 16:  ES64L-G16RevC.01  3-Jul-2019

 ----------------------------------------------------------------------
 #t hf aug-cc-pvdz iop(5/13=1,5/36=2,99/5=2) pseudo=read geom=check gue
 ss=(read,tcheck) scf=(maxcycle=1)
 ----------------------------------------------------------------------
 -----
 title
 -----
 Structure from the checkpoint file:  "ANI1ccx_517_conf7_mol1.chk"
 Charge =  0 Multiplicity = 1

                         Standard orientation:
 ---------------------------------------------------------------------
 Center     Atomic      Atomic             Coordinates (Angstroms)
 Number     Number       Type             X           Y           Z
 ---------------------------------------------------------------------
      1          6           0        0.698476    0.375564   -0.026909
      2          6           0       -0.711409   -0.291024   -0.023843
      3          1           0        2.936570    0.721912    0.269987
      4          1           0        1.470771   -1.534901    0.188294
      5          1           0       -1.512270    1.538909    0.065160
      6          1           0       -3.028660   -0.767610    0.212823
      7          7           0        1.644420   -0.590466   -0.001617
      8          7           0       -1.704520    0.558140    0.135750
      9          8           0        2.971260   -0.243535    0.039478
     10          8           0        0.913198    1.559159   -0.101594
     11          8           0       -0.764063   -1.512731   -0.084033
     12          8           0       -3.041410    0.167198   -0.025186
 ---------------------------------------------------------------------

 SCF Done:  E(RHF) =  -486.858949401     A.U. after    2 cycles

 The electronic state is 1-A.
 Alpha  occ. eigenvalues --  -20.63894 -20.62156 -20.56028 -20.55298 -15.62091
 Alpha  occ. eigenvalues --  -15.60279 -11.40384 -11.40330  -1.55758  -1.55064
 Alpha  occ. eigenvalues --   -1.50333  -1.49148  -1.24032  -1.20745  -0.94863
 Alpha  occ. eigenvalues --   -0.90573  -0.85397  -0.76255  -0.74621  -0.70617
 Alpha  occ. eigenvalues --   -0.69756  -0.68311  -0.64501  -0.63208  -0.61331
 Alpha  occ. eigenvalues --   -0.57286  -0.54283  -0.53291  -0.44988  -0.44297
 Alpha  occ. eigenvalues --   -0.42404
 Alpha virt. eigenvalues --    0.03433   0.04721   0.05437   0.05911   0.07660
 Alpha virt. eigenvalues --    0.09731   0.10534   0.10895   0.11117   0.11827
 Alpha virt. eigenvalues --    0.13896   0.15337   0.15869   0.16992   0.18048

 Mulliken charges:
               1
     1  C    0.401537
     2  C    0.564742
     3  H    0.363432
     4  H    0.103286
     5  H    0.144501
     6  H    0.328421
     7  N    1.721494
     8  N    1.564942
     9  O   -1.355902
    10  O   -1.311776
    11  O   -1.361009
    12  O   -1.163668
 Sum of Mulliken charges =  -0.00000

 Dipole moment (field-independent basis, Debye):
    X=             -0.7273    Y=              0.2404    Z=              1.1861  Tot=              1.4120

 Test job not archived.
 1\1\GINC-SE402\SP\RHF\Aug-CC-pVDZ\C2H4N2O4\OHZDE\08-Apr-2025\0\\#t hf
 aug-cc-pvdz iop(5/13=1,5/36=2,99/5=2) pseudo=read geom=check guess=(re
 ad,tcheck) scf=(maxcycle=1)\\title\\0,1\C,0,0.698476,0.375565,-0.02690
 85\C,0,-0.711409,-0.291023,-0.0238434\H,0,2.93657,0.721912,0.269987\H,
 0,1.47077,-1.5349,0.188294\H,0,-1.51227,1.53891,0.0651597\H,0,-3.02866
 ,-0.767608,0.212823\N,0,1.64442,-0.590465,-0.00161715\N,0,-1.70452,0.5
 58141,0.13575\O,0,2.97126,-0.243535,0.039478\O,0,0.913198,1.55916,-0.1
 01594\O,0,-0.764064,-1.51273,-0.0840325\O,0,-3.04141,0.1672,-0.0251862

 Normal termination of Gaussian 16 at Tue Apr  8 21:45:03 2025.
