 Gaussian 16, Revision C.01,

 ----------------------------------------------------------------------
 #t hf aug-cc-pvdz symm=none int=(grid=ultrafine) guess=(read,tcheck) s
 table=(opt,rrhf)
 ----------------------------------------------------------------------
 -----
 title
 -----
 Symbolic Z-matrix:
 Charge =  0 Multiplicity = 1

 SCF Done:  E(RHF) =  -1021.12853639     A.U. after   15 cycles
 Normal termination of Gaussian 16 at Tue Apr  8 22:13:18 2025.
 Gaussian 16:  ES64L-G16RevC.01  3-Jul-2019

 ----------------------------------------------------------------------
 #t hf aug-cc-pvdz iop(5/13=1,5/36=2,99/5=2) pseudo=read geom=check gue
 ss=(read,tcheck) scf=(maxcycle=1)
 ----------------------------------------------------------------------
 -----
 title
 -----
 Structure from the checkpoint file:  "ANI1ccx_54_conf2_mol1.chk"
 Charge =  0 Multiplicity = 1

                         Standard orientation:
 ---------------------------------------------------------------------
 Center     Atomic      Atomic             Coordinates (Angstroms)
 Number     Number       Type             X           Y           Z
 ---------------------------------------------------------------------
      1          6           0       -2.094299    1.209731    0.197942
      2          6           0        4.268920   -0.461945   -0.406174
      3          6           0        1.889150   -0.317082   -1.208730
      4          6           0        1.026150   -0.231056    1.174120
      5          6           0        0.757216    0.075136   -0.293797
      6          6           0        3.180930    0.444585   -0.965550
      7          6           0       -3.748860   -0.539768   -0.601517
      8          6           0       -2.733630    0.477671   -0.992523
      9          6           0       -0.862706    2.050391   -0.197938
     10          6           0       -3.246760   -1.940259   -0.258129
     11          1           0       -0.167391   -0.451439   -0.588255
     12          1           0       -0.554548   -1.360489    1.262040
     13          1           0        3.676830   -0.009156    1.424830
     14          1           0        3.604901    0.784057   -1.905190
     15          1           0        3.088911    1.291710   -0.270337
     16          1           0        2.029280   -1.404970   -1.226790
     17          1           0        1.666300   -0.048468   -2.241640
     18          1           0        1.092931    2.129810   -0.572420
     19          1           0       -1.930160   -2.951209    0.522583
     20          1           0       -4.378170   -0.165630    0.218648
     21          1           0       -4.504060   -0.749304   -1.362690
     22          1           0       -3.158709    1.327381   -1.566970
     23          1           0       -1.967670    0.071384   -1.655190
     24          1           0       -1.806550    0.477670    0.959346
     25          1           0       -2.768469    2.482361    1.682350
     26          1           0       -3.376749    2.780641    0.224496
     27          7           0       -3.105039    2.041321    0.851048
     28          7           0        0.354156    1.451780   -0.483099
     29          8           0       -0.914055    3.272051   -0.252040
     30          8           0       -3.794520   -2.971569   -0.487675
     31          8           0       -2.033670   -1.968289    0.383368
     32          8           0        1.978520    0.231425    1.749820
     33          8           0        5.008260   -1.102671   -1.126280
     34          8           0        4.308500   -0.546618    0.918912
     35          8           0        0.208568   -1.071890    1.793060
 ---------------------------------------------------------------------

 SCF Done:  E(RHF) =  -1022.14805805     A.U. after    2 cycles

 The electronic state is 1-A.
 Alpha  occ. eigenvalues --  -20.65376 -20.63164 -20.58214 -20.57695 -20.56885
 Alpha  occ. eigenvalues --  -20.53960 -20.52142 -15.55782 -15.51170 -11.43814
 Alpha  occ. eigenvalues --  -11.43141 -11.38880 -11.38561 -11.33666 -11.31652
 Alpha  occ. eigenvalues --  -11.29147 -11.28924 -11.28456 -11.26706  -1.60060
 Alpha  occ. eigenvalues --   -1.58655  -1.53087  -1.50007  -1.49274  -1.48592
 Alpha  occ. eigenvalues --   -1.43621  -1.27987  -1.22702  -1.12558  -1.11795
 Alpha  occ. eigenvalues --   -1.03451  -1.01390  -0.92808  -0.92062  -0.88374
 Alpha  occ. eigenvalues --   -0.85752  -0.83593  -0.83403  -0.80525  -0.76945
 Alpha  occ. eigenvalues --   -0.75460  -0.74135  -0.73352  -0.72316  -0.70822
 Alpha  occ. eigenvalues --   -0.70116  -0.68619  -0.68034  -0.66290  -0.65646
 Alpha  occ. eigenvalues --   -0.65055  -0.64025  -0.63646  -0.62832  -0.62116
 Alpha  occ. eigenvalues --   -0.61350  -0.59796  -0.58229  -0.58089  -0.57183
 Alpha  occ. eigenvalues --   -0.56345  -0.54302  -0.52964  -0.52448  -0.51690
 Alpha  occ. eigenvalues --   -0.50031  -0.49079  -0.48690  -0.47862  -0.45280
 Alpha  occ. eigenvalues --   -0.44887  -0.43781  -0.42698
 Alpha virt. eigenvalues --    0.02007   0.02358   0.02732   0.03388   0.04334
 Alpha virt. eigenvalues --    0.04741   0.05105   0.05255   0.06129   0.06744
 Alpha virt. eigenvalues --    0.07258   0.07974   0.08459   0.08746   0.08949

 Mulliken charges:
               1
     1  C   -2.552505
     2  C    2.394523
     3  C   -0.265616
     4  C    2.269960
     5  C   -0.335034
     6  C   -0.127587
     7  C   -0.408139
     8  C    0.160708
     9  C    1.077103
    10  C    2.239193
    11  H    0.062874
    12  H    0.770926
    13  H    0.622270
    14  H    0.047770
    15  H    0.128111
    16  H    0.101681
    17  H    0.139211
    18  H    0.185798
    19  H    0.403165
    20  H    0.370497
    21  H    0.183645
    22  H    0.204401
    23  H    0.044528
    24  H    0.144527
    25  H    0.167465
    26  H    0.295435
    27  N    0.947807
    28  N    0.767961
    29  O   -1.432357
    30  O   -1.296891
    31  O   -1.461034
    32  O   -1.558879
    33  O   -1.380522
    34  O   -1.408062
    35  O   -1.502933
 Sum of Mulliken charges =  -0.00000

 Dipole moment (field-independent basis, Debye):
    X=             -6.2585    Y=              0.5770    Z=             -1.3506  Tot=              6.4286

 Test job not archived.
 1\1\GINC-SE090\SP\RHF\Aug-CC-pVDZ\C10H16N2O7\OHZDE\08-Apr-2025\0\\#t h
 f aug-cc-pvdz iop(5/13=1,5/36=2,99/5=2) pseudo=read geom=check guess=(
 read,tcheck) scf=(maxcycle=1)\\title\\0,1\C,0,-2.0943,1.20973,0.197942
 \C,0,4.26892,-0.461944,-0.406174\C,0,1.88915,-0.317082,-1.20873\C,0,1.
 02615,-0.231056,1.17412\C,0,0.757216,0.0751359,-0.293797\C,0,3.18093,0
 .444585,-0.96555\C,0,-3.74886,-0.539769,-0.601517\C,0,-2.73363,0.47767
 ,-0.992523\C,0,-0.862707,2.05039,-0.197938\C,0,-3.24676,-1.94026,-0.25
 8129\H,0,-0.167391,-0.451439,-0.588255\H,0,-0.554548,-1.36049,1.26204\

 Normal termination of Gaussian 16 at Tue Apr  8 22:14:21 2025.
