 Gaussian 16, Revision C.01,

 ----------------------------------------------------------------------
 #t hf aug-cc-pvdz symm=none int=(grid=ultrafine) guess=(read,tcheck) s
 table=(opt,rrhf)
 ----------------------------------------------------------------------
 -----
 title
 -----
 Symbolic Z-matrix:
 Charge =  0 Multiplicity = 1

 SCF Done:  E(RHF) =  -637.347678486     A.U. after   15 cycles
 Normal termination of Gaussian 16 at Tue Apr  8 19:53:25 2025.
 Gaussian 16:  ES64L-G16RevC.01  3-Jul-2019

 ----------------------------------------------------------------------
 #t hf aug-cc-pvdz iop(5/13=1,5/36=2,99/5=2) pseudo=read geom=check gue
 ss=(read,tcheck) scf=(maxcycle=1)
 ----------------------------------------------------------------------
 -----
 title
 -----
 Structure from the checkpoint file:  "ANI1ccx_1522_conf1_mol1.chk"
 Charge =  0 Multiplicity = 1

                         Standard orientation:
 ---------------------------------------------------------------------
 Center     Atomic      Atomic             Coordinates (Angstroms)
 Number     Number       Type             X           Y           Z
 ---------------------------------------------------------------------
      1          6           0        1.739530    0.539025    0.013767
      2          6           0        2.277120   -1.586659   -0.302773
      3          6           0        0.064255   -1.125240    0.122303
      4          6           0       -2.375540   -1.085470    0.620277
      5          6           0       -2.756250   -0.147504   -0.534966
      6          6           0       -0.745828    1.378240   -0.118611
      7          6           0        0.292992    0.293314    0.058165
      8          1           0       -2.627291    1.922720   -0.335573
      9          1           0       -2.605110   -0.766788   -1.424980
     10          1           0       -3.780510    0.159003   -0.434496
     11          1           0       -3.071880   -1.920151    0.456528
     12          1           0       -2.419570   -0.690073    1.625050
     13          1           0        2.984490   -2.341379   -0.595176
     14          1           0        3.203689    1.900121    0.309307
     15          1           0        1.596259    2.547711    0.353908
     16          7           0        2.222289    1.735841    0.375862
     17          7           0        2.689110   -0.342525   -0.276996
     18          7           0        1.059930   -1.991530   -0.118207
     19          7           0       -2.029460    1.101250   -0.469929
     20          8           0       -1.078650   -1.749230    0.382134
     21          8           0       -0.402705    2.508400    0.158035
 ---------------------------------------------------------------------

 SCF Done:  E(RHF) =  -637.988002833     A.U. after    2 cycles

 The electronic state is 1-A.
 Alpha  occ. eigenvalues --  -20.59934 -20.51548 -15.54287 -15.51361 -15.48260
 Alpha  occ. eigenvalues --  -15.47696 -11.38011 -11.37729 -11.34918 -11.33082
 Alpha  occ. eigenvalues --  -11.31541 -11.31088 -11.25712  -1.52664  -1.47907
 Alpha  occ. eigenvalues --   -1.32131  -1.26214  -1.24220  -1.17009  -1.07966
 Alpha  occ. eigenvalues --   -1.04459  -0.96849  -0.91492  -0.87494  -0.83880
 Alpha  occ. eigenvalues --   -0.78922  -0.76739  -0.74722  -0.73702  -0.70737
 Alpha  occ. eigenvalues --   -0.67507  -0.66574  -0.65255  -0.63861  -0.62714
 Alpha  occ. eigenvalues --   -0.62042  -0.59724  -0.57049  -0.55641  -0.51986
 Alpha  occ. eigenvalues --   -0.51371  -0.50080  -0.46062  -0.43506  -0.43154
 Alpha  occ. eigenvalues --   -0.40433  -0.35770
 Alpha virt. eigenvalues --    0.02332   0.03837   0.03970   0.04191   0.05169
 Alpha virt. eigenvalues --    0.05690   0.06416   0.07575   0.07736   0.09257
 Alpha virt. eigenvalues --    0.09400   0.10241   0.10749   0.11269   0.11772

 Mulliken charges:
               1
     1  C   -3.479011
     2  C   -0.220866
     3  C   -0.189424
     4  C    0.430461
     5  C   -0.634453
     6  C    0.262949
     7  C    1.841817
     8  H    0.244378
     9  H    0.101579
    10  H    0.031760
    11  H    0.106243
    12  H    0.073688
    13  H   -0.106471
    14  H    0.037601
    15  H    0.201917
    16  N    1.077519
    17  N    1.327192
    18  N    1.170056
    19  N    1.005870
    20  O   -1.720798
    21  O   -1.562005
 Sum of Mulliken charges =  -0.00000

 Dipole moment (field-independent basis, Debye):
    X=             -4.4360    Y=              0.5586    Z=              0.0292  Tot=              4.4711

 Test job not archived.
 1\1\GINC-SE332\SP\RHF\Aug-CC-pVDZ\C7H8N4O2\OHZDE\08-Apr-2025\0\\#t hf
 aug-cc-pvdz iop(5/13=1,5/36=2,99/5=2) pseudo=read geom=check guess=(re
 ad,tcheck) scf=(maxcycle=1)\\title\\0,1\C,0,1.73953,0.539024,0.0137666
 \C,0,2.27712,-1.58666,-0.302773\C,0,0.064255,-1.12524,0.122303\C,0,-2.
 37554,-1.08547,0.620277\C,0,-2.75625,-0.147504,-0.534966\C,0,-0.745828
 ,1.37824,-0.118611\C,0,0.292992,0.293314,0.0581645\H,0,-2.62729,1.9227
 2,-0.335573\H,0,-2.60511,-0.766788,-1.42498\H,0,-3.78051,0.159004,-0.4
 34496\H,0,-3.07188,-1.92015,0.456528\H,0,-2.41957,-0.690073,1.62505\H,

 Normal termination of Gaussian 16 at Tue Apr  8 19:53:39 2025.
