 Gaussian 16, Revision C.01,

 ----------------------------------------------------------------------
 #t hf aug-cc-pvdz symm=none int=(grid=ultrafine) guess=(read,tcheck) s
 table=(opt,rrhf)
 ----------------------------------------------------------------------
 -----
 title
 -----
 Symbolic Z-matrix:
 Charge =  0 Multiplicity = 1

 SCF Done:  E(RHF) =  -743.675769739     A.U. after   14 cycles
 Normal termination of Gaussian 16 at Tue Apr  8 22:09:59 2025.
 Gaussian 16:  ES64L-G16RevC.01  3-Jul-2019

 ----------------------------------------------------------------------
 #t hf aug-cc-pvdz iop(5/13=1,5/36=2,99/5=2) pseudo=read geom=check gue
 ss=(read,tcheck) scf=(maxcycle=1)
 ----------------------------------------------------------------------
 -----
 title
 -----
 Structure from the checkpoint file:  "ANI1ccx_77_conf1_mol2.chk"
 Charge =  0 Multiplicity = 1

                         Standard orientation:
 ---------------------------------------------------------------------
 Center     Atomic      Atomic             Coordinates (Angstroms)
 Number     Number       Type             X           Y           Z
 ---------------------------------------------------------------------
      1          6           0        3.530350    1.410080   -0.322399
      2          6           0        0.009582   -1.994270   -0.083620
      3          6           0       -2.293370   -1.836990    0.430518
      4          6           0       -2.849320   -1.176640   -0.851744
      5          6           0       -2.889330    1.055840   -0.015895
      6          6           0        1.414850   -1.699400    0.468112
      7          6           0        0.180637    1.413260   -0.111843
      8          6           0        1.095480    0.724469    0.943643
      9          6           0        3.091160   -0.025633   -0.264041
     10          6           0       -2.038180    2.332010   -0.042790
     11          1           0       -2.416180   -1.723840   -1.744540
     12          1           0        1.352570   -2.052890    1.518050
     13          1           0        2.159930   -2.271490   -0.089700
     14          1           0       -0.036798   -3.106050   -0.220048
     15          1           0       -0.072179   -1.511310   -1.075750
     16          1           0       -2.400660   -2.906680    0.295941
     17          1           0       -2.864250   -1.545490    1.330120
     18          1           0       -3.928050   -1.289900   -0.838341
     19          1           0       -2.718420    0.595645    0.975719
     20          1           0       -0.307330    0.725295   -0.766451
     21          1           0       -2.046900    2.683700   -1.082600
     22          1           0       -2.612330    3.072240    0.519417
     23          1           0        0.821860    2.054770   -0.730084
     24          1           0        0.447443    0.357446    1.702830
     25          1           0        1.683110    1.515430    1.426790
     26          1           0        3.628490    1.818130    0.710515
     27          1           0        2.887300    2.084700   -0.858296
     28          1           0        4.560830    1.431850   -0.773075
     29          1           0       -3.936860    1.332710   -0.163526
     30          7           0        1.876870   -0.330741    0.370299
     31          8           0       -2.423930    0.183406   -1.000850
     32          8           0        3.748440   -0.888652   -0.852820
     33          8           0       -0.731901    2.255040    0.583490
     34          8           0       -0.948962   -1.570470    0.816594
 ---------------------------------------------------------------------

 SCF Done:  E(RHF) =  -744.440077154     A.U. after    2 cycles

 The electronic state is 1-A.
 Alpha  occ. eigenvalues --  -20.55817 -20.55711 -20.54694 -20.49995 -15.51891
 Alpha  occ. eigenvalues --  -11.35514 -11.30823 -11.29981 -11.29153 -11.29038
 Alpha  occ. eigenvalues --  -11.29034 -11.27006 -11.26477 -11.25801 -11.24469
 Alpha  occ. eigenvalues --   -1.48993  -1.47463  -1.44630  -1.43933  -1.24738
 Alpha  occ. eigenvalues --   -1.06084  -1.03457  -1.02039  -1.00143  -0.95808
 Alpha  occ. eigenvalues --   -0.89519  -0.86755  -0.83577  -0.81969  -0.75932
 Alpha  occ. eigenvalues --   -0.71875  -0.70872  -0.70053  -0.68429  -0.67914
 Alpha  occ. eigenvalues --   -0.65966  -0.65431  -0.64233  -0.63568  -0.61634
 Alpha  occ. eigenvalues --   -0.60519  -0.59865  -0.58356  -0.57677  -0.56195
 Alpha  occ. eigenvalues --   -0.55272  -0.54101  -0.53113  -0.52394  -0.50935
 Alpha  occ. eigenvalues --   -0.50747  -0.48973  -0.48031  -0.47138  -0.44878
 Alpha  occ. eigenvalues --   -0.41911  -0.41186  -0.40835  -0.37975
 Alpha virt. eigenvalues --    0.02677   0.03121   0.03320   0.04022   0.04656
 Alpha virt. eigenvalues --    0.04860   0.05426   0.05517   0.05764   0.06863
 Alpha virt. eigenvalues --    0.07229   0.07723   0.08288   0.08440   0.09529

 Mulliken charges:
               1
     1  C   -0.660856
     2  C    0.483175
     3  C    0.305607
     4  C    0.372155
     5  C    0.391855
     6  C   -0.678003
     7  C    1.467826
     8  C   -1.335498
     9  C    1.104625
    10  C    0.268773
    11  H    0.187818
    12  H    0.162749
    13  H    0.038326
    14  H    0.105464
    15  H    0.281830
    16  H    0.117655
    17  H   -0.035857
    18  H    0.150488
    19  H    0.380542
    20  H    0.155732
    21  H    0.274097
    22  H   -0.003919
    23  H   -0.052377
    24  H   -0.062371
    25  H    0.091095
    26  H    0.409883
    27  H    0.195118
    28  H    0.127125
    29  H    0.052983
    30  N    1.367957
    31  O   -1.443597
    32  O   -1.343486
    33  O   -1.569269
    34  O   -1.307644
 Sum of Mulliken charges =  -0.00000

 Dipole moment (field-independent basis, Debye):
    X=             -4.5182    Y=              0.2842    Z=              0.5567  Tot=              4.5612

 Test job not archived.
 1\1\GINC-SE109\SP\RHF\Aug-CC-pVDZ\C10H19N1O4\OHZDE\08-Apr-2025\0\\#t h
 f aug-cc-pvdz iop(5/13=1,5/36=2,99/5=2) pseudo=read geom=check guess=(
 read,tcheck) scf=(maxcycle=1)\\title\\0,1\C,0,3.53035,1.41008,-0.32239
 9\C,0,0.00958162,-1.99427,-0.0836198\C,0,-2.29337,-1.83699,0.430518\C,
 0,-2.84932,-1.17664,-0.851744\C,0,-2.88933,1.05584,-0.0158945\C,0,1.41
 485,-1.6994,0.468112\C,0,0.180637,1.41326,-0.111843\C,0,1.09548,0.7244
 69,0.943643\C,0,3.09116,-0.0256329,-0.264041\C,0,-2.03818,2.33201,-0.0
 427894\H,0,-2.41618,-1.72384,-1.74454\H,0,1.35257,-2.05289,1.51805\H,0

 Normal termination of Gaussian 16 at Tue Apr  8 22:10:48 2025.
