 Gaussian 16, Revision C.01,

 ----------------------------------------------------------------------
 #t hf aug-cc-pvdz symm=none int=(grid=ultrafine) guess=(read,tcheck) s
 table=(opt,rrhf)
 ----------------------------------------------------------------------
 -----
 title
 -----
 Symbolic Z-matrix:
 Charge =  0 Multiplicity = 1

 SCF Done:  E(RHF) =  -207.048389380     A.U. after   12 cycles
 Normal termination of Gaussian 16 at Tue Apr  8 21:12:19 2025.
 Gaussian 16:  ES64L-G16RevC.01  3-Jul-2019

 ----------------------------------------------------------------------
 #t hf aug-cc-pvdz iop(5/13=1,5/36=2,99/5=2) pseudo=read geom=check gue
 ss=(read,tcheck) scf=(maxcycle=1)
 ----------------------------------------------------------------------
 -----
 title
 -----
 Structure from the checkpoint file:  "ANI1ccx_1888_conf25_mol1.chk"
 Charge =  0 Multiplicity = 1

                         Standard orientation:
 ---------------------------------------------------------------------
 Center     Atomic      Atomic             Coordinates (Angstroms)
 Number     Number       Type             X           Y           Z
 ---------------------------------------------------------------------
      1          1           0       -2.535771    0.518185    0.298587
      2          1           0       -1.747891   -0.808480    0.582798
      3          1           0       -0.108434    0.332907   -0.321937
      4          1           0        2.516739   -0.045720    0.092139
      5          1           0        1.408689   -1.089140    0.618941
      6          7           0        1.546429   -0.417727   -0.157694
      7          8           0       -1.982631   -0.156601   -0.115092
      8          8           0        0.687840    0.658643    0.094258
 ---------------------------------------------------------------------

 SCF Done:  E(RHF) =  -207.262282364     A.U. after    2 cycles

 The electronic state is 1-A.
 Alpha  occ. eigenvalues --  -20.58147 -20.55339 -15.54405  -1.47816  -1.45413
 Alpha  occ. eigenvalues --   -1.07449  -0.73423  -0.71622  -0.64749  -0.63999
 Alpha  occ. eigenvalues --   -0.59345  -0.52834  -0.48780  -0.41893
 Alpha virt. eigenvalues --    0.02980   0.04449   0.05705   0.07594   0.08854
 Alpha virt. eigenvalues --    0.13632   0.16857   0.17226   0.19769   0.19837
 Alpha virt. eigenvalues --    0.21472   0.23146   0.24066   0.24473   0.25444

 Mulliken charges:
               1
     1  H    0.401893
     2  H    0.427547
     3  H    0.387062
     4  H    0.108425
     5  H    0.106149
     6  N    0.451843
     7  O   -0.858545
     8  O   -1.024375
 Sum of Mulliken charges =   0.00000

 Dipole moment (field-independent basis, Debye):
    X=             -1.1815    Y=             -0.8737    Z=              2.6280  Tot=              3.0109

 Test job not archived.
 1\1\GINC-SE083\SP\RHF\Aug-CC-pVDZ\H5N1O2\OHZDE\08-Apr-2025\0\\#t hf au
 g-cc-pvdz iop(5/13=1,5/36=2,99/5=2) pseudo=read geom=check guess=(read
 ,tcheck) scf=(maxcycle=1)\\title\\0,1\H,0,-2.53577,0.518185,0.298587\H
 ,0,-1.74789,-0.80848,0.582798\H,0,-0.108433,0.332907,-0.321937\H,0,2.5
 1674,-0.0457203,0.0921386\H,0,1.40869,-1.08914,0.618941\N,0,1.54643,-0
 .417727,-0.157694\O,0,-1.98263,-0.156601,-0.115092\O,0,0.687841,0.6586
 43,0.094258\\Version=ES64L-G16RevC.01\State=1-A\HF=-207.2622824\RMSD=8
 .569e-03\Dipole=-0.4648493,-0.3437323,1.0339211\Quadrupole=3.2601369,-

 Normal termination of Gaussian 16 at Tue Apr  8 21:12:21 2025.
