 Gaussian 16, Revision C.01,

 ----------------------------------------------------------------------
 #t hf aug-cc-pvdz symm=none int=(grid=ultrafine) guess=(read,tcheck) s
 table=(opt,rrhf)
 ----------------------------------------------------------------------
 -----
 title
 -----
 Symbolic Z-matrix:
 Charge =  0 Multiplicity = 1

 SCF Done:  E(RHF) =  -792.003281029     A.U. after   13 cycles
 Normal termination of Gaussian 16 at Tue Apr  8 19:31:06 2025.
 Gaussian 16:  ES64L-G16RevC.01  3-Jul-2019

 ----------------------------------------------------------------------
 #t hf aug-cc-pvdz iop(5/13=1,5/36=2,99/5=2) pseudo=read geom=check gue
 ss=(read,tcheck) scf=(maxcycle=1)
 ----------------------------------------------------------------------
 -----
 title
 -----
 Structure from the checkpoint file:  "ANI1ccx_1216_conf8_mol1.chk"
 Charge =  0 Multiplicity = 1

                         Standard orientation:
 ---------------------------------------------------------------------
 Center     Atomic      Atomic             Coordinates (Angstroms)
 Number     Number       Type             X           Y           Z
 ---------------------------------------------------------------------
      1          6           0       -1.719630    0.997096   -0.981321
      2          6           0        1.456281    1.570830   -0.194482
      3          6           0        1.383230   -0.024122    1.756120
      4          6           0       -1.873540   -0.246191    1.104150
      5          6           0       -1.273211   -1.535099   -0.951821
      6          6           0        1.985659   -0.782634   -0.622945
      7          1           0        2.734450   -0.351322   -1.374000
      8          1           0        2.421949   -1.661951   -0.064999
      9          1           0       -1.828632   -2.351958   -0.448006
     10          1           0       -1.529281   -1.572388   -2.034390
     11          1           0       -2.123801   -1.268388    1.517800
     12          1           0       -2.725530    0.444015    1.315570
     13          1           0        2.100039   -0.820537    2.093840
     14          1           0        1.197111    2.322510    0.590983
     15          1           0        2.393081    1.853959   -0.721082
     16          1           0       -1.785880    0.903626   -2.058980
     17          1           0       -2.599229    1.509652   -0.604034
     18          1           0        1.462940    0.915627    2.381570
     19          7           0        1.594530    0.251353    0.321488
     20          7           0       -1.655920   -0.274033   -0.321729
     21          8           0        0.049402   -1.976359   -0.693690
     22          8           0       -0.761404    1.936341   -0.568852
     23          8           0        0.503239    1.663930   -1.230570
     24          8           0        0.190590   -0.662694    1.969710
     25          8           0       -0.836026    0.335422    1.876390
     26          8           0        0.974172   -1.252060   -1.509340
 ---------------------------------------------------------------------

 SCF Done:  E(RHF) =  -792.784640733     A.U. after    2 cycles

 The electronic state is 1-A.
 Alpha  occ. eigenvalues --  -20.60601 -20.60260 -20.60222 -20.60111 -20.59967
 Alpha  occ. eigenvalues --  -20.59917 -15.50635 -15.49842 -11.33654 -11.33582
 Alpha  occ. eigenvalues --  -11.33488 -11.33296 -11.32363 -11.32211  -1.60493
 Alpha  occ. eigenvalues --   -1.59160  -1.58420  -1.34655  -1.31791  -1.30626
 Alpha  occ. eigenvalues --   -1.22840  -1.19005  -0.96604  -0.95948  -0.93515
 Alpha  occ. eigenvalues --   -0.93002  -0.83799  -0.82354  -0.74294  -0.73522
 Alpha  occ. eigenvalues --   -0.72402  -0.71987  -0.71025  -0.69606  -0.67177
 Alpha  occ. eigenvalues --   -0.67093  -0.65292  -0.62962  -0.62144  -0.61782
 Alpha  occ. eigenvalues --   -0.61165  -0.56289  -0.55813  -0.55724  -0.55196
 Alpha  occ. eigenvalues --   -0.51101  -0.49921  -0.49190  -0.48416  -0.47220
 Alpha  occ. eigenvalues --   -0.46774  -0.43138  -0.41904  -0.41448  -0.40461
 Alpha virt. eigenvalues --    0.03964   0.04110   0.04625   0.04703   0.04933
 Alpha virt. eigenvalues --    0.04986   0.05494   0.05651   0.07220   0.08004
 Alpha virt. eigenvalues --    0.08904   0.09505   0.09667   0.10641   0.11585

 Mulliken charges:
               1
     1  C    0.434868
     2  C    0.342288
     3  C    0.281010
     4  C    0.203157
     5  C    0.368620
     6  C    0.198523
     7  H    0.111724
     8  H    0.161649
     9  H    0.048212
    10  H    0.121031
    11  H    0.177605
    12  H    0.052693
    13  H    0.032536
    14  H    0.098605
    15  H    0.047871
    16  H   -0.013893
    17  H    0.045382
    18  H    0.193073
    19  N    1.489056
    20  N    1.285350
    21  O   -0.971926
    22  O   -0.975532
    23  O   -0.888983
    24  O   -0.937133
    25  O   -0.965165
    26  O   -0.940621
 Sum of Mulliken charges =   0.00000

 Dipole moment (field-independent basis, Debye):
    X=             -0.2880    Y=             -0.2323    Z=              0.5197  Tot=              0.6379

 Test job not archived.
 1\1\GINC-SE104\SP\RHF\Aug-CC-pVDZ\C6H12N2O6\OHZDE\08-Apr-2025\0\\#t hf
  aug-cc-pvdz iop(5/13=1,5/36=2,99/5=2) pseudo=read geom=check guess=(r
 ead,tcheck) scf=(maxcycle=1)\\title\\0,1\C,0,-1.71963,0.997094,-0.9813
 21\C,0,1.45628,1.57083,-0.194482\C,0,1.38323,-0.0241215,1.75612\C,0,-1
 .87354,-0.246193,1.10415\C,0,-1.27321,-1.5351,-0.951821\C,0,1.98566,-0
 .782634,-0.622945\H,0,2.73445,-0.351321,-1.374\H,0,2.42195,-1.66195,-0
 .0649988\H,0,-1.82863,-2.35196,-0.448006\H,0,-1.52928,-1.57239,-2.0343
 9\H,0,-2.1238,-1.26839,1.5178\H,0,-2.72553,0.444013,1.31557\H,0,2.1000

 Normal termination of Gaussian 16 at Tue Apr  8 19:31:34 2025.
