 Gaussian 16, Revision C.01,

 ----------------------------------------------------------------------
 #t hf aug-cc-pvdz symm=none int=(grid=ultrafine) guess=(read,tcheck) s
 table=(opt,rrhf)
 ----------------------------------------------------------------------
 -----
 title
 -----
 Symbolic Z-matrix:
 Charge =  0 Multiplicity = 1

 SCF Done:  E(RHF) =  -601.477144433     A.U. after   16 cycles
 Normal termination of Gaussian 16 at Tue Apr  8 19:57:10 2025.
 Gaussian 16:  ES64L-G16RevC.01  3-Jul-2019

 ----------------------------------------------------------------------
 #t hf aug-cc-pvdz iop(5/13=1,5/36=2,99/5=2) pseudo=read geom=check gue
 ss=(read,tcheck) scf=(maxcycle=1)
 ----------------------------------------------------------------------
 -----
 title
 -----
 Structure from the checkpoint file:  "ANI1ccx_1546_conf2_mol2.chk"
 Charge =  0 Multiplicity = 1

                         Standard orientation:
 ---------------------------------------------------------------------
 Center     Atomic      Atomic             Coordinates (Angstroms)
 Number     Number       Type             X           Y           Z
 ---------------------------------------------------------------------
      1          6           0       -2.817711   -0.000897    0.645004
      2          6           0       -2.458859   -1.101415   -0.393242
      3          6           0        0.105752   -1.147260   -0.131663
      4          6           0        2.304642   -1.677635    0.208466
      5          6           0        2.744940   -0.382372    0.327193
      6          6           0        1.801388    0.558689    0.057978
      7          6           0        0.603727    2.363221   -0.259033
      8          6           0        0.482631    0.209290   -0.141431
      9          1           0        0.318485    3.399451   -0.406767
     10          1           0        2.654944    2.460945    0.063200
     11          1           0        3.755639   -0.086347    0.521699
     12          1           0        2.997264   -2.525044    0.306262
     13          1           0       -1.038995   -2.698302   -0.316255
     14          1           0       -3.109237   -1.913237   -0.190468
     15          1           0       -2.038371   -0.103280    1.475280
     16          1           0       -3.843301   -0.193169    1.031170
     17          1           0       -1.848724    1.506726    0.104481
     18          1           0       -2.670300   -0.667886   -1.401930
     19          7           0       -0.269583    1.371999   -0.270615
     20          7           0       -1.107328   -1.681722   -0.317093
     21          7           0        1.062793   -2.047418   -0.033988
     22          7           0        1.835095    1.955174   -0.058288
     23          8           0       -2.802914    1.338024    0.211698
 ---------------------------------------------------------------------

 SCF Done:  E(RHF) =  -602.091638524     A.U. after    2 cycles

 The electronic state is 1-A.
 Alpha  occ. eigenvalues --  -20.49480 -15.58092 -15.51112 -15.50705 -15.47918
 Alpha  occ. eigenvalues --  -11.33752 -11.32239 -11.29399 -11.27811 -11.27273
 Alpha  occ. eigenvalues --  -11.26629 -11.26029 -11.23083  -1.41142  -1.37808
 Alpha  occ. eigenvalues --   -1.29662  -1.21141  -1.20416  -1.09668  -1.03944
 Alpha  occ. eigenvalues --   -0.98728  -0.91448  -0.90700  -0.88640  -0.84336
 Alpha  occ. eigenvalues --   -0.77690  -0.77135  -0.71819  -0.69176  -0.68370
 Alpha  occ. eigenvalues --   -0.68005  -0.66990  -0.64374  -0.62706  -0.61601
 Alpha  occ. eigenvalues --   -0.59172  -0.57466  -0.54881  -0.53979  -0.51168
 Alpha  occ. eigenvalues --   -0.48653  -0.46337  -0.45912  -0.44212  -0.39884
 Alpha  occ. eigenvalues --   -0.39101  -0.30384
 Alpha virt. eigenvalues --    0.01942   0.03383   0.04183   0.04387   0.05370
 Alpha virt. eigenvalues --    0.05619   0.06133   0.06838   0.07481   0.08220
 Alpha virt. eigenvalues --    0.09274   0.09877   0.10482   0.11353   0.11707

 Mulliken charges:
               1
     1  C    0.610639
     2  C   -0.319645
     3  C   -3.072417
     4  C   -0.809804
     5  C    1.883737
     6  C   -1.293577
     7  C   -1.099011
     8  C    0.332646
     9  H   -0.119477
    10  H   -0.032833
    11  H   -0.270278
    12  H   -0.193308
    13  H    0.170525
    14  H   -0.024662
    15  H    0.276410
    16  H    0.038221
    17  H    0.599859
    18  H    0.206737
    19  N    1.240552
    20  N    1.125693
    21  N    1.165954
    22  N    0.967050
    23  O   -1.383012
 Sum of Mulliken charges =   0.00000

 Dipole moment (field-independent basis, Debye):
    X=              4.3733    Y=              2.1163    Z=              0.2913  Tot=              4.8672

 Test job not archived.
 1\1\GINC-SE078\SP\RHF\Aug-CC-pVDZ\C8H10N4O1\OHZDE\08-Apr-2025\0\\#t hf
  aug-cc-pvdz iop(5/13=1,5/36=2,99/5=2) pseudo=read geom=check guess=(r
 ead,tcheck) scf=(maxcycle=1)\\title\\0,1\C,0,-2.81771,-0.00089089,0.64
 5004\C,0,-2.45886,-1.10141,-0.393242\C,0,0.105751,-1.14726,-0.131663\C
 ,0,2.30464,-1.67764,0.208466\C,0,2.74494,-0.382378,0.327193\C,0,1.8013
 9,0.558685,0.0579784\C,0,0.603733,2.36322,-0.259033\C,0,0.482633,0.209
 289,-0.141431\H,0,0.318493,3.39945,-0.406767\H,0,2.65495,2.46094,0.063
 2005\H,0,3.75564,-0.0863548,0.521699\H,0,2.99726,-2.52505,0.306262\H,0

 Normal termination of Gaussian 16 at Tue Apr  8 19:57:30 2025.
