 Gaussian 16, Revision C.01,

 ----------------------------------------------------------------------
 #t hf aug-cc-pvdz symm=none int=(grid=ultrafine) guess=(read,tcheck) s
 table=(opt,rrhf)
 ----------------------------------------------------------------------
 -----
 title
 -----
 Symbolic Z-matrix:
 Charge =  0 Multiplicity = 1

 SCF Done:  E(RHF) =  -578.776359464     A.U. after   14 cycles
 Normal termination of Gaussian 16 at Tue Apr  8 22:17:03 2025.
 Gaussian 16:  ES64L-G16RevC.01  3-Jul-2019

 ----------------------------------------------------------------------
 #t hf aug-cc-pvdz iop(5/13=1,5/36=2,99/5=2) pseudo=read geom=check gue
 ss=(read,tcheck) scf=(maxcycle=1)
 ----------------------------------------------------------------------
 -----
 title
 -----
 Structure from the checkpoint file:  "ANI1ccx_987_conf8_mol1.chk"
 Charge =  0 Multiplicity = 1

                         Standard orientation:
 ---------------------------------------------------------------------
 Center     Atomic      Atomic             Coordinates (Angstroms)
 Number     Number       Type             X           Y           Z
 ---------------------------------------------------------------------
      1          6           0        2.135919   -0.306274   -0.000445
      2          6           0        0.312851    1.168100    0.070445
      3          6           0       -1.762930    0.271340    1.079220
      4          6           0       -2.087151   -0.594986   -0.190304
      5          1           0       -0.262823   -1.450230   -0.218470
      6          1           0       -1.989131   -0.390238    1.983030
      7          1           0       -2.460580    1.124160    1.072830
      8          1           0       -0.287443    2.015840   -1.766140
      9          1           0        0.197595    0.057829    1.731910
     10          1           0        1.946619   -2.214191    0.481463
     11          1           0        3.709550    0.467595   -0.833357
     12          1           0        3.971169   -1.264331   -0.449300
     13          1           0       -1.398470    2.130900   -0.489242
     14          7           0        3.485489   -0.337202   -0.275631
     15          7           0        1.441649   -1.315221    0.512359
     16          7           0        1.584860    0.911342   -0.197704
     17          7           0       -0.505223    1.852770   -0.765514
     18          7           0       -0.353742    0.732797    1.167980
     19          8           0       -1.107871   -1.410080   -0.684053
     20          8           0       -3.215861   -0.667148   -0.610529
 ---------------------------------------------------------------------

 SCF Done:  E(RHF) =  -579.355393422     A.U. after    2 cycles

 The electronic state is 1-A.
 Alpha  occ. eigenvalues --  -20.56863 -20.53300 -15.55729 -15.54856 -15.52739
 Alpha  occ. eigenvalues --  -15.47536 -15.45849 -11.40652 -11.39753 -11.36176
 Alpha  occ. eigenvalues --  -11.32572  -1.51874  -1.43935  -1.34742  -1.27758
 Alpha  occ. eigenvalues --   -1.21750  -1.17934  -1.12951  -1.01474  -0.92105
 Alpha  occ. eigenvalues --   -0.86225  -0.82975  -0.79969  -0.75653  -0.75131
 Alpha  occ. eigenvalues --   -0.73169  -0.70734  -0.69479  -0.66912  -0.65551
 Alpha  occ. eigenvalues --   -0.62152  -0.62073  -0.59197  -0.56505  -0.55264
 Alpha  occ. eigenvalues --   -0.50827  -0.48017  -0.46515  -0.45989  -0.44918
 Alpha  occ. eigenvalues --   -0.43241  -0.39681
 Alpha virt. eigenvalues --    0.02594   0.03737   0.04099   0.04577   0.04999
 Alpha virt. eigenvalues --    0.06369   0.06749   0.07684   0.07997   0.08563
 Alpha virt. eigenvalues --    0.09852   0.10499   0.11872   0.12364   0.13323

 Mulliken charges:
               1
     1  C   -1.433511
     2  C   -2.899679
     3  C   -1.015468
     4  C    2.279224
     5  H    0.806137
     6  H    0.294537
     7  H    0.137075
     8  H    0.193566
     9  H    0.567402
    10  H   -0.001268
    11  H    0.168508
    12  H    0.204430
    13  H    0.110282
    14  N    0.363301
    15  N    0.370298
    16  N    0.939188
    17  N    0.883018
    18  N    0.830481
    19  O   -1.483644
    20  O   -1.313878
 Sum of Mulliken charges =  -0.00000

 Dipole moment (field-independent basis, Debye):
    X=              2.4813    Y=              1.9209    Z=              0.5708  Tot=              3.1894

 Test job not archived.
 1\1\GINC-SE393\SP\RHF\Aug-CC-pVDZ\C4H9N5O2\OHZDE\08-Apr-2025\0\\#t hf
 aug-cc-pvdz iop(5/13=1,5/36=2,99/5=2) pseudo=read geom=check guess=(re
 ad,tcheck) scf=(maxcycle=1)\\title\\0,1\C,0,2.13592,-0.306273,-0.00044
 476\C,0,0.312851,1.1681,0.0704452\C,0,-1.76293,0.27134,1.07922\C,0,-2.
 08715,-0.594986,-0.190304\H,0,-0.262822,-1.45023,-0.21847\H,0,-1.98913
 ,-0.390238,1.98303\H,0,-2.46058,1.12416,1.07283\H,0,-0.287443,2.01584,
 -1.76614\H,0,0.197595,0.0578288,1.73191\H,0,1.94662,-2.21419,0.481463\
 H,0,3.70955,0.467596,-0.833357\H,0,3.97117,-1.26433,-0.4493\H,0,-1.398

 Normal termination of Gaussian 16 at Tue Apr  8 22:17:14 2025.
