 Gaussian 16, Revision C.01,

 ----------------------------------------------------------------------
 #t hf aug-cc-pvdz symm=none int=(grid=ultrafine) guess=(read,tcheck) s
 table=(opt,rrhf)
 ----------------------------------------------------------------------
 -----
 title
 -----
 Symbolic Z-matrix:
 Charge =  0 Multiplicity = 1

 SCF Done:  E(RHF) =  -368.292343365     A.U. after   16 cycles
 Normal termination of Gaussian 16 at Tue Apr  8 21:47:51 2025.
 Gaussian 16:  ES64L-G16RevC.01  3-Jul-2019

 ----------------------------------------------------------------------
 #t hf aug-cc-pvdz iop(5/13=1,5/36=2,99/5=2) pseudo=read geom=check gue
 ss=(read,tcheck) scf=(maxcycle=1)
 ----------------------------------------------------------------------
 -----
 title
 -----
 Structure from the checkpoint file:  "ANI1ccx_608_conf6_mol1.chk"
 Charge =  0 Multiplicity = 1

                         Standard orientation:
 ---------------------------------------------------------------------
 Center     Atomic      Atomic             Coordinates (Angstroms)
 Number     Number       Type             X           Y           Z
 ---------------------------------------------------------------------
      1          6           0        1.667480    0.117975   -0.065728
      2          6           0        0.260962    0.127360    0.131499
      3          7           0        2.832180   -0.068128   -0.013820
      4          7           0       -0.502388    1.178100    0.005540
      5          7           0       -1.782620    0.576196   -0.031589
      6          7           0       -1.739330   -0.636318   -0.032546
      7          8           0       -0.403195   -1.102620    0.014034
 ---------------------------------------------------------------------

 SCF Done:  E(RHF) =  -368.642227527     A.U. after    2 cycles

 The electronic state is 1-A.
 Alpha  occ. eigenvalues --  -20.71899 -15.69123 -15.65682 -15.62773 -15.59946
 Alpha  occ. eigenvalues --  -11.45690 -11.35542  -1.66023  -1.44396  -1.31424
 Alpha  occ. eigenvalues --   -1.27838  -1.04039  -0.98214  -0.86298  -0.78125
 Alpha  occ. eigenvalues --   -0.77359  -0.67880  -0.66085  -0.62035  -0.60612
 Alpha  occ. eigenvalues --   -0.58705  -0.57900  -0.54683  -0.51574
 Alpha virt. eigenvalues --   -0.01765   0.04968   0.06311   0.06945   0.07644
 Alpha virt. eigenvalues --    0.09037   0.10003   0.10967   0.12086   0.12607
 Alpha virt. eigenvalues --    0.14004   0.14413   0.16145   0.17155   0.17986

 Mulliken charges:
               1
     1  C   -1.229299
     2  C    0.957380
     3  N    0.777501
     4  N    0.429181
     5  N   -0.755190
     6  N    1.132697
     7  O   -1.312270
 Sum of Mulliken charges =  -0.00000

 Dipole moment (field-independent basis, Debye):
    X=             -0.4861    Y=             -0.7481    Z=              0.2425  Tot=              0.9246

 Test job not archived.
 1\1\GINC-SE339\SP\RHF\Aug-CC-pVDZ\C2N4O1\OHZDE\08-Apr-2025\0\\#t hf au
 g-cc-pvdz iop(5/13=1,5/36=2,99/5=2) pseudo=read geom=check guess=(read
 ,tcheck) scf=(maxcycle=1)\\title\\0,1\C,0,1.66748,0.117975,-0.0657278\
 C,0,0.260962,0.12736,0.131499\N,0,2.83218,-0.0681285,-0.0138196\N,0,-0
 .502388,1.1781,0.00553989\N,0,-1.78262,0.576196,-0.0315886\N,0,-1.7393
 3,-0.636318,-0.032546\O,0,-0.403195,-1.10262,0.0140343\\Version=ES64L-
 G16RevC.01\State=1-A\HF=-368.6422275\RMSD=4.595e-02\Dipole=-0.1912451,
 -0.2943429,0.0954058\Quadrupole=-5.9263561,1.3622707,4.5640854,0.85446

 Normal termination of Gaussian 16 at Tue Apr  8 21:47:53 2025.
