 Gaussian 16, Revision C.01,

 ----------------------------------------------------------------------
 #t hf aug-cc-pvdz symm=none int=(grid=ultrafine) guess=(read,tcheck) s
 table=(opt,rrhf)
 ----------------------------------------------------------------------
 -----
 title
 -----
 Symbolic Z-matrix:
 Charge =  0 Multiplicity = 1

 SCF Done:  E(RHF) =  -276.594876719     A.U. after   15 cycles
 Normal termination of Gaussian 16 at Tue Apr  8 21:18:23 2025.
 Gaussian 16:  ES64L-G16RevC.01  3-Jul-2019

 ----------------------------------------------------------------------
 #t hf aug-cc-pvdz iop(5/13=1,5/36=2,99/5=2) pseudo=read geom=check gue
 ss=(read,tcheck) scf=(maxcycle=1)
 ----------------------------------------------------------------------
 -----
 title
 -----
 Structure from the checkpoint file:  "ANI1ccx_370_conf35_mol2.chk"
 Charge =  0 Multiplicity = 1

                         Standard orientation:
 ---------------------------------------------------------------------
 Center     Atomic      Atomic             Coordinates (Angstroms)
 Number     Number       Type             X           Y           Z
 ---------------------------------------------------------------------
      1          6           0       -1.061061    0.057768    0.007249
      2          1           0       -2.132531   -0.019821    0.010662
      3          7           0       -0.333233    1.131827   -0.001465
      4          7           0        0.960181    0.633637   -0.006051
      5          7           0        0.987270   -0.612509    0.011280
      6          8           0       -0.350079   -1.049684   -0.010063
 ---------------------------------------------------------------------

 SCF Done:  E(RHF) =  -276.864091683     A.U. after    2 cycles

 The electronic state is 1-A.
 Alpha  occ. eigenvalues --  -20.68533 -15.65878 -15.62820 -15.57277 -11.39491
 Alpha  occ. eigenvalues --   -1.65590  -1.40371  -1.26398  -0.96570  -0.95657
 Alpha  occ. eigenvalues --   -0.80657  -0.75362  -0.69684  -0.63749  -0.57120
 Alpha  occ. eigenvalues --   -0.55861  -0.55478  -0.50297
 Alpha virt. eigenvalues --    0.03012   0.05067   0.07590   0.07951   0.08675
 Alpha virt. eigenvalues --    0.12791   0.13589   0.13970   0.15095   0.16010
 Alpha virt. eigenvalues --    0.17767   0.19028   0.19830   0.22314   0.22932

 Mulliken charges:
               1
     1  C    0.485329
     2  H    0.082328
     3  N    0.360607
     4  N   -0.864457
     5  N    1.151897
     6  O   -1.215703
 Sum of Mulliken charges =  -0.00000

 Dipole moment (field-independent basis, Debye):
    X=             -3.5520    Y=             -1.4499    Z=              0.0210  Tot=              3.8366

 Test job not archived.
 1\1\GINC-SE179\SP\RHF\Aug-CC-pVDZ\C1H1N3O1\OHZDE\08-Apr-2025\0\\#t hf
 aug-cc-pvdz iop(5/13=1,5/36=2,99/5=2) pseudo=read geom=check guess=(re
 ad,tcheck) scf=(maxcycle=1)\\title\\0,1\C,0,-1.06106,0.0577764,0.00724
 852\H,0,-2.13253,-0.0198068,0.0106622\N,0,-0.333225,1.13183,-0.0014645
 1\N,0,0.960186,0.633632,-0.00605106\N,0,0.987267,-0.612514,0.0112802\O
 ,0,-0.350085,-1.04968,-0.0100632\\Version=ES64L-G16RevC.01\State=1-A\H
 F=-276.8640917\RMSD=4.121e-02\Dipole=-1.3974707,-0.5704434,0.008259\Qu
 adrupole=2.8758199,-3.3120168,0.4361969,0.6102838,-0.0364929,-0.003017

 Normal termination of Gaussian 16 at Tue Apr  8 21:18:25 2025.
