 Gaussian 16, Revision C.01,

 ----------------------------------------------------------------------
 #t hf aug-cc-pvdz symm=none int=(grid=ultrafine) guess=(read,tcheck) s
 table=(opt,rrhf)
 ----------------------------------------------------------------------
 -----
 title
 -----
 Symbolic Z-matrix:
 Charge =  0 Multiplicity = 1

 SCF Done:  E(RHF) =  -603.083898763     A.U. after   14 cycles
 Normal termination of Gaussian 16 at Tue Apr  8 22:05:44 2025.
 Gaussian 16:  ES64L-G16RevC.01  3-Jul-2019

 ----------------------------------------------------------------------
 #t hf aug-cc-pvdz iop(5/13=1,5/36=2,99/5=2) pseudo=read geom=check gue
 ss=(read,tcheck) scf=(maxcycle=1)
 ----------------------------------------------------------------------
 -----
 title
 -----
 Structure from the checkpoint file:  "ANI1ccx_894_conf2_mol2.chk"
 Charge =  0 Multiplicity = 1

                         Standard orientation:
 ---------------------------------------------------------------------
 Center     Atomic      Atomic             Coordinates (Angstroms)
 Number     Number       Type             X           Y           Z
 ---------------------------------------------------------------------
      1          6           0       -1.859869   -0.232567   -0.031115
      2          6           0       -0.535947    0.407708    0.073957
      3          6           0        0.555196   -0.401582    0.111332
      4          6           0        1.886501    0.237280    0.000468
      5          1           0       -2.587758    1.576772   -0.013799
      6          1           0        0.398565    2.028980    0.032344
      7          1           0       -0.421873   -1.982459    0.144463
      8          1           0        2.437650   -1.510341   -0.047989
      9          8           0       -2.899959    0.625341   -0.038080
     10          8           0       -2.041020   -1.444908   -0.070743
     11          8           0       -0.541992    1.737531    0.009011
     12          8           0        0.527894   -1.740760    0.087082
     13          8           0        2.864791   -0.638371   -0.122009
     14          8           0        2.077552    1.438919    0.004380
 ---------------------------------------------------------------------

 SCF Done:  E(RHF) =  -603.671012673     A.U. after    2 cycles

 The electronic state is 1-A.
 Alpha  occ. eigenvalues --  -20.63131 -20.63072 -20.61893 -20.61863 -20.57881
 Alpha  occ. eigenvalues --  -20.57423 -11.44163 -11.43659 -11.36147 -11.36032
 Alpha  occ. eigenvalues --   -1.59519  -1.57717  -1.54722  -1.53955  -1.49288
 Alpha  occ. eigenvalues --   -1.48159  -1.10948  -0.99649  -0.88596  -0.86690
 Alpha  occ. eigenvalues --   -0.82584  -0.79088  -0.75909  -0.70157  -0.70050
 Alpha  occ. eigenvalues --   -0.69639  -0.66253  -0.65781  -0.62980  -0.61883
 Alpha  occ. eigenvalues --   -0.61293  -0.59907  -0.59427  -0.50995  -0.50888
 Alpha  occ. eigenvalues --   -0.50820  -0.46988  -0.37436
 Alpha virt. eigenvalues --    0.03043   0.03353   0.03945   0.05727   0.06462
 Alpha virt. eigenvalues --    0.08124   0.09292   0.10451   0.10593   0.10818
 Alpha virt. eigenvalues --    0.11599   0.12918   0.14213   0.14773   0.15406

 Mulliken charges:
               1
     1  C    1.840239
     2  C    1.593643
     3  C    1.573351
     4  C    1.817968
     5  H    0.452748
     6  H    0.428488
     7  H    0.440047
     8  H    0.421454
     9  O   -1.356621
    10  O   -1.269095
    11  O   -1.707082
    12  O   -1.701147
    13  O   -1.293854
    14  O   -1.240139
 Sum of Mulliken charges =  -0.00000

 Dipole moment (field-independent basis, Debye):
    X=             -0.1743    Y=              0.2579    Z=              0.3735  Tot=              0.4862

 Test job not archived.
 1\1\GINC-SE343\SP\RHF\Aug-CC-pVDZ\C4H4O6\OHZDE\08-Apr-2025\0\\#t hf au
 g-cc-pvdz iop(5/13=1,5/36=2,99/5=2) pseudo=read geom=check guess=(read
 ,tcheck) scf=(maxcycle=1)\\title\\0,1\C,0,-1.85987,-0.232569,-0.031114
 7\C,0,-0.535948,0.407707,0.0739575\C,0,0.555195,-0.401582,0.111332\C,0
 ,1.8865,0.237281,0.00046809\H,0,-2.58776,1.57677,-0.0137987\H,0,0.3985
 63,2.02898,0.0323436\H,0,-0.421873,-1.98246,0.144463\H,0,2.43765,-1.51
 034,-0.0479889\O,0,-2.89996,0.625339,-0.0380797\O,0,-2.04102,-1.44491,
 -0.0707433\O,0,-0.541994,1.73753,0.00901108\O,0,0.527894,-1.74076,0.08

 Normal termination of Gaussian 16 at Tue Apr  8 22:05:50 2025.
