 Gaussian 16, Revision C.01,

 ----------------------------------------------------------------------
 #t hf aug-cc-pvdz symm=none int=(grid=ultrafine) guess=(read,tcheck) s
 table=(opt,rrhf)
 ----------------------------------------------------------------------
 -----
 title
 -----
 Symbolic Z-matrix:
 Charge =  0 Multiplicity = 1

 SCF Done:  E(RHF) =  -276.582015858     A.U. after   15 cycles
 Normal termination of Gaussian 16 at Tue Apr  8 21:20:25 2025.
 Gaussian 16:  ES64L-G16RevC.01  3-Jul-2019

 ----------------------------------------------------------------------
 #t hf aug-cc-pvdz iop(5/13=1,5/36=2,99/5=2) pseudo=read geom=check gue
 ss=(read,tcheck) scf=(maxcycle=1)
 ----------------------------------------------------------------------
 -----
 title
 -----
 Structure from the checkpoint file:  "ANI1ccx_370_conf81_mol1.chk"
 Charge =  0 Multiplicity = 1

                         Standard orientation:
 ---------------------------------------------------------------------
 Center     Atomic      Atomic             Coordinates (Angstroms)
 Number     Number       Type             X           Y           Z
 ---------------------------------------------------------------------
      1          6           0       -1.053330    0.208845    0.071721
      2          1           0       -2.168110    0.197089   -0.059383
      3          7           0       -0.150813    1.164281   -0.024060
      4          7           0        1.059631    0.505598   -0.013068
      5          7           0        0.856295   -0.759867    0.036507
      6          8           0       -0.483463   -0.977530   -0.045824
 ---------------------------------------------------------------------

 SCF Done:  E(RHF) =  -276.848579391     A.U. after    2 cycles

 The electronic state is 1-A.
 Alpha  occ. eigenvalues --  -20.69424 -15.65585 -15.62936 -15.57686 -11.40063
 Alpha  occ. eigenvalues --   -1.67276  -1.39079  -1.24907  -0.97170  -0.95685
 Alpha  occ. eigenvalues --   -0.80250  -0.75692  -0.69394  -0.62406  -0.57631
 Alpha  occ. eigenvalues --   -0.55879  -0.55276  -0.49218
 Alpha virt. eigenvalues --    0.02917   0.04341   0.07613   0.07876   0.08247
 Alpha virt. eigenvalues --    0.12459   0.13038   0.14097   0.15094   0.16075
 Alpha virt. eigenvalues --    0.17525   0.18955   0.20153   0.22315   0.24040

 Mulliken charges:
               1
     1  C    0.336506
     2  H    0.187841
     3  N    0.301490
     4  N   -0.771752
     5  N    1.150908
     6  O   -1.204993
 Sum of Mulliken charges =  -0.00000

 Dipole moment (field-independent basis, Debye):
    X=             -3.9495    Y=             -1.0553    Z=              0.0867  Tot=              4.0890

 Test job not archived.
 1\1\GINC-SE072\SP\RHF\Aug-CC-pVDZ\C1H1N3O1\OHZDE\08-Apr-2025\0\\#t hf
 aug-cc-pvdz iop(5/13=1,5/36=2,99/5=2) pseudo=read geom=check guess=(re
 ad,tcheck) scf=(maxcycle=1)\\title\\0,1\C,0,-1.05333,0.208841,0.071721
 \H,0,-2.16811,0.19708,-0.0593827\N,0,-0.150817,1.16428,-0.0240603\N,0,
 1.05963,0.505602,-0.013068\N,0,0.856299,-0.759864,0.0365069\O,0,-0.483
 458,-0.977532,-0.0458241\\Version=ES64L-G16RevC.01\State=1-A\HF=-276.8
 485794\RMSD=3.901e-02\Dipole=-1.5538498,-0.4152058,0.0341103\Quadrupol
 e=3.0193353,-3.3776648,0.3583294,-0.0488642,-0.0351571,0.0203988\PG=C0

 Normal termination of Gaussian 16 at Tue Apr  8 21:20:27 2025.
