 Gaussian 16, Revision C.01,

 ----------------------------------------------------------------------
 #t hf aug-cc-pvdz symm=none int=(grid=ultrafine) guess=(read,tcheck) s
 table=(opt,rrhf)
 ----------------------------------------------------------------------
 -----
 title
 -----
 Symbolic Z-matrix:
 Charge =  0 Multiplicity = 1

 SCF Done:  E(RHF) =  -389.476766528     A.U. after   15 cycles
 Normal termination of Gaussian 16 at Tue Apr  8 21:40:46 2025.
 Gaussian 16:  ES64L-G16RevC.01  3-Jul-2019

 ----------------------------------------------------------------------
 #t hf aug-cc-pvdz iop(5/13=1,5/36=2,99/5=2) pseudo=read geom=check gue
 ss=(read,tcheck) scf=(maxcycle=1)
 ----------------------------------------------------------------------
 -----
 title
 -----
 Structure from the checkpoint file:  "ANI1ccx_473_conf15_mol1.chk"
 Charge =  0 Multiplicity = 1

                         Standard orientation:
 ---------------------------------------------------------------------
 Center     Atomic      Atomic             Coordinates (Angstroms)
 Number     Number       Type             X           Y           Z
 ---------------------------------------------------------------------
      1          6           0       -1.191560    1.039852   -0.045275
      2          6           0       -1.284841   -1.335808    0.010300
      3          1           0       -2.097802   -2.002338   -0.067902
      4          7           0       -1.824741   -0.010134    0.061238
      5          7           0        3.011379   -0.150870    0.065105
      6          7           0        1.992659    0.282647   -0.068714
      7          8           0       -0.569652    2.013971    0.007886
      8          8           0       -0.092707   -1.648149   -0.023592
 ---------------------------------------------------------------------

 SCF Done:  E(RHF) =  -389.842842129     A.U. after    2 cycles

 The electronic state is 1-A.
 Alpha  occ. eigenvalues --  -20.65043 -20.57792 -15.61478 -15.61392 -15.55970
 Alpha  occ. eigenvalues --  -11.46218 -11.41972  -1.59636  -1.49647  -1.46759
 Alpha  occ. eigenvalues --   -1.30591  -0.98908  -0.81580  -0.78864  -0.76601
 Alpha  occ. eigenvalues --   -0.71572  -0.70277  -0.68021  -0.65748  -0.65041
 Alpha  occ. eigenvalues --   -0.64819  -0.58299  -0.54367  -0.47951  -0.47667
 Alpha virt. eigenvalues --    0.03349   0.06194   0.06967   0.08215   0.08357
 Alpha virt. eigenvalues --    0.09462   0.09967   0.10416   0.10637   0.11723
 Alpha virt. eigenvalues --    0.12400   0.12934   0.14942   0.17265   0.17921

 Mulliken charges:
               1
     1  C    0.147515
     2  C    0.888149
     3  H    0.074102
     4  N    0.559226
     5  N   -0.359821
     6  N    0.311378
     7  O   -0.678701
     8  O   -0.941848
 Sum of Mulliken charges =  -0.00000

 Dipole moment (field-independent basis, Debye):
    X=             -1.9906    Y=              0.0671    Z=             -0.2693  Tot=              2.0098

 Test job not archived.
 1\1\GINC-SE460\SP\RHF\Aug-CC-pVDZ\C2H1N3O2\OHZDE\08-Apr-2025\0\\#t hf
 aug-cc-pvdz iop(5/13=1,5/36=2,99/5=2) pseudo=read geom=check guess=(re
 ad,tcheck) scf=(maxcycle=1)\\title\\0,1\C,0,-1.19156,1.03985,-0.045275
 2\C,0,-1.28484,-1.33581,0.0102998\H,0,-2.0978,-2.00234,-0.0679021\N,0,
 -1.82474,-0.0101362,0.0612385\N,0,3.01138,-0.15087,0.0651051\N,0,1.992
 66,0.282647,-0.0687144\O,0,-0.569652,2.01397,0.0078859\O,0,-0.0927055,
 -1.64815,-0.0235921\\Version=ES64L-G16RevC.01\State=1-A\HF=-389.842842
 1\RMSD=3.341e-02\Dipole=-0.7831575,0.0264184,-0.1059477\Quadrupole=0.1

 Normal termination of Gaussian 16 at Tue Apr  8 21:40:49 2025.
