 Gaussian 16, Revision C.01,

 ----------------------------------------------------------------------
 #t hf aug-cc-pvdz symm=none int=(grid=ultrafine) guess=(read,tcheck) s
 table=(opt,rrhf)
 ----------------------------------------------------------------------
 -----
 title
 -----
 Symbolic Z-matrix:
 Charge =  0 Multiplicity = 1

 SCF Done:  E(RHF) =  -337.208892081     A.U. after   13 cycles

 1\1\GINC-SE099\Stability\RHF\Aug-CC-pVDZ\C3H10N4\OHZDE\08-Apr-2025\0\\
 #t hf aug-cc-pvdz symm=none int=(grid=ultrafine) guess=(read,tcheck) s
 table=(opt,rrhf)\\title\\0,1\C,0,2.55428,0.0272224,0.261695\C,0,0.1074
 09,-0.298724,-0.0617632\C,0,-1.16885,1.74031,-0.347485\H,0,-2.07854,1.
 14501,-0.536721\H,0,-0.719311,2.01027,-1.30548\H,0,-1.43647,2.64805,0.
 202109\H,0,0.582398,1.50334,0.720044\H,0,1.52924,-1.4592,-0.759509\H,0
 ,3.47722,-0.384856,-0.151658\H,0,2.5323,-0.23697,1.33927\H,0,2.60835,1
 .11663,0.15933\H,0,-2.04184,-0.500244,1.08607\H,0,-2.47458,-1.90622,0.

 Normal termination of Gaussian 16 at Tue Apr  8 21:49:11 2025.
 Gaussian 16:  ES64L-G16RevC.01  3-Jul-2019

 ----------------------------------------------------------------------
 #t hf aug-cc-pvdz iop(5/13=1,5/36=2,99/5=2) pseudo=read geom=check gue
 ss=(read,tcheck) scf=(maxcycle=1)
 ----------------------------------------------------------------------
 -----
 title
 -----
 Structure from the checkpoint file:  "ANI1ccx_616_conf2_mol2.chk"
 Charge =  0 Multiplicity = 1

                         Standard orientation:
 ---------------------------------------------------------------------
 Center     Atomic      Atomic             Coordinates (Angstroms)
 Number     Number       Type             X           Y           Z
 ---------------------------------------------------------------------
      1          6           0        2.554280    0.027224    0.261695
      2          6           0        0.107409   -0.298723   -0.061763
      3          6           0       -1.168851    1.740310   -0.347485
      4          1           0       -2.078541    1.145010   -0.536721
      5          1           0       -0.719312    2.010271   -1.305480
      6          1           0       -1.436471    2.648050    0.202109
      7          1           0        0.582397    1.503341    0.720044
      8          1           0        1.529240   -1.459199   -0.759509
      9          1           0        3.477220   -0.384854   -0.151658
     10          1           0        2.532300   -0.236968    1.339270
     11          1           0        2.608349    1.116632    0.159330
     12          1           0       -2.041840   -0.500244    1.086070
     13          1           0       -2.474579   -1.906220    0.353661
     14          7           0       -2.042300   -1.007440    0.188017
     15          7           0       -0.710450   -1.278139   -0.188714
     16          7           0       -0.238717    0.955085    0.476000
     17          7           0        1.429210   -0.490747   -0.506986
 ---------------------------------------------------------------------

 SCF Done:  E(RHF) =  -337.566426678     A.U. after    2 cycles

 The electronic state is 1-A.
 Alpha  occ. eigenvalues --  -15.51073 -15.50583 -15.50454 -15.48983 -11.32554
 Alpha  occ. eigenvalues --  -11.27670 -11.25941  -1.30730  -1.22382  -1.19035
 Alpha  occ. eigenvalues --   -1.06687  -0.94203  -0.93367  -0.80113  -0.75545
 Alpha  occ. eigenvalues --   -0.72870  -0.68163  -0.64593  -0.63532  -0.62654
 Alpha  occ. eigenvalues --   -0.59916  -0.57119  -0.56199  -0.54470  -0.48088
 Alpha  occ. eigenvalues --   -0.46166  -0.44079  -0.35226
 Alpha virt. eigenvalues --    0.03369   0.04089   0.04763   0.04891   0.05356
 Alpha virt. eigenvalues --    0.05511   0.06314   0.07134   0.08527   0.09461
 Alpha virt. eigenvalues --    0.11554   0.13045   0.13581   0.13827   0.14769

 Mulliken charges:
               1
     1  C   -0.282833
     2  C   -2.235393
     3  C   -0.222600
     4  H    0.171020
     5  H    0.159184
     6  H    0.090893
     7  H    0.158814
     8  H    0.225205
     9  H    0.018240
    10  H    0.150505
    11  H    0.154078
    12  H    0.223459
    13  H    0.126194
    14  N   -0.010484
    15  N    0.298224
    16  N    0.437119
    17  N    0.538376
 Sum of Mulliken charges =  -0.00000

 Dipole moment (field-independent basis, Debye):
    X=              2.0946    Y=              1.8374    Z=              1.6335  Tot=              3.2298

 Test job not archived.
 1\1\GINC-SE099\SP\RHF\Aug-CC-pVDZ\C3H10N4\OHZDE\08-Apr-2025\0\\#t hf a
 ug-cc-pvdz iop(5/13=1,5/36=2,99/5=2) pseudo=read geom=check guess=(rea
 d,tcheck) scf=(maxcycle=1)\\title\\0,1\C,0,2.55428,0.0272224,0.261695\
 C,0,0.107409,-0.298724,-0.0617632\C,0,-1.16885,1.74031,-0.347485\H,0,-
 2.07854,1.14501,-0.536721\H,0,-0.719311,2.01027,-1.30548\H,0,-1.43647,
 2.64805,0.202109\H,0,0.582398,1.50334,0.720044\H,0,1.52924,-1.4592,-0.
 759509\H,0,3.47722,-0.384856,-0.151658\H,0,2.5323,-0.23697,1.33927\H,0
 ,2.60835,1.11663,0.15933\H,0,-2.04184,-0.500244,1.08607\H,0,-2.47458,-

 Normal termination of Gaussian 16 at Tue Apr  8 21:49:18 2025.
