 Gaussian 16, Revision C.01,

 ----------------------------------------------------------------------
 #t hf aug-cc-pvdz symm=none int=(grid=ultrafine) guess=(read,tcheck) s
 table=(opt,rrhf)
 ----------------------------------------------------------------------
 -----
 title
 -----
 Symbolic Z-matrix:
 Charge =  0 Multiplicity = 1

 SCF Done:  E(RHF) =  -380.208617172     A.U. after   11 cycles
 Normal termination of Gaussian 16 at Tue Apr  8 21:00:23 2025.
 Gaussian 16:  ES64L-G16RevC.01  3-Jul-2019

 ----------------------------------------------------------------------
 #t hf aug-cc-pvdz iop(5/13=1,5/36=2,99/5=2) pseudo=read geom=check gue
 ss=(read,tcheck) scf=(maxcycle=1)
 ----------------------------------------------------------------------
 -----
 title
 -----
 Structure from the checkpoint file:  "ANI1ccx_1843_conf143_mol1.chk"
 Charge =  0 Multiplicity = 1

                         Standard orientation:
 ---------------------------------------------------------------------
 Center     Atomic      Atomic             Coordinates (Angstroms)
 Number     Number       Type             X           Y           Z
 ---------------------------------------------------------------------
      1          1           0        0.040092    1.302778    0.373695
      2          1           0        1.168166    2.086059    1.032120
      3          1           0       -1.908092    0.461379   -0.375011
      4          1           0       -1.737774    1.862667   -1.165770
      5          1           0       -2.714441   -1.651414    0.227331
      6          1           0       -1.173761   -1.263463   -0.041852
      7          1           0        0.978737   -1.184701   -0.024806
      8          1           0        0.481163   -0.556768    1.375710
      9          1           0        3.255488   -0.464917   -0.616425
     10          1           0        1.872118    0.324367   -0.312837
     11          8           0        0.948063    1.222629    0.691405
     12          8           0       -1.644323    1.414327   -0.258795
     13          8           0       -2.102401   -1.066523   -0.307941
     14          8           0        0.417101   -1.362181    0.764553
     15          8           0        2.348848   -0.322750   -0.948240
 ---------------------------------------------------------------------

 SCF Done:  E(RHF) =  -380.603101990     A.U. after    2 cycles

 The electronic state is 1-A.
 Alpha  occ. eigenvalues --  -20.57657 -20.55906 -20.54569 -20.54420 -20.53999
 Alpha  occ. eigenvalues --   -1.47921  -1.44450  -1.41903  -1.40490  -1.40175
 Alpha  occ. eigenvalues --   -0.75004  -0.72965  -0.72044  -0.69877  -0.69017
 Alpha  occ. eigenvalues --   -0.62331  -0.59642  -0.57636  -0.55290  -0.53140
 Alpha  occ. eigenvalues --   -0.51251  -0.49690  -0.48747  -0.48443  -0.47163
 Alpha virt. eigenvalues --    0.03142   0.04230   0.04927   0.05450   0.07405
 Alpha virt. eigenvalues --    0.08298   0.08838   0.09547   0.10212   0.11992
 Alpha virt. eigenvalues --    0.17265   0.18284   0.19720   0.20502   0.20682

 Mulliken charges:
               1
     1  H    0.750575
     2  H    0.374934
     3  H    0.812765
     4  H    0.388660
     5  H    0.369822
     6  H    0.673789
     7  H    0.668522
     8  H    0.591844
     9  H    0.327973
    10  H    0.879039
    11  O   -1.261116
    12  O   -1.104193
    13  O   -1.157345
    14  O   -1.323580
    15  O   -0.991689
 Sum of Mulliken charges =  -0.00000

 Dipole moment (field-independent basis, Debye):
    X=              0.2342    Y=              1.9118    Z=              1.3063  Tot=              2.3273

 Test job not archived.
 1\1\GINC-SE457\SP\RHF\Aug-CC-pVDZ\H10O5\OHZDE\08-Apr-2025\0\\#t hf aug
 -cc-pvdz iop(5/13=1,5/36=2,99/5=2) pseudo=read geom=check guess=(read,
 tcheck) scf=(maxcycle=1)\\title\\0,1\H,0,0.0400948,1.30278,0.373695\H,
 0,1.16817,2.08606,1.03212\H,0,-1.90809,0.461382,-0.375011\H,0,-1.73777
 ,1.86267,-1.16577\H,0,-2.71444,-1.65141,0.227331\H,0,-1.17376,-1.26346
 ,-0.0418515\H,0,0.978738,-1.1847,-0.0248058\H,0,0.481165,-0.556767,1.3
 7571\H,0,3.25549,-0.464918,-0.616425\H,0,1.87212,0.324367,-0.312837\O,
 0,0.948066,1.22263,0.691405\O,0,-1.64432,1.41433,-0.258795\O,0,-2.1024

 Normal termination of Gaussian 16 at Tue Apr  8 21:00:27 2025.
