 Gaussian 16, Revision C.01,

 ----------------------------------------------------------------------
 #t hf aug-cc-pvdz symm=none int=(grid=ultrafine) guess=(read,tcheck) s
 table=(opt,rrhf)
 ----------------------------------------------------------------------
 -----
 title
 -----
 Symbolic Z-matrix:
 Charge =  0 Multiplicity = 1

 SCF Done:  E(RHF) =  -962.292669214     A.U. after   14 cycles
 Normal termination of Gaussian 16 at Tue Apr  8 20:57:41 2025.
 Gaussian 16:  ES64L-G16RevC.01  3-Jul-2019

 ----------------------------------------------------------------------
 #t hf aug-cc-pvdz iop(5/13=1,5/36=2,99/5=2) pseudo=read geom=check gue
 ss=(read,tcheck) scf=(maxcycle=1)
 ----------------------------------------------------------------------
 -----
 title
 -----
 Structure from the checkpoint file:  "ANI1ccx_1756_conf22_mol2.chk"
 Charge =  0 Multiplicity = 1

                         Standard orientation:
 ---------------------------------------------------------------------
 Center     Atomic      Atomic             Coordinates (Angstroms)
 Number     Number       Type             X           Y           Z
 ---------------------------------------------------------------------
      1          6           0        1.474802   -1.757189    0.529987
      2          6           0        0.354490   -0.751960    0.818108
      3          6           0        2.005442   -1.617769   -0.882573
      4          6           0        2.314811   -0.166805   -1.308060
      5          6           0        3.212940    0.572185   -0.306751
      6          6           0       -1.977599   -0.095644    0.167507
      7          6           0       -3.211249   -0.850035   -0.234752
      8          6           0       -1.787410    1.138918   -0.783554
      9          6           0       -0.972124    2.221309   -0.123696
     10          1           0       -5.066979   -0.776601   -0.237891
     11          1           0       -0.992681    3.456499    1.228580
     12          1           0       -2.799490    1.541647   -1.042510
     13          1           0       -1.268870    0.870579   -1.732240
     14          1           0       -2.161620    0.273790    1.179710
     15          1           0       -0.944218   -1.849531   -0.365204
     16          1           0        1.993639    2.228261   -0.446446
     17          1           0        3.449369    2.408052    0.547300
     18          1           0        2.889331   -0.207950   -2.254270
     19          1           0        1.380970    0.390050   -1.453700
     20          1           0        1.384222   -2.065970   -1.664520
     21          1           0        3.006092   -2.075388   -0.940611
     22          1           0        2.260652   -1.591949    1.296350
     23          1           0        0.714870   -3.198630    1.708550
     24          1           0        1.648893   -3.771999    0.519579
     25          7           0        0.911351   -3.090670    0.704967
     26          7           0        2.951819    1.885262   -0.173475
     27          7           0       -0.793594   -0.970019    0.096942
     28          8           0        0.465178    0.206745    1.572900
     29          8           0        4.129851   -0.008947    0.243585
     30          8           0       -3.205208   -1.894923   -0.838185
     31          8           0        0.124021    2.553610   -0.462995
     32          8           0       -1.589011    2.768788    0.920273
     33          8           0       -4.358059   -0.195388    0.064549
 ---------------------------------------------------------------------

 SCF Done:  E(RHF) =  -963.250774632     A.U. after    2 cycles

 The electronic state is 1-A.
 Alpha  occ. eigenvalues --  -20.63013 -20.61808 -20.57025 -20.55811 -20.52207
 Alpha  occ. eigenvalues --  -20.48805 -15.53621 -15.50470 -15.50298 -11.42591
 Alpha  occ. eigenvalues --  -11.41672 -11.36487 -11.33792 -11.33035 -11.29149
 Alpha  occ. eigenvalues --  -11.27865 -11.24277 -11.24240  -1.58183  -1.57952
 Alpha  occ. eigenvalues --   -1.48376  -1.48186  -1.46545  -1.43948  -1.25860
 Alpha  occ. eigenvalues --   -1.20624  -1.19862  -1.10310  -1.06524  -1.00036
 Alpha  occ. eigenvalues --   -0.95601  -0.88698  -0.85306  -0.83948  -0.82643
 Alpha  occ. eigenvalues --   -0.79228  -0.75377  -0.75081  -0.73523  -0.72247
 Alpha  occ. eigenvalues --   -0.70789  -0.70195  -0.69273  -0.68786  -0.67533
 Alpha  occ. eigenvalues --   -0.67225  -0.65123  -0.64532  -0.64289  -0.61611
 Alpha  occ. eigenvalues --   -0.60843  -0.59804  -0.59017  -0.58265  -0.57186
 Alpha  occ. eigenvalues --   -0.56283  -0.54104  -0.53184  -0.50705  -0.50501
 Alpha  occ. eigenvalues --   -0.50342  -0.49815  -0.48544  -0.46317  -0.45621
 Alpha  occ. eigenvalues --   -0.43040  -0.42688  -0.41387  -0.40051
 Alpha virt. eigenvalues --    0.02722   0.03442   0.03637   0.03679   0.04302
 Alpha virt. eigenvalues --    0.04942   0.05330   0.05918   0.06652   0.07442
 Alpha virt. eigenvalues --    0.07840   0.08267   0.08870   0.09249   0.09861

 Mulliken charges:
               1
     1  C   -1.460644
     2  C    0.315960
     3  C   -0.022761
     4  C   -0.276422
     5  C    0.176214
     6  C   -1.779012
     7  C    3.321224
     8  C   -0.810438
     9  C    2.953090
    10  H    0.430598
    11  H    0.383923
    12  H    0.286301
    13  H    0.177165
    14  H    0.035325
    15  H    0.235133
    16  H    0.156374
    17  H    0.146183
    18  H    0.231852
    19  H    0.157720
    20  H    0.159388
    21  H    0.215488
    22  H    0.126654
    23  H    0.274744
    24  H    0.220308
    25  N    0.642813
    26  N    0.889589
    27  N    1.569173
    28  O   -1.551197
    29  O   -1.392705
    30  O   -1.375199
    31  O   -1.570438
    32  O   -1.434862
    33  O   -1.431541
 Sum of Mulliken charges =  -0.00000

 Dipole moment (field-independent basis, Debye):
    X=             -5.1008    Y=              0.5776    Z=             -0.7337  Tot=              5.1856

 Test job not archived.
 1\1\GINC-SE460\SP\RHF\Aug-CC-pVDZ\C9H15N3O6\OHZDE\08-Apr-2025\0\\#t hf
  aug-cc-pvdz iop(5/13=1,5/36=2,99/5=2) pseudo=read geom=check guess=(r
 ead,tcheck) scf=(maxcycle=1)\\title\\0,1\C,0,1.4748,-1.75719,0.529987\
 C,0,0.354489,-0.75196,0.818108\C,0,2.00544,-1.61777,-0.882573\C,0,2.31
 481,-0.166806,-1.30806\C,0,3.21294,0.572183,-0.306751\C,0,-1.9776,-0.0
 956424,0.167507\C,0,-3.21125,-0.850032,-0.234752\C,0,-1.78741,1.13892,
 -0.783554\C,0,-0.972123,2.22131,-0.123696\H,0,-5.06698,-0.776597,-0.23
 7891\H,0,-0.992679,3.4565,1.22858\H,0,-2.79949,1.54165,-1.04251\H,0,-1

 Normal termination of Gaussian 16 at Tue Apr  8 20:58:32 2025.
