 Gaussian 16, Revision C.01,

 ----------------------------------------------------------------------
 #t hf aug-cc-pvdz symm=none int=(grid=ultrafine) guess=(read,tcheck) s
 table=(opt,rrhf)
 ----------------------------------------------------------------------
 -----
 title
 -----
 Symbolic Z-matrix:
 Charge =  0 Multiplicity = 1

 SCF Done:  E(RHF) =  -528.671037835     A.U. after   15 cycles
 Normal termination of Gaussian 16 at Tue Apr  8 22:17:44 2025.
 Gaussian 16:  ES64L-G16RevC.01  3-Jul-2019

 ----------------------------------------------------------------------
 #t hf aug-cc-pvdz iop(5/13=1,5/36=2,99/5=2) pseudo=read geom=check gue
 ss=(read,tcheck) scf=(maxcycle=1)
 ----------------------------------------------------------------------
 -----
 title
 -----
 Structure from the checkpoint file:  "ANI1ccx_998_conf121_mol1.chk"
 Charge =  0 Multiplicity = 1

                         Standard orientation:
 ---------------------------------------------------------------------
 Center     Atomic      Atomic             Coordinates (Angstroms)
 Number     Number       Type             X           Y           Z
 ---------------------------------------------------------------------
      1          6           0       -0.776135    0.218867   -0.016379
      2          6           0       -2.196690   -0.410752   -0.349586
      3          6           0        0.064771   -0.539935    0.952470
      4          6           0        1.329020   -1.100219    0.275485
      5          6           0        2.535040   -0.042419   -0.157126
      6          1           0       -2.656341    1.304040   -0.034407
      7          1           0        1.307429    1.679691   -0.101098
      8          1           0        3.145099    1.852392   -0.075560
      9          1           0        1.015650   -1.393249   -0.739990
     10          1           0        1.813520   -2.007829    0.728266
     11          1           0       -0.479256   -1.447770    1.249170
     12          1           0        0.079199   -0.003547    1.972490
     13          1           0       -0.138311    0.459442   -0.936441
     14          1           0       -0.774223    2.174430   -0.074450
     15          1           0       -0.896604    1.566860    1.492920
     16          7           0       -1.204781    1.453460    0.495349
     17          7           0        2.290809    1.282331   -0.158667
     18          8           0       -2.529210   -1.516750   -0.144679
     19          8           0        3.635640   -0.571115   -0.505975
     20          8           0       -3.075730    0.576834   -0.607704
 ---------------------------------------------------------------------

 SCF Done:  E(RHF) =  -529.205804180     A.U. after    2 cycles

 The electronic state is 1-A.
 Alpha  occ. eigenvalues --  -20.56270 -20.53950 -20.52074 -15.56493 -15.55573
 Alpha  occ. eigenvalues --  -11.38682 -11.38658 -11.31797 -11.28520 -11.27621
 Alpha  occ. eigenvalues --   -1.54000  -1.45739  -1.43323  -1.28254  -1.24399
 Alpha  occ. eigenvalues --   -1.09038  -0.97359  -0.89829  -0.84237  -0.80306
 Alpha  occ. eigenvalues --   -0.79350  -0.77394  -0.75389  -0.71081  -0.66918
 Alpha  occ. eigenvalues --   -0.65572  -0.63835  -0.62866  -0.60108  -0.58790
 Alpha  occ. eigenvalues --   -0.57594  -0.54405  -0.53741  -0.52890  -0.49878
 Alpha  occ. eigenvalues --   -0.46609  -0.44209  -0.42839  -0.41451
 Alpha virt. eigenvalues --    0.01023   0.02956   0.03542   0.04348   0.04950
 Alpha virt. eigenvalues --    0.05760   0.06204   0.06843   0.08604   0.08860
 Alpha virt. eigenvalues --    0.09569   0.10474   0.11181   0.11968   0.12351

 Mulliken charges:
               1
     1  C   -1.599763
     2  C    2.075875
     3  C   -0.012126
     4  C   -0.386088
     5  C    0.318874
     6  H    0.637968
     7  H   -0.013009
     8  H    0.203872
     9  H    0.375202
    10  H    0.088710
    11  H    0.201241
    12  H    0.254008
    13  H    0.261018
    14  H    0.367530
    15  H    0.378066
    16  N    0.003087
    17  N    0.692227
    18  O   -1.195662
    19  O   -1.293154
    20  O   -1.357876
 Sum of Mulliken charges =   0.00000

 Dipole moment (field-independent basis, Debye):
    X=              0.8806    Y=              5.3655    Z=              2.6414  Tot=              6.0449

 Test job not archived.
 1\1\GINC-SE368\SP\RHF\Aug-CC-pVDZ\C5H10N2O3\OHZDE\08-Apr-2025\0\\#t hf
  aug-cc-pvdz iop(5/13=1,5/36=2,99/5=2) pseudo=read geom=check guess=(r
 ead,tcheck) scf=(maxcycle=1)\\title\\0,1\C,0,-0.776135,0.218867,-0.016
 3795\C,0,-2.19669,-0.410752,-0.349586\C,0,0.064771,-0.539936,0.95247\C
 ,0,1.32902,-1.10022,0.275485\C,0,2.53504,-0.0424203,-0.157126\H,0,-2.6
 5634,1.30404,-0.0344076\H,0,1.30743,1.67969,-0.101098\H,0,3.1451,1.852
 39,-0.0755605\H,0,1.01565,-1.39325,-0.73999\H,0,1.81352,-2.00783,0.728
 266\H,0,-0.479256,-1.44777,1.24917\H,0,0.0791995,-0.00354791,1.97249\H

 Normal termination of Gaussian 16 at Tue Apr  8 22:17:53 2025.
