 Gaussian 16, Revision C.01,

 ----------------------------------------------------------------------
 #t hf aug-cc-pvdz symm=none int=(grid=ultrafine) guess=(read,tcheck) s
 table=(opt,rrhf)
 ----------------------------------------------------------------------
 -----
 title
 -----
 Symbolic Z-matrix:
 Charge =  0 Multiplicity = 1

 SCF Done:  E(RHF) =  -597.118059740     A.U. after   16 cycles
 Normal termination of Gaussian 16 at Tue Apr  8 19:26:39 2025.
 Gaussian 16:  ES64L-G16RevC.01  3-Jul-2019

 ----------------------------------------------------------------------
 #t hf aug-cc-pvdz iop(5/13=1,5/36=2,99/5=2) pseudo=read geom=check gue
 ss=(read,tcheck) scf=(maxcycle=1)
 ----------------------------------------------------------------------
 -----
 title
 -----
 Structure from the checkpoint file:  "ANI1ccx_1293_conf2_mol1.chk"
 Charge =  0 Multiplicity = 1

                         Standard orientation:
 ---------------------------------------------------------------------
 Center     Atomic      Atomic             Coordinates (Angstroms)
 Number     Number       Type             X           Y           Z
 ---------------------------------------------------------------------
      1          6           0        1.683272   -0.737863    0.103189
      2          6           0       -0.627319   -0.692563   -0.254900
      3          6           0       -2.931889   -0.715877    0.030315
      4          6           0       -1.948891    1.271069    0.152729
      5          6           0       -0.711125    0.705468   -0.103487
      6          6           0        1.768710    0.808596   -0.080951
      7          1           0        3.586512   -0.840360    0.196113
      8          1           0       -3.927888   -1.276933    0.014818
      9          1           0       -1.933712    2.394679    0.317438
     10          1           0        0.508870    2.389282    0.236310
     11          7           0        0.543600   -1.399358   -0.168347
     12          7           0       -1.782638   -1.404110   -0.172642
     13          7           0       -3.108220    0.592828    0.169047
     14          7           0        0.518202    1.353102    0.065241
     15          8           0        2.816452   -1.434566    0.349523
     16          8           0        2.830179    1.372454   -0.236916
 ---------------------------------------------------------------------

 SCF Done:  E(RHF) =  -597.697477683     A.U. after    2 cycles

 The electronic state is 1-A.
 Alpha  occ. eigenvalues --  -20.63793 -20.57635 -15.60353 -15.54697 -15.53360
 Alpha  occ. eigenvalues --  -15.52713 -11.43052 -11.42207 -11.35577 -11.33536
 Alpha  occ. eigenvalues --  -11.33087 -11.32436  -1.55137  -1.51730  -1.34869
 Alpha  occ. eigenvalues --   -1.30496  -1.26517  -1.19591  -1.09735  -0.97687
 Alpha  occ. eigenvalues --   -0.95673  -0.93963  -0.84156  -0.82520  -0.80202
 Alpha  occ. eigenvalues --   -0.75398  -0.73551  -0.70527  -0.68845  -0.67856
 Alpha  occ. eigenvalues --   -0.63007  -0.62059  -0.61377  -0.60724  -0.55637
 Alpha  occ. eigenvalues --   -0.53361  -0.52495  -0.52203  -0.48779  -0.46012
 Alpha  occ. eigenvalues --   -0.43135  -0.36784
 Alpha virt. eigenvalues --    0.01076   0.02300   0.03954   0.04810   0.05115
 Alpha virt. eigenvalues --    0.06727   0.07291   0.07661   0.07910   0.09364
 Alpha virt. eigenvalues --    0.09597   0.09727   0.10547   0.11022   0.11708

 Mulliken charges:
               1
     1  C    0.858332
     2  C   -2.152687
     3  C   -0.635176
     4  C   -0.050896
     5  C   -0.280237
     6  C    0.740843
     7  H    0.378542
     8  H    0.095771
     9  H   -0.042450
    10  H    0.200249
    11  N    1.141238
    12  N    1.051287
    13  N    0.730456
    14  N    0.832075
    15  O   -1.514989
    16  O   -1.352358
 Sum of Mulliken charges =  -0.00000

 Dipole moment (field-independent basis, Debye):
    X=              1.8198    Y=              3.9425    Z=              0.6345  Tot=              4.3883

 Test job not archived.
 1\1\GINC-SE099\SP\RHF\Aug-CC-pVDZ\C6H4N4O2\OHZDE\08-Apr-2025\0\\#t hf
 aug-cc-pvdz iop(5/13=1,5/36=2,99/5=2) pseudo=read geom=check guess=(re
 ad,tcheck) scf=(maxcycle=1)\\title\\0,1\C,0,1.68327,-0.737866,0.103189
 \C,0,-0.62732,-0.692564,-0.2549\C,0,-2.93189,-0.715875,0.0303147\C,0,-
 1.94889,1.27107,0.152729\C,0,-0.711125,0.705467,-0.103487\C,0,1.76871,
 0.808593,-0.0809506\H,0,3.58651,-0.840365,0.196113\H,0,-3.92789,-1.276
 93,0.0148183\H,0,-1.93371,2.39468,0.317438\H,0,0.508872,2.38928,0.2363
 1\N,0,0.543598,-1.39936,-0.168347\N,0,-1.78264,-1.40411,-0.172642\N,0,

 Normal termination of Gaussian 16 at Tue Apr  8 19:26:49 2025.
