 Gaussian 16, Revision C.01,

 ----------------------------------------------------------------------
 #t hf aug-cc-pvdz symm=none int=(grid=ultrafine) guess=(read,tcheck) s
 table=(opt,rrhf)
 ----------------------------------------------------------------------
 -----
 title
 -----
 Symbolic Z-matrix:
 Charge =  0 Multiplicity = 1

 SCF Done:  E(RHF) =  -490.245388874     A.U. after   15 cycles
 Normal termination of Gaussian 16 at Tue Apr  8 21:51:05 2025.
 Gaussian 16:  ES64L-G16RevC.01  3-Jul-2019

 ----------------------------------------------------------------------
 #t hf aug-cc-pvdz iop(5/13=1,5/36=2,99/5=2) pseudo=read geom=check gue
 ss=(read,tcheck) scf=(maxcycle=1)
 ----------------------------------------------------------------------
 -----
 title
 -----
 Structure from the checkpoint file:  "ANI1ccx_703_conf49_mol1.chk"
 Charge =  0 Multiplicity = 1

                         Standard orientation:
 ---------------------------------------------------------------------
 Center     Atomic      Atomic             Coordinates (Angstroms)
 Number     Number       Type             X           Y           Z
 ---------------------------------------------------------------------
      1          6           0        0.092191   -0.349014    0.513754
      2          6           0        1.109620    0.475692   -0.069406
      3          6           0       -1.273311   -0.046158    0.037304
      4          1           0       -0.445548   -2.030609   -0.140972
      5          1           0        0.341126   -0.141500    1.588970
      6          1           0        1.758278   -1.203172   -0.219555
      7          1           0       -0.462808    1.572531    0.305665
      8          8           0        0.411650   -1.752710    0.041755
      9          8           0        2.247739   -0.269075   -0.159590
     10          8           0        0.813967    1.720569   -0.194806
     11          8           0       -1.513709    1.323532    0.100461
     12          8           0       -2.054902   -0.857363   -0.340822
 ---------------------------------------------------------------------

 SCF Done:  E(RHF) =  -490.723828906     A.U. after    2 cycles

 The electronic state is 1-A.
 Alpha  occ. eigenvalues --  -20.65058 -20.63591 -20.61281 -20.58418 -20.57929
 Alpha  occ. eigenvalues --  -11.47552 -11.42938 -11.38557  -1.59447  -1.55296
 Alpha  occ. eigenvalues --   -1.53361  -1.50209  -1.45144  -1.12716  -0.91244
 Alpha  occ. eigenvalues --   -0.86454  -0.80655  -0.78787  -0.75068  -0.70724
 Alpha  occ. eigenvalues --   -0.68482  -0.67131  -0.65562  -0.62534  -0.60313
 Alpha  occ. eigenvalues --   -0.58744  -0.55834  -0.52466  -0.49452  -0.48272
 Alpha  occ. eigenvalues --   -0.47206
 Alpha virt. eigenvalues --    0.02250   0.03815   0.05327   0.06045   0.07688
 Alpha virt. eigenvalues --    0.08769   0.09392   0.10551   0.10778   0.11328
 Alpha virt. eigenvalues --    0.12493   0.13987   0.14456   0.14810   0.15912

 Mulliken charges:
               1
     1  C    0.398687
     2  C    1.846214
     3  C    2.100743
     4  H    0.331255
     5  H    0.478892
     6  H    0.620775
     7  H    0.866520
     8  O   -1.372495
     9  O   -1.320832
    10  O   -1.346832
    11  O   -1.456301
    12  O   -1.146628
 Sum of Mulliken charges =  -0.00000

 Dipole moment (field-independent basis, Debye):
    X=              2.2054    Y=             -2.3781    Z=              1.8803  Tot=              3.7489

 Test job not archived.
 1\1\GINC-SE073\SP\RHF\Aug-CC-pVDZ\C3H4O5\OHZDE\08-Apr-2025\0\\#t hf au
 g-cc-pvdz iop(5/13=1,5/36=2,99/5=2) pseudo=read geom=check guess=(read
 ,tcheck) scf=(maxcycle=1)\\title\\0,1\C,0,0.0921923,-0.349014,0.513754
 \C,0,1.10962,0.475693,-0.0694057\C,0,-1.27331,-0.0461593,0.0373042\H,0
 ,-0.445545,-2.03061,-0.140972\H,0,0.341127,-0.1415,1.58897\H,0,1.75828
 ,-1.20317,-0.219555\H,0,-0.462809,1.57253,0.305665\O,0,0.411653,-1.752
 71,0.0417546\O,0,2.24774,-0.269073,-0.15959\O,0,0.813966,1.72057,-0.19
 4806\O,0,-1.51371,1.32353,0.100461\O,0,-2.0549,-0.857366,-0.340822\\Ve

 Normal termination of Gaussian 16 at Tue Apr  8 21:51:10 2025.
