 Gaussian 16, Revision C.01,

 ----------------------------------------------------------------------
 #t hf aug-cc-pvdz symm=none int=(grid=ultrafine) guess=(read,tcheck) s
 table=(opt,rrhf)
 ----------------------------------------------------------------------
 -----
 title
 -----
 Symbolic Z-matrix:
 Charge =  0 Multiplicity = 1

 SCF Done:  E(RHF) =  -541.247421607     A.U. after   15 cycles
 Normal termination of Gaussian 16 at Tue Apr  8 21:59:38 2025.
 Gaussian 16:  ES64L-G16RevC.01  3-Jul-2019

 ----------------------------------------------------------------------
 #t hf aug-cc-pvdz iop(5/13=1,5/36=2,99/5=2) pseudo=read geom=check gue
 ss=(read,tcheck) scf=(maxcycle=1)
 ----------------------------------------------------------------------
 -----
 title
 -----
 Structure from the checkpoint file:  "ANI1ccx_869_conf9_mol1.chk"
 Charge =  0 Multiplicity = 1

                         Standard orientation:
 ---------------------------------------------------------------------
 Center     Atomic      Atomic             Coordinates (Angstroms)
 Number     Number       Type             X           Y           Z
 ---------------------------------------------------------------------
      1          6           0       -1.288719    0.069861   -0.089656
      2          6           0       -0.428414    1.349160   -0.100125
      3          6           0        1.701321   -0.050201    0.002433
      4          6           0       -0.447138   -1.278310   -0.014497
      5          1           0       -2.869860   -0.875185    0.216697
      6          1           0        1.470232    2.033369    0.297738
      7          1           0        1.369600   -2.145821   -0.062996
      8          7           0       -2.537609    0.076221    0.184089
      9          7           0        0.911855    1.147469    0.190415
     10          7           0        0.938118   -1.229281   -0.154215
     11          8           0       -0.977872    2.407850   -0.145875
     12          8           0        2.930541    0.021883    0.049828
     13          8           0       -1.000020   -2.369270   -0.001753
 ---------------------------------------------------------------------

 SCF Done:  E(RHF) =  -541.767679134     A.U. after    2 cycles

 The electronic state is 1-A.
 Alpha  occ. eigenvalues --  -20.58245 -20.57955 -20.57121 -15.61243 -15.60399
 Alpha  occ. eigenvalues --  -15.57328 -11.47342 -11.43457 -11.42121 -11.36262
 Alpha  occ. eigenvalues --   -1.53065  -1.52314  -1.51241  -1.33205  -1.27724
 Alpha  occ. eigenvalues --   -1.27045  -1.01958  -0.95926  -0.93270  -0.85157
 Alpha  occ. eigenvalues --   -0.81023  -0.76116  -0.73033  -0.71508  -0.71359
 Alpha  occ. eigenvalues --   -0.67964  -0.66880  -0.63835  -0.60218  -0.55883
 Alpha  occ. eigenvalues --   -0.51706  -0.51654  -0.51055  -0.49621  -0.47553
 Alpha  occ. eigenvalues --   -0.45363
 Alpha virt. eigenvalues --   -0.00450   0.02883   0.04390   0.04780   0.07457
 Alpha virt. eigenvalues --    0.08008   0.08785   0.09486   0.09704   0.10348
 Alpha virt. eigenvalues --    0.11744   0.12107   0.12637   0.12829   0.13318

 Mulliken charges:
               1
     1  C   -1.513563
     2  C    1.074497
     3  C    0.517100
     4  C    1.052712
     5  H    0.161141
     6  H    0.292604
     7  H    0.244133
     8  N    0.967999
     9  N    0.435305
    10  N    0.523356
    11  O   -1.263475
    12  O   -1.154008
    13  O   -1.337800
 Sum of Mulliken charges =  -0.00000

 Dipole moment (field-independent basis, Debye):
    X=              1.4410    Y=             -1.4670    Z=              0.0228  Tot=              2.0565

 Test job not archived.
 1\1\GINC-SE453\SP\RHF\Aug-CC-pVDZ\C4H3N3O3\OHZDE\08-Apr-2025\0\\#t hf
 aug-cc-pvdz iop(5/13=1,5/36=2,99/5=2) pseudo=read geom=check guess=(re
 ad,tcheck) scf=(maxcycle=1)\\title\\0,1\C,0,-1.28872,0.0698609,-0.0896
 556\C,0,-0.428415,1.34916,-0.100125\C,0,1.70132,-0.0501998,0.00243298\
 C,0,-0.447138,-1.27831,-0.0144973\H,0,-2.86986,-0.875186,0.216697\H,0,
 1.47023,2.03337,0.297738\H,0,1.3696,-2.14582,-0.0629962\N,0,-2.53761,0
 .0762205,0.184089\N,0,0.911854,1.14747,0.190415\N,0,0.938118,-1.22928,
 -0.154215\O,0,-0.977874,2.40785,-0.145875\O,0,2.93054,0.0218842,0.0498

 Normal termination of Gaussian 16 at Tue Apr  8 21:59:45 2025.
