 Gaussian 16, Revision C.01,

 ----------------------------------------------------------------------
 #t hf aug-cc-pvdz symm=none int=(grid=ultrafine) guess=(read,tcheck) s
 table=(opt,rrhf)
 ----------------------------------------------------------------------
 -----
 title
 -----
 Symbolic Z-matrix:
 Charge =  0 Multiplicity = 1

 SCF Done:  E(RHF) =  -556.584102900     A.U. after   17 cycles
 Normal termination of Gaussian 16 at Tue Apr  8 22:10:45 2025.
 Gaussian 16:  ES64L-G16RevC.01  3-Jul-2019

 ----------------------------------------------------------------------
 #t hf aug-cc-pvdz iop(5/13=1,5/36=2,99/5=2) pseudo=read geom=check gue
 ss=(read,tcheck) scf=(maxcycle=1)
 ----------------------------------------------------------------------
 -----
 title
 -----
 Structure from the checkpoint file:  "ANI1ccx_926_conf3_mol1.chk"
 Charge =  0 Multiplicity = 1

                         Standard orientation:
 ---------------------------------------------------------------------
 Center     Atomic      Atomic             Coordinates (Angstroms)
 Number     Number       Type             X           Y           Z
 ---------------------------------------------------------------------
      1          6           0        2.000270   -0.258933    0.011236
      2          6           0        0.501933   -0.198050    0.065398
      3          6           0       -2.063930   -0.128064   -0.007070
      4          6           0       -0.090990    1.070990    0.025016
      5          1           0       -0.055278    3.059900   -0.105560
      6          1           0       -3.705740   -1.231371    0.151461
      7          1           0        1.507149    2.139681   -0.152314
      8          1           0        3.474211   -1.824968    0.174753
      9          1           0        1.940261   -2.350779   -0.273442
     10          1           0       -3.975980    0.452560    0.344776
     11          7           0        0.536362    2.217881    0.007817
     12          7           0        2.495711   -1.552488   -0.076258
     13          7           0       -0.142915   -1.380930   -0.019632
     14          7           0       -1.451340   -1.326090    0.139221
     15          7           0       -3.405010   -0.276558   -0.171643
     16          7           0       -1.444521    1.063640    0.003520
     17          8           0        2.826709    0.702642    0.013959
 ---------------------------------------------------------------------

 SCF Done:  E(RHF) =  -557.134577307     A.U. after    2 cycles

 The electronic state is 1-A.
 Alpha  occ. eigenvalues --  -20.52512 -15.60462 -15.54356 -15.54167 -15.53582
 Alpha  occ. eigenvalues --  -15.52286 -15.51566 -11.38554 -11.37270 -11.36337
 Alpha  occ. eigenvalues --  -11.28847  -1.44508  -1.38593  -1.30352  -1.26734
 Alpha  occ. eigenvalues --   -1.20966  -1.19818  -1.11110  -0.98507  -0.93772
 Alpha  occ. eigenvalues --   -0.86340  -0.84295  -0.80030  -0.76368  -0.74022
 Alpha  occ. eigenvalues --   -0.72689  -0.69349  -0.67638  -0.66527  -0.62539
 Alpha  occ. eigenvalues --   -0.60363  -0.58709  -0.57482  -0.54402  -0.53752
 Alpha  occ. eigenvalues --   -0.46055  -0.44761  -0.44263  -0.43502  -0.37742
 Alpha virt. eigenvalues --    0.01997   0.02805   0.04063   0.04270   0.05635
 Alpha virt. eigenvalues --    0.06473   0.07327   0.08906   0.09059   0.09971
 Alpha virt. eigenvalues --    0.10967   0.11268   0.11753   0.12060   0.13258

 Mulliken charges:
               1
     1  C    0.679745
     2  C   -0.428870
     3  C   -1.278675
     4  C   -1.713684
     5  H    0.104211
     6  H    0.263512
     7  H    0.316142
     8  H    0.104751
     9  H    0.017601
    10  H    0.214507
    11  N    0.968462
    12  N    0.794262
    13  N   -0.158119
    14  N    0.365076
    15  N    0.603397
    16  N    0.677499
    17  O   -1.529817
 Sum of Mulliken charges =   0.00000

 Dipole moment (field-independent basis, Debye):
    X=             -1.5942    Y=              0.8187    Z=              0.7908  Tot=              1.9588

 Test job not archived.
 1\1\GINC-SE132\SP\RHF\Aug-CC-pVDZ\C4H6N6O1\OHZDE\08-Apr-2025\0\\#t hf
 aug-cc-pvdz iop(5/13=1,5/36=2,99/5=2) pseudo=read geom=check guess=(re
 ad,tcheck) scf=(maxcycle=1)\\title\\0,1\C,0,2.00027,-0.258934,0.011235
 6\C,0,0.501933,-0.198051,0.0653984\C,0,-2.06393,-0.128064,-0.00706993\
 C,0,-0.0909897,1.07099,0.0250161\H,0,-0.055276,3.0599,-0.10556\H,0,-3.
 70574,-1.23137,0.151461\H,0,1.50715,2.13968,-0.152314\H,0,3.47421,-1.8
 2497,0.174753\H,0,1.94026,-2.35078,-0.273442\H,0,-3.97598,0.452561,0.3
 44776\N,0,0.536363,2.21788,0.00781678\N,0,2.49571,-1.55249,-0.0762583\

 Normal termination of Gaussian 16 at Tue Apr  8 22:10:55 2025.
