 Gaussian 16, Revision C.01,

 ----------------------------------------------------------------------
 #t hf aug-cc-pvdz symm=none int=(grid=ultrafine) guess=(read,tcheck) s
 table=(opt,rrhf)
 ----------------------------------------------------------------------
 -----
 title
 -----
 Symbolic Z-matrix:
 Charge =  0 Multiplicity = 1

 SCF Done:  E(RHF) =  -485.183066265     A.U. after   15 cycles
 Normal termination of Gaussian 16 at Tue Apr  8 21:42:44 2025.
 Gaussian 16:  ES64L-G16RevC.01  3-Jul-2019

 ----------------------------------------------------------------------
 #t hf aug-cc-pvdz iop(5/13=1,5/36=2,99/5=2) pseudo=read geom=check gue
 ss=(read,tcheck) scf=(maxcycle=1)
 ----------------------------------------------------------------------
 -----
 title
 -----
 Structure from the checkpoint file:  "ANI1ccx_484_conf13_mol1.chk"
 Charge =  0 Multiplicity = 1

                         Standard orientation:
 ---------------------------------------------------------------------
 Center     Atomic      Atomic             Coordinates (Angstroms)
 Number     Number       Type             X           Y           Z
 ---------------------------------------------------------------------
      1          6           0        1.269990    0.022250    0.011272
      2          6           0       -0.668586    0.782506   -0.137270
      3          1           0       -2.239809   -0.674068    0.920162
      4          1           0       -2.215999   -2.033770   -0.288802
      5          7           0       -1.547799   -1.371330    0.414722
      6          7           0       -0.696064   -0.585481   -0.468956
      7          8           0        0.692429   -1.002710   -0.349177
      8          8           0        2.474050   -0.119577    0.404263
      9          8           0        0.564963    1.197140   -0.166617
     10          8           0       -1.662140    1.372270    0.174565
 ---------------------------------------------------------------------

 SCF Done:  E(RHF) =  -485.642150232     A.U. after    2 cycles

 The electronic state is 1-A.
 Alpha  occ. eigenvalues --  -20.70590 -20.69786 -20.59862 -20.56150 -15.67980
 Alpha  occ. eigenvalues --  -15.61560 -11.49951 -11.48707  -1.74151  -1.62928
 Alpha  occ. eigenvalues --   -1.54520  -1.45868  -1.31999  -1.12593  -0.97301
 Alpha  occ. eigenvalues --   -0.95318  -0.82741  -0.80961  -0.76829  -0.72965
 Alpha  occ. eigenvalues --   -0.69679  -0.68540  -0.66759  -0.65853  -0.61378
 Alpha  occ. eigenvalues --   -0.55505  -0.52960  -0.51252  -0.48194  -0.46670
 Alpha virt. eigenvalues --    0.01995   0.05349   0.07241   0.08032   0.08522
 Alpha virt. eigenvalues --    0.09426   0.09806   0.10794   0.11161   0.11328
 Alpha virt. eigenvalues --    0.13991   0.14646   0.15922   0.16753   0.17397

 Mulliken charges:
               1
     1  C    1.995899
     2  C    1.419921
     3  H    0.212169
     4  H    0.278189
     5  N   -0.059580
     6  N    0.495880
     7  O   -0.943880
     8  O   -1.163659
     9  O   -1.094653
    10  O   -1.140287
 Sum of Mulliken charges =   0.00000

 Dipole moment (field-independent basis, Debye):
    X=             -3.9695    Y=             -1.1965    Z=             -1.0854  Tot=              4.2856

 Test job not archived.
 1\1\GINC-SE048\SP\RHF\Aug-CC-pVDZ\C2H2N2O4\OHZDE\08-Apr-2025\0\\#t hf
 aug-cc-pvdz iop(5/13=1,5/36=2,99/5=2) pseudo=read geom=check guess=(re
 ad,tcheck) scf=(maxcycle=1)\\title\\0,1\C,0,1.26999,0.0222501,0.011272
 6\C,0,-0.668586,0.782506,-0.13727\H,0,-2.23981,-0.674068,0.920162\H,0,
 -2.216,-2.03377,-0.288802\N,0,-1.5478,-1.37133,0.414722\N,0,-0.696064,
 -0.585481,-0.468956\O,0,0.692428,-1.00271,-0.349177\O,0,2.47405,-0.119
 577,0.404263\O,0,0.564963,1.19714,-0.166617\O,0,-1.66214,1.37227,0.174
 565\\Version=ES64L-G16RevC.01\State=1-A\HF=-485.6421502\RMSD=1.366e-02

 Normal termination of Gaussian 16 at Tue Apr  8 21:42:48 2025.
