 Gaussian 16, Revision C.01,

 ----------------------------------------------------------------------
 #t hf aug-cc-pvdz symm=none int=(grid=ultrafine) guess=(read,tcheck) s
 table=(opt,rrhf)
 ----------------------------------------------------------------------
 -----
 title
 -----
 Symbolic Z-matrix:
 Charge =  0 Multiplicity = 1

 SCF Done:  E(RHF) =  -588.436676314     A.U. after   15 cycles
 Normal termination of Gaussian 16 at Tue Apr  8 19:59:25 2025.
 Gaussian 16:  ES64L-G16RevC.01  3-Jul-2019

 ----------------------------------------------------------------------
 #t hf aug-cc-pvdz iop(5/13=1,5/36=2,99/5=2) pseudo=read geom=check gue
 ss=(read,tcheck) scf=(maxcycle=1)
 ----------------------------------------------------------------------
 -----
 title
 -----
 Structure from the checkpoint file:  "ANI1ccx_1556_conf1_mol1.chk"
 Charge =  0 Multiplicity = 1

                         Standard orientation:
 ---------------------------------------------------------------------
 Center     Atomic      Atomic             Coordinates (Angstroms)
 Number     Number       Type             X           Y           Z
 ---------------------------------------------------------------------
      1          6           0       -0.149760    2.381660    0.481800
      2          6           0        0.358796    0.911372    0.632363
      3          6           0        1.563909    0.616608   -0.270894
      4          6           0        2.121702   -0.798636   -0.054077
      5          6           0       -0.771025   -0.066053    0.439101
      6          6           0       -1.692178   -0.600456    1.279830
      7          6           0       -2.611686   -1.355696    0.469423
      8          6           0       -2.152117   -1.278405   -0.817134
      9          1           0       -2.491716   -1.707576   -1.735090
     10          1           0       -3.524345   -1.835669    0.810424
     11          1           0       -1.785408   -0.537671    2.363110
     12          1           0        0.703420   -1.438298   -1.169530
     13          1           0        2.364997    1.335086   -0.101148
     14          1           0        0.669979    2.999142    0.829279
     15          1           0        0.705394    0.814164    1.671230
     16          1           0       -0.900988    2.560138    1.253680
     17          1           0        0.291649    2.965261   -1.409650
     18          1           0       -1.098885    2.007397   -1.314230
     19          1           0        1.248048    0.727730   -1.344900
     20          7           0       -0.568477    2.788509   -0.811606
     21          8           0        3.082393   -1.030822    0.622498
     22          8           0        1.440605   -1.790536   -0.667880
     23          8           0       -1.049079   -0.462595   -0.846421
 ---------------------------------------------------------------------

 SCF Done:  E(RHF) =  -589.030701976     A.U. after    2 cycles

 The electronic state is 1-A.
 Alpha  occ. eigenvalues --  -20.63472 -20.58992 -20.53007 -15.50932 -11.39101
 Alpha  occ. eigenvalues --  -11.31922 -11.31465 -11.27756 -11.27448 -11.27235
 Alpha  occ. eigenvalues --  -11.25951 -11.25370  -1.56738  -1.53801  -1.45109
 Alpha  occ. eigenvalues --   -1.20443  -1.11400  -1.10063  -1.01735  -0.95809
 Alpha  occ. eigenvalues --   -0.86478  -0.83567  -0.82897  -0.78827  -0.75321
 Alpha  occ. eigenvalues --   -0.72259  -0.70471  -0.67670  -0.66162  -0.64883
 Alpha  occ. eigenvalues --   -0.63747  -0.63293  -0.60618  -0.60181  -0.58446
 Alpha  occ. eigenvalues --   -0.57824  -0.56578  -0.55084  -0.52400  -0.50935
 Alpha  occ. eigenvalues --   -0.46666  -0.44914  -0.43177  -0.41663  -0.33987
 Alpha virt. eigenvalues --    0.02682   0.02922   0.03290   0.04297   0.04551
 Alpha virt. eigenvalues --    0.05198   0.06173   0.07056   0.07321   0.07770
 Alpha virt. eigenvalues --    0.08183   0.09897   0.11013   0.11314   0.12037

 Mulliken charges:
               1
     1  C   -0.851235
     2  C   -1.139251
     3  C   -0.289288
     4  C    2.473871
     5  C    1.592754
     6  C   -0.012842
     7  C    0.286490
     8  C    0.739911
     9  H   -0.252923
    10  H   -0.145640
    11  H   -0.208587
    12  H    0.532142
    13  H    0.075946
    14  H    0.101475
    15  H    0.211985
    16  H    0.076419
    17  H    0.312585
    18  H    0.107036
    19  H    0.276427
    20  N    0.374925
    21  O   -1.356242
    22  O   -1.377825
    23  O   -1.528133
 Sum of Mulliken charges =  -0.00000

 Dipole moment (field-independent basis, Debye):
    X=             -3.4168    Y=              1.3959    Z=             -1.2138  Tot=              3.8854

 Test job not archived.
 1\1\GINC-SE078\SP\RHF\Aug-CC-pVDZ\C8H11N1O3\OHZDE\08-Apr-2025\0\\#t hf
  aug-cc-pvdz iop(5/13=1,5/36=2,99/5=2) pseudo=read geom=check guess=(r
 ead,tcheck) scf=(maxcycle=1)\\title\\0,1\C,0,-0.149754,2.38166,0.4818\
 C,0,0.358798,0.911371,0.632363\C,0,1.56391,0.616604,-0.270894\C,0,2.12
 17,-0.798642,-0.0540772\C,0,-0.771025,-0.066051,0.439101\C,0,-1.69218,
 -0.600452,1.27983\C,0,-2.61169,-1.35569,0.469423\C,0,-2.15212,-1.2784,
 -0.817134\H,0,-2.49172,-1.70757,-1.73509\H,0,-3.52435,-1.83566,0.81042
 4\H,0,-1.78541,-0.537667,2.36311\H,0,0.703416,-1.4383,-1.16953\H,0,2.3

 Normal termination of Gaussian 16 at Tue Apr  8 19:59:43 2025.
