 Gaussian 16, Revision C.01,

 ----------------------------------------------------------------------
 #t hf aug-cc-pvdz symm=none int=(grid=ultrafine) guess=(read,tcheck) s
 table=(opt,rrhf)
 ----------------------------------------------------------------------
 -----
 title
 -----
 Symbolic Z-matrix:
 Charge =  0 Multiplicity = 1

 SCF Done:  E(RHF) =  -756.521786389     A.U. after   14 cycles
 Normal termination of Gaussian 16 at Tue Apr  8 19:50:59 2025.
 Gaussian 16:  ES64L-G16RevC.01  3-Jul-2019

 ----------------------------------------------------------------------
 #t hf aug-cc-pvdz iop(5/13=1,5/36=2,99/5=2) pseudo=read geom=check gue
 ss=(read,tcheck) scf=(maxcycle=1)
 ----------------------------------------------------------------------
 -----
 title
 -----
 Structure from the checkpoint file:  "ANI1ccx_1435_conf32_mol1.chk"
 Charge =  0 Multiplicity = 1

                         Standard orientation:
 ---------------------------------------------------------------------
 Center     Atomic      Atomic             Coordinates (Angstroms)
 Number     Number       Type             X           Y           Z
 ---------------------------------------------------------------------
      1          6           0        1.574690   -0.198030    0.865158
      2          6           0        0.754414   -1.002440   -0.122783
      3          6           0        2.418379    0.785225    0.089441
      4          6           0        3.622520    0.191495   -0.673741
      5          6           0       -1.549150   -0.098381    0.534374
      6          6           0       -2.991690   -0.314819    0.022327
      7          6           0       -1.310071    1.401709    0.771449
      8          1           0       -3.979520   -1.088033   -1.267750
      9          1           0       -0.131799    1.792289   -0.722915
     10          1           0       -0.536829    1.534249    1.580100
     11          1           0       -2.282651    1.718218    1.106740
     12          1           0       -1.661430   -0.590256    1.570630
     13          1           0       -0.990371   -1.453211   -0.926444
     14          1           0        3.981379    0.893617   -1.445930
     15          1           0        4.484240    0.099823   -0.042143
     16          1           0        3.368020   -0.786745   -1.179830
     17          1           0        1.383039    2.438640   -0.736668
     18          1           0        2.873239    1.537561    0.848779
     19          1           0        0.906761    0.371681    1.548620
     20          1           0        1.861291   -1.892610    1.925250
     21          1           0        3.091071   -1.474829    0.828776
     22          7           0        2.423850   -1.153759    1.558740
     23          7           0       -0.577751   -0.817520   -0.258413
     24          8           0        1.343081   -1.790270   -0.861918
     25          8           0        1.586009    1.504600   -0.899545
     26          8           0       -3.973180    0.078735    0.568928
     27          8           0       -0.976901    2.105799   -0.349502
     28          8           0       -3.029470   -1.135112   -1.096320
 ---------------------------------------------------------------------

 SCF Done:  E(RHF) =  -757.286115667     A.U. after    2 cycles

 The electronic state is 1-A.
 Alpha  occ. eigenvalues --  -20.62378 -20.57706 -20.57073 -20.55132 -20.51019
 Alpha  occ. eigenvalues --  -15.53949 -15.50190 -11.42564 -11.36254 -11.33005
 Alpha  occ. eigenvalues --  -11.32559 -11.30820 -11.29220 -11.23432  -1.57201
 Alpha  occ. eigenvalues --   -1.48522  -1.48221  -1.46231  -1.45710  -1.26245
 Alpha  occ. eigenvalues --   -1.21399  -1.06838  -1.04731  -0.97504  -0.92691
 Alpha  occ. eigenvalues --   -0.86053  -0.83940  -0.79333  -0.76219  -0.75696
 Alpha  occ. eigenvalues --   -0.73966  -0.72636  -0.71080  -0.70196  -0.68130
 Alpha  occ. eigenvalues --   -0.66411  -0.64569  -0.63789  -0.62430  -0.60996
 Alpha  occ. eigenvalues --   -0.60062  -0.59388  -0.57814  -0.56545  -0.55588
 Alpha  occ. eigenvalues --   -0.53219  -0.50870  -0.50529  -0.49537  -0.48178
 Alpha  occ. eigenvalues --   -0.46956  -0.46200  -0.45142  -0.42259  -0.41053
 Alpha virt. eigenvalues --    0.02950   0.03151   0.03814   0.04093   0.04745
 Alpha virt. eigenvalues --    0.05207   0.05589   0.06211   0.06873   0.07841
 Alpha virt. eigenvalues --    0.07998   0.08809   0.10158   0.10719   0.10903

 Mulliken charges:
               1
     1  C   -1.699906
     2  C    0.217103
     3  C    0.823353
     4  C   -0.433524
     5  C   -1.539691
     6  C    3.055376
     7  C    1.000237
     8  H    0.418562
     9  H    0.598943
    10  H    0.245486
    11  H   -0.008836
    12  H    0.407687
    13  H    0.341276
    14  H    0.044280
    15  H    0.201536
    16  H    0.314485
    17  H    0.379570
    18  H    0.308982
    19  H    0.045841
    20  H    0.171246
    21  H    0.336580
    22  N    0.792492
    23  N    1.114457
    24  O   -1.496848
    25  O   -1.491722
    26  O   -1.352706
    27  O   -1.402422
    28  O   -1.391838
 Sum of Mulliken charges =  -0.00000

 Dipole moment (field-independent basis, Debye):
    X=              0.2989    Y=              0.6616    Z=              1.5237  Tot=              1.6878

 Test job not archived.
 1\1\GINC-SE187\SP\RHF\Aug-CC-pVDZ\C7H14N2O5\OHZDE\08-Apr-2025\0\\#t hf
  aug-cc-pvdz iop(5/13=1,5/36=2,99/5=2) pseudo=read geom=check guess=(r
 ead,tcheck) scf=(maxcycle=1)\\title\\0,1\C,0,1.57469,-0.19803,0.865158
 \C,0,0.754414,-1.00244,-0.122783\C,0,2.41838,0.785224,0.0894409\C,0,3.
 62252,0.191494,-0.673741\C,0,-1.54915,-0.0983799,0.534374\C,0,-2.99169
 ,-0.314817,0.0223274\C,0,-1.31007,1.40171,0.771449\H,0,-3.97952,-1.088
 03,-1.26775\H,0,-0.131798,1.79229,-0.722915\H,0,-0.536828,1.53425,1.58
 01\H,0,-2.28265,1.71822,1.10674\H,0,-1.66143,-0.590255,1.57063\H,0,-0.

 Normal termination of Gaussian 16 at Tue Apr  8 19:51:30 2025.
