 Gaussian 16, Revision C.01,

 ----------------------------------------------------------------------
 #t hf aug-cc-pvdz symm=none int=(grid=ultrafine) guess=(read,tcheck) s
 table=(opt,rrhf)
 ----------------------------------------------------------------------
 -----
 title
 -----
 Symbolic Z-matrix:
 Charge =  0 Multiplicity = 1

 SCF Done:  E(RHF) =  -389.490045573     A.U. after   15 cycles
 Normal termination of Gaussian 16 at Tue Apr  8 21:41:36 2025.
 Gaussian 16:  ES64L-G16RevC.01  3-Jul-2019

 ----------------------------------------------------------------------
 #t hf aug-cc-pvdz iop(5/13=1,5/36=2,99/5=2) pseudo=read geom=check gue
 ss=(read,tcheck) scf=(maxcycle=1)
 ----------------------------------------------------------------------
 -----
 title
 -----
 Structure from the checkpoint file:  "ANI1ccx_473_conf4_mol1.chk"
 Charge =  0 Multiplicity = 1

                         Standard orientation:
 ---------------------------------------------------------------------
 Center     Atomic      Atomic             Coordinates (Angstroms)
 Number     Number       Type             X           Y           Z
 ---------------------------------------------------------------------
      1          6           0        1.294342    0.878334   -0.028402
      2          6           0        1.060372   -1.443459    0.068398
      3          1           0        1.712613   -2.339669    0.200413
      4          7           0        1.808712   -0.229943   -0.049875
      5          7           0       -2.956728   -0.070259    0.002907
      6          7           0       -2.085968    0.608625    0.009614
      7          8           0        0.967090    1.974661    0.029181
      8          8           0       -0.117466   -1.528229   -0.051544
 ---------------------------------------------------------------------

 SCF Done:  E(RHF) =  -389.858111153     A.U. after    2 cycles

 The electronic state is 1-A.
 Alpha  occ. eigenvalues --  -20.64649 -20.57500 -15.61275 -15.61170 -15.55568
 Alpha  occ. eigenvalues --  -11.45407 -11.41516  -1.60154  -1.52928  -1.47839
 Alpha  occ. eigenvalues --   -1.30916  -0.97142  -0.81310  -0.78703  -0.76717
 Alpha  occ. eigenvalues --   -0.72216  -0.70709  -0.68002  -0.66441  -0.65736
 Alpha  occ. eigenvalues --   -0.65319  -0.59666  -0.54878  -0.48353  -0.47466
 Alpha virt. eigenvalues --    0.03394   0.06789   0.07497   0.08449   0.08507
 Alpha virt. eigenvalues --    0.09821   0.10098   0.10381   0.10868   0.12261
 Alpha virt. eigenvalues --    0.12515   0.13345   0.15742   0.16626   0.17858

 Mulliken charges:
               1
     1  C    0.163500
     2  C    0.766356
     3  H    0.154114
     4  N    0.555990
     5  N   -0.241760
     6  N    0.211557
     7  O   -0.708312
     8  O   -0.901446
 Sum of Mulliken charges =  -0.00000

 Dipole moment (field-independent basis, Debye):
    X=              1.4758    Y=             -0.5278    Z=              0.2894  Tot=              1.5939

 Test job not archived.
 1\1\GINC-SE029\SP\RHF\Aug-CC-pVDZ\C2H1N3O2\OHZDE\08-Apr-2025\0\\#t hf
 aug-cc-pvdz iop(5/13=1,5/36=2,99/5=2) pseudo=read geom=check guess=(re
 ad,tcheck) scf=(maxcycle=1)\\title\\0,1\C,0,1.29434,0.878333,-0.028402
 5\C,0,1.06037,-1.44346,0.0683981\H,0,1.71261,-2.33967,0.200413\N,0,1.8
 0871,-0.229944,-0.0498754\N,0,-2.95673,-0.0702589,0.00290745\N,0,-2.08
 597,0.608625,0.00961352\O,0,0.967089,1.97466,0.029181\O,0,-0.117469,-1
 .52823,-0.0515442\\Version=ES64L-G16RevC.01\State=1-A\HF=-389.8581112\
 RMSD=3.293e-02\Dipole=0.5806352,-0.2076546,0.113869\Quadrupole=-1.0214

 Normal termination of Gaussian 16 at Tue Apr  8 21:41:38 2025.
