 Gaussian 16, Revision C.01,

 ----------------------------------------------------------------------
 #t hf aug-cc-pvdz symm=none int=(grid=ultrafine) guess=(read,tcheck) s
 table=(opt,rrhf)
 ----------------------------------------------------------------------
 -----
 title
 -----
 Symbolic Z-matrix:
 Charge =  0 Multiplicity = 1

 SCF Done:  E(RHF) =  -603.545235318     A.U. after   14 cycles
 Normal termination of Gaussian 16 at Tue Apr  8 22:19:18 2025.
 Gaussian 16:  ES64L-G16RevC.01  3-Jul-2019

 ----------------------------------------------------------------------
 #t hf aug-cc-pvdz iop(5/13=1,5/36=2,99/5=2) pseudo=read geom=check gue
 ss=(read,tcheck) scf=(maxcycle=1)
 ----------------------------------------------------------------------
 -----
 title
 -----
 Structure from the checkpoint file:  "ANI1ccx_999_conf34_mol1.chk"
 Charge =  0 Multiplicity = 1

                         Standard orientation:
 ---------------------------------------------------------------------
 Center     Atomic      Atomic             Coordinates (Angstroms)
 Number     Number       Type             X           Y           Z
 ---------------------------------------------------------------------
      1          6           0       -2.240331    0.027148    0.840955
      2          6           0       -1.439482   -1.019179   -0.018447
      3          6           0        0.890687   -0.132631    0.233296
      4          6           0        0.792125    1.277838   -0.179096
      5          6           0        2.206199   -0.542828   -0.191605
      6          1           0        2.130921    1.425357    1.053790
      7          1           0        2.663947   -1.749264    1.243860
      8          1           0        2.984570    0.240439   -0.109987
      9          1           0        2.114969   -0.429705   -1.340720
     10          1           0        0.786126   -0.256565    1.364420
     11          1           0       -1.437220    0.310690    1.506480
     12          1           0       -2.900111   -0.599907    1.391560
     13          1           0       -3.440689    1.511404    0.700895
     14          1           0       -2.161978    1.663622   -0.256424
     15          1           0        0.200048   -1.280761   -1.248400
     16          7           0       -2.853909    1.024843    0.089616
     17          7           0       -0.100721   -0.967301   -0.318437
     18          8           0        2.655487   -1.769674    0.262518
     19          8           0       -2.143953   -1.865448   -0.525340
     20          8           0        0.094664    1.777769   -1.019870
     21          8           0        1.704632    1.994827    0.430899
 ---------------------------------------------------------------------

 SCF Done:  E(RHF) =  -604.157023535     A.U. after    2 cycles

 The electronic state is 1-A.
 Alpha  occ. eigenvalues --  -20.62921 -20.59724 -20.56220 -20.50725 -15.53837
 Alpha  occ. eigenvalues --  -15.48771 -11.41379 -11.35589 -11.33864 -11.32731
 Alpha  occ. eigenvalues --  -11.27479  -1.60154  -1.50441  -1.48771  -1.46027
 Alpha  occ. eigenvalues --   -1.27945  -1.21797  -1.10610  -0.96794  -0.93717
 Alpha  occ. eigenvalues --   -0.88123  -0.85478  -0.80476  -0.75810  -0.73521
 Alpha  occ. eigenvalues --   -0.71828  -0.69768  -0.68611  -0.67927  -0.66818
 Alpha  occ. eigenvalues --   -0.64780  -0.62967  -0.61891  -0.59045  -0.58346
 Alpha  occ. eigenvalues --   -0.53665  -0.52759  -0.51288  -0.48282  -0.47685
 Alpha  occ. eigenvalues --   -0.46233  -0.42960  -0.39435
 Alpha virt. eigenvalues --    0.01095   0.03111   0.03642   0.04075   0.05128
 Alpha virt. eigenvalues --    0.05566   0.06903   0.07344   0.07824   0.08798
 Alpha virt. eigenvalues --    0.10273   0.10546   0.11298   0.11545   0.12861

 Mulliken charges:
               1
     1  C   -0.568374
     2  C    0.602802
     3  C   -1.574228
     4  C    2.636412
     5  C    0.986709
     6  H    0.440445
     7  H    0.264681
     8  H   -0.034534
     9  H    0.304918
    10  H    0.103920
    11  H    0.116656
    12  H   -0.052430
    13  H    0.243120
    14  H    0.100425
    15  H    0.470776
    16  N    0.395708
    17  N    0.828776
    18  O   -1.183684
    19  O   -1.380996
    20  O   -1.412201
    21  O   -1.288902
 Sum of Mulliken charges =  -0.00000

 Dipole moment (field-independent basis, Debye):
    X=              4.6412    Y=              1.5781    Z=              5.2079  Tot=              7.1522

 Test job not archived.
 1\1\GINC-SE343\SP\RHF\Aug-CC-pVDZ\C5H10N2O4\OHZDE\08-Apr-2025\0\\#t hf
  aug-cc-pvdz iop(5/13=1,5/36=2,99/5=2) pseudo=read geom=check guess=(r
 ead,tcheck) scf=(maxcycle=1)\\title\\0,1\C,0,-2.24033,0.0271461,0.8409
 55\C,0,-1.43948,-1.01918,-0.0184466\C,0,0.890688,-0.132629,0.233296\C,
 0,0.792124,1.27784,-0.179096\C,0,2.2062,-0.542824,-0.191605\H,0,2.1309
 2,1.42536,1.05379\H,0,2.66395,-1.74926,1.24386\H,0,2.98457,0.240444,-0
 .109987\H,0,2.11497,-0.429702,-1.34072\H,0,0.786127,-0.256563,1.36442\
 H,0,-1.43722,0.310689,1.50648\H,0,-2.90011,-0.59991,1.39156\H,0,-3.440

 Normal termination of Gaussian 16 at Tue Apr  8 22:19:31 2025.
