 Gaussian 16, Revision C.01,

 ----------------------------------------------------------------------
 #t hf aug-cc-pvdz symm=none int=(grid=ultrafine) guess=(read,tcheck) s
 table=(opt,rrhf)
 ----------------------------------------------------------------------
 -----
 title
 -----
 Symbolic Z-matrix:
 Charge =  0 Multiplicity = 1

 SCF Done:  E(RHF) =  -792.012933829     A.U. after   14 cycles
 Normal termination of Gaussian 16 at Tue Apr  8 19:32:53 2025.
 Gaussian 16:  ES64L-G16RevC.01  3-Jul-2019

 ----------------------------------------------------------------------
 #t hf aug-cc-pvdz iop(5/13=1,5/36=2,99/5=2) pseudo=read geom=check gue
 ss=(read,tcheck) scf=(maxcycle=1)
 ----------------------------------------------------------------------
 -----
 title
 -----
 Structure from the checkpoint file:  "ANI1ccx_1216_conf4_mol1.chk"
 Charge =  0 Multiplicity = 1

                         Standard orientation:
 ---------------------------------------------------------------------
 Center     Atomic      Atomic             Coordinates (Angstroms)
 Number     Number       Type             X           Y           Z
 ---------------------------------------------------------------------
      1          6           0       -1.656567    1.282794   -0.575478
      2          6           0        1.468423    1.544167    0.433068
      3          6           0        1.980589   -0.526132   -0.835865
      4          6           0       -1.235902   -1.024827   -1.462570
      5          6           0       -1.940842   -0.654953    0.881107
      6          6           0        1.379788   -0.748626    1.548830
      7          1           0        1.426330   -0.110152    2.432160
      8          1           0        2.118886   -1.534374    1.665240
      9          1           0       -2.827561   -0.144733    1.281530
     10          1           0       -2.093414   -1.730655    0.743464
     11          1           0       -1.377951   -0.514847   -2.428460
     12          1           0       -1.866434   -1.911065   -1.426750
     13          1           0        2.251026   -1.546954   -0.606480
     14          1           0        2.383334    1.964495   -0.011084
     15          1           0        1.332174    1.865538    1.466740
     16          1           0       -1.365467    1.472724   -1.621020
     17          1           0       -2.663047    1.650486   -0.379167
     18          1           0        2.844330    0.033692   -1.204160
     19          7           0        1.623300    0.084438    0.399415
     20          7           0       -1.651831   -0.139529   -0.436244
     21          8           0       -0.909954   -0.443450    1.884420
     22          8           0       -0.794355    2.072542    0.203846
     23          8           0        0.501505    2.100899   -0.405545
     24          8           0        0.992160   -0.550665   -1.811610
     25          8           0        0.105952   -1.592050   -1.411650
     26          8           0        0.112764   -1.380160    1.591950
 ---------------------------------------------------------------------

 SCF Done:  E(RHF) =  -792.795944415     A.U. after    2 cycles

 The electronic state is 1-A.
 Alpha  occ. eigenvalues --  -20.60925 -20.60807 -20.60507 -20.60495 -20.60181
 Alpha  occ. eigenvalues --  -20.59527 -15.50911 -15.49723 -11.33264 -11.33140
 Alpha  occ. eigenvalues --  -11.32978 -11.32516 -11.32492 -11.31632  -1.60157
 Alpha  occ. eigenvalues --   -1.59987  -1.59426  -1.34312  -1.30935  -1.29847
 Alpha  occ. eigenvalues --   -1.24290  -1.19791  -0.97739  -0.97390  -0.94916
 Alpha  occ. eigenvalues --   -0.94148  -0.83824  -0.82921  -0.74666  -0.73759
 Alpha  occ. eigenvalues --   -0.73086  -0.72791  -0.71650  -0.69918  -0.67792
 Alpha  occ. eigenvalues --   -0.67392  -0.65741  -0.63724  -0.63280  -0.61879
 Alpha  occ. eigenvalues --   -0.61231  -0.56695  -0.56566  -0.56120  -0.55411
 Alpha  occ. eigenvalues --   -0.52334  -0.50951  -0.49550  -0.49027  -0.46924
 Alpha  occ. eigenvalues --   -0.46179  -0.43077  -0.42707  -0.41990  -0.40437
 Alpha virt. eigenvalues --    0.03831   0.03968   0.04644   0.04767   0.04940
 Alpha virt. eigenvalues --    0.05033   0.05624   0.05642   0.07047   0.07989
 Alpha virt. eigenvalues --    0.09268   0.09319   0.09860   0.10600   0.11601

 Mulliken charges:
               1
     1  C    0.519212
     2  C    0.507408
     3  C    0.436072
     4  C    0.335328
     5  C    0.334531
     6  C    0.392611
     7  H    0.090272
     8  H   -0.049726
     9  H    0.010310
    10  H    0.144558
    11  H    0.160585
    12  H   -0.020603
    13  H    0.079374
    14  H    0.063689
    15  H    0.026178
    16  H    0.082492
    17  H    0.003076
    18  H    0.018435
    19  N    1.271924
    20  N    1.260442
    21  O   -0.923535
    22  O   -0.921596
    23  O   -0.936731
    24  O   -0.940705
    25  O   -0.978248
    26  O   -0.965350
 Sum of Mulliken charges =  -0.00000

 Dipole moment (field-independent basis, Debye):
    X=             -0.1290    Y=             -0.2635    Z=              0.0217  Tot=              0.2941

 Test job not archived.
 1\1\GINC-SE185\SP\RHF\Aug-CC-pVDZ\C6H12N2O6\OHZDE\08-Apr-2025\0\\#t hf
  aug-cc-pvdz iop(5/13=1,5/36=2,99/5=2) pseudo=read geom=check guess=(r
 ead,tcheck) scf=(maxcycle=1)\\title\\0,1\C,0,-1.65657,1.28279,-0.57547
 8\C,0,1.46842,1.54417,0.433068\C,0,1.98059,-0.526128,-0.835865\C,0,-1.
 2359,-1.02483,-1.46257\C,0,-1.94084,-0.654958,0.881107\C,0,1.37979,-0.
 748624,1.54883\H,0,1.42633,-0.110149,2.43216\H,0,2.11889,-1.53437,1.66
 524\H,0,-2.82756,-0.14474,1.28153\H,0,-2.09341,-1.73066,0.743464\H,0,-
 1.37795,-0.514851,-2.42846\H,0,-1.86643,-1.91107,-1.42675\H,0,2.25103,

 Normal termination of Gaussian 16 at Tue Apr  8 19:33:27 2025.
