 Gaussian 16, Revision C.01,

 ----------------------------------------------------------------------
 #t hf aug-cc-pvdz symm=none int=(grid=ultrafine) guess=(read,tcheck) s
 table=(opt,rrhf)
 ----------------------------------------------------------------------
 -----
 title
 -----
 Symbolic Z-matrix:
 Charge =  0 Multiplicity = 1

 SCF Done:  E(RHF) =  -830.250681014     A.U. after   14 cycles
 Normal termination of Gaussian 16 at Tue Apr  8 19:42:57 2025.
 Gaussian 16:  ES64L-G16RevC.01  3-Jul-2019

 ----------------------------------------------------------------------
 #t hf aug-cc-pvdz iop(5/13=1,5/36=2,99/5=2) pseudo=read geom=check gue
 ss=(read,tcheck) scf=(maxcycle=1)
 ----------------------------------------------------------------------
 -----
 title
 -----
 Structure from the checkpoint file:  "ANI1ccx_1406_conf15_mol1.chk"
 Charge =  0 Multiplicity = 1

                         Standard orientation:
 ---------------------------------------------------------------------
 Center     Atomic      Atomic             Coordinates (Angstroms)
 Number     Number       Type             X           Y           Z
 ---------------------------------------------------------------------
      1          6           0        2.678300   -0.494643    0.461427
      2          6           0        1.363481   -0.841190   -0.290915
      3          6           0        3.100440    0.902240    0.094125
      4          6           0       -0.717253    0.217800   -0.886814
      5          6           0       -1.274431    1.577779   -0.429423
      6          6           0       -1.843869   -0.832709   -0.886185
      7          6           0       -2.300439   -1.041372    0.523583
      8          1           0       -3.088361    2.315458    0.035590
      9          1           0       -3.684909   -2.055023    1.375350
     10          1           0       -1.479539   -1.853161   -1.159550
     11          1           0       -2.760580   -0.556913   -1.380850
     12          1           0       -0.408456    0.310808   -1.936690
     13          1           0        0.528832    0.770450    0.730450
     14          1           0        3.998899    1.181542    0.607216
     15          1           0        3.129879    1.004522   -1.015790
     16          1           0        2.359731   -0.597179    1.458400
     17          1           0        3.319991   -2.141658   -0.589941
     18          1           0        4.094821   -1.976948    0.769926
     19          1           0        1.585249    2.226441   -0.138382
     20          7           0        3.700461   -1.423208    0.058501
     21          7           0        0.282233   -0.063907    0.093611
     22          8           0       -3.208699   -2.086692    0.491132
     23          8           0        1.170101   -1.815500   -1.005710
     24          8           0        2.158279    1.873301    0.593371
     25          8           0       -0.620874    2.362299    0.231592
     26          8           0       -2.113010   -0.301542    1.485360
     27          8           0       -2.574771    1.824888   -0.712658
 ---------------------------------------------------------------------

 SCF Done:  E(RHF) =  -831.078286480     A.U. after    2 cycles

 The electronic state is 1-A.
 Alpha  occ. eigenvalues --  -20.61498 -20.61272 -20.55699 -20.55405 -20.54862
 Alpha  occ. eigenvalues --  -20.52888 -15.52396 -15.48737 -11.41945 -11.41053
 Alpha  occ. eigenvalues --  -11.36422 -11.32120 -11.29376 -11.28030 -11.26897
 Alpha  occ. eigenvalues --   -1.55299  -1.53677  -1.47367  -1.46263  -1.45414
 Alpha  occ. eigenvalues --   -1.44059  -1.25321  -1.20197  -1.09406  -1.02008
 Alpha  occ. eigenvalues --   -0.97713  -0.88933  -0.84319  -0.82787  -0.78916
 Alpha  occ. eigenvalues --   -0.75718  -0.73877  -0.72612  -0.72168  -0.69972
 Alpha  occ. eigenvalues --   -0.69569  -0.67796  -0.65937  -0.65657  -0.64803
 Alpha  occ. eigenvalues --   -0.63585  -0.63288  -0.60040  -0.59381  -0.58596
 Alpha  occ. eigenvalues --   -0.57208  -0.56617  -0.55534  -0.52561  -0.50544
 Alpha  occ. eigenvalues --   -0.49461  -0.48863  -0.47856  -0.46257  -0.45535
 Alpha  occ. eigenvalues --   -0.43947  -0.43410  -0.41341
 Alpha virt. eigenvalues --    0.02909   0.03427   0.03902   0.04194   0.04771
 Alpha virt. eigenvalues --    0.05381   0.05608   0.06340   0.07187   0.07675
 Alpha virt. eigenvalues --    0.08769   0.09984   0.10419   0.11112   0.11392

 Mulliken charges:
               1
     1  C   -2.186505
     2  C    1.172972
     3  C    0.984079
     4  C   -1.491722
     5  C    2.796313
     6  C   -0.364469
     7  C    2.216195
     8  H    0.446948
     9  H    0.374317
    10  H    0.305237
    11  H    0.203540
    12  H    0.098931
    13  H    0.517908
    14  H   -0.032677
    15  H    0.286685
    16  H    0.127014
    17  H    0.201771
    18  H    0.208012
    19  H    0.440971
    20  N    0.760840
    21  N    1.207207
    22  O   -1.323317
    23  O   -1.506207
    24  O   -1.269111
    25  O   -1.292904
    26  O   -1.306873
    27  O   -1.575153
 Sum of Mulliken charges =  -0.00000

 Dipole moment (field-independent basis, Debye):
    X=             -2.4630    Y=             -0.1889    Z=             -0.5202  Tot=              2.5244

 Test job not archived.
 1\1\GINC-SE456\SP\RHF\Aug-CC-pVDZ\C7H12N2O6\OHZDE\08-Apr-2025\0\\#t hf
  aug-cc-pvdz iop(5/13=1,5/36=2,99/5=2) pseudo=read geom=check guess=(r
 ead,tcheck) scf=(maxcycle=1)\\title\\0,1\C,0,2.6783,-0.494644,0.461427
 \C,0,1.36348,-0.84119,-0.290915\C,0,3.10044,0.902238,0.0941252\C,0,-0.
 717253,0.217801,-0.886814\C,0,-1.27443,1.57778,-0.429423\C,0,-1.84387,
 -0.832707,-0.886185\C,0,-2.30044,-1.04137,0.523583\H,0,-3.08836,2.3154
 6,0.0355895\H,0,-3.68491,-2.05502,1.37535\H,0,-1.47954,-1.85316,-1.159
 55\H,0,-2.76058,-0.556911,-1.38085\H,0,-0.408456,0.310809,-1.93669\H,0

 Normal termination of Gaussian 16 at Tue Apr  8 19:43:26 2025.
