 Gaussian 16, Revision C.01,

 ----------------------------------------------------------------------
 #t hf aug-cc-pvdz symm=none int=(grid=ultrafine) guess=(read,tcheck) s
 table=(opt,rrhf)
 ----------------------------------------------------------------------
 -----
 title
 -----
 Symbolic Z-matrix:
 Charge =  0 Multiplicity = 1

 SCF Done:  E(RHF) =  -925.741235889     A.U. after   14 cycles
 Normal termination of Gaussian 16 at Tue Apr  8 21:38:48 2025.
 Gaussian 16:  ES64L-G16RevC.01  3-Jul-2019

 ----------------------------------------------------------------------
 #t hf aug-cc-pvdz iop(5/13=1,5/36=2,99/5=2) pseudo=read geom=check gue
 ss=(read,tcheck) scf=(maxcycle=1)
 ----------------------------------------------------------------------
 -----
 title
 -----
 Structure from the checkpoint file:  "ANI1ccx_204_conf2_mol2.chk"
 Charge =  0 Multiplicity = 1

                         Standard orientation:
 ---------------------------------------------------------------------
 Center     Atomic      Atomic             Coordinates (Angstroms)
 Number     Number       Type             X           Y           Z
 ---------------------------------------------------------------------
      1          6           0        1.379549   -1.687951    0.098494
      2          6           0       -0.939119    3.234190    0.353825
      3          6           0       -1.478179    1.968281    1.087730
      4          6           0       -2.234970    0.989582    0.173973
      5          6           0       -3.151201   -1.338898   -0.130952
      6          6           0        1.276151    2.358209   -0.505375
      7          6           0        3.611089   -1.835022   -0.347352
      8          6           0        3.552979   -1.185842    0.988858
      9          6           0        2.040599   -1.215791    1.414110
     10          6           0       -0.010827   -1.125100   -0.233566
     11          6           0       -2.242771   -0.473257    0.734568
     12          1           0       -2.006989    2.329921    1.994710
     13          1           0       -3.490702   -3.095708   -0.697406
     14          1           0        2.462920    0.909471   -1.104760
     15          1           0        1.069270    1.053459   -2.054540
     16          1           0        1.491231    3.210019    1.143280
     17          1           0       -0.329239    2.907520   -1.592840
     18          1           0       -1.734188    3.787881   -0.197564
     19          1           0       -0.604749    3.979200    1.045010
     20          1           0       -0.563946    1.418760    1.447520
     21          1           0       -3.311500    1.242952    0.098710
     22          1           0       -0.634317   -1.470390    1.689530
     23          1           0       -2.758371   -0.514328    1.722810
     24          1           0        2.143079   -1.918191   -1.806270
     25          1           0       -1.834020    1.017971   -0.863090
     26          1           0        1.769699   -1.888371    2.180440
     27          1           0        1.761149   -0.200393    1.719510
     28          1           0        1.322898   -2.757281    0.241705
     29          1           0        3.901969   -0.142213    0.934241
     30          1           0        4.505869   -1.521822   -0.878083
     31          1           0        3.605168   -2.943732   -0.193430
     32          1           0        4.244909   -1.662812    1.704690
     33          7           0        2.352069   -1.376851   -0.947199
     34          7           0       -0.882341   -1.062370    0.804340
     35          7           0        0.070697    2.999170   -0.676431
     36          7           0        1.955241    2.538129    0.567498
     37          7           0        1.728170    1.529939   -1.455980
     38          8           0       -4.227151   -0.903371   -0.507199
     39          8           0       -0.299236   -0.733326   -1.347810
     40          8           0       -2.773212   -2.646859   -0.193197
 ---------------------------------------------------------------------

 SCF Done:  E(RHF) =  -926.690941012     A.U. after    2 cycles

 The electronic state is 1-A.
 Alpha  occ. eigenvalues --  -20.61676 -20.54743 -20.51994 -15.54181 -15.50098
 Alpha  occ. eigenvalues --  -15.49752 -15.48130 -15.41808 -11.40699 -11.36884
 Alpha  occ. eigenvalues --  -11.31898 -11.31811 -11.28120 -11.27469 -11.26109
 Alpha  occ. eigenvalues --  -11.24667 -11.24403 -11.23930 -11.23187  -1.54882
 Alpha  occ. eigenvalues --   -1.47473  -1.45702  -1.28335  -1.25821  -1.24151
 Alpha  occ. eigenvalues --   -1.17712  -1.11824  -1.08293  -1.04123  -1.02612
 Alpha  occ. eigenvalues --   -1.00216  -0.93124  -0.88207  -0.84945  -0.83381
 Alpha  occ. eigenvalues --   -0.81081  -0.79959  -0.78346  -0.76351  -0.75582
 Alpha  occ. eigenvalues --   -0.72676  -0.71934  -0.71534  -0.70522  -0.67427
 Alpha  occ. eigenvalues --   -0.65961  -0.65572  -0.63890  -0.63636  -0.62602
 Alpha  occ. eigenvalues --   -0.61228  -0.60062  -0.59093  -0.58660  -0.58144
 Alpha  occ. eigenvalues --   -0.56864  -0.56511  -0.55009  -0.54355  -0.52326
 Alpha  occ. eigenvalues --   -0.51312  -0.50921  -0.49671  -0.48446  -0.48175
 Alpha  occ. eigenvalues --   -0.47446  -0.46099  -0.44450  -0.43577  -0.42974
 Alpha  occ. eigenvalues --   -0.42339  -0.41655  -0.36961
 Alpha virt. eigenvalues --    0.02190   0.02886   0.03277   0.03397   0.04127
 Alpha virt. eigenvalues --    0.04441   0.04641   0.05065   0.05890   0.06669
 Alpha virt. eigenvalues --    0.06846   0.07345   0.07614   0.07708   0.08294

 Mulliken charges:
               1
     1  C   -0.905914
     2  C   -0.637972
     3  C    0.007410
     4  C   -0.201176
     5  C    2.955843
     6  C   -4.439714
     7  C   -0.341519
     8  C   -0.313435
     9  C    0.190334
    10  C    0.975386
    11  C   -1.872475
    12  H    0.089237
    13  H    0.433918
    14  H    0.180019
    15  H    0.186417
    16  H    0.118070
    17  H    0.171934
    18  H    0.087169
    19  H   -0.062392
    20  H    0.387296
    21  H    0.157417
    22  H    0.170656
    23  H    0.267207
    24  H    0.430060
    25  H    0.258530
    26  H   -0.031593
    27  H    0.182430
    28  H    0.151800
    29  H    0.120036
    30  H    0.088022
    31  H    0.206974
    32  H    0.134342
    33  N   -0.104735
    34  N    1.396926
    35  N    1.205599
    36  N    1.410888
    37  N    1.542939
    38  O   -1.381860
    39  O   -1.684159
    40  O   -1.529915
 Sum of Mulliken charges =   0.00000

 Dipole moment (field-independent basis, Debye):
    X=             -1.5802    Y=             -4.3022    Z=              2.2298  Tot=              5.0969

 Test job not archived.
 1\1\GINC-SE221\SP\RHF\Aug-CC-pVDZ\C11H21N5O3\OHZDE\08-Apr-2025\0\\#t h
 f aug-cc-pvdz iop(5/13=1,5/36=2,99/5=2) pseudo=read geom=check guess=(
 read,tcheck) scf=(maxcycle=1)\\title\\0,1\C,0,1.37955,-1.68795,0.09849
 35\C,0,-0.93912,3.23419,0.353825\C,0,-1.47818,1.96828,1.08773\C,0,-2.2
 3497,0.989581,0.173973\C,0,-3.1512,-1.3389,-0.130952\C,0,1.27615,2.358
 21,-0.505375\C,0,3.61109,-1.83502,-0.347352\C,0,3.55298,-1.18584,0.988
 858\C,0,2.0406,-1.21579,1.41411\C,0,-0.0108255,-1.1251,-0.233566\C,0,-
 2.24277,-0.473258,0.734568\H,0,-2.00699,2.32992,1.99471\H,0,-3.4907,-3

 Normal termination of Gaussian 16 at Tue Apr  8 21:40:15 2025.
