 Gaussian 16, Revision C.01,

 ----------------------------------------------------------------------
 #t hf aug-cc-pvdz symm=none int=(grid=ultrafine) guess=(read,tcheck) s
 table=(opt,rrhf)
 ----------------------------------------------------------------------
 -----
 title
 -----
 Symbolic Z-matrix:
 Charge =  0 Multiplicity = 1

 SCF Done:  E(RHF) =  -489.412881533     A.U. after   16 cycles
 Normal termination of Gaussian 16 at Tue Apr  8 19:27:08 2025.
 Gaussian 16:  ES64L-G16RevC.01  3-Jul-2019

 ----------------------------------------------------------------------
 #t hf aug-cc-pvdz iop(5/13=1,5/36=2,99/5=2) pseudo=read geom=check gue
 ss=(read,tcheck) scf=(maxcycle=1)
 ----------------------------------------------------------------------
 -----
 title
 -----
 Structure from the checkpoint file:  "ANI1ccx_1315_conf1_mol2.chk"
 Charge =  0 Multiplicity = 1

                         Standard orientation:
 ---------------------------------------------------------------------
 Center     Atomic      Atomic             Coordinates (Angstroms)
 Number     Number       Type             X           Y           Z
 ---------------------------------------------------------------------
      1          6           0        2.075300   -0.003766   -0.003100
      2          6           0        1.406690    1.229780   -0.053310
      3          6           0        0.027610    1.267570   -0.050062
      4          6           0       -0.669965    0.056815   -0.019869
      5          6           0        1.291090   -1.183880   -0.070813
      6          6           0       -2.181060    0.081483    0.023209
      7          1           0        3.832440   -0.944732    0.411467
      8          1           0        4.005290    0.715446    0.214696
      9          1           0        1.935890    2.222630   -0.064172
     10          1           0       -0.549892    2.201790   -0.084088
     11          1           0        1.801200   -2.126180   -0.073716
     12          1           0       -2.079390   -1.815601   -0.055893
     13          7           0        3.452600   -0.116113    0.032498
     14          7           0       -0.025032   -1.126970   -0.028170
     15          8           0       -2.766430   -1.138311    0.020130
     16          8           0       -2.813130    1.108339    0.063004
 ---------------------------------------------------------------------

 SCF Done:  E(RHF) =  -489.900262161     A.U. after    2 cycles

 The electronic state is 1-A.
 Alpha  occ. eigenvalues --  -20.58651 -20.52696 -15.54170 -15.53996 -11.39175
 Alpha  occ. eigenvalues --  -11.32460 -11.29658 -11.29215 -11.27689 -11.27442
 Alpha  occ. eigenvalues --   -1.52961  -1.44524  -1.29207  -1.24563  -1.10138
 Alpha  occ. eigenvalues --   -1.05561  -0.92005  -0.90341  -0.83140  -0.78738
 Alpha  occ. eigenvalues --   -0.77078  -0.75342  -0.69885  -0.65586  -0.64540
 Alpha  occ. eigenvalues --   -0.63050  -0.62565  -0.60286  -0.59489  -0.55774
 Alpha  occ. eigenvalues --   -0.53489  -0.48711  -0.46625  -0.43821  -0.41622
 Alpha  occ. eigenvalues --   -0.34369
 Alpha virt. eigenvalues --    0.01726   0.03352   0.03965   0.05215   0.05483
 Alpha virt. eigenvalues --    0.06473   0.07163   0.08213   0.08732   0.09868
 Alpha virt. eigenvalues --    0.10302   0.10937   0.11357   0.12434   0.12745

 Mulliken charges:
               1
     1  C   -1.208162
     2  C    0.835628
     3  C    0.485238
     4  C   -0.849510
     5  C   -0.477939
     6  C    1.968496
     7  H   -0.017029
     8  H    0.024821
     9  H   -0.174808
    10  H   -0.242520
    11  H   -0.221110
    12  H    0.474052
    13  N    0.869012
    14  N    1.178229
    15  O   -1.364339
    16  O   -1.280058
 Sum of Mulliken charges =  -0.00000

 Dipole moment (field-independent basis, Debye):
    X=              7.3454    Y=             -0.2739    Z=              0.6100  Tot=              7.3758

 Test job not archived.
 1\1\GINC-SE163\SP\RHF\Aug-CC-pVDZ\C6H6N2O2\OHZDE\08-Apr-2025\0\\#t hf
 aug-cc-pvdz iop(5/13=1,5/36=2,99/5=2) pseudo=read geom=check guess=(re
 ad,tcheck) scf=(maxcycle=1)\\title\\0,1\C,0,2.0753,-0.00376524,-0.0030
 996\C,0,1.40669,1.22978,-0.0533098\C,0,0.0276101,1.26757,-0.0500624\C,
 0,-0.669965,0.0568153,-0.0198687\C,0,1.29109,-1.18388,-0.0708131\C,0,-
 2.18106,0.0814834,0.0232093\H,0,3.83244,-0.944732,0.411467\H,0,4.00529
 ,0.715446,0.214696\H,0,1.93589,2.22263,-0.0641719\H,0,-0.549892,2.2017
 9,-0.0840881\H,0,1.8012,-2.12618,-0.0737158\H,0,-2.07939,-1.8156,-0.05

 Normal termination of Gaussian 16 at Tue Apr  8 19:27:15 2025.
