 Gaussian 16, Revision C.01,

 ----------------------------------------------------------------------
 #t hf aug-cc-pvdz symm=none int=(grid=ultrafine) guess=(read,tcheck) s
 table=(opt,rrhf)
 ----------------------------------------------------------------------
 -----
 title
 -----
 Symbolic Z-matrix:
 Charge =  0 Multiplicity = 1

 SCF Done:  E(RHF) =  -404.780179250     A.U. after   15 cycles
 Normal termination of Gaussian 16 at Tue Apr  8 21:45:49 2025.
 Gaussian 16:  ES64L-G16RevC.01  3-Jul-2019

 ----------------------------------------------------------------------
 #t hf aug-cc-pvdz iop(5/13=1,5/36=2,99/5=2) pseudo=read geom=check gue
 ss=(read,tcheck) scf=(maxcycle=1)
 ----------------------------------------------------------------------
 -----
 title
 -----
 Structure from the checkpoint file:  "ANI1ccx_523_conf3_mol2.chk"
 Charge =  0 Multiplicity = 1

                         Standard orientation:
 ---------------------------------------------------------------------
 Center     Atomic      Atomic             Coordinates (Angstroms)
 Number     Number       Type             X           Y           Z
 ---------------------------------------------------------------------
      1          6           0       -1.071669   -0.268068   -0.068918
      2          6           0        1.092241   -0.274757    0.002617
      3          1           0       -2.420928   -1.840681    0.238394
      4          1           0       -3.100169   -0.231293    0.037658
      5          1           0        2.343012   -1.842609   -0.079289
      6          1           0        3.184321   -0.332316   -0.086470
      7          7           0       -2.318659   -0.859563    0.024497
      8          7           0       -1.135799    1.046580   -0.036193
      9          7           0       -0.007825    1.703420    0.019149
     10          7           0        1.134711    1.090801    0.037073
     11          7           0        2.300281   -0.860619    0.031879
     12          7           0        0.008767   -1.048640   -0.035331
 ---------------------------------------------------------------------

 SCF Done:  E(RHF) =  -405.183685995     A.U. after    2 cycles

 The electronic state is 1-A.
 Alpha  occ. eigenvalues --  -15.61971 -15.54503 -15.53703 -15.53256 -15.52556
 Alpha  occ. eigenvalues --  -15.52119 -11.38247 -11.37671  -1.43223  -1.30709
 Alpha  occ. eigenvalues --   -1.28747  -1.20493  -1.18965  -1.01973  -0.94953
 Alpha  occ. eigenvalues --   -0.86793  -0.81080  -0.74598  -0.73248  -0.69515
 Alpha  occ. eigenvalues --   -0.69179  -0.67095  -0.58532  -0.58238  -0.56046
 Alpha  occ. eigenvalues --   -0.50231  -0.46411  -0.45307  -0.42020
 Alpha virt. eigenvalues --    0.02572   0.03700   0.03937   0.05090   0.06226
 Alpha virt. eigenvalues --    0.08788   0.10681   0.10991   0.11878   0.12401
 Alpha virt. eigenvalues --    0.13049   0.13606   0.13974   0.16240   0.16964

 Mulliken charges:
               1
     1  C   -0.981335
     2  C   -0.972074
     3  H    0.080720
     4  H    0.134185
     5  H    0.122253
     6  H    0.137288
     7  N    0.575674
     8  N    0.242821
     9  N   -0.500456
    10  N    0.146807
    11  N    0.615640
    12  N    0.398477
 Sum of Mulliken charges =  -0.00000

 Dipole moment (field-independent basis, Debye):
    X=              0.5640    Y=             -4.3114    Z=             -0.1117  Tot=              4.3496

 Test job not archived.
 1\1\GINC-SE041\SP\RHF\Aug-CC-pVDZ\C2H4N6\OHZDE\08-Apr-2025\0\\#t hf au
 g-cc-pvdz iop(5/13=1,5/36=2,99/5=2) pseudo=read geom=check guess=(read
 ,tcheck) scf=(maxcycle=1)\\title\\0,1\C,0,-1.07167,-0.268068,-0.068918
 1\C,0,1.09224,-0.274758,0.00261695\H,0,-2.42093,-1.84068,0.238394\H,0,
 -3.10017,-0.231292,0.0376582\H,0,2.34301,-1.84261,-0.0792894\H,0,3.184
 32,-0.332317,-0.0864696\N,0,-2.31866,-0.859562,0.0244973\N,0,-1.1358,1
 .04658,-0.0361928\N,0,-0.00782566,1.70342,0.0191486\N,0,1.13471,1.0908
 ,0.0370726\N,0,2.30028,-0.86062,0.0318789\N,0,0.00876508,-1.04864,-0.0

 Normal termination of Gaussian 16 at Tue Apr  8 21:45:55 2025.
