 Gaussian 16, Revision C.01,

 ----------------------------------------------------------------------
 #t hf aug-cc-pvdz symm=none int=(grid=ultrafine) guess=(read,tcheck) s
 table=(opt,rrhf)
 ----------------------------------------------------------------------
 -----
 title
 -----
 Symbolic Z-matrix:
 Charge =  0 Multiplicity = 1

 SCF Done:  E(RHF) =  -868.338501467     A.U. after   16 cycles
 Normal termination of Gaussian 16 at Tue Apr  8 20:51:28 2025.
 Gaussian 16:  ES64L-G16RevC.01  3-Jul-2019

 ----------------------------------------------------------------------
 #t hf aug-cc-pvdz iop(5/13=1,5/36=2,99/5=2) pseudo=read geom=check gue
 ss=(read,tcheck) scf=(maxcycle=1)
 ----------------------------------------------------------------------
 -----
 title
 -----
 Structure from the checkpoint file:  "ANI1ccx_170_conf13_mol2.chk"
 Charge =  0 Multiplicity = 1

                         Standard orientation:
 ---------------------------------------------------------------------
 Center     Atomic      Atomic             Coordinates (Angstroms)
 Number     Number       Type             X           Y           Z
 ---------------------------------------------------------------------
      1          6           0       -0.641894    0.782178    1.118790
      2          6           0        1.772850   -1.993860    0.179673
      3          6           0        3.705120   -0.659427    0.107124
      4          6           0        2.231910    1.138360   -0.935517
      5          6           0        2.423090    0.270493    0.298624
      6          6           0        3.029940   -1.833590   -0.653956
      7          6           0       -2.713240   -0.904266   -1.031300
      8          6           0       -2.630320    0.338857   -0.444640
      9          6           0       -1.350730    1.083949   -0.228375
     10          6           0        0.141664   -0.488181    1.253370
     11          6           0       -4.703050   -0.244842   -0.283891
     12          1           0        4.085480   -1.035060    1.011310
     13          1           0        1.125500    2.180639    0.247463
     14          1           0        0.956239   -2.530781   -0.348009
     15          1           0        1.941610   -2.524210    1.129240
     16          1           0        3.621040   -2.765820   -0.674240
     17          1           0        2.839330   -1.547850   -1.674630
     18          1           0        4.508810   -0.165967   -0.418684
     19          1           0        2.489620    0.789437    1.189740
     20          1           0       -1.987590   -1.420961   -1.656500
     21          1           0       -5.781300   -0.124162   -0.252326
     22          1           0       -0.615570    0.856250   -1.038400
     23          1           0       -1.519880    2.173619   -0.307070
     24          1           0       -1.441270    0.590476    1.919640
     25          1           0       -0.279717    2.799179    1.587610
     26          1           0        0.508004    1.658739    2.555070
     27          1           0       -4.521110   -2.076951   -1.359210
     28          7           0        0.233422    1.916259    1.605970
     29          7           0       -3.845300    0.722251    0.080474
     30          7           0       -4.045900   -1.262951   -0.938824
     31          7           0        1.263870   -0.653698    0.402761
     32          8           0        2.756900    0.908257   -2.008130
     33          8           0       -0.223686   -1.422811    1.933290
     34          8           0        1.371300    2.158600   -0.705543
 ---------------------------------------------------------------------

 SCF Done:  E(RHF) =  -869.211220429     A.U. after    2 cycles

 The electronic state is 1-A.
 Alpha  occ. eigenvalues --  -20.56548 -20.53758 -20.52466 -15.57441 -15.53977
 Alpha  occ. eigenvalues --  -15.52079 -15.49688 -11.38228 -11.36922 -11.31543
 Alpha  occ. eigenvalues --  -11.30256 -11.29084 -11.27296 -11.26269 -11.26179
 Alpha  occ. eigenvalues --  -11.25844 -11.24102 -11.23120  -1.51626  -1.48305
 Alpha  occ. eigenvalues --   -1.43642  -1.33591  -1.26189  -1.22342  -1.17593
 Alpha  occ. eigenvalues --   -1.07782  -1.06267  -1.02251  -1.00268  -0.93544
 Alpha  occ. eigenvalues --   -0.88688  -0.86002  -0.83196  -0.81843  -0.80607
 Alpha  occ. eigenvalues --   -0.78510  -0.78004  -0.74880  -0.72704  -0.70425
 Alpha  occ. eigenvalues --   -0.68103  -0.67015  -0.65382  -0.64860  -0.64323
 Alpha  occ. eigenvalues --   -0.62880  -0.62664  -0.61910  -0.60946  -0.59866
 Alpha  occ. eigenvalues --   -0.58063  -0.57057  -0.56318  -0.55568  -0.53715
 Alpha  occ. eigenvalues --   -0.51624  -0.50872  -0.49442  -0.48622  -0.48380
 Alpha  occ. eigenvalues --   -0.46192  -0.45508  -0.44640  -0.44030  -0.43663
 Alpha  occ. eigenvalues --   -0.39764  -0.33480
 Alpha virt. eigenvalues --    0.02452   0.02684   0.03729   0.04018   0.04357
 Alpha virt. eigenvalues --    0.04813   0.04945   0.05383   0.05580   0.06399
 Alpha virt. eigenvalues --    0.07014   0.08079   0.08419   0.08656   0.09396

 Mulliken charges:
               1
     1  C   -0.625601
     2  C   -0.143247
     3  C    0.111737
     4  C    2.265994
     5  C   -0.339495
     6  C   -0.109681
     7  C   -0.563355
     8  C   -0.738740
     9  C    0.265495
    10  C    0.106812
    11  C   -0.666492
    12  H   -0.051218
    13  H    0.874584
    14  H    0.084266
    15  H    0.019925
    16  H    0.143396
    17  H    0.045872
    18  H    0.042994
    19  H   -0.152590
    20  H   -0.221365
    21  H   -0.109581
    22  H    0.347334
    23  H    0.103306
    24  H    0.181626
    25  H    0.244882
    26  H    0.301174
    27  H   -0.012894
    28  N    0.047966
    29  N    1.079604
    30  N    0.837273
    31  N    1.091436
    32  O   -1.416513
    33  O   -1.503802
    34  O   -1.541104
 Sum of Mulliken charges =  -0.00000

 Dipole moment (field-independent basis, Debye):
    X=             -1.9488    Y=             -1.8362    Z=              1.7955  Tot=              3.2239

 Test job not archived.
 1\1\GINC-SE363\SP\RHF\Aug-CC-pVDZ\C11H16N4O3\OHZDE\08-Apr-2025\0\\#t h
 f aug-cc-pvdz iop(5/13=1,5/36=2,99/5=2) pseudo=read geom=check guess=(
 read,tcheck) scf=(maxcycle=1)\\title\\0,1\C,0,-0.641894,0.782179,1.118
 79\C,0,1.77285,-1.99386,0.179673\C,0,3.70512,-0.659427,0.107124\C,0,2.
 23191,1.13836,-0.935517\C,0,2.42309,0.270493,0.298624\C,0,3.02994,-1.8
 3359,-0.653956\C,0,-2.71324,-0.904265,-1.0313\C,0,-2.63032,0.338858,-0
 .44464\C,0,-1.35073,1.08395,-0.228375\C,0,0.141664,-0.48818,1.25337\C,
 0,-4.70305,-0.244841,-0.283891\H,0,4.08548,-1.03506,1.01131\H,0,1.1255

 Normal termination of Gaussian 16 at Tue Apr  8 20:52:27 2025.
