 Gaussian 16, Revision C.01,

 ----------------------------------------------------------------------
 #t hf aug-cc-pvdz symm=none int=(grid=ultrafine) guess=(read,tcheck) s
 table=(opt,rrhf)
 ----------------------------------------------------------------------
 -----
 title
 -----
 Symbolic Z-matrix:
 Charge =  0 Multiplicity = 1

 SCF Done:  E(RHF) =  -389.482272834     A.U. after   15 cycles
 Normal termination of Gaussian 16 at Tue Apr  8 21:41:36 2025.
 Gaussian 16:  ES64L-G16RevC.01  3-Jul-2019

 ----------------------------------------------------------------------
 #t hf aug-cc-pvdz iop(5/13=1,5/36=2,99/5=2) pseudo=read geom=check gue
 ss=(read,tcheck) scf=(maxcycle=1)
 ----------------------------------------------------------------------
 -----
 title
 -----
 Structure from the checkpoint file:  "ANI1ccx_473_conf6_mol1.chk"
 Charge =  0 Multiplicity = 1

                         Standard orientation:
 ---------------------------------------------------------------------
 Center     Atomic      Atomic             Coordinates (Angstroms)
 Number     Number       Type             X           Y           Z
 ---------------------------------------------------------------------
      1          6           0       -1.200770    0.945407   -0.036427
      2          6           0       -1.189981   -1.391108    0.030923
      3          1           0       -1.914952   -2.213188    0.089679
      4          7           0       -1.792861   -0.127336   -0.020663
      5          7           0        2.964429   -0.138258   -0.111933
      6          7           0        2.030520    0.444944    0.150940
      7          8           0       -0.768149    2.022422   -0.007795
      8          8           0       -0.001246   -1.568429   -0.015338
 ---------------------------------------------------------------------

 SCF Done:  E(RHF) =  -389.848239679     A.U. after    2 cycles

 The electronic state is 1-A.
 Alpha  occ. eigenvalues --  -20.64876 -20.57068 -15.62198 -15.62162 -15.55935
 Alpha  occ. eigenvalues --  -11.46207 -11.41300  -1.59208  -1.51640  -1.45487
 Alpha  occ. eigenvalues --   -1.31373  -0.98782  -0.82166  -0.78826  -0.76848
 Alpha  occ. eigenvalues --   -0.71918  -0.70494  -0.67939  -0.65763  -0.64390
 Alpha  occ. eigenvalues --   -0.64119  -0.59254  -0.54593  -0.48070  -0.47424
 Alpha virt. eigenvalues --    0.03344   0.06752   0.07147   0.08111   0.08190
 Alpha virt. eigenvalues --    0.09439   0.09652   0.10042   0.10564   0.11903
 Alpha virt. eigenvalues --    0.12411   0.13116   0.15484   0.16847   0.17901

 Mulliken charges:
               1
     1  C    0.176018
     2  C    0.788834
     3  H    0.118413
     4  N    0.600175
     5  N   -0.252701
     6  N    0.215687
     7  O   -0.718611
     8  O   -0.927815
 Sum of Mulliken charges =   0.00000

 Dipole moment (field-independent basis, Debye):
    X=             -1.7639    Y=             -0.3373    Z=              0.0806  Tot=              1.7976

 Test job not archived.
 1\1\GINC-SE048\SP\RHF\Aug-CC-pVDZ\C2H1N3O2\OHZDE\08-Apr-2025\0\\#t hf
 aug-cc-pvdz iop(5/13=1,5/36=2,99/5=2) pseudo=read geom=check guess=(re
 ad,tcheck) scf=(maxcycle=1)\\title\\0,1\C,0,-1.20077,0.945405,-0.03642
 69\C,0,-1.18998,-1.39111,0.0309232\H,0,-1.91495,-2.21319,0.089679\N,0,
 -1.79286,-0.127338,-0.0206632\N,0,2.96443,-0.138258,-0.111933\N,0,2.03
 052,0.444944,0.15094\O,0,-0.76815,2.02242,-0.00779478\O,0,-0.00124432,
 -1.56843,-0.0153385\\Version=ES64L-G16RevC.01\State=1-A\HF=-389.848239
 7\RMSD=2.986e-02\Dipole=-0.6939618,-0.1327122,0.0316933\Quadrupole=-0.

 Normal termination of Gaussian 16 at Tue Apr  8 21:41:39 2025.
