 Gaussian 16, Revision C.01,

 ----------------------------------------------------------------------
 #t hf aug-cc-pvdz symm=none int=(grid=ultrafine) guess=(read,tcheck) s
 table=(opt,rrhf)
 ----------------------------------------------------------------------
 -----
 title
 -----
 Symbolic Z-matrix:
 Charge =  0 Multiplicity = 1

 SCF Done:  E(RHF) =  -555.319250030     A.U. after   16 cycles
 Normal termination of Gaussian 16 at Tue Apr  8 22:02:43 2025.
 Gaussian 16:  ES64L-G16RevC.01  3-Jul-2019

 ----------------------------------------------------------------------
 #t hf aug-cc-pvdz iop(5/13=1,5/36=2,99/5=2) pseudo=read geom=check gue
 ss=(read,tcheck) scf=(maxcycle=1)
 ----------------------------------------------------------------------
 -----
 title
 -----
 Structure from the checkpoint file:  "ANI1ccx_886_conf11_mol1.chk"
 Charge =  0 Multiplicity = 1

                         Standard orientation:
 ---------------------------------------------------------------------
 Center     Atomic      Atomic             Coordinates (Angstroms)
 Number     Number       Type             X           Y           Z
 ---------------------------------------------------------------------
      1          6           0        1.339601    0.723237   -0.066110
      2          6           0       -0.944180    0.727340    0.035975
      3          6           0       -0.963927   -0.696706   -0.084560
      4          6           0        1.296471   -0.746989   -0.018179
      5          1           0        2.496350    2.383230   -0.125403
      6          1           0        3.330731    0.883801   -0.552104
      7          1           0        2.375041   -2.382940    0.146820
      8          1           0        3.097311   -1.011640    0.834408
      9          7           0        2.547041    1.346590   -0.043845
     10          7           0        0.247885    1.383700    0.028246
     11          7           0       -2.208289    1.151439    0.142559
     12          7           0       -2.215449   -1.093001   -0.095586
     13          7           0        0.201898   -1.403390   -0.092082
     14          7           0        2.515381   -1.357580    0.101730
     15          8           0       -2.910809   -0.013506    0.025796
 ---------------------------------------------------------------------

 SCF Done:  E(RHF) =  -555.868691579     A.U. after    2 cycles

 The electronic state is 1-A.
 Alpha  occ. eigenvalues --  -20.66593 -15.58902 -15.58464 -15.56689 -15.55620
 Alpha  occ. eigenvalues --  -15.53632 -15.52709 -11.37314 -11.36988 -11.32226
 Alpha  occ. eigenvalues --  -11.31273  -1.64875  -1.36383  -1.29629  -1.26567
 Alpha  occ. eigenvalues --   -1.23431  -1.19313  -1.16053  -0.97486  -0.93832
 Alpha  occ. eigenvalues --   -0.90189  -0.82958  -0.82575  -0.78149  -0.74737
 Alpha  occ. eigenvalues --   -0.73261  -0.72283  -0.71558  -0.65344  -0.64062
 Alpha  occ. eigenvalues --   -0.59201  -0.57819  -0.56087  -0.53639  -0.53046
 Alpha  occ. eigenvalues --   -0.51137  -0.45752  -0.41852  -0.38265
 Alpha virt. eigenvalues --    0.00914   0.01636   0.03219   0.05016   0.05113
 Alpha virt. eigenvalues --    0.07853   0.08393   0.09265   0.09723   0.10471
 Alpha virt. eigenvalues --    0.11713   0.11923   0.11960   0.12827   0.12963

 Mulliken charges:
               1
     1  C   -1.975580
     2  C   -0.959695
     3  C   -1.186607
     4  C   -1.795256
     5  H    0.084378
     6  H    0.293740
     7  H    0.147407
     8  H    0.240271
     9  N    0.829309
    10  N    1.070959
    11  N    1.364612
    12  N    1.494790
    13  N    1.042115
    14  N    0.859427
    15  O   -1.509871
 Sum of Mulliken charges =   0.00000

 Dipole moment (field-independent basis, Debye):
    X=              8.4215    Y=             -0.1722    Z=              0.0898  Tot=              8.4237

 Test job not archived.
 1\1\GINC-SE334\SP\RHF\Aug-CC-pVDZ\C4H4N6O1\OHZDE\08-Apr-2025\0\\#t hf
 aug-cc-pvdz iop(5/13=1,5/36=2,99/5=2) pseudo=read geom=check guess=(re
 ad,tcheck) scf=(maxcycle=1)\\title\\0,1\C,0,1.3396,0.723237,-0.06611\C
 ,0,-0.944181,0.72734,0.0359752\C,0,-0.963928,-0.696706,-0.0845601\C,0,
 1.29647,-0.746989,-0.018179\H,0,2.49635,2.38323,-0.125403\H,0,3.33073,
 0.883801,-0.552104\H,0,2.37504,-2.38294,0.14682\H,0,3.09731,-1.01164,0
 .834408\N,0,2.54704,1.34659,-0.0438445\N,0,0.247884,1.3837,0.0282461\N
 ,0,-2.20829,1.15144,0.142559\N,0,-2.21545,-1.093,-0.0955858\N,0,0.2018

 Normal termination of Gaussian 16 at Tue Apr  8 22:02:51 2025.
