 Gaussian 16, Revision C.01,

 ----------------------------------------------------------------------
 #t hf aug-cc-pvdz symm=none int=(grid=ultrafine) guess=(read,tcheck) s
 table=(opt,rrhf)
 ----------------------------------------------------------------------
 -----
 title
 -----
 Symbolic Z-matrix:
 Charge =  0 Multiplicity = 1

 SCF Done:  E(RHF) =  -281.808130286     A.U. after   13 cycles
 Normal termination of Gaussian 16 at Tue Apr  8 21:12:20 2025.
 Gaussian 16:  ES64L-G16RevC.01  3-Jul-2019

 ----------------------------------------------------------------------
 #t hf aug-cc-pvdz iop(5/13=1,5/36=2,99/5=2) pseudo=read geom=check gue
 ss=(read,tcheck) scf=(maxcycle=1)
 ----------------------------------------------------------------------
 -----
 title
 -----
 Structure from the checkpoint file:  "ANI1ccx_1889_conf7_mol1.chk"
 Charge =  0 Multiplicity = 1

                         Standard orientation:
 ---------------------------------------------------------------------
 Center     Atomic      Atomic             Coordinates (Angstroms)
 Number     Number       Type             X           Y           Z
 ---------------------------------------------------------------------
      1          1           0       -2.608412   -0.930591   -0.083112
      2          1           0       -1.769272    1.117300   -0.746981
      3          1           0        2.219778    1.178039    0.305122
      4          1           0        1.170078   -0.692849    1.006150
      5          1           0        0.513760   -0.167561   -0.401783
      6          7           0        1.344918   -0.567348    0.019992
      7          8           0       -1.688862   -0.627012   -0.081492
      8          8           0       -1.890252    0.752012    0.159148
      9          8           0        2.461568    0.308387   -0.105074
 ---------------------------------------------------------------------

 SCF Done:  E(RHF) =  -282.091667337     A.U. after    2 cycles

 The electronic state is 1-A.
 Alpha  occ. eigenvalues --  -20.63961 -20.63764 -20.57092 -15.53061  -1.62335
 Alpha  occ. eigenvalues --   -1.45948  -1.28893  -1.08138  -0.74586  -0.73078
 Alpha  occ. eigenvalues --   -0.70888  -0.70697  -0.62873  -0.57719  -0.51570
 Alpha  occ. eigenvalues --   -0.49842  -0.47098  -0.44856
 Alpha virt. eigenvalues --    0.03011   0.03948   0.05149   0.07002   0.07966
 Alpha virt. eigenvalues --    0.13872   0.16037   0.16162   0.18150   0.19040
 Alpha virt. eigenvalues --    0.19959   0.21442   0.21825   0.22647   0.23236

 Mulliken charges:
               1
     1  H    0.517054
     2  H    0.451043
     3  H    0.289161
     4  H    0.071443
     5  H    0.015819
     6  N    0.598312
     7  O   -0.586857
     8  O   -0.385520
     9  O   -0.970454
 Sum of Mulliken charges =   0.00000

 Dipole moment (field-independent basis, Debye):
    X=             -3.8099    Y=              1.8739    Z=              0.0127  Tot=              4.2458

 Test job not archived.
 1\1\GINC-SE048\SP\RHF\Aug-CC-pVDZ\H5N1O3\OHZDE\08-Apr-2025\0\\#t hf au
 g-cc-pvdz iop(5/13=1,5/36=2,99/5=2) pseudo=read geom=check guess=(read
 ,tcheck) scf=(maxcycle=1)\\title\\0,1\H,0,-2.60841,-0.930591,-0.083112
 6\H,0,-1.76927,1.1173,-0.746981\H,0,2.21978,1.17804,0.305122\H,0,1.170
 08,-0.692849,1.00615\H,0,0.513762,-0.167561,-0.401783\N,0,1.34492,-0.5
 67348,0.019992\O,0,-1.68886,-0.627012,-0.0814925\O,0,-1.89025,0.752012
 ,0.159148\O,0,2.46157,0.308388,-0.105074\\Version=ES64L-G16RevC.01\Sta
 te=1-A\HF=-282.0916673\RMSD=8.171e-03\Dipole=-1.498912,0.7372649,0.004

 Normal termination of Gaussian 16 at Tue Apr  8 21:12:23 2025.
