 Gaussian 16, Revision C.01,

 ----------------------------------------------------------------------
 #t hf aug-cc-pvdz symm=none int=(grid=ultrafine) guess=(read,tcheck) s
 table=(opt,rrhf)
 ----------------------------------------------------------------------
 -----
 title
 -----
 Symbolic Z-matrix:
 Charge =  0 Multiplicity = 1

 SCF Done:  E(RHF) =  -556.617052370     A.U. after   16 cycles
 Normal termination of Gaussian 16 at Tue Apr  8 22:10:34 2025.
 Gaussian 16:  ES64L-G16RevC.01  3-Jul-2019

 ----------------------------------------------------------------------
 #t hf aug-cc-pvdz iop(5/13=1,5/36=2,99/5=2) pseudo=read geom=check gue
 ss=(read,tcheck) scf=(maxcycle=1)
 ----------------------------------------------------------------------
 -----
 title
 -----
 Structure from the checkpoint file:  "ANI1ccx_926_conf2_mol2.chk"
 Charge =  0 Multiplicity = 1

                         Standard orientation:
 ---------------------------------------------------------------------
 Center     Atomic      Atomic             Coordinates (Angstroms)
 Number     Number       Type             X           Y           Z
 ---------------------------------------------------------------------
      1          6           0        2.033690   -0.301699   -0.015342
      2          6           0        0.529391   -0.216496    0.031270
      3          6           0       -2.073600   -0.172024   -0.029745
      4          6           0       -0.152687    1.080179   -0.014577
      5          1           0        0.042275    3.131539    0.018180
      6          1           0       -3.881440   -1.154034    0.185372
      7          1           0        1.522438    2.219281   -0.080443
      8          1           0        3.607511   -1.480678    0.109698
      9          1           0        2.021301   -2.317389   -0.005638
     10          1           0       -4.034031    0.542489    0.073049
     11          7           0        0.541977    2.211730    0.044658
     12          7           0        2.603591   -1.504379    0.042673
     13          7           0       -0.128446   -1.334761   -0.006402
     14          7           0       -1.448349   -1.383722   -0.021659
     15          7           0       -3.422210   -0.284533   -0.043487
     16          7           0       -1.491121    1.038248    0.036725
     17          8           0        2.764139    0.690119   -0.062176
 ---------------------------------------------------------------------

 SCF Done:  E(RHF) =  -557.169569464     A.U. after    2 cycles

 The electronic state is 1-A.
 Alpha  occ. eigenvalues --  -20.51107 -15.57925 -15.54211 -15.53486 -15.52379
 Alpha  occ. eigenvalues --  -15.52340 -15.51196 -11.37178 -11.37070 -11.36698
 Alpha  occ. eigenvalues --  -11.28301  -1.46369  -1.37525  -1.28912  -1.26054
 Alpha  occ. eigenvalues --   -1.23160  -1.19419  -1.11742  -0.96170  -0.94264
 Alpha  occ. eigenvalues --   -0.85587  -0.83215  -0.81289  -0.79180  -0.72898
 Alpha  occ. eigenvalues --   -0.72570  -0.71029  -0.68521  -0.66672  -0.62424
 Alpha  occ. eigenvalues --   -0.60417  -0.57346  -0.57197  -0.54637  -0.53649
 Alpha  occ. eigenvalues --   -0.44965  -0.44577  -0.43554  -0.43304  -0.37018
 Alpha virt. eigenvalues --    0.02882   0.03977   0.04338   0.04713   0.05438
 Alpha virt. eigenvalues --    0.06499   0.07643   0.09007   0.09524   0.10068
 Alpha virt. eigenvalues --    0.10822   0.11570   0.11713   0.12350   0.13385

 Mulliken charges:
               1
     1  C    0.743364
     2  C   -0.708735
     3  C   -1.022878
     4  C   -1.764839
     5  H    0.093986
     6  H    0.069206
     7  H    0.201600
     8  H    0.124183
     9  H    0.107950
    10  H    0.158097
    11  N    0.982046
    12  N    0.901969
    13  N   -0.128200
    14  N    0.384537
    15  N    0.685991
    16  N    0.775480
    17  O   -1.603756
 Sum of Mulliken charges =   0.00000

 Dipole moment (field-independent basis, Debye):
    X=             -1.3813    Y=              1.5644    Z=              0.3379  Tot=              2.1142

 Test job not archived.
 1\1\GINC-SE015\SP\RHF\Aug-CC-pVDZ\C4H6N6O1\OHZDE\08-Apr-2025\0\\#t hf
 aug-cc-pvdz iop(5/13=1,5/36=2,99/5=2) pseudo=read geom=check guess=(re
 ad,tcheck) scf=(maxcycle=1)\\title\\0,1\C,0,2.03369,-0.3017,-0.0153416
 \C,0,0.529391,-0.216496,0.0312696\C,0,-2.0736,-0.172022,-0.0297449\C,0
 ,-0.152686,1.08018,-0.0145769\H,0,0.0422778,3.13154,0.0181799\H,0,-3.8
 8144,-1.15403,0.185372\H,0,1.52244,2.21928,-0.0804429\H,0,3.60751,-1.4
 8068,0.109698\H,0,2.0213,-2.31739,-0.00563786\H,0,-4.03403,0.542493,0.
 0730487\N,0,0.541979,2.21173,0.0446577\N,0,2.60359,-1.50438,0.0426729\

 Normal termination of Gaussian 16 at Tue Apr  8 22:10:44 2025.
