 Gaussian 16, Revision C.01,

 ----------------------------------------------------------------------
 #t hf aug-cc-pvdz symm=none int=(grid=ultrafine) guess=(read,tcheck) s
 table=(opt,rrhf)
 ----------------------------------------------------------------------
 -----
 title
 -----
 Symbolic Z-matrix:
 Charge =  0 Multiplicity = 1

 SCF Done:  E(RHF) =  -380.218047663     A.U. after   11 cycles
 Normal termination of Gaussian 16 at Tue Apr  8 21:06:27 2025.
 Gaussian 16:  ES64L-G16RevC.01  3-Jul-2019

 ----------------------------------------------------------------------
 #t hf aug-cc-pvdz iop(5/13=1,5/36=2,99/5=2) pseudo=read geom=check gue
 ss=(read,tcheck) scf=(maxcycle=1)
 ----------------------------------------------------------------------
 -----
 title
 -----
 Structure from the checkpoint file:  "ANI1ccx_1843_conf86_mol1.chk"
 Charge =  0 Multiplicity = 1

                         Standard orientation:
 ---------------------------------------------------------------------
 Center     Atomic      Atomic             Coordinates (Angstroms)
 Number     Number       Type             X           Y           Z
 ---------------------------------------------------------------------
      1          1           0        0.835443    1.313379   -0.162563
      2          1           0        0.087639    2.595179    0.232916
      3          1           0        1.889500   -0.599095   -0.233641
      4          1           0        2.930650    0.341784    0.446703
      5          1           0        0.467660   -2.596361   -0.432543
      6          1           0       -0.070527   -1.370911    0.492697
      7          1           0       -1.616010   -0.248864    0.870065
      8          1           0       -0.319821    0.260020    1.532130
      9          1           0       -1.311850   -0.502354   -1.242340
     10          1           0       -1.501969    1.007169   -1.040130
     11          8           0       -0.021251    1.663689    0.189814
     12          8           0        2.330480    0.280269   -0.347272
     13          8           0        0.427032   -1.619611   -0.374264
     14          8           0       -0.891522   -0.509392    1.511180
     15          8           0       -2.018580    0.160052   -1.037370
 ---------------------------------------------------------------------

 SCF Done:  E(RHF) =  -380.613472386     A.U. after    2 cycles

 The electronic state is 1-A.
 Alpha  occ. eigenvalues --  -20.56506 -20.56464 -20.55371 -20.55236 -20.54206
 Alpha  occ. eigenvalues --   -1.46361  -1.44529  -1.43510  -1.41345  -1.41006
 Alpha  occ. eigenvalues --   -0.73711  -0.71959  -0.70724  -0.70178  -0.67702
 Alpha  occ. eigenvalues --   -0.63207  -0.58981  -0.58411  -0.57750  -0.54554
 Alpha  occ. eigenvalues --   -0.51320  -0.49966  -0.49571  -0.48658  -0.47329
 Alpha virt. eigenvalues --    0.03024   0.03884   0.04931   0.06517   0.07624
 Alpha virt. eigenvalues --    0.07928   0.08518   0.08914   0.09707   0.10538
 Alpha virt. eigenvalues --    0.16728   0.18592   0.19206   0.21002   0.22167

 Mulliken charges:
               1
     1  H    0.719975
     2  H    0.466803
     3  H    0.616032
     4  H    0.396412
     5  H    0.418482
     6  H    0.812766
     7  H    0.612428
     8  H    0.544816
     9  H    0.489885
    10  H    0.587224
    11  O   -1.286993
    12  O   -0.969505
    13  O   -1.141829
    14  O   -1.255829
    15  O   -1.010667
 Sum of Mulliken charges =  -0.00000

 Dipole moment (field-independent basis, Debye):
    X=              2.7422    Y=              0.6482    Z=              1.1594  Tot=              3.0469

 Test job not archived.
 1\1\GINC-SE090\SP\RHF\Aug-CC-pVDZ\H10O5\OHZDE\08-Apr-2025\0\\#t hf aug
 -cc-pvdz iop(5/13=1,5/36=2,99/5=2) pseudo=read geom=check guess=(read,
 tcheck) scf=(maxcycle=1)\\title\\0,1\H,0,0.835442,1.31338,-0.162563\H,
 0,0.0876377,2.59518,0.232916\H,0,1.8895,-0.599094,-0.233641\H,0,2.9306
 5,0.341785,0.446703\H,0,0.46766,-2.59636,-0.432543\H,0,-0.0705273,-1.3
 7091,0.492697\H,0,-1.61601,-0.248863,0.870065\H,0,-0.319821,0.260021,1
 .53213\H,0,-1.31185,-0.502353,-1.24234\H,0,-1.50197,1.00717,-1.04013\O
 ,0,-0.0212514,1.66369,0.189814\O,0,2.33048,0.28027,-0.347272\O,0,0.427

 Normal termination of Gaussian 16 at Tue Apr  8 21:06:30 2025.
