 Gaussian 16, Revision C.01,

 ----------------------------------------------------------------------
 #t hf aug-cc-pvdz symm=none int=(grid=ultrafine) guess=(read,tcheck) s
 table=(opt,rrhf)
 ----------------------------------------------------------------------
 -----
 title
 -----
 Symbolic Z-matrix:
 Charge =  0 Multiplicity = 1

 SCF Done:  E(RHF) =  -405.918479645     A.U. after   15 cycles
 Normal termination of Gaussian 16 at Tue Apr  8 21:47:19 2025.
 Gaussian 16:  ES64L-G16RevC.01  3-Jul-2019

 ----------------------------------------------------------------------
 #t hf aug-cc-pvdz iop(5/13=1,5/36=2,99/5=2) pseudo=read geom=check gue
 ss=(read,tcheck) scf=(maxcycle=1)
 ----------------------------------------------------------------------
 -----
 title
 -----
 Structure from the checkpoint file:  "ANI1ccx_557_conf2_mol1.chk"
 Charge =  0 Multiplicity = 1

                         Standard orientation:
 ---------------------------------------------------------------------
 Center     Atomic      Atomic             Coordinates (Angstroms)
 Number     Number       Type             X           Y           Z
 ---------------------------------------------------------------------
      1          6           0        1.298830   -0.000995    0.092428
      2          6           0       -0.626630    0.721217    0.101905
      3          1           0        3.095349   -0.852434   -0.473100
      4          1           0        3.269960    0.755520   -0.416258
      5          1           0       -2.433509    1.417793    0.689407
      6          1           0       -1.643318    2.223533   -0.607289
      7          1           0       -2.044003   -1.818507    0.780031
      8          1           0       -2.386962   -1.025857   -0.680114
      9          7           0        2.701600    0.005584   -0.016912
     10          7           0        0.561552    1.191970    0.084308
     11          7           0       -1.803459    1.349063   -0.106963
     12          7           0       -0.639765   -0.626441    0.067831
     13          7           0       -1.683922   -1.519317   -0.154965
     14          7           0        0.593892   -1.118200    0.061177
 ---------------------------------------------------------------------

 SCF Done:  E(RHF) =  -406.336698919     A.U. after    2 cycles

 The electronic state is 1-A.
 Alpha  occ. eigenvalues --  -15.58560 -15.54795 -15.53010 -15.50717 -15.50462
 Alpha  occ. eigenvalues --  -15.48656 -11.33932 -11.32696  -1.42882  -1.27451
 Alpha  occ. eigenvalues --   -1.25702  -1.18312  -1.16454  -1.03897  -0.89485
 Alpha  occ. eigenvalues --   -0.85171  -0.79921  -0.76402  -0.73211  -0.72335
 Alpha  occ. eigenvalues --   -0.68112  -0.65642  -0.63202  -0.57661  -0.54089
 Alpha  occ. eigenvalues --   -0.51687  -0.50206  -0.47738  -0.44150  -0.35147
 Alpha virt. eigenvalues --    0.02244   0.04255   0.04874   0.05175   0.05766
 Alpha virt. eigenvalues --    0.07145   0.09708   0.10889   0.11668   0.12103
 Alpha virt. eigenvalues --    0.12864   0.13949   0.14425   0.15468   0.16044

 Mulliken charges:
               1
     1  C   -0.928743
     2  C   -1.311456
     3  H    0.186940
     4  H    0.063334
     5  H    0.283233
     6  H    0.280969
     7  H    0.235056
     8  H    0.157670
     9  N    0.433799
    10  N    0.616645
    11  N    0.546303
    12  N   -0.790559
    13  N   -0.023589
    14  N    0.250397
 Sum of Mulliken charges =  -0.00000

 Dipole moment (field-independent basis, Debye):
    X=             -2.8878    Y=              2.0367    Z=             -0.1635  Tot=              3.5376

 Test job not archived.
 1\1\GINC-SE404\SP\RHF\Aug-CC-pVDZ\C2H6N6\OHZDE\08-Apr-2025\0\\#t hf au
 g-cc-pvdz iop(5/13=1,5/36=2,99/5=2) pseudo=read geom=check guess=(read
 ,tcheck) scf=(maxcycle=1)\\title\\0,1\C,0,1.29883,-0.00099434,0.092428
 1\C,0,-0.62663,0.721216,0.101905\H,0,3.09535,-0.852431,-0.4731\H,0,3.2
 6996,0.755523,-0.416258\H,0,-2.43351,1.41779,0.689407\H,0,-1.64332,2.2
 2353,-0.607289\H,0,-2.044,-1.81851,0.780031\H,0,-2.38696,-1.02586,-0.6
 80114\N,0,2.7016,0.00558676,-0.0169123\N,0,0.561551,1.19197,0.0843079\
 N,0,-1.80346,1.34906,-0.106963\N,0,-0.639764,-0.626442,0.0678307\N,0,-

 Normal termination of Gaussian 16 at Tue Apr  8 21:47:24 2025.
