 Gaussian 16, Revision C.01,

 ----------------------------------------------------------------------
 #t hf aug-cc-pvdz symm=none int=(grid=ultrafine) guess=(read,tcheck) s
 table=(opt,rrhf)
 ----------------------------------------------------------------------
 -----
 title
 -----
 Symbolic Z-matrix:
 Charge =  0 Multiplicity = 1

 SCF Done:  E(RHF) =  -258.516678018     a.u. after   34 cycles
 Normal termination of Gaussian 16 at Tue Apr  8 21:13:27 2025.
 Gaussian 16:  ES64L-G16RevC.01  3-Jul-2019

 ----------------------------------------------------------------------
 #t hf aug-cc-pvdz iop(5/13=1,5/36=2,99/5=2) pseudo=read geom=check gue
 ss=(read,tcheck) scf=(maxcycle=1)
 ----------------------------------------------------------------------
 -----
 title
 -----
 Structure from the checkpoint file:  "ANI1ccx_1907_conf18_mol1.chk"
 Charge =  0 Multiplicity = 1

                         Standard orientation:
 ---------------------------------------------------------------------
 Center     Atomic      Atomic             Coordinates (Angstroms)
 Number     Number       Type             X           Y           Z
 ---------------------------------------------------------------------
      1          7           0        1.744969    0.530719    0.000615
      2          7           0        2.304289   -0.420701   -0.001903
      3          8           0       -1.181471   -0.160512    0.004710
      4          8           0       -2.361631    0.064247   -0.003583
 ---------------------------------------------------------------------

 SCF Done:  E(RHF) =  -258.749628326     A.U. after    2 cycles

 The electronic state is 1-A.
 Alpha  occ. eigenvalues --  -20.72963 -20.72914 -15.62596 -15.62467  -1.78656
 Alpha  occ. eigenvalues --   -1.49222  -1.15618  -0.82438  -0.76593  -0.74043
 Alpha  occ. eigenvalues --   -0.68804  -0.67041  -0.67017  -0.65232  -0.45701
 Alpha virt. eigenvalues --    0.02543   0.09001   0.09344   0.11251   0.12316
 Alpha virt. eigenvalues --    0.13571   0.16012   0.16740   0.17569   0.19480
 Alpha virt. eigenvalues --    0.20815   0.22370   0.22557   0.26015   0.27276

 Mulliken charges:
               1
     1  N   -0.042699
     2  N    0.014598
     3  O   -0.057529
     4  O    0.085630
 Sum of Mulliken charges =   0.00000

 Dipole moment (field-independent basis, Debye):
    X=             -0.0204    Y=             -0.0011    Z=             -0.0001  Tot=              0.0204

 Test job not archived.
 1\1\GINC-SE398\SP\RHF\Aug-CC-pVDZ\N2O2\OHZDE\08-Apr-2025\0\\#t hf aug-
 cc-pvdz iop(5/13=1,5/36=2,99/5=2) pseudo=read geom=check guess=(read,t
 check) scf=(maxcycle=1)\\title\\0,1\N,0,1.74497,0.530719,0.00061527\N,
 0,2.30429,-0.420701,-0.00190308\O,0,-1.18147,-0.160512,0.00471023\O,0,
 -2.36163,0.0642462,-0.0035834\\Version=ES64L-G16RevC.01\State=1-A\HF=-
 258.7496283\RMSD=4.637e-02\Dipole=-0.0080136,-0.0004307,-0.0000375\Qua
 drupole=-0.0061536,0.4131679,-0.4070143,0.3994984,0.0016655,-0.0138022
 \PG=C01 [X(N2O2)]\\@

 Normal termination of Gaussian 16 at Tue Apr  8 21:13:28 2025.
