 Gaussian 16, Revision C.01,

 ----------------------------------------------------------------------
 #t hf aug-cc-pvdz symm=none int=(grid=ultrafine) guess=(read,tcheck) s
 table=(opt,rrhf)
 ----------------------------------------------------------------------
 -----
 title
 -----
 Symbolic Z-matrix:
 Charge =  0 Multiplicity = 1

 SCF Done:  E(RHF) =  -503.172368416     A.U. after   12 cycles
 Normal termination of Gaussian 16 at Tue Apr  8 22:21:23 2025.
 Gaussian 16:  ES64L-G16RevC.01  3-Jul-2019

 ----------------------------------------------------------------------
 #t hf aug-cc-pvdz iop(5/13=1,5/36=2,99/5=2) pseudo=read geom=check gue
 ss=(read,tcheck) scf=(maxcycle=1)
 ----------------------------------------------------------------------
 -----
 title
 -----
 Structure from the checkpoint file:  "B-set_borane_dms_100_dimer_mol1.chk"
 Charge =  0 Multiplicity = 1

                         Standard orientation:
 ---------------------------------------------------------------------
 Center     Atomic      Atomic             Coordinates (Angstroms)
 Number     Number       Type             X           Y           Z
 ---------------------------------------------------------------------
      1          5           0       -1.779209   -0.002933    0.306240
      2          1           0       -1.550189   -0.002201    1.494500
      3          1           0       -2.283165   -1.015939   -0.114480
      4          1           0       -2.286402    1.008210   -0.115090
      5         16           0       -0.023749   -0.000100   -0.530290
      6          6           0        0.803858    1.377603    0.266010
      7          1           0        1.854277    1.394839   -0.013690
      8          1           0        0.313401    2.282657   -0.082310
      9          1           0        0.683783    1.293327    1.343970
     10          6           0        0.808693   -1.374866    0.266060
     11          1           0        0.321781   -2.281712   -0.082570
     12          1           0        1.859254   -1.388111   -0.013310
     13          1           0        0.687979   -1.291223    1.343990
 ---------------------------------------------------------------------

 SCF Done:  E(RHF) =  -503.360323510     A.U. after    2 cycles

 The electronic state is 1-A.
 Alpha  occ. eigenvalues --  -94.00076 -11.28516 -11.28484  -8.28235  -7.52635
 Alpha  occ. eigenvalues --   -6.26012  -6.25900  -6.25722  -1.14427  -0.99074
 Alpha  occ. eigenvalues --   -0.88175  -0.71019  -0.64612  -0.62098  -0.61975
 Alpha  occ. eigenvalues --   -0.60235  -0.54394  -0.49766  -0.43345  -0.43165
 Alpha  occ. eigenvalues --   -0.40402
 Alpha virt. eigenvalues --    0.02722   0.03600   0.04017   0.04843   0.06136
 Alpha virt. eigenvalues --    0.06314   0.07435   0.07483   0.09015   0.09542
 Alpha virt. eigenvalues --    0.11760   0.12857   0.13059   0.14272   0.14341

 Mulliken charges:
               1
     1  B   -0.396668
     2  H    0.190813
     3  H    0.169214
     4  H    0.169182
     5  S    0.121755
     6  C   -0.630498
     7  H    0.149633
     8  H    0.151102
     9  H    0.202666
    10  C   -0.630506
    11  H    0.151072
    12  H    0.149664
    13  H    0.202574
 Sum of Mulliken charges =  -0.00000

 Dipole moment (field-independent basis, Debye):
    X=              4.7975    Y=              0.0079    Z=              0.0150  Tot=              4.7975

 Test job not archived.
 1\1\GINC-SE179\SP\RHF\Aug-CC-pVDZ\C2H9B1S1\OHZDE\08-Apr-2025\0\\#t hf
 aug-cc-pvdz iop(5/13=1,5/36=2,99/5=2) pseudo=read geom=check guess=(re
 ad,tcheck) scf=(maxcycle=1)\\title\\0,1\B,0,1.77921,0.00284,0.30624\H,
 0,1.55019,0.00212,1.4945\H,0,2.28322,1.01582,-0.11448\H,0,2.28635,-1.0
 0833,-0.11509\S,0,0.02375,0.0001,-0.53029\C,0,-0.80393,-1.37756,0.2660
 1\H,0,-1.85435,-1.39474,-0.01369\H,0,-0.31352,-2.28264,-0.08231\H,0,-0
 .68385,-1.29329,1.34397\C,0,-0.80862,1.37491,0.26606\H,0,-0.32166,2.28
 173,-0.08257\H,0,-1.85918,1.38821,-0.01331\H,0,-0.68791,1.29126,1.3439

 Normal termination of Gaussian 16 at Tue Apr  8 22:21:27 2025.
