 Gaussian 16, Revision C.01,

 ----------------------------------------------------------------------
 #t hf aug-cc-pvdz symm=none int=(grid=ultrafine) guess=(read,tcheck) s
 table=(opt,rrhf)
 ----------------------------------------------------------------------
 -----
 title
 -----
 Symbolic Z-matrix:
 Charge =  0 Multiplicity = 1

 SCF Done:  E(RHF) =  -502.485323923     A.U. after   11 cycles
 Normal termination of Gaussian 16 at Tue Apr  8 22:22:40 2025.
 Gaussian 16:  ES64L-G16RevC.01  3-Jul-2019

 ----------------------------------------------------------------------
 #t hf aug-cc-pvdz iop(5/13=1,5/36=2,99/5=2) pseudo=read geom=check gue
 ss=(read,tcheck) scf=(maxcycle=1)
 ----------------------------------------------------------------------
 -----
 title
 -----
 Structure from the checkpoint file:  "B-set_boricacid_boricacid_110_dimer_mol1.chk"
 Charge =  0 Multiplicity = 1

                         Standard orientation:
 ---------------------------------------------------------------------
 Center     Atomic      Atomic             Coordinates (Angstroms)
 Number     Number       Type             X           Y           Z
 ---------------------------------------------------------------------
      1          5           0        2.272188    0.026199   -0.000102
      2          8           0        3.629450   -0.122909    0.000458
      3          8           0        1.694524    1.244504   -0.000732
      4          8           0        1.504063   -1.123333   -0.000042
      5          1           0        4.088069    0.714958    0.000468
      6          1           0        0.725559    1.236511   -0.000482
      7          1           0        2.035510   -1.917630    0.000598
      8          5           0       -2.272151   -0.026157    0.000073
      9          8           0       -1.504116    1.123386    0.000413
     10          8           0       -3.629462    0.122822    0.000113
     11          8           0       -1.694496   -1.244471   -0.000297
     12          1           0       -2.035643    1.917643    0.000733
     13          1           0       -4.087871   -0.715155   -0.000097
     14          1           0       -0.725521   -1.236518   -0.000377
 ---------------------------------------------------------------------

 SCF Done:  E(RHF) =  -502.985956148     A.U. after    2 cycles

 The electronic state is 1-A.
 Alpha  occ. eigenvalues --  -20.56437 -20.56437 -20.55806 -20.55805 -20.55234
 Alpha  occ. eigenvalues --  -20.55234  -7.66860  -7.66849  -1.50321  -1.50144
 Alpha  occ. eigenvalues --   -1.44923  -1.44795  -1.44481  -1.44464  -0.79091
 Alpha  occ. eigenvalues --   -0.78590  -0.74916  -0.74578  -0.73774  -0.73729
 Alpha  occ. eigenvalues --   -0.60308  -0.60006  -0.58341  -0.57338  -0.57016
 Alpha  occ. eigenvalues --   -0.56811  -0.55132  -0.55059  -0.50436  -0.50277
 Alpha  occ. eigenvalues --   -0.49669  -0.49582
 Alpha virt. eigenvalues --    0.03871   0.03981   0.04423   0.04913   0.05698
 Alpha virt. eigenvalues --    0.06411   0.07056   0.08382   0.08796   0.08847
 Alpha virt. eigenvalues --    0.11772   0.11773   0.12952   0.13396   0.18857

 Mulliken charges:
               1
     1  B    1.855891
     2  O   -1.178639
     3  O   -1.144841
     4  O   -1.167438
     5  H    0.466867
     6  H    0.692830
     7  H    0.475318
     8  B    1.855835
     9  O   -1.167360
    10  O   -1.178694
    11  O   -1.144824
    12  H    0.475332
    13  H    0.466890
    14  H    0.692833
 Sum of Mulliken charges =  -0.00000

 Dipole moment (field-independent basis, Debye):
    X=              0.0008    Y=              0.0001    Z=              0.0015  Tot=              0.0017

 Test job not archived.
 1\1\GINC-SE070\SP\RHF\Aug-CC-pVDZ\B2H6O6\OHZDE\08-Apr-2025\0\\#t hf au
 g-cc-pvdz iop(5/13=1,5/36=2,99/5=2) pseudo=read geom=check guess=(read
 ,tcheck) scf=(maxcycle=1)\\title\\0,1\B,0,2.06504,0.02667,-0.0001\O,0,
 3.42239,-0.12163,0.00046\O,0,1.48665,1.24463,-0.00073\O,0,1.2976,-1.12
 332,-0.00004\H,0,3.88051,0.71651,0.00047\H,0,0.51769,1.23606,-0.00048\
 H,0,1.82952,-1.9173,0.0006\B,0,-2.47926686,-0.028393,0.00007514\O,0,-1
 .71191686,1.121607,0.00041514\O,0,-3.83666686,0.119777,0.00011514\O,0,
 -1.90088686,-1.246363,-0.00029486\H,0,-2.24391686,1.915547,0.00073514\

 Normal termination of Gaussian 16 at Tue Apr  8 22:22:44 2025.
