 Gaussian 16, Revision C.01,

 ----------------------------------------------------------------------
 #t hf aug-cc-pvdz symm=none int=(grid=ultrafine) guess=(read,tcheck) s
 table=(opt,rrhf)
 ----------------------------------------------------------------------
 -----
 title
 -----
 Symbolic Z-matrix:
 Charge =  0 Multiplicity = 1

 SCF Done:  E(RHF) =  -502.474949509     A.U. after   11 cycles
 Normal termination of Gaussian 16 at Tue Apr  8 22:22:38 2025.
 Gaussian 16:  ES64L-G16RevC.01  3-Jul-2019

 ----------------------------------------------------------------------
 #t hf aug-cc-pvdz iop(5/13=1,5/36=2,99/5=2) pseudo=read geom=check gue
 ss=(read,tcheck) scf=(maxcycle=1)
 ----------------------------------------------------------------------
 -----
 title
 -----
 Structure from the checkpoint file:  "B-set_boricacid_boricacid_150_dimer_mol1.chk"
 Charge =  0 Multiplicity = 1

                         Standard orientation:
 ---------------------------------------------------------------------
 Center     Atomic      Atomic             Coordinates (Angstroms)
 Number     Number       Type             X           Y           Z
 ---------------------------------------------------------------------
      1          5           0        3.100762    0.024940   -0.000112
      2          8           0        4.457815   -0.126048    0.000448
      3          8           0        2.524784    1.244042   -0.000742
      4          8           0        2.331046   -1.123529   -0.000052
      5          1           0        4.917594    0.711184    0.000458
      6          1           0        1.555809    1.237391   -0.000492
      7          1           0        2.861393   -1.918560    0.000588
      8          5           0       -3.100724   -0.024897    0.000083
      9          8           0       -2.331098    1.123581    0.000423
     10          8           0       -4.457828    0.125960    0.000123
     11          8           0       -2.524756   -1.244010   -0.000287
     12          1           0       -2.861525    1.918573    0.000743
     13          1           0       -4.917396   -0.711382   -0.000087
     14          1           0       -1.555771   -1.237398   -0.000367
 ---------------------------------------------------------------------

 SCF Done:  E(RHF) =  -502.975646364     A.U. after    2 cycles

 The electronic state is 1-A.
 Alpha  occ. eigenvalues --  -20.56096 -20.56096 -20.55770 -20.55769 -20.55471
 Alpha  occ. eigenvalues --  -20.55470  -7.66758  -7.66754  -1.50114  -1.50103
 Alpha  occ. eigenvalues --   -1.44950  -1.44946  -1.44125  -1.44114  -0.78765
 Alpha  occ. eigenvalues --   -0.78755  -0.74485  -0.74458  -0.73674  -0.73655
 Alpha  occ. eigenvalues --   -0.60065  -0.60053  -0.57279  -0.57267  -0.56193
 Alpha  occ. eigenvalues --   -0.56090  -0.55792  -0.55766  -0.50126  -0.50121
 Alpha  occ. eigenvalues --   -0.49614  -0.49612
 Alpha virt. eigenvalues --    0.03758   0.04144   0.04579   0.04818   0.05298
 Alpha virt. eigenvalues --    0.05874   0.06544   0.07789   0.08209   0.08319
 Alpha virt. eigenvalues --    0.10946   0.11107   0.11480   0.13368   0.17093

 Mulliken charges:
               1
     1  B    1.883030
     2  O   -1.085426
     3  O   -1.110160
     4  O   -1.139053
     5  H    0.458750
     6  H    0.516221
     7  H    0.476639
     8  B    1.882990
     9  O   -1.139023
    10  O   -1.085455
    11  O   -1.110165
    12  H    0.476647
    13  H    0.458787
    14  H    0.516218
 Sum of Mulliken charges =  -0.00000

 Dipole moment (field-independent basis, Debye):
    X=              0.0007    Y=              0.0000    Z=              0.0014  Tot=              0.0016

 Test job not archived.
 1\1\GINC-SE460\SP\RHF\Aug-CC-pVDZ\B2H6O6\OHZDE\08-Apr-2025\0\\#t hf au
 g-cc-pvdz iop(5/13=1,5/36=2,99/5=2) pseudo=read geom=check guess=(read
 ,tcheck) scf=(maxcycle=1)\\title\\0,1\B,0,2.06504,0.02667,-0.0001\O,0,
 3.42239,-0.12163,0.00046\O,0,1.48665,1.24463,-0.00073\O,0,1.2976,-1.12
 332,-0.00004\H,0,3.88051,0.71651,0.00047\H,0,0.51769,1.23606,-0.00048\
 H,0,1.82952,-1.9173,0.0006\B,0,-4.13633429,-0.035445,0.00009571\O,0,-3
 .36898429,1.114555,0.00043571\O,0,-5.49373429,0.112725,0.00013571\O,0,
 -3.55795429,-1.253415,-0.00027429\H,0,-3.90098429,1.908495,0.00075571\

 Normal termination of Gaussian 16 at Tue Apr  8 22:22:41 2025.
