 Gaussian 16, Revision C.01,

 ----------------------------------------------------------------------
 #t hf aug-cc-pvdz symm=none int=(grid=ultrafine) guess=(read,tcheck) s
 table=(opt,rrhf)
 ----------------------------------------------------------------------
 -----
 title
 -----
 Symbolic Z-matrix:
 Charge =  0 Multiplicity = 1

 SCF Done:  E(RHF) =  -736.592404733     A.U. after   11 cycles
 Normal termination of Gaussian 16 at Tue Apr  8 22:37:06 2025.
 Gaussian 16:  ES64L-G16RevC.01  3-Jul-2019

 ----------------------------------------------------------------------
 #t hf aug-cc-pvdz iop(5/13=1,5/36=2,99/5=2) pseudo=read geom=check gue
 ss=(read,tcheck) scf=(maxcycle=1)
 ----------------------------------------------------------------------
 -----
 title
 -----
 Structure from the checkpoint file:  "B-set_trimethylborate_trimethylborate_105_dimer_mol1.chk"
 Charge =  0 Multiplicity = 1

                         Standard orientation:
 ---------------------------------------------------------------------
 Center     Atomic      Atomic             Coordinates (Angstroms)
 Number     Number       Type             X           Y           Z
 ---------------------------------------------------------------------
      1          5           0        1.686156   -0.001417    0.000625
      2          8           0        1.687565   -1.340914    0.246538
      3          8           0        1.690971    0.881410    1.037575
      4          8           0        1.690962    0.455347   -1.282390
      5          6           0        1.626968   -1.834411    1.571094
      6          6           0        1.633614    2.275374    0.802725
      7          6           0        1.632056   -0.444882   -2.372152
      8          1           0        0.632450   -1.676476    1.989402
      9          1           0        1.834234   -2.901763    1.531750
     10          1           0        2.363896   -1.347777    2.210171
     11          1           0        1.846340    2.774645    1.745676
     12          1           0        2.368205    2.583107    0.058413
     13          1           0        0.638488    2.561516    0.460873
     14          1           0        1.837064    0.123466   -3.276934
     15          1           0        2.371226   -1.239713   -2.271149
     16          1           0        0.638770   -0.888893   -2.444080
     17          5           0       -1.686096    0.001235   -0.000627
     18          8           0       -1.690431   -0.880513   -1.038517
     19          8           0       -1.690411   -0.456659    1.282009
     20          8           0       -1.688315    1.341002   -0.245240
     21          6           0       -1.632615   -2.274687   -0.804678
     22          6           0       -1.631375    0.442981    2.372382
     23          6           0       -1.628948    1.835979   -1.569286
     24          1           0       -2.369256   -2.583642   -0.062915
     25          1           0       -1.842100   -2.773248   -1.748719
     26          1           0       -0.638308   -2.560337   -0.460026
     27          1           0       -1.837263   -0.125698    3.276764
     28          1           0       -0.637689    0.886031    2.444910
     29          1           0       -2.369865    1.238391    2.271307
     30          1           0       -0.634481    1.679614   -1.988365
     31          1           0       -2.365557    1.349125   -2.208553
     32          1           0       -1.837374    2.903052   -1.528822
 ---------------------------------------------------------------------

 SCF Done:  E(RHF) =  -737.344016989     A.U. after    2 cycles

 The electronic state is 1-A.
 Alpha  occ. eigenvalues --  -20.53689 -20.53688 -20.53686 -20.53686 -20.53685
 Alpha  occ. eigenvalues --  -20.53682 -11.27652 -11.27651 -11.27650 -11.27649
 Alpha  occ. eigenvalues --  -11.27649 -11.27648  -7.64726  -7.64717  -1.49583
 Alpha  occ. eigenvalues --   -1.49313  -1.44269  -1.44269  -1.44103  -1.44102
 Alpha  occ. eigenvalues --   -0.94659  -0.94406  -0.93354  -0.93352  -0.93201
 Alpha  occ. eigenvalues --   -0.93200  -0.73034  -0.72832  -0.69518  -0.69517
 Alpha  occ. eigenvalues --   -0.69239  -0.69237  -0.67411  -0.64516  -0.62281
 Alpha  occ. eigenvalues --   -0.62278  -0.61206  -0.61203  -0.60183  -0.60179
 Alpha  occ. eigenvalues --   -0.60128  -0.60127  -0.58367  -0.58293  -0.50361
 Alpha  occ. eigenvalues --   -0.49945  -0.49423  -0.49291  -0.47932  -0.47930
 Alpha  occ. eigenvalues --   -0.47893  -0.47889  -0.43809  -0.43804  -0.43531
 Alpha  occ. eigenvalues --   -0.43529
 Alpha virt. eigenvalues --    0.03344   0.03489   0.03491   0.03534   0.05416
 Alpha virt. eigenvalues --    0.05416   0.05554   0.05800   0.05802   0.07587
 Alpha virt. eigenvalues --    0.07590   0.07644   0.08107   0.08297   0.08298

 Mulliken charges:
               1
     1  B    3.196475
     2  O   -1.682249
     3  O   -1.679676
     4  O   -1.685794
     5  C    0.425197
     6  C    0.424620
     7  C    0.424522
     8  H    0.093872
     9  H   -0.020843
    10  H    0.119743
    11  H   -0.020864
    12  H    0.119676
    13  H    0.093172
    14  H   -0.021313
    15  H    0.119879
    16  H    0.093607
    17  B    3.195600
    18  O   -1.680331
    19  O   -1.684367
    20  O   -1.682093
    21  C    0.425212
    22  C    0.424995
    23  C    0.424407
    24  H    0.119085
    25  H   -0.021093
    26  H    0.093716
    27  H   -0.021319
    28  H    0.093834
    29  H    0.119097
    30  H    0.094649
    31  H    0.119479
    32  H   -0.020896
 Sum of Mulliken charges =  -0.00000

 Dipole moment (field-independent basis, Debye):
    X=             -0.0014    Y=              0.0006    Z=              0.0002  Tot=              0.0015

 Test job not archived.
 1\1\GINC-SE044\SP\RHF\Aug-CC-pVDZ\C6H18B2O6\OHZDE\08-Apr-2025\0\\#t hf
  aug-cc-pvdz iop(5/13=1,5/36=2,99/5=2) pseudo=read geom=check guess=(r
 ead,tcheck) scf=(maxcycle=1)\\title\\0,1\B,0,1.60824,0.00191,-0.00082\
 O,0,1.60915,1.34156,-0.2459\O,0,1.61322,-0.88027,-1.03832\O,0,1.61338,
 -0.45565,1.28191\C,0,1.5482,1.83586,-1.57014\C,0,1.55638,-2.2744,-0.80
 433\C,0,1.55431,0.44388,2.37224\H,0,0.55368,1.67784,-1.98841\H,0,1.755
 1,2.90326,-1.53016\H,0,2.28521,1.34988,-2.20962\H,0,1.76915,-2.77301,-
 1.74762\H,0,2.29118,-2.58234,-0.06031\H,0,0.5614,-2.5611,-0.46252\H,0,

 Normal termination of Gaussian 16 at Tue Apr  8 22:37:45 2025.
