 Gaussian 16, Revision C.01,

 ----------------------------------------------------------------------
 #t hf aug-cc-pvdz symm=none int=(grid=ultrafine) guess=(read,tcheck) s
 table=(opt,rrhf)
 ----------------------------------------------------------------------
 -----
 title
 -----
 Symbolic Z-matrix:
 Charge =  0 Multiplicity = 1

 SCF Done:  E(RHF) =  -327.278116654     A.U. after   12 cycles
 Normal termination of Gaussian 16 at Tue Apr  8 22:22:39 2025.
 Gaussian 16:  ES64L-G16RevC.01  3-Jul-2019

 ----------------------------------------------------------------------
 #t hf aug-cc-pvdz iop(5/13=1,5/36=2,99/5=2) pseudo=read geom=check gue
 ss=(read,tcheck) scf=(maxcycle=1)
 ----------------------------------------------------------------------
 -----
 title
 -----
 Structure from the checkpoint file:  "B-set_boricacid_h2o_090_dimer_mol1.chk"
 Charge =  0 Multiplicity = 1

                         Standard orientation:
 ---------------------------------------------------------------------
 Center     Atomic      Atomic             Coordinates (Angstroms)
 Number     Number       Type             X           Y           Z
 ---------------------------------------------------------------------
      1          5           0       -0.690605   -0.025312    0.004758
      2          8           0       -0.018275   -1.198718    0.005969
      3          8           0       -0.004058    1.173002    0.006170
      4          8           0       -2.055866    0.015116    0.005613
      5          1           0        0.942142   -1.078239   -0.012103
      6          1           0       -0.588199    1.928510   -0.011232
      7          1           0       -2.444996   -0.857230   -0.002273
      8          8           0        2.216065   -0.062350   -0.092743
      9          1           0        1.643683    0.712819   -0.060578
     10          1           0        2.797467    0.004301    0.662321
 ---------------------------------------------------------------------

 SCF Done:  E(RHF) =  -327.608078307     A.U. after    2 cycles

 The electronic state is 1-A.
 Alpha  occ. eigenvalues --  -20.57040 -20.55848 -20.55394 -20.52609  -7.66288
 Alpha  occ. eigenvalues --   -1.50634  -1.46044  -1.44907  -1.42541  -0.78604
 Alpha  occ. eigenvalues --   -0.77132  -0.73906  -0.71091  -0.61124  -0.59656
 Alpha  occ. eigenvalues --   -0.57381  -0.55889  -0.54901  -0.50704  -0.49006
 Alpha  occ. eigenvalues --   -0.47974
 Alpha virt. eigenvalues --    0.03579   0.04341   0.05112   0.05690   0.07489
 Alpha virt. eigenvalues --    0.07829   0.09731   0.10170   0.10879   0.17697
 Alpha virt. eigenvalues --    0.18738   0.20354   0.20751   0.21316   0.23016

 Mulliken charges:
               1
     1  B    1.765295
     2  O   -1.149396
     3  O   -1.214939
     4  O   -1.070725
     5  H    0.762418
     6  H    0.450345
     7  H    0.430230
     8  O   -0.932609
     9  H    0.589677
    10  H    0.369705
 Sum of Mulliken charges =  -0.00000

 Dipole moment (field-independent basis, Debye):
    X=              0.2189    Y=              1.5523    Z=              1.2241  Tot=              1.9890

 Test job not archived.
 1\1\GINC-SE226\SP\RHF\Aug-CC-pVDZ\B1H5O4\OHZDE\08-Apr-2025\0\\#t hf au
 g-cc-pvdz iop(5/13=1,5/36=2,99/5=2) pseudo=read geom=check guess=(read
 ,tcheck) scf=(maxcycle=1)\\title\\0,1\B,0,-0.76791,-0.02465,0.00325\O,
 0,-0.10569,-1.20379,0.00191\O,0,-0.07109,1.16772,0.00192\O,0,-2.13276,
 0.02751,0.00942\H,0,0.85565,-1.09157,-0.01991\H,0,-0.64878,1.92822,-0.
 01325\H,0,-2.5294,-0.84146,0.0031\O,0,2.13793243,-0.08666881,-0.105568
 71\H,0,1.57236243,0.69339119,-0.07121871\H,0,2.72282243,-0.02499881,0.
 64722129\\Version=ES64L-G16RevC.01\State=1-A\HF=-327.6080783\RMSD=8.64

 Normal termination of Gaussian 16 at Tue Apr  8 22:22:42 2025.
