 Gaussian 16, Revision C.01,

 ----------------------------------------------------------------------
 #t hf aug-cc-pvdz symm=none int=(grid=ultrafine) guess=(read,tcheck) s
 table=(opt,rrhf)
 ----------------------------------------------------------------------
 -----
 title
 -----
 Symbolic Z-matrix:
 Charge =  0 Multiplicity = 1

 SCF Done:  E(RHF) =  -502.458899117     A.U. after   11 cycles
 Normal termination of Gaussian 16 at Tue Apr  8 22:22:40 2025.
 Gaussian 16:  ES64L-G16RevC.01  3-Jul-2019

 ----------------------------------------------------------------------
 #t hf aug-cc-pvdz iop(5/13=1,5/36=2,99/5=2) pseudo=read geom=check gue
 ss=(read,tcheck) scf=(maxcycle=1)
 ----------------------------------------------------------------------
 -----
 title
 -----
 Structure from the checkpoint file:  "B-set_boricacid_boricacid_090_dimer_mol1.chk"
 Charge =  0 Multiplicity = 1

                         Standard orientation:
 ---------------------------------------------------------------------
 Center     Atomic      Atomic             Coordinates (Angstroms)
 Number     Number       Type             X           Y           Z
 ---------------------------------------------------------------------
      1          5           0        1.857885    0.027254   -0.000097
      2          8           0        3.215351   -0.119977    0.000463
      3          8           0        1.278535    1.244758   -0.000727
      4          8           0        1.091351   -1.123341   -0.000037
      5          1           0        3.672810    0.718524    0.000473
      6          1           0        0.309582    1.235424   -0.000477
      7          1           0        1.623897   -1.916901    0.000603
      8          5           0       -1.857847   -0.027211    0.000068
      9          8           0       -1.091403    1.123393    0.000408
     10          8           0       -3.215363    0.119889    0.000108
     11          8           0       -1.278507   -1.244725   -0.000302
     12          1           0       -1.624029    1.916914    0.000728
     13          1           0       -3.672612   -0.718722   -0.000102
     14          1           0       -0.309544   -1.235432   -0.000382
 ---------------------------------------------------------------------

 SCF Done:  E(RHF) =  -502.959232192     A.U. after    2 cycles

 The electronic state is 1-A.
 Alpha  occ. eigenvalues --  -20.57926 -20.57924 -20.55533 -20.55531 -20.51743
 Alpha  occ. eigenvalues --  -20.51741  -7.66656  -7.66640  -1.52553  -1.50978
 Alpha  occ. eigenvalues --   -1.46749  -1.45749  -1.42698  -1.42168  -0.81579
 Alpha  occ. eigenvalues --   -0.78858  -0.78533  -0.77837  -0.73375  -0.71884
 Alpha  occ. eigenvalues --   -0.61808  -0.61519  -0.60012  -0.59785  -0.56250
 Alpha  occ. eigenvalues --   -0.55753  -0.52213  -0.51328  -0.51306  -0.50903
 Alpha  occ. eigenvalues --   -0.47979  -0.47299
 Alpha virt. eigenvalues --    0.03834   0.03843   0.04197   0.04977   0.05832
 Alpha virt. eigenvalues --    0.06575   0.07279   0.08650   0.08980   0.09044
 Alpha virt. eigenvalues --    0.12056   0.12118   0.13418   0.13435   0.18628

 Mulliken charges:
               1
     1  B    1.742538
     2  O   -1.322227
     3  O   -1.148644
     4  O   -1.315703
     5  H    0.457500
     6  H    1.134048
     7  H    0.452457
     8  B    1.742434
     9  O   -1.315565
    10  O   -1.322312
    11  O   -1.148583
    12  H    0.452481
    13  H    0.457500
    14  H    1.134074
 Sum of Mulliken charges =   0.00000

 Dipole moment (field-independent basis, Debye):
    X=              0.0010    Y=              0.0001    Z=              0.0020  Tot=              0.0022

 Test job not archived.
 1\1\GINC-SE368\SP\RHF\Aug-CC-pVDZ\B2H6O6\OHZDE\08-Apr-2025\0\\#t hf au
 g-cc-pvdz iop(5/13=1,5/36=2,99/5=2) pseudo=read geom=check guess=(read
 ,tcheck) scf=(maxcycle=1)\\title\\0,1\B,0,2.06504,0.02667,-0.0001\O,0,
 3.42239,-0.12163,0.00046\O,0,1.48665,1.24463,-0.00073\O,0,1.2976,-1.12
 332,-0.00004\H,0,3.88051,0.71651,0.00047\H,0,0.51769,1.23606,-0.00048\
 H,0,1.82952,-1.9173,0.0006\B,0,-1.65073314,-0.024867,0.00006486\O,0,-0
 .88338314,1.125133,0.00040486\O,0,-3.00813314,0.123303,0.00010486\O,0,
 -1.07235314,-1.242837,-0.00030514\H,0,-1.41538314,1.919073,0.00072486\

 Normal termination of Gaussian 16 at Tue Apr  8 22:22:44 2025.
