 Gaussian 16, Revision C.01,

 ----------------------------------------------------------------------
 #t hf aug-cc-pvdz symm=none int=(grid=ultrafine) guess=(read,tcheck) s
 table=(opt,rrhf)
 ----------------------------------------------------------------------
 -----
 title
 -----
 Symbolic Z-matrix:
 Charge =  0 Multiplicity = 1

 SCF Done:  E(RHF) =  -481.968832165     A.U. after   14 cycles
 Normal termination of Gaussian 16 at Tue Apr  8 22:23:33 2025.
 Gaussian 16:  ES64L-G16RevC.01  3-Jul-2019

 ----------------------------------------------------------------------
 #t hf aug-cc-pvdz iop(5/13=1,5/36=2,99/5=2) pseudo=read geom=check gue
 ss=(read,tcheck) scf=(maxcycle=1)
 ----------------------------------------------------------------------
 -----
 title
 -----
 Structure from the checkpoint file:  "B-set_boricacid_benzene_105_dimer_mol1.chk"
 Charge =  0 Multiplicity = 1

                         Standard orientation:
 ---------------------------------------------------------------------
 Center     Atomic      Atomic             Coordinates (Angstroms)
 Number     Number       Type             X           Y           Z
 ---------------------------------------------------------------------
      1          5           0        2.600722   -0.180994   -0.004141
      2          8           0        3.886494   -0.648498   -0.020122
      3          8           0        1.559516   -1.055217   -0.017328
      4          8           0        2.384683    1.170940    0.025217
      5          1           0        3.925518   -1.602602   -0.040261
      6          1           0        0.701381   -0.625520   -0.004562
      7          1           0        3.202924    1.663869    0.031588
      8          6           0       -2.763573   -0.752656   -0.725857
      9          6           0       -1.981526    0.185236   -1.383471
     10          6           0       -2.771201   -0.800795    0.660180
     11          1           0       -3.364547   -1.449220   -1.294133
     12          6           0       -1.205499    1.075300   -0.654787
     13          1           0       -1.971787    0.219548   -2.464189
     14          6           0       -1.996822    0.088988    1.389803
     15          1           0       -3.378040   -1.534903    1.172185
     16          6           0       -1.213207    1.027141    0.733050
     17          1           0       -0.580147    1.796535   -1.161631
     18          1           0       -1.999055    0.048420    2.470347
     19          1           0       -0.594435    1.711771    1.295716
 ---------------------------------------------------------------------

 SCF Done:  E(RHF) =  -482.460746763     A.U. after    2 cycles

 The electronic state is 1-A.
 Alpha  occ. eigenvalues --  -20.55195 -20.55052 -20.54468 -11.24596 -11.24575
 Alpha  occ. eigenvalues --  -11.24534 -11.24473 -11.24453 -11.24411  -7.65891
 Alpha  occ. eigenvalues --   -1.49388  -1.43956  -1.43666  -1.16199  -1.02330
 Alpha  occ. eigenvalues --   -1.02326  -0.83779  -0.83739  -0.77823  -0.73410
 Alpha  occ. eigenvalues --   -0.73261  -0.72867  -0.65251  -0.64402  -0.60551
 Alpha  occ. eigenvalues --   -0.60500  -0.59235  -0.56134  -0.55875  -0.55196
 Alpha  occ. eigenvalues --   -0.51859  -0.50979  -0.50944  -0.49260  -0.48862
 Alpha  occ. eigenvalues --   -0.35285  -0.35250
 Alpha virt. eigenvalues --    0.03493   0.03606   0.03637   0.04702   0.05126
 Alpha virt. eigenvalues --    0.05295   0.06390   0.06952   0.07530   0.07971
 Alpha virt. eigenvalues --    0.09685   0.09919   0.10245   0.10810   0.12437

 Mulliken charges:
               1
     1  B    1.932907
     2  O   -1.225982
     3  O   -1.176616
     4  O   -1.157602
     5  H    0.485093
     6  H    0.711685
     7  H    0.485591
     8  C    0.215150
     9  C    0.207415
    10  C    0.214257
    11  H   -0.221463
    12  C    0.267398
    13  H   -0.235445
    14  C    0.209139
    15  H   -0.221300
    16  C    0.260838
    17  H   -0.257569
    18  H   -0.235007
    19  H   -0.258489
 Sum of Mulliken charges =  -0.00000

 Dipole moment (field-independent basis, Debye):
    X=             -0.4168    Y=              0.0403    Z=             -0.0021  Tot=              0.4187

 Test job not archived.
 1\1\GINC-SE247\SP\RHF\Aug-CC-pVDZ\C6H9B1O3\OHZDE\08-Apr-2025\0\\#t hf
 aug-cc-pvdz iop(5/13=1,5/36=2,99/5=2) pseudo=read geom=check guess=(re
 ad,tcheck) scf=(maxcycle=1)\\title\\0,1\B,0,2.47525,0.1904,0.00446\O,0
 ,3.75759,0.66722,0.02093\O,0,1.42772,1.05703,0.01798\O,0,2.26904,-1.16
 305,-0.02572\H,0,3.78968,1.62157,0.04163\H,0,0.57273,0.62112,0.00482\H
 ,0,3.09084,-1.65002,-0.03224\C,0,-2.89317376,0.72266774,0.7256053\C,0,
 -2.10444376,-0.20990226,1.3828053\C,0,-2.90092376,0.77155774,-0.660404
 7\H,0,-3.49928376,1.41451774,1.2941853\C,0,-1.32185376,-1.09388226,0.6

 Normal termination of Gaussian 16 at Tue Apr  8 22:23:43 2025.
