 Gaussian 16, Revision C.01,

 ----------------------------------------------------------------------
 #t hf aug-cc-pvdz symm=none int=(grid=ultrafine) guess=(read,tcheck) s
 table=(opt,rrhf)
 ----------------------------------------------------------------------
 -----
 title
 -----
 Symbolic Z-matrix:
 Charge =  0 Multiplicity = 1

 SCF Done:  E(RHF) =  -327.284841539     A.U. after   12 cycles
 Normal termination of Gaussian 16 at Tue Apr  8 22:22:39 2025.
 Gaussian 16:  ES64L-G16RevC.01  3-Jul-2019

 ----------------------------------------------------------------------
 #t hf aug-cc-pvdz iop(5/13=1,5/36=2,99/5=2) pseudo=read geom=check gue
 ss=(read,tcheck) scf=(maxcycle=1)
 ----------------------------------------------------------------------
 -----
 title
 -----
 Structure from the checkpoint file:  "B-set_boricacid_h2o_095_dimer_mol1.chk"
 Charge =  0 Multiplicity = 1

                         Standard orientation:
 ---------------------------------------------------------------------
 Center     Atomic      Atomic             Coordinates (Angstroms)
 Number     Number       Type             X           Y           Z
 ---------------------------------------------------------------------
      1          5           0       -0.729256   -0.024965    0.003954
      2          8           0       -0.062267   -1.201415    0.003856
      3          8           0       -0.037266    1.170216    0.003981
      4          8           0       -2.094315    0.021670    0.007515
      5          1           0        0.898651   -1.085304   -0.016123
      6          1           0       -0.617999    1.928372   -0.012278
      7          1           0       -2.487422   -0.848898    0.000419
      8          8           0        2.338942   -0.063489   -0.090180
      9          1           0        1.770155    0.714274   -0.056895
     10          1           0        2.922137    0.000526    0.663728
 ---------------------------------------------------------------------

 SCF Done:  E(RHF) =  -327.614657698     A.U. after    2 cycles

 The electronic state is 1-A.
 Alpha  occ. eigenvalues --  -20.56716 -20.56216 -20.55464 -20.53405  -7.66363
 Alpha  occ. eigenvalues --   -1.50222  -1.45690  -1.44746  -1.43132  -0.78441
 Alpha  occ. eigenvalues --   -0.76098  -0.73706  -0.71399  -0.60496  -0.59534
 Alpha  occ. eigenvalues --   -0.57254  -0.56094  -0.55173  -0.50492  -0.49753
 Alpha  occ. eigenvalues --   -0.48460
 Alpha virt. eigenvalues --    0.03604   0.04325   0.05100   0.05684   0.07446
 Alpha virt. eigenvalues --    0.07827   0.09693   0.10144   0.10919   0.17635
 Alpha virt. eigenvalues --    0.18896   0.20507   0.20735   0.21269   0.23040

 Mulliken charges:
               1
     1  B    1.786700
     2  O   -1.131014
     3  O   -1.170791
     4  O   -1.075294
     5  H    0.703245
     6  H    0.454908
     7  H    0.427653
     8  O   -0.904960
     9  H    0.535306
    10  H    0.374247
 Sum of Mulliken charges =  -0.00000

 Dipole moment (field-independent basis, Debye):
    X=              0.2110    Y=              1.4502    Z=              1.2260  Tot=              1.9107

 Test job not archived.
 1\1\GINC-SE393\SP\RHF\Aug-CC-pVDZ\B1H5O4\OHZDE\08-Apr-2025\0\\#t hf au
 g-cc-pvdz iop(5/13=1,5/36=2,99/5=2) pseudo=read geom=check guess=(read
 ,tcheck) scf=(maxcycle=1)\\title\\0,1\B,0,-0.76791,-0.02465,0.00325\O,
 0,-0.10569,-1.20379,0.00191\O,0,-0.07109,1.16772,0.00192\O,0,-2.13276,
 0.02751,0.00942\H,0,0.85565,-1.09157,-0.01991\H,0,-0.64878,1.92822,-0.
 01325\H,0,-2.5294,-0.84146,0.0031\O,0,2.29992121,-0.07559441,-0.096749
 36\H,0,1.73435121,0.7044656,-0.06239936\H,0,2.88481121,-0.01392441,0.6
 5604064\\Version=ES64L-G16RevC.01\State=1-A\HF=-327.6146577\RMSD=8.453

 Normal termination of Gaussian 16 at Tue Apr  8 22:22:41 2025.
