 Gaussian 16, Revision C.01,

 ----------------------------------------------------------------------
 #t hf aug-cc-pvdz symm=none int=(grid=ultrafine) guess=(read,tcheck) s
 table=(opt,rrhf)
 ----------------------------------------------------------------------
 -----
 title
 -----
 Symbolic Z-matrix:
 Charge =  0 Multiplicity = 1

 SCF Done:  E(RHF) =  -360.436262867     A.U. after   15 cycles

 1\1\GINC-SE247\Stability\RHF\Aug-CC-pVDZ\C8H14B2\OHZDE\08-Apr-2025\0\\
 #t hf aug-cc-pvdz symm=none int=(grid=ultrafine) guess=(read,tcheck) s
 table=(opt,rrhf)\\title\\0,1\B,0,-1.44421,-0.34378,-1.38976\C,0,-1.353
 82,1.11975,-0.80607\C,0,-2.20691,-1.16484,-0.27513\H,0,-1.05979,-0.732
 25,-2.44825\C,0,-1.96773,1.08262,0.37927\H,0,-0.92918,2.01911,-1.22576
 \C,0,-2.47978,-0.29789,0.7014\H,0,-2.48296,-2.20807,-0.24206\H,0,-2.10
 422,1.91644,1.05668\H,0,-2.99941,-0.51278,1.627\B,0,1.66587617,1.03035
 861,0.92251137\C,0,1.41903617,-0.44724139,1.38486137\C,0,2.50083617,0.

 Normal termination of Gaussian 16 at Tue Apr  8 22:27:52 2025.
 Gaussian 16:  ES64L-G16RevC.01  3-Jul-2019

 ----------------------------------------------------------------------
 #t hf aug-cc-pvdz iop(5/13=1,5/36=2,99/5=2) pseudo=read geom=check gue
 ss=(read,tcheck) scf=(maxcycle=1)
 ----------------------------------------------------------------------
 -----
 title
 -----
 Structure from the checkpoint file:  "B-set_borole_borolane_110_dimer_mol1.chk"
 Charge =  0 Multiplicity = 1

                         Standard orientation:
 ---------------------------------------------------------------------
 Center     Atomic      Atomic             Coordinates (Angstroms)
 Number     Number       Type             X           Y           Z
 ---------------------------------------------------------------------
      1          5           0       -1.666827   -0.329207   -1.378132
      2          6           0       -1.577698    1.125636   -0.772926
      3          6           0       -2.392078   -1.176755   -0.258345
      4          1           0       -1.305078   -0.696147   -2.452181
      5          6           0       -2.160992    1.062410    0.426685
      6          1           0       -1.173659    2.036413   -1.188311
      7          6           0       -2.649619   -0.328839    0.738843
      8          1           0       -2.655790   -2.223445   -0.235500
      9          1           0       -2.289408    1.883579    1.120918
     10          1           0       -3.143296   -0.564527    1.673542
     11          5           0        1.485545    1.042573    0.877587
     12          6           0        1.266634   -0.445005    1.321647
     13          6           0        2.287052    1.021502   -0.476353
     14          1           0        1.165434    2.017449    1.490174
     15          1           0        2.032100   -0.634168    2.089579
     16          1           0        0.311747   -0.692430    1.784479
     17          6           0        1.592130   -1.259135    0.061729
     18          6           0        2.675099   -0.457237   -0.669197
     19          1           0        1.592783    1.335769   -1.265054
     20          1           0        3.126139    1.716005   -0.534843
     21          1           0        0.697212   -1.320188   -0.571550
     22          1           0        1.889772   -2.288018    0.264665
     23          1           0        2.775496   -0.747766   -1.714810
     24          1           0        3.639801   -0.644814   -0.190879
 ---------------------------------------------------------------------

 SCF Done:  E(RHF) =  -360.824121008     A.U. after    2 cycles

 The electronic state is 1-A.
 Alpha  occ. eigenvalues --  -11.26117 -11.25853 -11.21942 -11.21794 -11.21334
 Alpha  occ. eigenvalues --  -11.21264 -11.19556 -11.19487  -7.59960  -7.57302
 Alpha  occ. eigenvalues --   -1.12720  -1.08908  -0.97753  -0.95144  -0.88406
 Alpha  occ. eigenvalues --   -0.84829  -0.77345  -0.72062  -0.71199  -0.66104
 Alpha  occ. eigenvalues --   -0.65992  -0.63184  -0.61398  -0.58392  -0.56605
 Alpha  occ. eigenvalues --   -0.53152  -0.51822  -0.48283  -0.48063  -0.47495
 Alpha  occ. eigenvalues --   -0.47235  -0.46959  -0.45658  -0.44969  -0.43187
 Alpha  occ. eigenvalues --   -0.32883
 Alpha virt. eigenvalues --    0.01853   0.02844   0.03102   0.03227   0.03539
 Alpha virt. eigenvalues --    0.04962   0.05068   0.05199   0.05482   0.05659
 Alpha virt. eigenvalues --    0.07517   0.07809   0.07834   0.08344   0.08696

 Mulliken charges:
               1
     1  B    0.223079
     2  C    0.125561
     3  C   -0.039351
     4  H    0.264298
     5  C    0.149842
     6  H   -0.282594
     7  C    0.149948
     8  H   -0.245648
     9  H   -0.194437
    10  H   -0.189805
    11  B    0.257400
    12  C   -0.039837
    13  C   -0.137261
    14  H    0.102652
    15  H    0.105495
    16  H    0.029854
    17  C   -0.275235
    18  C   -0.431133
    19  H    0.107575
    20  H    0.016173
    21  H   -0.011233
    22  H    0.101899
    23  H    0.085816
    24  H    0.126942
 Sum of Mulliken charges =  -0.00000

 Dipole moment (field-independent basis, Debye):
    X=             -0.4350    Y=              0.0439    Z=              0.7543  Tot=              0.8719

 Test job not archived.
 1\1\GINC-SE247\SP\RHF\Aug-CC-pVDZ\C8H14B2\OHZDE\08-Apr-2025\0\\#t hf a
 ug-cc-pvdz iop(5/13=1,5/36=2,99/5=2) pseudo=read geom=check guess=(rea
 d,tcheck) scf=(maxcycle=1)\\title\\0,1\B,0,-1.44421,-0.34378,-1.38976\
 C,0,-1.35382,1.11975,-0.80607\C,0,-2.20691,-1.16484,-0.27513\H,0,-1.05
 979,-0.73225,-2.44825\C,0,-1.96773,1.08262,0.37927\H,0,-0.92918,2.0191
 1,-1.22576\C,0,-2.47978,-0.29789,0.7014\H,0,-2.48296,-2.20807,-0.24206
 \H,0,-2.10422,1.91644,1.05668\H,0,-2.99941,-0.51278,1.627\B,0,1.665876
 17,1.03035861,0.92251137\C,0,1.41903617,-0.44724139,1.38486137\C,0,2.5

 Normal termination of Gaussian 16 at Tue Apr  8 22:28:08 2025.
