 Gaussian 16, Revision C.01,

 ----------------------------------------------------------------------
 #t hf aug-cc-pvdz symm=none int=(grid=ultrafine) guess=(read,tcheck) s
 table=(opt,rrhf)
 ----------------------------------------------------------------------
 -----
 title
 -----
 Symbolic Z-matrix:
 Charge =  0 Multiplicity = 1

 SCF Done:  E(RHF) =  -103.273734542     A.U. after   11 cycles
 Normal termination of Gaussian 16 at Tue Apr  8 22:23:14 2025.
 Gaussian 16:  ES64L-G16RevC.01  3-Jul-2019

 ----------------------------------------------------------------------
 #t hf aug-cc-pvdz iop(5/13=1,5/36=2,99/5=2) pseudo=read geom=check gue
 ss=(read,tcheck) scf=(maxcycle=1)
 ----------------------------------------------------------------------
 -----
 title
 -----
 Structure from the checkpoint file:  "B-set_borirane_methane_090_dimer_mol2.chk"
 Charge =  0 Multiplicity = 1

                         Standard orientation:
 ---------------------------------------------------------------------
 Center     Atomic      Atomic             Coordinates (Angstroms)
 Number     Number       Type             X           Y           Z
 ---------------------------------------------------------------------
      1          5           0       -0.000159    0.963996   -0.008169
      2          6           0        0.772311   -0.351964    0.001225
      3          6           0       -0.772189   -0.352221    0.001208
      4          1           0       -0.000427    2.145231    0.011486
      5          1           0        1.273612   -0.676574    0.905796
      6          1           0        1.270485   -0.693049   -0.898486
      7          1           0       -1.273308   -0.676856    0.905877
      8          1           0       -1.270296   -0.693622   -0.898423
 ---------------------------------------------------------------------

 SCF Done:  E(RHF) =  -103.386882928     A.U. after    2 cycles

 The electronic state is 1-A.
 Alpha  occ. eigenvalues --  -11.21418 -11.21296  -7.60289  -1.06529  -0.81542
 Alpha  occ. eigenvalues --   -0.67293  -0.62671  -0.59718  -0.51186  -0.41612
 Alpha  occ. eigenvalues --   -0.39036
 Alpha virt. eigenvalues --    0.03326   0.03815   0.04220   0.04373   0.06385
 Alpha virt. eigenvalues --    0.07303   0.07459   0.10059   0.11877   0.12235
 Alpha virt. eigenvalues --    0.13956   0.14734   0.14905   0.17074   0.17761

 Mulliken charges:
               1
     1  B   -0.154546
     2  C   -0.018530
     3  C   -0.018575
     4  H    0.311283
     5  H   -0.030498
     6  H   -0.029335
     7  H   -0.030492
     8  H   -0.029308
 Sum of Mulliken charges =  -0.00000

 Dipole moment (field-independent basis, Debye):
    X=              0.0000    Y=             -0.0370    Z=             -0.0205  Tot=              0.0423

 Test job not archived.
 1\1\GINC-SE453\SP\RHF\Aug-CC-pVDZ\C2H5B1\OHZDE\08-Apr-2025\0\\#t hf au
 g-cc-pvdz iop(5/13=1,5/36=2,99/5=2) pseudo=read geom=check guess=(read
 ,tcheck) scf=(maxcycle=1)\\title\\0,1\B,0,0.70593,0.00043,0.93795\C,0,
 1.19139,0.77206,-0.28576\C,0,1.19085,-0.77244,-0.28519\H,0,0.29663,0.0
 0091,2.04618\H,0,2.15232,1.27299,-0.26115\H,0,0.47638,1.27018,-0.92968
 \H,0,2.15148,-1.27393,-0.26004\H,0,0.47563,-1.2706,-0.92885\\Version=E
 S64L-G16RevC.01\State=1-A\HF=-103.3868829\RMSD=9.336e-03\Dipole=-0.002
 2283,0.0000005,-0.0165\Quadrupole=1.3746876,-0.8246906,-0.549997,-0.00

 Normal termination of Gaussian 16 at Tue Apr  8 22:23:15 2025.
