 Gaussian 16, Revision C.01,

 ----------------------------------------------------------------------
 #t hf aug-cc-pvdz symm=none int=(grid=ultrafine) guess=(read,tcheck) s
 table=(opt,rrhf)
 ----------------------------------------------------------------------
 -----
 title
 -----
 Symbolic Z-matrix:
 Charge =  0 Multiplicity = 1

 SCF Done:  E(RHF) =  -327.280617406     A.U. after   11 cycles
 Normal termination of Gaussian 16 at Tue Apr  8 22:23:19 2025.
 Gaussian 16:  ES64L-G16RevC.01  3-Jul-2019

 ----------------------------------------------------------------------
 #t hf aug-cc-pvdz iop(5/13=1,5/36=2,99/5=2) pseudo=read geom=check gue
 ss=(read,tcheck) scf=(maxcycle=1)
 ----------------------------------------------------------------------
 -----
 title
 -----
 Structure from the checkpoint file:  "B-set_boricacid_h2o_150_dimer_mol1.chk"
 Charge =  0 Multiplicity = 1

                         Standard orientation:
 ---------------------------------------------------------------------
 Center     Atomic      Atomic             Coordinates (Angstroms)
 Number     Number       Type             X           Y           Z
 ---------------------------------------------------------------------
      1          5           0       -1.154640   -0.022645   -0.000449
      2          8           0       -0.521696   -1.217709   -0.011061
      3          8           0       -0.428822    1.152234   -0.012859
      4          8           0       -2.517550    0.063054    0.026126
      5          1           0        0.441677   -1.129160   -0.047332
      6          1           0       -0.987808    1.926703   -0.019793
      7          1           0       -2.935478   -0.795904    0.026217
      8          8           0        3.694756   -0.071018   -0.076079
      9          1           0        3.149107    0.722716   -0.033690
     10          1           0        4.292196   -0.023613    0.667836
 ---------------------------------------------------------------------

 SCF Done:  E(RHF) =  -327.609663425     A.U. after    2 cycles

 The electronic state is 1-A.
 Alpha  occ. eigenvalues --  -20.56173 -20.55832 -20.55734 -20.55565  -7.66665
 Alpha  occ. eigenvalues --   -1.50023  -1.44742  -1.44222  -1.44208  -0.78461
 Alpha  occ. eigenvalues --   -0.74084  -0.73772  -0.71747  -0.59950  -0.57949
 Alpha  occ. eigenvalues --   -0.57016  -0.56274  -0.55886  -0.50262  -0.49908
 Alpha  occ. eigenvalues --   -0.49676
 Alpha virt. eigenvalues --    0.03554   0.04241   0.04996   0.05537   0.06717
 Alpha virt. eigenvalues --    0.07518   0.08894   0.10006   0.10942   0.16973
 Alpha virt. eigenvalues --    0.19256   0.20387   0.20470   0.21218   0.21977

 Mulliken charges:
               1
     1  B    1.857059
     2  O   -1.092543
     3  O   -1.113235
     4  O   -1.059981
     5  H    0.494816
     6  H    0.461698
     7  H    0.447934
     8  O   -0.755519
     9  H    0.389338
    10  H    0.370434
 Sum of Mulliken charges =  -0.00000

 Dipole moment (field-independent basis, Debye):
    X=              0.1071    Y=              1.2049    Z=              1.2349  Tot=              1.7287

 Test job not archived.
 1\1\GINC-SE226\SP\RHF\Aug-CC-pVDZ\B1H5O4\OHZDE\08-Apr-2025\0\\#t hf au
 g-cc-pvdz iop(5/13=1,5/36=2,99/5=2) pseudo=read geom=check guess=(read
 ,tcheck) scf=(maxcycle=1)\\title\\0,1\B,0,-0.76791,-0.02465,0.00325\O,
 0,-0.10569,-1.20379,0.00191\O,0,-0.07109,1.16772,0.00192\O,0,-2.13276,
 0.02751,0.00942\H,0,0.85565,-1.09157,-0.01991\H,0,-0.64878,1.92822,-0.
 01325\H,0,-2.5294,-0.84146,0.0031\O,0,4.08179786,0.04622405,0.00026357
 \H,0,3.51622786,0.82628405,0.03461357\H,0,4.66668786,0.10789405,0.7530
 5357\\Version=ES64L-G16RevC.01\State=1-A\HF=-327.6096634\RMSD=7.721e-0

 Normal termination of Gaussian 16 at Tue Apr  8 22:23:21 2025.
