 Gaussian 16, Revision C.01,

 ----------------------------------------------------------------------
 #t hf aug-cc-pvdz symm=none int=(grid=ultrafine) guess=(read,tcheck) s
 table=(opt,rrhf)
 ----------------------------------------------------------------------
 -----
 title
 -----
 Symbolic Z-matrix:
 Charge =  0 Multiplicity = 1

 SCF Done:  E(RHF) =  -219.228009755     A.U. after   12 cycles
 Normal termination of Gaussian 16 at Tue Apr  8 22:25:32 2025.
 Gaussian 16:  ES64L-G16RevC.01  3-Jul-2019

 ----------------------------------------------------------------------
 #t hf aug-cc-pvdz iop(5/13=1,5/36=2,99/5=2) pseudo=read geom=check gue
 ss=(read,tcheck) scf=(maxcycle=1)
 ----------------------------------------------------------------------
 -----
 title
 -----
 Structure from the checkpoint file:  "B-set_borole_methane_200_dimer_mol1.chk"
 Charge =  0 Multiplicity = 1

                         Standard orientation:
 ---------------------------------------------------------------------
 Center     Atomic      Atomic             Coordinates (Angstroms)
 Number     Number       Type             X           Y           Z
 ---------------------------------------------------------------------
      1          5           0       -1.027345   -0.144306    1.216541
      2          6           0       -1.562432   -1.273204    0.249296
      3          6           0       -1.340988    1.206251    0.460274
      4          1           0       -0.547278   -0.279814    2.298491
      5          6           0       -2.100145   -0.637979   -0.793367
      6          1           0       -1.555223   -2.347665    0.355216
      7          6           0       -1.965446    0.859995   -0.666353
      8          1           0       -1.142448    2.229111    0.743103
      9          1           0       -2.583991   -1.097552   -1.646727
     10          1           0       -2.345190    1.533833   -1.424699
     11          6           0        5.512339   -0.024523   -0.191224
     12          1           0        6.476376   -0.501189   -0.354199
     13          1           0        5.519363    0.976975   -0.613844
     14          1           0        4.732848   -0.613341   -0.671095
     15          1           0        5.322308    0.037934    0.879297
 ---------------------------------------------------------------------

 SCF Done:  E(RHF) =  -219.465759059     A.U. after    2 cycles

 The electronic state is 1-A.
 Alpha  occ. eigenvalues --  -11.25745 -11.25728 -11.21821 -11.21067 -11.21015
 Alpha  occ. eigenvalues --   -7.59696  -1.12367  -0.97543  -0.94526  -0.84543
 Alpha  occ. eigenvalues --   -0.71836  -0.70919  -0.65685  -0.58190  -0.55065
 Alpha  occ. eigenvalues --   -0.55003  -0.54803  -0.52855  -0.47758  -0.47231
 Alpha  occ. eigenvalues --   -0.46756  -0.32592
 Alpha virt. eigenvalues --    0.01817   0.03248   0.03736   0.03798   0.04296
 Alpha virt. eigenvalues --    0.05390   0.05611   0.05947   0.06602   0.07041
 Alpha virt. eigenvalues --    0.07733   0.09031   0.10398   0.12624   0.13370

 Mulliken charges:
               1
     1  B    0.369832
     2  C   -0.026081
     3  C   -0.032661
     4  H    0.167932
     5  C    0.060429
     6  H   -0.168319
     7  C    0.075818
     8  H   -0.168142
     9  H   -0.138641
    10  H   -0.139700
    11  C   -0.241200
    12  H    0.055208
    13  H    0.062130
    14  H    0.060139
    15  H    0.063258
 Sum of Mulliken charges =  -0.00000

 Dipole moment (field-independent basis, Debye):
    X=             -0.4376    Y=              0.1151    Z=             -0.8575  Tot=              0.9696

 Test job not archived.
 1\1\GINC-SE227\SP\RHF\Aug-CC-pVDZ\C5H9B1\OHZDE\08-Apr-2025\0\\#t hf au
 g-cc-pvdz iop(5/13=1,5/36=2,99/5=2) pseudo=read geom=check guess=(read
 ,tcheck) scf=(maxcycle=1)\\title\\0,1\B,0,0.06513,-0.1638,-1.2018\C,0,
 0.7417,-1.2672,-0.29568\C,0,0.44816,1.2043,-0.51194\H,0,-0.54783,-0.32
 544,-2.21056\C,0,1.39732,-0.60567,0.65948\H,0,0.74116,-2.34325,-0.3843
 \C,0,1.21913,0.88749,0.52939\H,0,0.19554,2.2188,-0.78143\H,0,1.99577,-
 1.0427,1.44967\H,0,1.68073,1.58021,1.22251\C,0,-6.239451,-0.130702,1.0
 37568\H,0,-7.165251,-0.620752,1.330628\H,0,-6.210801,0.877458,1.443088

 Normal termination of Gaussian 16 at Tue Apr  8 22:25:36 2025.
