 Gaussian 16, Revision C.01,

 ----------------------------------------------------------------------
 #t hf aug-cc-pvdz symm=none int=(grid=ultrafine) guess=(read,tcheck) s
 table=(opt,rrhf)
 ----------------------------------------------------------------------
 -----
 title
 -----
 Symbolic Z-matrix:
 Charge =  0 Multiplicity = 1

 SCF Done:  E(RHF) =  -368.295095899     A.U. after   11 cycles
 Normal termination of Gaussian 16 at Tue Apr  8 22:26:44 2025.
 Gaussian 16:  ES64L-G16RevC.01  3-Jul-2019

 ----------------------------------------------------------------------
 #t hf aug-cc-pvdz iop(5/13=1,5/36=2,99/5=2) pseudo=read geom=check gue
 ss=(read,tcheck) scf=(maxcycle=1)
 ----------------------------------------------------------------------
 -----
 title
 -----
 Structure from the checkpoint file:  "B-set_trimethylborate_trimethylborate_090_dimer_mol2.chk"
 Charge =  0 Multiplicity = 1

                         Standard orientation:
 ---------------------------------------------------------------------
 Center     Atomic      Atomic             Coordinates (Angstroms)
 Number     Number       Type             X           Y           Z
 ---------------------------------------------------------------------
      1          5           0       -0.000033   -0.000046   -0.027705
      2          8           0       -1.361457    0.035174   -0.031288
      3          8           0        0.650324   -1.196579   -0.031901
      4          8           0        0.711174    1.161400   -0.030956
      5          6           0       -2.117255   -1.159377    0.027671
      6          6           0        2.062678   -1.253863    0.027704
      7          6           0        0.054578    2.413177    0.027341
      8          1           0       -2.050451   -1.601597    1.022140
      9          1           0       -3.153291   -0.900988   -0.181167
     10          1           0       -1.771483   -1.884712   -0.708961
     11          1           0        2.357394   -2.279346   -0.184913
     12          1           0        2.518279   -0.588620   -0.705921
     13          1           0        2.411490   -0.978621    1.023489
     14          1           0        0.797406    3.181589   -0.176202
     15          1           0       -0.742827    2.478292   -0.713088
     16          1           0       -0.366695    2.574652    1.020009
 ---------------------------------------------------------------------

 SCF Done:  E(RHF) =  -368.673660596     A.U. after    2 cycles

 The electronic state is 1-A.
 Alpha  occ. eigenvalues --  -20.53719 -20.53718 -20.53713 -11.28035 -11.28034
 Alpha  occ. eigenvalues --  -11.28032  -7.64815  -1.49460  -1.44261  -1.44261
 Alpha  occ. eigenvalues --   -0.94732  -0.93495  -0.93494  -0.73050  -0.69478
 Alpha  occ. eigenvalues --   -0.69476  -0.66125  -0.61907  -0.61906  -0.60392
 Alpha  occ. eigenvalues --   -0.60389  -0.58498  -0.50016  -0.49779  -0.48024
 Alpha  occ. eigenvalues --   -0.48018  -0.43834  -0.43830
 Alpha virt. eigenvalues --    0.03793   0.04258   0.04259   0.04495   0.06184
 Alpha virt. eigenvalues --    0.06186   0.07303   0.07308   0.07426   0.10262
 Alpha virt. eigenvalues --    0.10796   0.10803   0.10901   0.13891   0.14929

 Mulliken charges:
               1
     1  B    1.773320
     2  O   -1.265850
     3  O   -1.266684
     4  O   -1.266415
     5  C    0.472982
     6  C    0.473130
     7  C    0.473382
     8  H    0.111783
     9  H   -0.028674
    10  H    0.118886
    11  H   -0.028518
    12  H    0.119059
    13  H    0.111911
    14  H   -0.029225
    15  H    0.118947
    16  H    0.111964
 Sum of Mulliken charges =  -0.00000

 Dipole moment (field-independent basis, Debye):
    X=             -0.0000    Y=             -0.0002    Z=              0.1675  Tot=              0.1675

 Test job not archived.
 1\1\GINC-SE094\SP\RHF\Aug-CC-pVDZ\C3H9B1O3\OHZDE\08-Apr-2025\0\\#t hf
 aug-cc-pvdz iop(5/13=1,5/36=2,99/5=2) pseudo=read geom=check guess=(re
 ad,tcheck) scf=(maxcycle=1)\\title\\0,1\B,0,1.60824,0.00191,-0.00082\O
 ,0,1.60915,1.34156,-0.2459\O,0,1.61322,-0.88027,-1.03832\O,0,1.61338,-
 0.45565,1.28191\C,0,1.5482,1.83586,-1.57014\C,0,1.55638,-2.2744,-0.804
 33\C,0,1.55431,0.44388,2.37224\H,0,0.55368,1.67784,-1.98841\H,0,1.7551
 ,2.90326,-1.53016\H,0,2.28521,1.34988,-2.20962\H,0,1.76915,-2.77301,-1
 .74762\H,0,2.29118,-2.58234,-0.06031\H,0,0.5614,-2.5611,-0.46252\H,0,1

 Normal termination of Gaussian 16 at Tue Apr  8 22:26:49 2025.
