 Gaussian 16, Revision C.01,

 ----------------------------------------------------------------------
 #t hf aug-cc-pvdz symm=none int=(grid=ultrafine) guess=(read,tcheck) s
 table=(opt,rrhf)
 ----------------------------------------------------------------------
 -----
 title
 -----
 Symbolic Z-matrix:
 Charge =  0 Multiplicity = 1

 SCF Done:  E(RHF) =  -216.866274076     A.U. after   14 cycles
 Normal termination of Gaussian 16 at Tue Apr  8 22:20:18 2025.
 Gaussian 16:  ES64L-G16RevC.01  3-Jul-2019

 ----------------------------------------------------------------------
 #t hf aug-cc-pvdz iop(5/13=1,5/36=2,99/5=2) pseudo=read geom=check gue
 ss=(read,tcheck) scf=(maxcycle=1)
 ----------------------------------------------------------------------
 -----
 title
 -----
 Structure from the checkpoint file:  "B-set_borabenzene_pyridine_090_dimer_mol2.chk"
 Charge =  0 Multiplicity = 1

                         Standard orientation:
 ---------------------------------------------------------------------
 Center     Atomic      Atomic             Coordinates (Angstroms)
 Number     Number       Type             X           Y           Z
 ---------------------------------------------------------------------
      1          6           0       -1.287115   -0.789136    0.008484
      2          6           0       -1.215518    0.598444    0.001450
      3          6           0       -0.000162    1.278924    0.000021
      4          6           0        1.215316    0.598684   -0.001573
      5          6           0        1.287346   -0.788935   -0.008512
      6          1           0       -0.000274    2.361194    0.000090
      7          1           0       -2.278380   -1.234195   -0.022945
      8          1           0       -2.128003    1.185766   -0.010944
      9          1           0        2.127641    1.186242    0.011225
     10          1           0        2.278860   -1.233367    0.023636
     11          5           0        0.000192   -1.530706   -0.000057
 ---------------------------------------------------------------------

 SCF Done:  E(RHF) =  -217.087993657     A.U. after    2 cycles

 The electronic state is 1-A.
 Alpha  occ. eigenvalues --  -11.24685 -11.24677 -11.22710 -11.22665 -11.22257
 Alpha  occ. eigenvalues --   -7.63827  -1.11862  -1.00977  -0.93668  -0.80690
 Alpha  occ. eigenvalues --   -0.74754  -0.68790  -0.59836  -0.59482  -0.58859
 Alpha  occ. eigenvalues --   -0.52769  -0.48918  -0.47618  -0.34585  -0.30331
 Alpha virt. eigenvalues --   -0.00017   0.03708   0.03724   0.04517   0.04870
 Alpha virt. eigenvalues --    0.05296   0.05997   0.08328   0.09028   0.09185
 Alpha virt. eigenvalues --    0.10406   0.11824   0.13827   0.14154   0.14357

 Mulliken charges:
               1
     1  C    0.105848
     2  C    0.114897
     3  C    0.252226
     4  C    0.114766
     5  C    0.105833
     6  H   -0.203154
     7  H   -0.189336
     8  H   -0.212240
     9  H   -0.212311
    10  H   -0.189192
    11  B    0.312664
 Sum of Mulliken charges =  -0.00000

 Dipole moment (field-independent basis, Debye):
    X=              0.0000    Y=             -1.3382    Z=              0.0012  Tot=              1.3382

 Test job not archived.
 1\1\GINC-SE250\SP\RHF\Aug-CC-pVDZ\C5H5B1\OHZDE\08-Apr-2025\0\\#t hf au
 g-cc-pvdz iop(5/13=1,5/36=2,99/5=2) pseudo=read geom=check guess=(read
 ,tcheck) scf=(maxcycle=1)\\title\\0,1\C,0,1.50247,-1.23466,0.3641\C,0,
 2.89004,-1.1639,0.35008\C,0,3.57035,0.00003,-0.00005\C,0,2.88994,1.163
 94,-0.35001\C,0,1.50231,1.23471,-0.36415\H,0,4.65262,0.00005,-0.00012\
 H,0,1.05755,-2.17454,0.68087\H,0,3.47749,-2.03373,0.62581\H,0,3.47737,
 2.03366,-0.62612\H,0,1.05774,2.1745,-0.68165\B,0,0.76072,0.00001,0.000
 02\\Version=ES64L-G16RevC.01\State=1-A\HF=-217.0879937\RMSD=4.221e-02\

 Normal termination of Gaussian 16 at Tue Apr  8 22:20:21 2025.
