 Gaussian 16, Revision C.01,

 ----------------------------------------------------------------------
 #t hf aug-cc-pvdz symm=none int=(grid=ultrafine) guess=(read,tcheck) s
 table=(opt,rrhf)
 ----------------------------------------------------------------------
 -----
 title
 -----
 Symbolic Z-matrix:
 Charge =  0 Multiplicity = 1

 SCF Done:  E(RHF) =  -481.967837809     A.U. after   14 cycles
 Normal termination of Gaussian 16 at Tue Apr  8 22:23:32 2025.
 Gaussian 16:  ES64L-G16RevC.01  3-Jul-2019

 ----------------------------------------------------------------------
 #t hf aug-cc-pvdz iop(5/13=1,5/36=2,99/5=2) pseudo=read geom=check gue
 ss=(read,tcheck) scf=(maxcycle=1)
 ----------------------------------------------------------------------
 -----
 title
 -----
 Structure from the checkpoint file:  "B-set_boricacid_benzene_100_dimer_mol1.chk"
 Charge =  0 Multiplicity = 1

                         Standard orientation:
 ---------------------------------------------------------------------
 Center     Atomic      Atomic             Coordinates (Angstroms)
 Number     Number       Type             X           Y           Z
 ---------------------------------------------------------------------
      1          5           0        2.475249   -0.190401   -0.004460
      2          8           0        3.757589   -0.667221   -0.020930
      3          8           0        1.427719   -1.057031   -0.017980
      4          8           0        2.269039    1.163049    0.025720
      5          1           0        3.789679   -1.621571   -0.041630
      6          1           0        0.572729   -0.621121   -0.004820
      7          1           0        3.090839    1.650019    0.032240
      8          6           0       -2.674541   -0.739361   -0.726000
      9          6           0       -1.885811    0.193209   -1.383200
     10          6           0       -2.682291   -0.788251    0.660010
     11          1           0       -3.280651   -1.431211   -1.294580
     12          6           0       -1.103221    1.077189   -0.654130
     13          1           0       -1.876001    0.228079   -2.463900
     14          6           0       -1.901351    0.095459    1.390020
     15          1           0       -3.294361   -1.518231    1.171690
     16          6           0       -1.111051    1.028279    0.733680
     17          1           0       -0.472731    1.794159   -1.160660
     18          1           0       -1.903701    0.054279    2.470540
     19          1           0       -0.487231    1.708069    1.296640
 ---------------------------------------------------------------------

 SCF Done:  E(RHF) =  -482.459578704     A.U. after    2 cycles

 The electronic state is 1-A.
 Alpha  occ. eigenvalues --  -20.55144 -20.54962 -20.54171 -11.24626 -11.24602
 Alpha  occ. eigenvalues --  -11.24547 -11.24505 -11.24453 -11.24394  -7.65767
 Alpha  occ. eigenvalues --   -1.49283  -1.43901  -1.43486  -1.16255  -1.02368
 Alpha  occ. eigenvalues --   -1.02359  -0.83799  -0.83754  -0.77718  -0.73396
 Alpha  occ. eigenvalues --   -0.73151  -0.72830  -0.65252  -0.64419  -0.60575
 Alpha  occ. eigenvalues --   -0.60524  -0.59123  -0.56117  -0.55781  -0.55116
 Alpha  occ. eigenvalues --   -0.51775  -0.50989  -0.50952  -0.49198  -0.48674
 Alpha  occ. eigenvalues --   -0.35305  -0.35299
 Alpha virt. eigenvalues --    0.03485   0.03577   0.03638   0.04735   0.05140
 Alpha virt. eigenvalues --    0.05306   0.06433   0.06988   0.07596   0.07956
 Alpha virt. eigenvalues --    0.09787   0.09924   0.10240   0.10952   0.12658

 Mulliken charges:
               1
     1  B    1.930123
     2  O   -1.255613
     3  O   -1.188985
     4  O   -1.173090
     5  H    0.489951
     6  H    0.802834
     7  H    0.490547
     8  C    0.206555
     9  C    0.213662
    10  C    0.206092
    11  H   -0.222381
    12  C    0.254208
    13  H   -0.237478
    14  C    0.215225
    15  H   -0.222218
    16  C    0.246666
    17  H   -0.258914
    18  H   -0.236941
    19  H   -0.260242
 Sum of Mulliken charges =  -0.00000

 Dipole moment (field-independent basis, Debye):
    X=             -0.4344    Y=              0.0854    Z=             -0.0013  Tot=              0.4427

 Test job not archived.
 1\1\GINC-SE097\SP\RHF\Aug-CC-pVDZ\C6H9B1O3\OHZDE\08-Apr-2025\0\\#t hf
 aug-cc-pvdz iop(5/13=1,5/36=2,99/5=2) pseudo=read geom=check guess=(re
 ad,tcheck) scf=(maxcycle=1)\\title\\0,1\B,0,2.47525,0.1904,0.00446\O,0
 ,3.75759,0.66722,0.02093\O,0,1.42772,1.05703,0.01798\O,0,2.26904,-1.16
 305,-0.02572\H,0,3.78968,1.62157,0.04163\H,0,0.57273,0.62112,0.00482\H
 ,0,3.09084,-1.65002,-0.03224\C,0,-2.67454,0.73936,0.726\C,0,-1.88581,-
 0.19321,1.3832\C,0,-2.68229,0.78825,-0.66001\H,0,-3.28065,1.43121,1.29
 458\C,0,-1.10322,-1.07719,0.65413\H,0,-1.876,-0.22808,2.4639\C,0,-1.90

 Normal termination of Gaussian 16 at Tue Apr  8 22:23:42 2025.
