 Gaussian 16, Revision C.01,

 ----------------------------------------------------------------------
 #t hf aug-cc-pvdz symm=none int=(grid=ultrafine) guess=(read,tcheck) s
 table=(opt,rrhf)
 ----------------------------------------------------------------------
 -----
 title
 -----
 Symbolic Z-matrix:
 Charge =  0 Multiplicity = 1

 SCF Done:  E(RHF) =  -481.927509162     A.U. after   14 cycles
 Normal termination of Gaussian 16 at Tue Apr  8 22:26:32 2025.
 Gaussian 16:  ES64L-G16RevC.01  3-Jul-2019

 ----------------------------------------------------------------------
 #t hf aug-cc-pvdz iop(5/13=1,5/36=2,99/5=2) pseudo=read geom=check gue
 ss=(read,tcheck) scf=(maxcycle=1)
 ----------------------------------------------------------------------
 -----
 title
 -----
 Structure from the checkpoint file:  "B-set_phenylboronicacid_h2o_110_dimer_mol1.chk"
 Charge =  0 Multiplicity = 1

                         Standard orientation:
 ---------------------------------------------------------------------
 Center     Atomic      Atomic             Coordinates (Angstroms)
 Number     Number       Type             X           Y           Z
 ---------------------------------------------------------------------
      1          6           0       -1.336071    1.196680   -0.000165
      2          6           0       -2.721621    1.199572    0.000745
      3          6           0       -0.617482    0.000326   -0.000665
      4          1           0       -0.796807    2.134887   -0.000465
      5          6           0       -3.415612   -0.001203    0.001145
      6          1           0       -3.262207    2.136675    0.001105
      7          6           0       -1.334763   -1.196810   -0.000225
      8          5           0        0.948958    0.001143   -0.001665
      9          6           0       -2.720312   -1.201218    0.000635
     10          1           0       -4.497592   -0.001786    0.001825
     11          1           0       -0.794486   -2.134433   -0.000635
     12          8           0        1.605879    1.200425   -0.002095
     13          8           0        1.607307   -1.197365   -0.002005
     14          1           0       -3.259876   -2.138905    0.000935
     15          1           0        2.561234    1.106383   -0.002455
     16          1           0        2.562543   -1.101467   -0.002545
     17          8           0        4.876549   -0.001181    0.002829
     18          1           0        5.445639   -0.003793    0.771479
     19          1           0        5.454039   -0.002392   -0.759551
 ---------------------------------------------------------------------

 SCF Done:  E(RHF) =  -482.418330401     A.U. after    2 cycles

 The electronic state is 1-A.
 Alpha  occ. eigenvalues --  -20.59441 -20.54472 -20.54468 -11.23295 -11.22773
 Alpha  occ. eigenvalues --  -11.22765 -11.22556 -11.22530 -11.20277  -7.62698
 Alpha  occ. eigenvalues --   -1.47823  -1.47126  -1.42765  -1.14155  -1.00556
 Alpha  occ. eigenvalues --   -1.00383  -0.82980  -0.82104  -0.75830  -0.75263
 Alpha  occ. eigenvalues --   -0.71913  -0.69614  -0.63453  -0.62522  -0.62048
 Alpha  occ. eigenvalues --   -0.61386  -0.58552  -0.56125  -0.55589  -0.53752
 Alpha  occ. eigenvalues --   -0.51365  -0.49593  -0.48494  -0.48230  -0.47159
 Alpha  occ. eigenvalues --   -0.33441  -0.33239
 Alpha virt. eigenvalues --    0.01970   0.04153   0.04224   0.04418   0.05099
 Alpha virt. eigenvalues --    0.05725   0.06802   0.06855   0.08404   0.08777
 Alpha virt. eigenvalues --    0.09343   0.09960   0.11301   0.11409   0.12075

 Mulliken charges:
               1
     1  C   -0.000428
     2  C    0.340483
     3  C    0.686853
     4  H   -0.338889
     5  C    0.254850
     6  H   -0.223845
     7  C   -0.000101
     8  B    1.261088
     9  C    0.340522
    10  H   -0.223880
    11  H   -0.338881
    12  O   -1.277183
    13  O   -1.277019
    14  H   -0.223852
    15  H    0.504311
    16  H    0.505277
    17  O   -0.902494
    18  H    0.456535
    19  H    0.456652
 Sum of Mulliken charges =   0.00000

 Dipole moment (field-independent basis, Debye):
    X=              4.8589    Y=             -0.0042    Z=              0.0100  Tot=              4.8589

 Test job not archived.
 1\1\GINC-SE072\SP\RHF\Aug-CC-pVDZ\C6H9B1O3\OHZDE\08-Apr-2025\0\\#t hf
 aug-cc-pvdz iop(5/13=1,5/36=2,99/5=2) pseudo=read geom=check guess=(re
 ad,tcheck) scf=(maxcycle=1)\\title\\0,1\C,0,1.25953,-1.19671,-0.0001\C
 ,0,2.64508,-1.19967,0.00081\C,0,0.541,-0.00032,-0.0006\H,0,0.72022,-2.
 13489,-0.0004\C,0,3.33913,0.00107,0.00121\H,0,3.18562,-2.1368,0.00117\
 C,0,1.25834,1.19678,-0.00016\B,0,-1.02544,-0.00106,-0.0016\C,0,2.64389
 ,1.20112,0.0007\H,0,4.42111,0.0016,0.00189\H,0,0.71811,2.13443,-0.0005
 7\O,0,-1.68242,-1.20031,-0.00203\O,0,-1.68373,1.19748,-0.00194\H,0,3.1

 Normal termination of Gaussian 16 at Tue Apr  8 22:26:41 2025.
