 Gaussian 16, Revision C.01,

 ----------------------------------------------------------------------
 #t hf aug-cc-pvdz symm=none int=(grid=ultrafine) guess=(read,tcheck) s
 table=(opt,rrhf)
 ----------------------------------------------------------------------
 -----
 title
 -----
 Symbolic Z-matrix:
 Charge =  0 Multiplicity = 1

 SCF Done:  E(RHF) =  -481.923584396     A.U. after   14 cycles
 Normal termination of Gaussian 16 at Tue Apr  8 22:26:34 2025.
 Gaussian 16:  ES64L-G16RevC.01  3-Jul-2019

 ----------------------------------------------------------------------
 #t hf aug-cc-pvdz iop(5/13=1,5/36=2,99/5=2) pseudo=read geom=check gue
 ss=(read,tcheck) scf=(maxcycle=1)
 ----------------------------------------------------------------------
 -----
 title
 -----
 Structure from the checkpoint file:  "B-set_phenylboronicacid_h2o_095_dimer_mol1.chk"
 Charge =  0 Multiplicity = 1

                         Standard orientation:
 ---------------------------------------------------------------------
 Center     Atomic      Atomic             Coordinates (Angstroms)
 Number     Number       Type             X           Y           Z
 ---------------------------------------------------------------------
      1          6           0       -1.221256    1.196724   -0.000067
      2          6           0       -2.606806    1.199721    0.000843
      3          6           0       -0.502758    0.000315   -0.000567
      4          1           0       -0.681922    2.134890   -0.000367
      5          6           0       -3.300888   -0.001001    0.001243
      6          1           0       -3.147322    2.136865    0.001203
      7          6           0       -1.220129   -1.196766   -0.000127
      8          5           0        1.063682    0.001014   -0.001567
      9          6           0       -2.605680   -1.201070    0.000733
     10          1           0       -4.382868   -0.001503    0.001923
     11          1           0       -0.679924   -2.134430   -0.000537
     12          8           0        1.720694    1.200246   -0.001997
     13          8           0        1.721940   -1.197544   -0.001907
     14          1           0       -3.145314   -2.138715    0.001033
     15          1           0        2.676041    1.106131   -0.002357
     16          1           0        2.677183   -1.101719   -0.002447
     17          8           0        4.142317   -0.001184    0.002201
     18          1           0        4.711407   -0.003839    0.770851
     19          1           0        4.719807   -0.002439   -0.760179
 ---------------------------------------------------------------------

 SCF Done:  E(RHF) =  -482.415055620     A.U. after    2 cycles

 The electronic state is 1-A.
 Alpha  occ. eigenvalues --  -20.61994 -20.52639 -20.52623 -11.22838 -11.22245
 Alpha  occ. eigenvalues --  -11.22231 -11.22120 -11.22087 -11.19641  -7.61509
 Alpha  occ. eigenvalues --   -1.51349  -1.45529  -1.41385  -1.13662  -1.00026
 Alpha  occ. eigenvalues --   -0.99908  -0.82452  -0.81599  -0.78086  -0.75648
 Alpha  occ. eigenvalues --   -0.71424  -0.69253  -0.66917  -0.61958  -0.61607
 Alpha  occ. eigenvalues --   -0.59724  -0.58077  -0.56821  -0.54783  -0.54269
 Alpha  occ. eigenvalues --   -0.49852  -0.49059  -0.47894  -0.46719  -0.46348
 Alpha  occ. eigenvalues --   -0.32901  -0.32789
 Alpha virt. eigenvalues --    0.01385   0.04014   0.04317   0.04494   0.05273
 Alpha virt. eigenvalues --    0.05603   0.06960   0.07063   0.08443   0.08548
 Alpha virt. eigenvalues --    0.09430   0.10487   0.10822   0.11014   0.12463

 Mulliken charges:
               1
     1  C   -0.037340
     2  C    0.358604
     3  C    0.682439
     4  H   -0.345161
     5  C    0.239261
     6  H   -0.224717
     7  C   -0.037191
     8  B    1.248658
     9  C    0.358864
    10  H   -0.226147
    11  H   -0.345099
    12  O   -1.362071
    13  O   -1.361654
    14  H   -0.224716
    15  H    0.728857
    16  H    0.731670
    17  O   -1.219581
    18  H    0.517603
    19  H    0.517722
 Sum of Mulliken charges =  -0.00000

 Dipole moment (field-independent basis, Debye):
    X=              5.6785    Y=             -0.0042    Z=              0.0109  Tot=              5.6785

 Test job not archived.
 1\1\GINC-SE403\SP\RHF\Aug-CC-pVDZ\C6H9B1O3\OHZDE\08-Apr-2025\0\\#t hf
 aug-cc-pvdz iop(5/13=1,5/36=2,99/5=2) pseudo=read geom=check guess=(re
 ad,tcheck) scf=(maxcycle=1)\\title\\0,1\C,0,1.25953,-1.19671,-0.0001\C
 ,0,2.64508,-1.19967,0.00081\C,0,0.541,-0.00032,-0.0006\H,0,0.72022,-2.
 13489,-0.0004\C,0,3.33913,0.00107,0.00121\H,0,3.18562,-2.1368,0.00117\
 C,0,1.25834,1.19678,-0.00016\B,0,-1.02544,-0.00106,-0.0016\C,0,2.64389
 ,1.20112,0.0007\H,0,4.42111,0.0016,0.00189\H,0,0.71811,2.13443,-0.0005
 7\O,0,-1.68242,-1.20031,-0.00203\O,0,-1.68373,1.19748,-0.00194\H,0,3.1

 Normal termination of Gaussian 16 at Tue Apr  8 22:26:43 2025.
