 Gaussian 16, Revision C.01,

 ----------------------------------------------------------------------
 #t hf aug-cc-pvdz symm=none int=(grid=ultrafine) guess=(read,tcheck) s
 table=(opt,rrhf)
 ----------------------------------------------------------------------
 -----
 title
 -----
 Symbolic Z-matrix:
 Charge =  0 Multiplicity = 1

 SCF Done:  E(RHF) =  -894.814409003     A.U. after   11 cycles
 Normal termination of Gaussian 16 at Tue Apr  8 22:20:42 2025.
 Gaussian 16:  ES64L-G16RevC.01  3-Jul-2019

 ----------------------------------------------------------------------
 #t hf aug-cc-pvdz iop(5/13=1,5/36=2,99/5=2) pseudo=read geom=check gue
 ss=(read,tcheck) scf=(maxcycle=1)
 ----------------------------------------------------------------------
 -----
 title
 -----
 Structure from the checkpoint file:  "B-set_b2f4_b2f4_150_dimer_mol1.chk"
 Charge =  0 Multiplicity = 1

                         Standard orientation:
 ---------------------------------------------------------------------
 Center     Atomic      Atomic             Coordinates (Angstroms)
 Number     Number       Type             X           Y           Z
 ---------------------------------------------------------------------
      1          5           0        2.798336   -0.716037    0.410339
      2          5           0        2.627203    0.899268   -0.182681
      3          9           0        1.772384   -1.343108    0.957648
      4          9           0        3.934759   -1.367790    0.343140
      5          9           0        1.618750    1.656790    0.211676
      6          9           0        3.482999    1.427235   -1.024325
      7          5           0       -2.479724   -0.731653   -0.647507
      8          5           0       -2.916006    0.549379    0.421873
      9          9           0       -1.549318   -0.570002   -1.578846
     10          9           0       -3.062699   -1.908509   -0.600358
     11          9           0       -3.426200    1.673723   -0.036179
     12          9           0       -2.787236    0.431129    1.726119
 ---------------------------------------------------------------------

 SCF Done:  E(RHF) =  -895.622619031     A.U. after    2 cycles

 The electronic state is 1-A.
 Alpha  occ. eigenvalues --  -26.50212 -26.50208 -26.50080 -26.50079 -26.50007
 Alpha  occ. eigenvalues --  -26.49863 -26.49840 -26.49815  -7.74035  -7.74029
 Alpha  occ. eigenvalues --   -7.73819  -7.73735  -1.65712  -1.65398  -1.65388
 Alpha  occ. eigenvalues --   -1.65150  -1.61653  -1.61298  -1.61268  -1.61060
 Alpha  occ. eigenvalues --   -0.84858  -0.84625  -0.82371  -0.82090  -0.77549
 Alpha  occ. eigenvalues --   -0.77306  -0.76912  -0.76799  -0.75833  -0.75616
 Alpha  occ. eigenvalues --   -0.72097  -0.71396  -0.70880  -0.70866  -0.69845
 Alpha  occ. eigenvalues --   -0.69781  -0.65454  -0.65206  -0.65175  -0.65118
 Alpha  occ. eigenvalues --   -0.64971  -0.64538  -0.64153  -0.64082  -0.52214
 Alpha  occ. eigenvalues --   -0.51795
 Alpha virt. eigenvalues --    0.02644   0.03794   0.04254   0.04463   0.04807
 Alpha virt. eigenvalues --    0.05589   0.06144   0.07272   0.07443   0.07653
 Alpha virt. eigenvalues --    0.08680   0.08887   0.09010   0.09610   0.09823

 Mulliken charges:
               1
     1  B    1.139748
     2  B    1.167319
     3  F   -0.592114
     4  F   -0.568794
     5  F   -0.579202
     6  F   -0.566482
     7  B    1.181395
     8  B    1.215954
     9  F   -0.604263
    10  F   -0.618718
    11  F   -0.606842
    12  F   -0.568000
 Sum of Mulliken charges =  -0.00000

 Dipole moment (field-independent basis, Debye):
    X=              0.1563    Y=              0.0066    Z=              0.0331  Tot=              0.1599

 Test job not archived.
 1\1\GINC-SE364\SP\RHF\Aug-CC-pVDZ\B4F8\OHZDE\08-Apr-2025\0\\#t hf aug-
 cc-pvdz iop(5/13=1,5/36=2,99/5=2) pseudo=read geom=check guess=(read,t
 check) scf=(maxcycle=1)\\title\\0,1\B,0,1.91416,-0.63907,0.46973\B,0,1
 .67914,0.97528,-0.10369\F,0,0.89841,-1.33833,0.94368\F,0,3.09043,-1.21
 961,0.45886\F,0,0.60477,1.6621,0.24321\F,0,2.54863,1.57167,-0.88331\B,
 0,-3.28213417,-0.9499825,-0.9010575\B,0,-3.85797417,0.2793375,0.162962
 5\F,0,-2.31057417,-0.7127525,-1.7722475\F,0,-3.79352417,-2.1605525,-0.
 9096375\F,0,-4.40858417,1.3804275,-0.3046775\F,0,-3.79862417,0.1412575

 Normal termination of Gaussian 16 at Tue Apr  8 22:20:49 2025.
