 Gaussian 16, Revision C.01,

 ----------------------------------------------------------------------
 #t hf aug-cc-pvdz symm=none int=(grid=ultrafine) guess=(read,tcheck) s
 table=(opt,rrhf)
 ----------------------------------------------------------------------
 -----
 title
 -----
 Symbolic Z-matrix:
 Charge =  0 Multiplicity = 1

 SCF Done:  E(RHF) =  -179.028369291     A.U. after   14 cycles
 Normal termination of Gaussian 16 at Tue Apr  8 22:23:39 2025.
 Gaussian 16:  ES64L-G16RevC.01  3-Jul-2019

 ----------------------------------------------------------------------
 #t hf aug-cc-pvdz iop(5/13=1,5/36=2,99/5=2) pseudo=read geom=check gue
 ss=(read,tcheck) scf=(maxcycle=1)
 ----------------------------------------------------------------------
 -----
 title
 -----
 Structure from the checkpoint file:  "B-set_borole_borolane_090_dimer_mol2.chk"
 Charge =  0 Multiplicity = 1

                         Standard orientation:
 ---------------------------------------------------------------------
 Center     Atomic      Atomic             Coordinates (Angstroms)
 Number     Number       Type             X           Y           Z
 ---------------------------------------------------------------------
      1          5           0        0.006370    1.313942   -0.001207
      2          6           0        1.249406    0.341527   -0.008760
      3          6           0       -1.246373    0.350156   -0.003460
      4          1           0        0.011548    2.504548    0.037750
      5          6           0        0.749155   -0.896582    0.002674
      6          1           0        2.307852    0.553310    0.003370
      7          6           0       -0.758075   -0.891296    0.002304
      8          1           0       -2.301947    0.576780   -0.008935
      9          1           0        1.318492   -1.817740    0.012280
     10          1           0       -1.332474   -1.809439    0.005017
 ---------------------------------------------------------------------

 SCF Done:  E(RHF) =  -179.216001097     A.U. after    2 cycles

 The electronic state is 1-A.
 Alpha  occ. eigenvalues --  -11.25749 -11.25709 -11.21073 -11.21012  -7.59704
 Alpha  occ. eigenvalues --   -1.12384  -0.97507  -0.84590  -0.71835  -0.70934
 Alpha  occ. eigenvalues --   -0.65702  -0.58141  -0.52866  -0.47823  -0.47239
 Alpha  occ. eigenvalues --   -0.46768  -0.32555
 Alpha virt. eigenvalues --    0.01792   0.03479   0.03879   0.04016   0.05448
 Alpha virt. eigenvalues --    0.05582   0.06042   0.08577   0.08988   0.12419
 Alpha virt. eigenvalues --    0.13450   0.13844   0.14213   0.14898   0.15139

 Mulliken charges:
               1
     1  B    0.393071
     2  C   -0.023993
     3  C   -0.028152
     4  H    0.155480
     5  C    0.050594
     6  H   -0.165600
     7  C    0.057796
     8  H   -0.166429
     9  H   -0.136820
    10  H   -0.135948
 Sum of Mulliken charges =   0.00000

 Dipole moment (field-independent basis, Debye):
    X=             -0.0063    Y=             -0.9716    Z=             -0.0072  Tot=              0.9716

 Test job not archived.
 1\1\GINC-SE226\SP\RHF\Aug-CC-pVDZ\C4H5B1\OHZDE\08-Apr-2025\0\\#t hf au
 g-cc-pvdz iop(5/13=1,5/36=2,99/5=2) pseudo=read geom=check guess=(read
 ,tcheck) scf=(maxcycle=1)\\title\\0,1\B,0,-1.44421,-0.34378,-1.38976\C
 ,0,-1.35382,1.11975,-0.80607\C,0,-2.20691,-1.16484,-0.27513\H,0,-1.059
 79,-0.73225,-2.44825\C,0,-1.96773,1.08262,0.37927\H,0,-0.92918,2.01911
 ,-1.22576\C,0,-2.47978,-0.29789,0.7014\H,0,-2.48296,-2.20807,-0.24206\
 H,0,-2.10422,1.91644,1.05668\H,0,-2.99941,-0.51278,1.627\\Version=ES64
 L-G16RevC.01\State=1-A\HF=-179.2160011\RMSD=2.439e-02\Dipole=-0.132156

 Normal termination of Gaussian 16 at Tue Apr  8 22:23:43 2025.
