 Gaussian 16, Revision C.01,

 ----------------------------------------------------------------------
 #t hf aug-cc-pvdz symm=none int=(grid=ultrafine) guess=(read,tcheck) s
 table=(opt,rrhf)
 ----------------------------------------------------------------------
 -----
 title
 -----
 Symbolic Z-matrix:
 Charge =  0 Multiplicity = 1

 SCF Done:  E(RHF) =  -736.590221273     A.U. after   11 cycles
 Normal termination of Gaussian 16 at Tue Apr  8 22:37:05 2025.
 Gaussian 16:  ES64L-G16RevC.01  3-Jul-2019

 ----------------------------------------------------------------------
 #t hf aug-cc-pvdz iop(5/13=1,5/36=2,99/5=2) pseudo=read geom=check gue
 ss=(read,tcheck) scf=(maxcycle=1)
 ----------------------------------------------------------------------
 -----
 title
 -----
 Structure from the checkpoint file:  "B-set_trimethylborate_trimethylborate_100_dimer_mol1.chk"
 Charge =  0 Multiplicity = 1

                         Standard orientation:
 ---------------------------------------------------------------------
 Center     Atomic      Atomic             Coordinates (Angstroms)
 Number     Number       Type             X           Y           Z
 ---------------------------------------------------------------------
      1          5           0        1.608240   -0.001910    0.000820
      2          8           0        1.609150   -1.341325    0.247185
      3          8           0        1.613220    0.881264    1.037474
      4          8           0        1.613380    0.454419   -1.282348
      5          6           0        1.548201   -1.834354    1.571899
      6          6           0        1.556380    2.275169    0.802147
      7          6           0        1.554309   -0.446156   -2.371815
      8          1           0        0.553681   -1.675933    1.990017
      9          1           0        1.755101   -2.901792    1.532942
     10          1           0        2.285211   -1.347761    2.210912
     11          1           0        1.769151    2.774684    1.744958
     12          1           0        2.291180    2.582396    0.057832
     13          1           0        0.561400    2.561541    0.460062
     14          1           0        1.759639    0.121816   -3.276760
     15          1           0        2.293189   -1.241209   -2.270442
     16          1           0        0.560879   -0.889845   -2.443729
     17          5           0       -1.608180    0.001728   -0.000822
     18          8           0       -1.612680   -0.880367   -1.038416
     19          8           0       -1.612830   -0.455732    1.281967
     20          8           0       -1.609900    1.341414   -0.245887
     21          6           0       -1.555380   -2.274483   -0.804099
     22          6           0       -1.553629    0.444254    2.372045
     23          6           0       -1.550181    1.835924   -1.570092
     24          1           0       -2.292230   -2.582932   -0.062333
     25          1           0       -1.764911   -2.773289   -1.748001
     26          1           0       -0.561220   -2.560363   -0.459215
     27          1           0       -1.759839   -0.124049    3.276590
     28          1           0       -0.559799    0.886984    2.444560
     29          1           0       -2.291829    1.239887    2.270602
     30          1           0       -0.555711    1.679072   -1.988982
     31          1           0       -2.286871    1.349111   -2.209295
     32          1           0       -1.758241    2.903083   -1.530015
 ---------------------------------------------------------------------

 SCF Done:  E(RHF) =  -737.341376108     A.U. after    2 cycles

 The electronic state is 1-A.
 Alpha  occ. eigenvalues --  -20.53680 -20.53679 -20.53678 -20.53677 -20.53676
 Alpha  occ. eigenvalues --  -20.53674 -11.27572 -11.27571 -11.27570 -11.27568
 Alpha  occ. eigenvalues --  -11.27567 -11.27566  -7.64727  -7.64714  -1.49630
 Alpha  occ. eigenvalues --   -1.49282  -1.44312  -1.44312  -1.44079  -1.44078
 Alpha  occ. eigenvalues --   -0.94670  -0.94338  -0.93321  -0.93319  -0.93176
 Alpha  occ. eigenvalues --   -0.93174  -0.73085  -0.72780  -0.69565  -0.69564
 Alpha  occ. eigenvalues --   -0.69219  -0.69216  -0.67768  -0.64104  -0.62407
 Alpha  occ. eigenvalues --   -0.62404  -0.61141  -0.61136  -0.60076  -0.60072
 Alpha  occ. eigenvalues --   -0.60058  -0.60057  -0.58368  -0.58247  -0.50494
 Alpha  occ. eigenvalues --   -0.50018  -0.49332  -0.49120  -0.47932  -0.47930
 Alpha  occ. eigenvalues --   -0.47885  -0.47880  -0.43784  -0.43778  -0.43477
 Alpha  occ. eigenvalues --   -0.43475
 Alpha virt. eigenvalues --    0.03322   0.03484   0.03486   0.03534   0.05410
 Alpha virt. eigenvalues --    0.05411   0.05579   0.05835   0.05837   0.07642
 Alpha virt. eigenvalues --    0.07645   0.07647   0.08113   0.08336   0.08337

 Mulliken charges:
               1
     1  B    3.294843
     2  O   -1.716723
     3  O   -1.714659
     4  O   -1.720596
     5  C    0.420800
     6  C    0.420349
     7  C    0.420267
     8  H    0.109971
     9  H   -0.022749
    10  H    0.111896
    11  H   -0.022700
    12  H    0.111957
    13  H    0.109197
    14  H   -0.023222
    15  H    0.112030
    16  H    0.109277
    17  B    3.293900
    18  O   -1.715033
    19  O   -1.718867
    20  O   -1.716828
    21  C    0.421002
    22  C    0.420752
    23  C    0.419969
    24  H    0.111130
    25  H   -0.023000
    26  H    0.109830
    27  H   -0.023255
    28  H    0.109668
    29  H    0.111160
    30  H    0.110805
    31  H    0.111679
    32  H   -0.022849
 Sum of Mulliken charges =  -0.00000

 Dipole moment (field-independent basis, Debye):
    X=             -0.0015    Y=              0.0007    Z=              0.0002  Tot=              0.0017

 Test job not archived.
 1\1\GINC-SE227\SP\RHF\Aug-CC-pVDZ\C6H18B2O6\OHZDE\08-Apr-2025\0\\#t hf
  aug-cc-pvdz iop(5/13=1,5/36=2,99/5=2) pseudo=read geom=check guess=(r
 ead,tcheck) scf=(maxcycle=1)\\title\\0,1\B,0,1.60824,0.00191,-0.00082\
 O,0,1.60915,1.34156,-0.2459\O,0,1.61322,-0.88027,-1.03832\O,0,1.61338,
 -0.45565,1.28191\C,0,1.5482,1.83586,-1.57014\C,0,1.55638,-2.2744,-0.80
 433\C,0,1.55431,0.44388,2.37224\H,0,0.55368,1.67784,-1.98841\H,0,1.755
 1,2.90326,-1.53016\H,0,2.28521,1.34988,-2.20962\H,0,1.76915,-2.77301,-
 1.74762\H,0,2.29118,-2.58234,-0.06031\H,0,0.5614,-2.5611,-0.46252\H,0,

 Normal termination of Gaussian 16 at Tue Apr  8 22:37:45 2025.
