 Gaussian 16, Revision C.01,

 ----------------------------------------------------------------------
 #t hf aug-cc-pvdz symm=none int=(grid=ultrafine) guess=(read,tcheck) s
 table=(opt,rrhf)
 ----------------------------------------------------------------------
 -----
 title
 -----
 Symbolic Z-matrix:
 Charge =  0 Multiplicity = 1

 SCF Done:  E(RHF) =  -219.224343031     A.U. after   14 cycles
 Normal termination of Gaussian 16 at Tue Apr  8 22:25:08 2025.
 Gaussian 16:  ES64L-G16RevC.01  3-Jul-2019

 ----------------------------------------------------------------------
 #t hf aug-cc-pvdz iop(5/13=1,5/36=2,99/5=2) pseudo=read geom=check gue
 ss=(read,tcheck) scf=(maxcycle=1)
 ----------------------------------------------------------------------
 -----
 title
 -----
 Structure from the checkpoint file:  "B-set_borole_methane_095_dimer_mol1.chk"
 Charge =  0 Multiplicity = 1

                         Standard orientation:
 ---------------------------------------------------------------------
 Center     Atomic      Atomic             Coordinates (Angstroms)
 Number     Number       Type             X           Y           Z
 ---------------------------------------------------------------------
      1          5           0       -0.000440   -0.167545    1.194901
      2          6           0       -0.699731   -1.266417    0.300605
      3          6           0       -0.393369    1.203546    0.516644
      4          1           0        0.633170   -0.333750    2.190068
      5          6           0       -1.373176   -0.600320   -0.638851
      6          1           0       -0.700937   -2.342682    0.386564
      7          6           0       -1.187251    0.891910   -0.508912
      8          1           0       -0.131694    2.216523    0.783207
      9          1           0       -1.989670   -1.033377   -1.417268
     10          1           0       -1.661073    1.587896   -1.190416
     11          6           0        2.577132   -0.062754   -0.474831
     12          1           0        3.494873   -0.555130   -0.788609
     13          1           0        2.543304    0.946511   -0.877189
     14          1           0        1.721466   -0.626484   -0.841755
     15          1           0        2.551131   -0.017574    0.612969
 ---------------------------------------------------------------------

 SCF Done:  E(RHF) =  -219.460750759     A.U. after    2 cycles

 The electronic state is 1-A.
 Alpha  occ. eigenvalues --  -11.25521 -11.25446 -11.21609 -11.20975 -11.20919
 Alpha  occ. eigenvalues --   -7.59609  -1.12248  -0.97407  -0.94673  -0.84375
 Alpha  occ. eigenvalues --   -0.71709  -0.70812  -0.65728  -0.58057  -0.55335
 Alpha  occ. eigenvalues --   -0.55080  -0.54947  -0.52588  -0.47593  -0.47126
 Alpha  occ. eigenvalues --   -0.46247  -0.32505
 Alpha virt. eigenvalues --    0.02498   0.03384   0.03609   0.03736   0.04388
 Alpha virt. eigenvalues --    0.05466   0.05865   0.06175   0.07204   0.07886
 Alpha virt. eigenvalues --    0.08962   0.09619   0.12447   0.13248   0.14217

 Mulliken charges:
               1
     1  B    0.290290
     2  C   -0.048735
     3  C    0.062746
     4  H    0.243973
     5  C    0.123452
     6  H   -0.221941
     7  C    0.069180
     8  H   -0.233204
     9  H   -0.161695
    10  H   -0.170429
    11  C   -0.312899
    12  H    0.012072
    13  H    0.116830
    14  H    0.122955
    15  H    0.107404
 Sum of Mulliken charges =  -0.00000

 Dipole moment (field-independent basis, Debye):
    X=             -0.4197    Y=              0.1459    Z=             -0.8301  Tot=              0.9416

 Test job not archived.
 1\1\GINC-SE457\SP\RHF\Aug-CC-pVDZ\C5H9B1\OHZDE\08-Apr-2025\0\\#t hf au
 g-cc-pvdz iop(5/13=1,5/36=2,99/5=2) pseudo=read geom=check guess=(read
 ,tcheck) scf=(maxcycle=1)\\title\\0,1\B,0,0.06513,-0.1638,-1.2018\C,0,
 0.7417,-1.2672,-0.29568\C,0,0.44816,1.2043,-0.51194\H,0,-0.54783,-0.32
 544,-2.21056\C,0,1.39732,-0.60567,0.65948\H,0,0.74116,-2.34325,-0.3843
 \C,0,1.21913,0.88749,0.52939\H,0,0.19554,2.2188,-0.78143\H,0,1.99577,-
 1.0427,1.44967\H,0,1.68073,1.58021,1.22251\C,0,-2.54683095,-0.0544174,
 0.4133031\H,0,-3.47263095,-0.5444674,0.7063631\H,0,-2.51818095,0.95374

 Normal termination of Gaussian 16 at Tue Apr  8 22:25:12 2025.
