 Gaussian 16, Revision C.01,

 ----------------------------------------------------------------------
 #t hf aug-cc-pvdz symm=none int=(grid=ultrafine) guess=(read,tcheck) s
 table=(opt,rrhf)
 ----------------------------------------------------------------------
 -----
 title
 -----
 Symbolic Z-matrix:
 Charge =  0 Multiplicity = 1

 SCF Done:  E(RHF) =  -502.479758846     A.U. after   11 cycles
 Normal termination of Gaussian 16 at Tue Apr  8 22:22:38 2025.
 Gaussian 16:  ES64L-G16RevC.01  3-Jul-2019

 ----------------------------------------------------------------------
 #t hf aug-cc-pvdz iop(5/13=1,5/36=2,99/5=2) pseudo=read geom=check gue
 ss=(read,tcheck) scf=(maxcycle=1)
 ----------------------------------------------------------------------
 -----
 title
 -----
 Structure from the checkpoint file:  "B-set_boricacid_boricacid_095_dimer_mol1.chk"
 Charge =  0 Multiplicity = 1

                         Standard orientation:
 ---------------------------------------------------------------------
 Center     Atomic      Atomic             Coordinates (Angstroms)
 Number     Number       Type             X           Y           Z
 ---------------------------------------------------------------------
      1          5           0        1.961462    0.026948   -0.000098
      2          8           0        3.318867   -0.120855    0.000462
      3          8           0        1.382627    1.244696   -0.000728
      4          8           0        1.194443   -1.123323   -0.000038
      5          1           0        3.776680    0.717452    0.000472
      6          1           0        0.413670    1.235772   -0.000478
      7          1           0        1.726654   -1.917108    0.000602
      8          5           0       -1.961425   -0.026906    0.000069
      9          8           0       -1.194495    1.123375    0.000409
     10          8           0       -3.318879    0.120768    0.000109
     11          8           0       -1.382599   -1.244664   -0.000301
     12          1           0       -1.726786    1.917120    0.000729
     13          1           0       -3.776482   -0.717650   -0.000101
     14          1           0       -0.413632   -1.235779   -0.000381
 ---------------------------------------------------------------------

 SCF Done:  E(RHF) =  -502.979907385     A.U. after    2 cycles

 The electronic state is 1-A.
 Alpha  occ. eigenvalues --  -20.57473 -20.57472 -20.55664 -20.55663 -20.53214
 Alpha  occ. eigenvalues --  -20.53213  -7.66762  -7.66760  -1.51314  -1.50348
 Alpha  occ. eigenvalues --   -1.46123  -1.45500  -1.43455  -1.43165  -0.80323
 Alpha  occ. eigenvalues --   -0.78435  -0.76890  -0.76459  -0.73515  -0.72395
 Alpha  occ. eigenvalues --   -0.60935  -0.60924  -0.59782  -0.59315  -0.56622
 Alpha  occ. eigenvalues --   -0.56246  -0.52912  -0.52618  -0.51555  -0.50975
 Alpha  occ. eigenvalues --   -0.48696  -0.48248
 Alpha virt. eigenvalues --    0.03859   0.03873   0.04269   0.04970   0.05810
 Alpha virt. eigenvalues --    0.06533   0.07224   0.08577   0.08939   0.09016
 Alpha virt. eigenvalues --    0.11995   0.12041   0.13329   0.13393   0.18775

 Mulliken charges:
               1
     1  B    1.785186
     2  O   -1.274765
     3  O   -1.144632
     4  O   -1.248282
     5  H    0.456410
     6  H    0.968453
     7  H    0.457584
     8  B    1.785104
     9  O   -1.248149
    10  O   -1.274841
    11  O   -1.144586
    12  H    0.457610
    13  H    0.456418
    14  H    0.968491
 Sum of Mulliken charges =  -0.00000

 Dipole moment (field-independent basis, Debye):
    X=              0.0009    Y=              0.0001    Z=              0.0018  Tot=              0.0020

 Test job not archived.
 1\1\GINC-SE365\SP\RHF\Aug-CC-pVDZ\B2H6O6\OHZDE\08-Apr-2025\0\\#t hf au
 g-cc-pvdz iop(5/13=1,5/36=2,99/5=2) pseudo=read geom=check guess=(read
 ,tcheck) scf=(maxcycle=1)\\title\\0,1\B,0,2.06504,0.02667,-0.0001\O,0,
 3.42239,-0.12163,0.00046\O,0,1.48665,1.24463,-0.00073\O,0,1.2976,-1.12
 332,-0.00004\H,0,3.88051,0.71651,0.00047\H,0,0.51769,1.23606,-0.00048\
 H,0,1.82952,-1.9173,0.0006\B,0,-1.85786657,-0.0257485,0.00006743\O,0,-
 1.09051657,1.1242515,0.00040743\O,0,-3.21526657,0.1224215,0.00010743\O
 ,0,-1.27948657,-1.2437185,-0.00030257\H,0,-1.62251657,1.9181915,0.0007

 Normal termination of Gaussian 16 at Tue Apr  8 22:22:42 2025.
