 Gaussian 16, Revision C.01,

 ----------------------------------------------------------------------
 #t hf aug-cc-pvdz symm=none int=(grid=ultrafine) guess=(read,tcheck) s
 table=(opt,rrhf)
 ----------------------------------------------------------------------
 -----
 title
 -----
 Symbolic Z-matrix:
 Charge =  0 Multiplicity = 1

 SCF Done:  E(RHF) =  -481.969014412     A.U. after   14 cycles
 Normal termination of Gaussian 16 at Tue Apr  8 22:23:27 2025.
 Gaussian 16:  ES64L-G16RevC.01  3-Jul-2019

 ----------------------------------------------------------------------
 #t hf aug-cc-pvdz iop(5/13=1,5/36=2,99/5=2) pseudo=read geom=check gue
 ss=(read,tcheck) scf=(maxcycle=1)
 ----------------------------------------------------------------------
 -----
 title
 -----
 Structure from the checkpoint file:  "B-set_boricacid_benzene_110_dimer_mol1.chk"
 Charge =  0 Multiplicity = 1

                         Standard orientation:
 ---------------------------------------------------------------------
 Center     Atomic      Atomic             Coordinates (Angstroms)
 Number     Number       Type             X           Y           Z
 ---------------------------------------------------------------------
      1          5           0        2.726013   -0.172482   -0.003870
      2          8           0        4.014692   -0.631924   -0.019450
      3          8           0        1.690310   -1.053222   -0.016785
      4          8           0        2.501498    1.178084    0.024814
      5          1           0        4.059700   -1.585773   -0.039129
      6          1           0        0.829495   -0.628907   -0.004343
      7          1           0        3.316632    1.676137    0.031064
      8          6           0       -2.853330   -0.764373   -0.725748
      9          6           0       -2.077085    0.178090   -1.383699
     10          6           0       -2.860853   -0.811900    0.660311
     11          1           0       -3.449845   -1.464961   -1.293776
     12          6           0       -1.306757    1.073348   -0.655332
     13          1           0       -2.067409    0.211949   -2.464433
     14          6           0       -2.092172    0.083066    1.389618
     15          1           0       -3.463150   -1.549555    1.172581
     16          6           0       -1.314360    1.025802    0.732527
     17          1           0       -0.685867    1.798249   -1.162433
     18          1           0       -2.094303    0.042999    2.470180
     19          1           0       -0.699972    1.714565    1.294953
 ---------------------------------------------------------------------

 SCF Done:  E(RHF) =  -482.461057373     A.U. after    2 cycles

 The electronic state is 1-A.
 Alpha  occ. eigenvalues --  -20.55241 -20.55132 -20.54710 -11.24563 -11.24542
 Alpha  occ. eigenvalues --  -11.24515 -11.24440 -11.24430 -11.24403  -7.66001
 Alpha  occ. eigenvalues --   -1.49485  -1.44014  -1.43821  -1.16150  -1.02292
 Alpha  occ. eigenvalues --   -1.02290  -0.83754  -0.83718  -0.77924  -0.73465
 Alpha  occ. eigenvalues --   -0.73366  -0.72866  -0.65242  -0.64378  -0.60524
 Alpha  occ. eigenvalues --   -0.60479  -0.59337  -0.56196  -0.55944  -0.55286
 Alpha  occ. eigenvalues --   -0.51865  -0.50967  -0.50927  -0.49315  -0.49025
 Alpha  occ. eigenvalues --   -0.35245  -0.35198
 Alpha virt. eigenvalues --    0.03501   0.03630   0.03635   0.04667   0.05110
 Alpha virt. eigenvalues --    0.05282   0.06345   0.06910   0.07461   0.07984
 Alpha virt. eigenvalues --    0.09575   0.09914   0.10257   0.10668   0.12207

 Mulliken charges:
               1
     1  B    1.934607
     2  O   -1.200873
     3  O   -1.167232
     4  O   -1.148570
     5  H    0.480069
     6  H    0.640922
     7  H    0.480898
     8  C    0.225539
     9  C    0.199624
    10  C    0.224567
    11  H   -0.220966
    12  C    0.277620
    13  H   -0.233974
    14  C    0.200922
    15  H   -0.220816
    16  C    0.272366
    17  H   -0.255142
    18  H   -0.233657
    19  H   -0.255904
 Sum of Mulliken charges =   0.00000

 Dipole moment (field-independent basis, Debye):
    X=             -0.3900    Y=              0.0024    Z=             -0.0027  Tot=              0.3901

 Test job not archived.
 1\1\GINC-SE342\SP\RHF\Aug-CC-pVDZ\C6H9B1O3\OHZDE\08-Apr-2025\0\\#t hf
 aug-cc-pvdz iop(5/13=1,5/36=2,99/5=2) pseudo=read geom=check guess=(re
 ad,tcheck) scf=(maxcycle=1)\\title\\0,1\B,0,2.47525,0.1904,0.00446\O,0
 ,3.75759,0.66722,0.02093\O,0,1.42772,1.05703,0.01798\O,0,2.26904,-1.16
 305,-0.02572\H,0,3.78968,1.62157,0.04163\H,0,0.57273,0.62112,0.00482\H
 ,0,3.09084,-1.65002,-0.03224\C,0,-3.11180751,0.70597548,0.72521061\C,0
 ,-2.32307751,-0.22659452,1.38241061\C,0,-3.11955751,0.75486548,-0.6607
 9939\H,0,-3.71791751,1.39782548,1.29379061\C,0,-1.54048751,-1.11057452

 Normal termination of Gaussian 16 at Tue Apr  8 22:23:36 2025.
