 Gaussian 16, Revision C.01,

 ----------------------------------------------------------------------
 #t hf aug-cc-pvdz symm=none int=(grid=ultrafine) guess=(read,tcheck) s
 table=(opt,rrhf)
 ----------------------------------------------------------------------
 -----
 title
 -----
 Symbolic Z-matrix:
 Charge =  0 Multiplicity = 1

 SCF Done:  E(RHF) =  -447.407157522     A.U. after   11 cycles
 Normal termination of Gaussian 16 at Tue Apr  8 22:19:36 2025.
 Gaussian 16:  ES64L-G16RevC.01  3-Jul-2019

 ----------------------------------------------------------------------
 #t hf aug-cc-pvdz iop(5/13=1,5/36=2,99/5=2) pseudo=read geom=check gue
 ss=(read,tcheck) scf=(maxcycle=1)
 ----------------------------------------------------------------------
 -----
 title
 -----
 Structure from the checkpoint file:  "B-set_b2f4_b2cl4_090_dimer_mol3.chk"
 Charge =  0 Multiplicity = 1

                         Standard orientation:
 ---------------------------------------------------------------------
 Center     Atomic      Atomic             Coordinates (Angstroms)
 Number     Number       Type             X           Y           Z
 ---------------------------------------------------------------------
      1          5           0        0.863202   -0.002403    0.001080
      2          5           0       -0.864886   -0.000650   -0.001494
      3          9           0        1.548806    1.123722    0.047142
      4          9           0        1.551748   -1.121531   -0.047381
      5          9           0       -1.549818    1.122515   -0.047021
      6          9           0       -1.549801   -1.123009    0.047489
 ---------------------------------------------------------------------

 SCF Done:  E(RHF) =  -447.812090946     A.U. after    2 cycles

 The electronic state is 1-A.
 Alpha  occ. eigenvalues --  -26.49865 -26.49839 -26.49825 -26.49728  -7.73726
 Alpha  occ. eigenvalues --   -7.73722  -1.65384  -1.65038  -1.61325  -1.60943
 Alpha  occ. eigenvalues --   -0.84532  -0.82029  -0.77241  -0.77006  -0.75207
 Alpha  occ. eigenvalues --   -0.71824  -0.70499  -0.69403  -0.65149  -0.64812
 Alpha  occ. eigenvalues --   -0.64783  -0.63680  -0.52008
 Alpha virt. eigenvalues --    0.02553   0.04096   0.05546   0.05700   0.07293
 Alpha virt. eigenvalues --    0.07813   0.07847   0.07941   0.13931   0.20435
 Alpha virt. eigenvalues --    0.23345   0.24188   0.25186   0.25500   0.25751

 Mulliken charges:
               1
     1  B    1.102889
     2  B    1.116238
     3  F   -0.559500
     4  F   -0.553405
     5  F   -0.553317
     6  F   -0.552905
 Sum of Mulliken charges =  -0.00000

 Dipole moment (field-independent basis, Debye):
    X=             -0.0136    Y=             -0.0259    Z=             -0.0018  Tot=              0.0293

 Test job not archived.
 1\1\GINC-SE083\SP\RHF\Aug-CC-pVDZ\B2F4\OHZDE\08-Apr-2025\0\\#t hf aug-
 cc-pvdz iop(5/13=1,5/36=2,99/5=2) pseudo=read geom=check guess=(read,t
 check) scf=(maxcycle=1)\\title\\0,1\B,0,2.38973,-0.6957,-0.67329\B,0,2
 .76899,0.27376,0.70606\F,0,1.49982,-1.66705,-0.6035\F,0,2.97613,-0.502
 59,-1.83421\F,0,2.24959,0.01802,1.88823\F,0,3.58528,1.30172,0.61569\\V
 ersion=ES64L-G16RevC.01\State=1-A\HF=-447.8120909\RMSD=1.153e-02\Dipol
 e=0.0080702,0.0081195,-0.0012544\Quadrupole=1.4164743,0.2862549,-1.702
 7292,-2.7017177,0.8994377,-1.0418641\PG=C01 [X(B2F4)]\\@

 Normal termination of Gaussian 16 at Tue Apr  8 22:19:38 2025.
