 Gaussian 16, Revision C.01,

 ----------------------------------------------------------------------
 #t hf aug-cc-pvdz symm=none int=(grid=ultrafine) guess=(read,tcheck) s
 table=(opt,rrhf)
 ----------------------------------------------------------------------
 -----
 title
 -----
 Symbolic Z-matrix:
 Charge =  0 Multiplicity = 1

 SCF Done:  E(RHF) =  -894.817676841     A.U. after   12 cycles
 Normal termination of Gaussian 16 at Tue Apr  8 22:20:43 2025.
 Gaussian 16:  ES64L-G16RevC.01  3-Jul-2019

 ----------------------------------------------------------------------
 #t hf aug-cc-pvdz iop(5/13=1,5/36=2,99/5=2) pseudo=read geom=check gue
 ss=(read,tcheck) scf=(maxcycle=1)
 ----------------------------------------------------------------------
 -----
 title
 -----
 Structure from the checkpoint file:  "B-set_b2f4_b2f4_095_dimer_mol1.chk"
 Charge =  0 Multiplicity = 1

                         Standard orientation:
 ---------------------------------------------------------------------
 Center     Atomic      Atomic             Coordinates (Angstroms)
 Number     Number       Type             X           Y           Z
 ---------------------------------------------------------------------
      1          5           0        1.828672   -0.622195    0.479286
      2          5           0        1.576285    0.990991   -0.090012
      3          9           0        0.817975   -1.338653    0.938112
      4          9           0        3.013561   -1.185039    0.479963
      5          9           0        0.487700    1.660134    0.246981
      6          9           0        2.445914    1.603762   -0.856665
      7          5           0       -1.384371   -0.790754   -0.723702
      8          5           0       -1.991153    0.425089    0.338606
      9          9           0       -0.406219   -0.535168   -1.582232
     10          9           0       -1.877413   -2.008781   -0.743534
     11          9           0       -2.552630    1.519893   -0.130868
     12          9           0       -1.945240    0.282111    1.645921
 ---------------------------------------------------------------------

 SCF Done:  E(RHF) =  -895.623066467     A.U. after    2 cycles

 The electronic state is 1-A.
 Alpha  occ. eigenvalues --  -26.51282 -26.51260 -26.50910 -26.50676 -26.50593
 Alpha  occ. eigenvalues --  -26.49991 -26.49320 -26.49316  -7.74698  -7.74683
 Alpha  occ. eigenvalues --   -7.73952  -7.73286  -1.66594  -1.66261  -1.65891
 Alpha  occ. eigenvalues --   -1.64748  -1.62519  -1.62187  -1.61756  -1.60719
 Alpha  occ. eigenvalues --   -0.85850  -0.84741  -0.83335  -0.82093  -0.78639
 Alpha  occ. eigenvalues --   -0.78340  -0.77051  -0.76889  -0.76453  -0.75665
 Alpha  occ. eigenvalues --   -0.73618  -0.72024  -0.71249  -0.70752  -0.70322
 Alpha  occ. eigenvalues --   -0.69859  -0.66430  -0.66141  -0.65996  -0.65566
 Alpha  occ. eigenvalues --   -0.65000  -0.64859  -0.64537  -0.63785  -0.52869
 Alpha  occ. eigenvalues --   -0.51638
 Alpha virt. eigenvalues --    0.02738   0.03779   0.03946   0.04185   0.05209
 Alpha virt. eigenvalues --    0.06670   0.06979   0.07378   0.07711   0.07752
 Alpha virt. eigenvalues --    0.09200   0.09438   0.09738   0.10198   0.10863

 Mulliken charges:
               1
     1  B    1.244827
     2  B    1.361056
     3  F   -0.645121
     4  F   -0.617753
     5  F   -0.698205
     6  F   -0.672857
     7  B    1.394293
     8  B    1.430015
     9  F   -0.758222
    10  F   -0.685228
    11  F   -0.677991
    12  F   -0.674816
 Sum of Mulliken charges =  -0.00000

 Dipole moment (field-independent basis, Debye):
    X=              0.3551    Y=              0.0084    Z=              0.0527  Tot=              0.3591

 Test job not archived.
 1\1\GINC-SE252\SP\RHF\Aug-CC-pVDZ\B4F8\OHZDE\08-Apr-2025\0\\#t hf aug-
 cc-pvdz iop(5/13=1,5/36=2,99/5=2) pseudo=read geom=check guess=(read,t
 check) scf=(maxcycle=1)\\title\\0,1\B,0,1.91416,-0.63907,0.46973\B,0,1
 .67914,0.97528,-0.10369\F,0,0.89841,-1.33833,0.94368\F,0,3.09043,-1.21
 961,0.45886\F,0,0.60477,1.6621,0.24321\F,0,2.54863,1.57167,-0.88331\B,
 0,-1.31515358,-0.76455275,-0.69432625\B,0,-1.89099358,0.46476725,0.369
 69375\F,0,-0.34359358,-0.52732275,-1.56551625\F,0,-1.82654358,-1.97512
 275,-0.70290625\F,0,-2.44160358,1.56585725,-0.09794625\F,0,-1.83164358

 Normal termination of Gaussian 16 at Tue Apr  8 22:20:51 2025.
