 Gaussian 16, Revision C.01,

 ----------------------------------------------------------------------
 #t hf aug-cc-pvdz symm=none int=(grid=ultrafine) guess=(read,tcheck) s
 table=(opt,rrhf)
 ----------------------------------------------------------------------
 -----
 title
 -----
 Symbolic Z-matrix:
 Charge =  0 Multiplicity = 1

 SCF Done:  E(RHF) =  -736.593399662     A.U. after   11 cycles
 Normal termination of Gaussian 16 at Tue Apr  8 22:37:20 2025.
 Gaussian 16:  ES64L-G16RevC.01  3-Jul-2019

 ----------------------------------------------------------------------
 #t hf aug-cc-pvdz iop(5/13=1,5/36=2,99/5=2) pseudo=read geom=check gue
 ss=(read,tcheck) scf=(maxcycle=1)
 ----------------------------------------------------------------------
 -----
 title
 -----
 Structure from the checkpoint file:  "B-set_trimethylborate_trimethylborate_110_dimer_mol1.chk"
 Charge =  0 Multiplicity = 1

                         Standard orientation:
 ---------------------------------------------------------------------
 Center     Atomic      Atomic             Coordinates (Angstroms)
 Number     Number       Type             X           Y           Z
 ---------------------------------------------------------------------
      1          5           0        1.764071   -0.001137    0.000514
      2          8           0        1.765762   -1.340679    0.246177
      3          8           0        1.768793    0.881498    1.037629
      4          8           0        1.768689    0.455867   -1.282416
      5          6           0        1.705363   -1.834436    1.570645
      6          6           0        1.711145    2.275494    0.803044
      7          6           0        1.709876   -0.444169   -2.372342
      8          1           0        0.710847   -1.676774    1.989058
      9          1           0        1.912835   -2.901740    1.531085
     10          1           0        2.442245   -1.347776    2.209756
     11          1           0        1.923845    2.774631    1.746071
     12          1           0        2.445619    2.583510    0.058733
     13          1           0        0.715936    2.561505    0.461321
     14          1           0        1.914704    0.124388   -3.277033
     15          1           0        2.449210   -1.238874   -2.271544
     16          1           0        0.716672   -0.888361   -2.444277
     17          5           0       -1.764011    0.000955   -0.000516
     18          8           0       -1.768254   -0.880600   -1.038571
     19          8           0       -1.768139   -0.457179    1.282035
     20          8           0       -1.766512    1.340767   -0.244878
     21          6           0       -1.710146   -2.274807   -0.804996
     22          6           0       -1.709195    0.442268    2.372571
     23          6           0       -1.707344    1.836003   -1.568837
     24          1           0       -2.446669   -2.584045   -0.063234
     25          1           0       -1.919606   -2.773232   -1.749114
     26          1           0       -0.715757   -2.560326   -0.460474
     27          1           0       -1.914902   -0.126621    3.276863
     28          1           0       -0.715590    0.885500    2.445106
     29          1           0       -2.447849    1.237552    2.271702
     30          1           0       -0.712878    1.679911   -1.988021
     31          1           0       -2.443906    1.349124   -2.208138
     32          1           0       -1.915975    2.903028   -1.528157
 ---------------------------------------------------------------------

 SCF Done:  E(RHF) =  -737.345528888     A.U. after    2 cycles

 The electronic state is 1-A.
 Alpha  occ. eigenvalues --  -20.53693 -20.53693 -20.53691 -20.53690 -20.53690
 Alpha  occ. eigenvalues --  -20.53686 -11.27718 -11.27716 -11.27716 -11.27716
 Alpha  occ. eigenvalues --  -11.27715 -11.27714  -7.64732  -7.64728  -1.49553
 Alpha  occ. eigenvalues --   -1.49338  -1.44243  -1.44243  -1.44123  -1.44123
 Alpha  occ. eigenvalues --   -0.94658  -0.94465  -0.93382  -0.93380  -0.93228
 Alpha  occ. eigenvalues --   -0.93226  -0.73003  -0.72878  -0.69489  -0.69487
 Alpha  occ. eigenvalues --   -0.69265  -0.69262  -0.67128  -0.64851  -0.62181
 Alpha  occ. eigenvalues --   -0.62179  -0.61296  -0.61293  -0.60242  -0.60240
 Alpha  occ. eigenvalues --   -0.60181  -0.60180  -0.58373  -0.58330  -0.50263
 Alpha  occ. eigenvalues --   -0.49892  -0.49493  -0.49422  -0.47935  -0.47933
 Alpha  occ. eigenvalues --   -0.47904  -0.47900  -0.43821  -0.43816  -0.43577
 Alpha  occ. eigenvalues --   -0.43575
 Alpha virt. eigenvalues --    0.03366   0.03493   0.03495   0.03533   0.05417
 Alpha virt. eigenvalues --    0.05418   0.05527   0.05766   0.05768   0.07534
 Alpha virt. eigenvalues --    0.07537   0.07637   0.08101   0.08260   0.08261

 Mulliken charges:
               1
     1  B    3.097865
     2  O   -1.647717
     3  O   -1.644796
     4  O   -1.650845
     5  C    0.426799
     6  C    0.426179
     7  C    0.426021
     8  H    0.085081
     9  H   -0.019906
    10  H    0.124060
    11  H   -0.020020
    12  H    0.123842
    13  H    0.084489
    14  H   -0.020335
    15  H    0.124225
    16  H    0.085138
    17  B    3.097105
    18  O   -1.645689
    19  O   -1.649752
    20  O   -1.647364
    21  C    0.426652
    22  C    0.426460
    23  C    0.426082
    24  H    0.123514
    25  H   -0.020131
    26  H    0.084930
    27  H   -0.020268
    28  H    0.085217
    29  H    0.123562
    30  H    0.085739
    31  H    0.123784
    32  H   -0.019922
 Sum of Mulliken charges =  -0.00000

 Dipole moment (field-independent basis, Debye):
    X=             -0.0013    Y=              0.0006    Z=              0.0002  Tot=              0.0014

 Test job not archived.
 1\1\GINC-SE336\SP\RHF\Aug-CC-pVDZ\C6H18B2O6\OHZDE\08-Apr-2025\0\\#t hf
  aug-cc-pvdz iop(5/13=1,5/36=2,99/5=2) pseudo=read geom=check guess=(r
 ead,tcheck) scf=(maxcycle=1)\\title\\0,1\B,0,1.60824,0.00191,-0.00082\
 O,0,1.60915,1.34156,-0.2459\O,0,1.61322,-0.88027,-1.03832\O,0,1.61338,
 -0.45565,1.28191\C,0,1.5482,1.83586,-1.57014\C,0,1.55638,-2.2744,-0.80
 433\C,0,1.55431,0.44388,2.37224\H,0,0.55368,1.67784,-1.98841\H,0,1.755
 1,2.90326,-1.53016\H,0,2.28521,1.34988,-2.20962\H,0,1.76915,-2.77301,-
 1.74762\H,0,2.29118,-2.58234,-0.06031\H,0,0.5614,-2.5611,-0.46252\H,0,

 Normal termination of Gaussian 16 at Tue Apr  8 22:38:00 2025.
