 Gaussian 16, Revision C.01,

 ----------------------------------------------------------------------
 #t hf aug-cc-pvdz symm=none int=(grid=ultrafine) guess=(read,tcheck) s
 table=(opt,rrhf)
 ----------------------------------------------------------------------
 -----
 title
 -----
 Symbolic Z-matrix:
 Charge =  0 Multiplicity = 1

 SCF Done:  E(RHF) =  -463.681860936     A.U. after   15 cycles
 Normal termination of Gaussian 16 at Tue Apr  8 22:23:35 2025.
 Gaussian 16:  ES64L-G16RevC.01  3-Jul-2019

 ----------------------------------------------------------------------
 #t hf aug-cc-pvdz iop(5/13=1,5/36=2,99/5=2) pseudo=read geom=check gue
 ss=(read,tcheck) scf=(maxcycle=1)
 ----------------------------------------------------------------------
 -----
 title
 -----
 Structure from the checkpoint file:  "B-set_borabenzene_pyridine_100_dimer_mol1.chk"
 Charge =  0 Multiplicity = 1

                         Standard orientation:
 ---------------------------------------------------------------------
 Center     Atomic      Atomic             Coordinates (Angstroms)
 Number     Number       Type             X           Y           Z
 ---------------------------------------------------------------------
      1          6           0       -1.502471    1.234661    0.364100
      2          6           0       -2.890041    1.163900    0.350080
      3          6           0       -3.570351   -0.000030   -0.000050
      4          6           0       -2.889940   -1.163940   -0.350010
      5          6           0       -1.502310   -1.234709   -0.364150
      6          1           0       -4.652621   -0.000050   -0.000120
      7          1           0       -1.057551    2.174541    0.680870
      8          1           0       -3.477491    2.033730    0.625810
      9          1           0       -3.477370   -2.033660   -0.626120
     10          1           0       -1.057740   -2.174499   -0.681650
     11          5           0       -0.760721   -0.000009    0.000020
     12          6           0        1.469120   -1.092098    0.383680
     13          6           0        2.845000   -1.127048    0.387030
     14          6           0        3.550479    0.000012   -0.000180
     15          6           0        2.844899    1.127132   -0.387100
     16          6           0        1.469039    1.092102   -0.383430
     17          7           0        0.790169   -0.000009    0.000130
     18          1           0        4.631019    0.000013   -0.000290
     19          1           0        0.861850   -1.927049    0.697030
     20          1           0        3.350230   -2.027258    0.701930
     21          1           0        3.350029    2.027412   -0.701960
     22          1           0        0.861519    1.927031   -0.696350
 ---------------------------------------------------------------------

 SCF Done:  E(RHF) =  -464.161240762     A.U. after    2 cycles

 The electronic state is 1-A.
 Alpha  occ. eigenvalues --  -15.59878 -11.33570 -11.33568 -11.31454 -11.29242
 Alpha  occ. eigenvalues --  -11.29225 -11.19839 -11.19817 -11.17565 -11.16243
 Alpha  occ. eigenvalues --  -11.16199  -7.52605  -1.34526  -1.15469  -1.10076
 Alpha  occ. eigenvalues --   -1.06946  -0.96304  -0.93910  -0.93812  -0.89306
 Alpha  occ. eigenvalues --   -0.81829  -0.76411  -0.74697  -0.73253  -0.70618
 Alpha  occ. eigenvalues --   -0.67340  -0.66753  -0.64471  -0.62974  -0.58675
 Alpha  occ. eigenvalues --   -0.58303  -0.54767  -0.54554  -0.51975  -0.47377
 Alpha  occ. eigenvalues --   -0.46852  -0.43676  -0.41924  -0.40979  -0.29892
 Alpha  occ. eigenvalues --   -0.24566
 Alpha virt. eigenvalues --    0.01491   0.01963   0.02475   0.03235   0.04726
 Alpha virt. eigenvalues --    0.05178   0.05200   0.05619   0.06448   0.06483
 Alpha virt. eigenvalues --    0.06769   0.07063   0.08738   0.08905   0.10078

 Mulliken charges:
               1
     1  C    0.058381
     2  C    0.200777
     3  C   -0.138242
     4  C    0.200849
     5  C    0.058376
     6  H   -0.253258
     7  H   -0.362056
     8  H   -0.262443
     9  H   -0.262497
    10  H   -0.361940
    11  B    0.762889
    12  C   -0.674541
    13  C    0.818661
    14  C    0.026078
    15  C    0.818786
    16  C   -0.674978
    17  N    1.382761
    18  H   -0.173163
    19  H   -0.393515
    20  H   -0.188639
    21  H   -0.188608
    22  H   -0.393677
 Sum of Mulliken charges =   0.00000

 Dipole moment (field-independent basis, Debye):
    X=              9.3867    Y=              0.0004    Z=             -0.0004  Tot=              9.3867

 Test job not archived.
 1\1\GINC-SE457\SP\RHF\Aug-CC-pVDZ\C10H10B1N1\OHZDE\08-Apr-2025\0\\#t h
 f aug-cc-pvdz iop(5/13=1,5/36=2,99/5=2) pseudo=read geom=check guess=(
 read,tcheck) scf=(maxcycle=1)\\title\\0,1\C,0,1.50247,-1.23466,0.3641\
 C,0,2.89004,-1.1639,0.35008\C,0,3.57035,0.00003,-0.00005\C,0,2.88994,1
 .16394,-0.35001\C,0,1.50231,1.23471,-0.36415\H,0,4.65262,0.00005,-0.00
 012\H,0,1.05755,-2.17454,0.68087\H,0,3.47749,-2.03373,0.62581\H,0,3.47
 737,2.03366,-0.62612\H,0,1.05774,2.1745,-0.68165\B,0,0.76072,0.00001,0
 .00002\C,0,-1.46912,1.0921,0.38368\C,0,-2.845,1.12705,0.38703\C,0,-3.5

 Normal termination of Gaussian 16 at Tue Apr  8 22:23:49 2025.
