 Gaussian 16, Revision C.01,

 ----------------------------------------------------------------------
 #t hf aug-cc-pvdz symm=none int=(grid=ultrafine) guess=(read,tcheck) s
 table=(opt,rrhf)
 ----------------------------------------------------------------------
 -----
 title
 -----
 Symbolic Z-matrix:
 Charge =  0 Multiplicity = 1

 SCF Done:  E(RHF) =  -736.579197462     A.U. after   12 cycles
 Normal termination of Gaussian 16 at Tue Apr  8 22:37:25 2025.
 Gaussian 16:  ES64L-G16RevC.01  3-Jul-2019

 ----------------------------------------------------------------------
 #t hf aug-cc-pvdz iop(5/13=1,5/36=2,99/5=2) pseudo=read geom=check gue
 ss=(read,tcheck) scf=(maxcycle=1)
 ----------------------------------------------------------------------
 -----
 title
 -----
 Structure from the checkpoint file:  "B-set_trimethylborate_trimethylborate_090_dimer_mol1.chk"
 Charge =  0 Multiplicity = 1

                         Standard orientation:
 ---------------------------------------------------------------------
 Center     Atomic      Atomic             Coordinates (Angstroms)
 Number     Number       Type             X           Y           Z
 ---------------------------------------------------------------------
      1          5           0        1.452387   -0.007737    0.003149
      2          8           0        1.447340   -1.346131    0.254949
      3          8           0        1.459340    0.879617    1.036217
      4          8           0        1.461511    0.443347   -1.281850
      5          6           0        1.382186   -1.833514    1.581551
      6          6           0        1.408666    2.272777    0.795141
      7          6           0        1.400482   -0.461397   -2.367749
      8          1           0        0.387651   -1.669278    1.997384
      9          1           0        1.584720   -2.901949    1.547268
     10          1           0        2.120165   -1.347384    2.219797
     11          1           0        1.621969    2.775235    1.736266
     12          1           0        2.145946    2.573929    0.050796
     13          1           0        0.415441    2.561874    0.450259
     14          1           0        1.609641    0.102036   -3.274652
     15          1           0        2.135892   -1.259085   -2.261933
     16          1           0        0.405339   -0.901258   -2.439498
     17          5           0       -1.452328    0.007554   -0.003150
     18          8           0       -1.458795   -0.878726   -1.037162
     19          8           0       -1.460966   -0.444664    1.281476
     20          8           0       -1.448091    1.346228   -0.253653
     21          6           0       -1.407660   -2.272103   -0.797095
     22          6           0       -1.399810    0.459494    2.367988
     23          6           0       -1.384162    1.835099   -1.579754
     24          1           0       -2.146991   -2.574480   -0.055297
     25          1           0       -1.617718   -2.773870   -1.739308
     26          1           0       -0.415258   -2.560693   -0.449416
     27          1           0       -1.609850   -0.104268    3.274491
     28          1           0       -0.404272    0.898395    2.440342
     29          1           0       -2.134538    1.257758    2.262100
     30          1           0       -0.389670    1.672429   -1.996365
     31          1           0       -2.121822    1.348746   -2.218189
     32          1           0       -1.587859    2.903265   -1.544351
 ---------------------------------------------------------------------

 SCF Done:  E(RHF) =  -737.329855269     A.U. after    2 cycles

 The electronic state is 1-A.
 Alpha  occ. eigenvalues --  -20.53642 -20.53641 -20.53639 -20.53639 -20.53638
 Alpha  occ. eigenvalues --  -20.53636 -11.27354 -11.27352 -11.27351 -11.27347
 Alpha  occ. eigenvalues --  -11.27346 -11.27344  -7.64759  -7.64755  -1.49823
 Alpha  occ. eigenvalues --   -1.49174  -1.44485  -1.44485  -1.44012  -1.44011
 Alpha  occ. eigenvalues --   -0.94737  -0.94163  -0.93239  -0.93237  -0.93133
 Alpha  occ. eigenvalues --   -0.93131  -0.73286  -0.72670  -0.69752  -0.69751
 Alpha  occ. eigenvalues --   -0.69219  -0.69216  -0.68744  -0.63034  -0.62756
 Alpha  occ. eigenvalues --   -0.62752  -0.61172  -0.61165  -0.59841  -0.59840
 Alpha  occ. eigenvalues --   -0.59635  -0.59630  -0.58401  -0.58116  -0.50913
 Alpha  occ. eigenvalues --   -0.50226  -0.49043  -0.48618  -0.47954  -0.47952
 Alpha  occ. eigenvalues --   -0.47878  -0.47872  -0.43670  -0.43664  -0.43337
 Alpha  occ. eigenvalues --   -0.43336
 Alpha virt. eigenvalues --    0.03275   0.03467   0.03469   0.03533   0.05391
 Alpha virt. eigenvalues --    0.05392   0.05620   0.05910   0.05911   0.07615
 Alpha virt. eigenvalues --    0.07767   0.07770   0.08126   0.08420   0.08420

 Mulliken charges:
               1
     1  B    3.425557
     2  O   -1.765922
     3  O   -1.764991
     4  O   -1.770137
     5  C    0.401209
     6  C    0.401225
     7  C    0.401038
     8  H    0.164470
     9  H   -0.027601
    10  H    0.087742
    11  H   -0.027613
    12  H    0.087859
    13  H    0.163914
    14  H   -0.027895
    15  H    0.087851
    16  H    0.162898
    17  B    3.424741
    18  O   -1.764847
    19  O   -1.767988
    20  O   -1.766713
    21  C    0.401805
    22  C    0.401545
    23  C    0.400496
    24  H    0.086702
    25  H   -0.027765
    26  H    0.164609
    27  H   -0.027779
    28  H    0.163589
    29  H    0.086870
    30  H    0.165200
    31  H    0.087681
    32  H   -0.027749
 Sum of Mulliken charges =  -0.00000

 Dipole moment (field-independent basis, Debye):
    X=             -0.0018    Y=              0.0010    Z=              0.0003  Tot=              0.0021

 Test job not archived.
 1\1\GINC-SE038\SP\RHF\Aug-CC-pVDZ\C6H18B2O6\OHZDE\08-Apr-2025\0\\#t hf
  aug-cc-pvdz iop(5/13=1,5/36=2,99/5=2) pseudo=read geom=check guess=(r
 ead,tcheck) scf=(maxcycle=1)\\title\\0,1\B,0,1.60824,0.00191,-0.00082\
 O,0,1.60915,1.34156,-0.2459\O,0,1.61322,-0.88027,-1.03832\O,0,1.61338,
 -0.45565,1.28191\C,0,1.5482,1.83586,-1.57014\C,0,1.55638,-2.2744,-0.80
 433\C,0,1.55431,0.44388,2.37224\H,0,0.55368,1.67784,-1.98841\H,0,1.755
 1,2.90326,-1.53016\H,0,2.28521,1.34988,-2.20962\H,0,1.76915,-2.77301,-
 1.74762\H,0,2.29118,-2.58234,-0.06031\H,0,0.5614,-2.5611,-0.46252\H,0,

 Normal termination of Gaussian 16 at Tue Apr  8 22:38:07 2025.
