 Gaussian 16, Revision C.01,

 ----------------------------------------------------------------------
 #t hf aug-cc-pvdz symm=none int=(grid=ultrafine) guess=(read,tcheck) s
 table=(opt,rrhf)
 ----------------------------------------------------------------------
 -----
 title
 -----
 Symbolic Z-matrix:
 Charge =  0 Multiplicity = 1

 SCF Done:  E(RHF) =  -463.659882535     A.U. after   15 cycles
 Normal termination of Gaussian 16 at Tue Apr  8 22:24:55 2025.
 Gaussian 16:  ES64L-G16RevC.01  3-Jul-2019

 ----------------------------------------------------------------------
 #t hf aug-cc-pvdz iop(5/13=1,5/36=2,99/5=2) pseudo=read geom=check gue
 ss=(read,tcheck) scf=(maxcycle=1)
 ----------------------------------------------------------------------
 -----
 title
 -----
 Structure from the checkpoint file:  "B-set_borabenzene_pyridine_125_dimer_mol1.chk"
 Charge =  0 Multiplicity = 1

                         Standard orientation:
 ---------------------------------------------------------------------
 Center     Atomic      Atomic             Coordinates (Angstroms)
 Number     Number       Type             X           Y           Z
 ---------------------------------------------------------------------
      1          6           0       -1.701060    1.234662    0.364086
      2          6           0       -3.088630    1.163902    0.350066
      3          6           0       -3.768940   -0.000028   -0.000064
      4          6           0       -3.088530   -1.163938   -0.350024
      5          6           0       -1.700901   -1.234708   -0.364164
      6          1           0       -4.851210   -0.000047   -0.000134
      7          1           0       -1.256140    2.174542    0.680856
      8          1           0       -3.676080    2.033732    0.625796
      9          1           0       -3.675961   -2.033658   -0.626134
     10          1           0       -1.256331   -2.174498   -0.681664
     11          5           0       -0.959310   -0.000009    0.000006
     12          6           0        1.658252   -1.092099    0.383694
     13          6           0        3.034132   -1.127050    0.387044
     14          6           0        3.739612    0.000010   -0.000166
     15          6           0        3.034033    1.127130   -0.387086
     16          6           0        1.658173    1.092101   -0.383416
     17          7           0        0.979302   -0.000009    0.000144
     18          1           0        4.820152    0.000010   -0.000276
     19          1           0        1.050982   -1.927049    0.697044
     20          1           0        3.539362   -2.027260    0.701944
     21          1           0        3.539163    2.027410   -0.701946
     22          1           0        1.050653    1.927031   -0.696336
 ---------------------------------------------------------------------

 SCF Done:  E(RHF) =  -464.135028756     A.U. after    2 cycles

 The electronic state is 1-A.
 Alpha  occ. eigenvalues --  -15.58664 -11.32851 -11.32849 -11.30827 -11.28613
 Alpha  occ. eigenvalues --  -11.28599 -11.20633 -11.20612 -11.18278 -11.17487
 Alpha  occ. eigenvalues --  -11.17444  -7.56819  -1.32072  -1.14100  -1.09125
 Alpha  occ. eigenvalues --   -1.07730  -0.96828  -0.92819  -0.92016  -0.89561
 Alpha  occ. eigenvalues --   -0.79357  -0.76750  -0.73906  -0.71500  -0.70090
 Alpha  occ. eigenvalues --   -0.66559  -0.66067  -0.63536  -0.62353  -0.57957
 Alpha  occ. eigenvalues --   -0.56367  -0.55644  -0.55428  -0.52228  -0.47696
 Alpha  occ. eigenvalues --   -0.45998  -0.44492  -0.43122  -0.40316  -0.30597
 Alpha  occ. eigenvalues --   -0.25730
 Alpha virt. eigenvalues --    0.01694   0.02631   0.03157   0.03284   0.04683
 Alpha virt. eigenvalues --    0.05051   0.05327   0.05837   0.06464   0.06649
 Alpha virt. eigenvalues --    0.06850   0.07233   0.08655   0.09009   0.09958

 Mulliken charges:
               1
     1  C    0.154317
     2  C    0.125830
     3  C   -0.097673
     4  C    0.125859
     5  C    0.154279
     6  H   -0.243656
     7  H   -0.339145
     8  H   -0.252172
     9  H   -0.252227
    10  H   -0.339017
    11  B    0.836132
    12  C   -0.851941
    13  C    0.917940
    14  C    0.002603
    15  C    0.918083
    16  C   -0.852239
    17  N    1.287630
    18  H   -0.174314
    19  H   -0.374309
    20  H   -0.185778
    21  H   -0.185737
    22  H   -0.374465
 Sum of Mulliken charges =  -0.00000

 Dipole moment (field-independent basis, Debye):
    X=              8.7613    Y=              0.0004    Z=             -0.0005  Tot=              8.7613

 Test job not archived.
 1\1\GINC-SE043\SP\RHF\Aug-CC-pVDZ\C10H10B1N1\OHZDE\08-Apr-2025\0\\#t h
 f aug-cc-pvdz iop(5/13=1,5/36=2,99/5=2) pseudo=read geom=check guess=(
 read,tcheck) scf=(maxcycle=1)\\title\\0,1\C,0,1.50247,-1.23466,0.3641\
 C,0,2.89004,-1.1639,0.35008\C,0,3.57035,0.00003,-0.00005\C,0,2.88994,1
 .16394,-0.35001\C,0,1.50231,1.23471,-0.36415\H,0,4.65262,0.00005,-0.00
 012\H,0,1.05755,-2.17454,0.68087\H,0,3.47749,-2.03373,0.62581\H,0,3.47
 737,2.03366,-0.62612\H,0,1.05774,2.1745,-0.68165\B,0,0.76072,0.00001,0
 .00002\C,0,-1.8568425,1.0921,0.3837075\C,0,-3.2327225,1.12705,0.387057

 Normal termination of Gaussian 16 at Tue Apr  8 22:25:12 2025.
