 Gaussian 16, Revision C.01,

 ----------------------------------------------------------------------
 #t hf aug-cc-pvdz symm=none int=(grid=ultrafine) guess=(read,tcheck) s
 table=(opt,rrhf)
 ----------------------------------------------------------------------
 -----
 title
 -----
 Symbolic Z-matrix:
 Charge =  0 Multiplicity = 1

 SCF Done:  E(RHF) =  -447.406925031     A.U. after   11 cycles
 Normal termination of Gaussian 16 at Tue Apr  8 22:20:12 2025.
 Gaussian 16:  ES64L-G16RevC.01  3-Jul-2019

 ----------------------------------------------------------------------
 #t hf aug-cc-pvdz iop(5/13=1,5/36=2,99/5=2) pseudo=read geom=check gue
 ss=(read,tcheck) scf=(maxcycle=1)
 ----------------------------------------------------------------------
 -----
 title
 -----
 Structure from the checkpoint file:  "B-set_b2f4_b2f4_090_dimer_mol2.chk"
 Charge =  0 Multiplicity = 1

                         Standard orientation:
 ---------------------------------------------------------------------
 Center     Atomic      Atomic             Coordinates (Angstroms)
 Number     Number       Type             X           Y           Z
 ---------------------------------------------------------------------
      1          5           0       -0.864438   -0.010464   -0.001270
      2          5           0        0.864771   -0.010014   -0.003706
      3          9           0       -1.536909    1.112508   -0.180312
      4          9           0       -1.562143   -1.106676    0.178408
      5          9           0        1.536924    1.112567    0.181645
      6          9           0        1.561943   -1.107023   -0.176977
 ---------------------------------------------------------------------

 SCF Done:  E(RHF) =  -447.811778969     A.U. after    2 cycles

 The electronic state is 1-A.
 Alpha  occ. eigenvalues --  -26.49997 -26.49984 -26.49664 -26.49663  -7.73727
 Alpha  occ. eigenvalues --   -7.73721  -1.65412  -1.65082  -1.61321  -1.60960
 Alpha  occ. eigenvalues --   -0.84540  -0.82049  -0.77222  -0.76989  -0.75291
 Alpha  occ. eigenvalues --   -0.71792  -0.70565  -0.69468  -0.65126  -0.64847
 Alpha  occ. eigenvalues --   -0.64789  -0.63746  -0.51912
 Alpha virt. eigenvalues --    0.02717   0.04104   0.05500   0.05701   0.07479
 Alpha virt. eigenvalues --    0.07825   0.07879   0.07948   0.13933   0.20582
 Alpha virt. eigenvalues --    0.22443   0.23169   0.24895   0.25071   0.26518

 Mulliken charges:
               1
     1  B    1.110548
     2  B    1.112918
     3  F   -0.562545
     4  F   -0.549672
     5  F   -0.563055
     6  F   -0.548195
 Sum of Mulliken charges =  -0.00000

 Dipole moment (field-independent basis, Debye):
    X=              0.0023    Y=             -0.1204    Z=             -0.0165  Tot=              0.1215

 Test job not archived.
 1\1\GINC-SE343\SP\RHF\Aug-CC-pVDZ\B2F4\OHZDE\08-Apr-2025\0\\#t hf aug-
 cc-pvdz iop(5/13=1,5/36=2,99/5=2) pseudo=read geom=check guess=(read,t
 check) scf=(maxcycle=1)\\title\\0,1\B,0,1.91416,-0.63907,0.46973\B,0,1
 .67914,0.97528,-0.10369\F,0,0.89841,-1.33833,0.94368\F,0,3.09043,-1.21
 961,0.45886\F,0,0.60477,1.6621,0.24321\F,0,2.54863,1.57167,-0.88331\\V
 ersion=ES64L-G16RevC.01\State=1-A\HF=-447.811779\RMSD=1.106e-02\Dipole
 =0.0418216,-0.0011636,-0.0231395\Quadrupole=-0.994745,-1.4482699,2.443
 015,0.7180058,1.5618089,1.8458295\PG=C01 [X(B2F4)]\\@

 Normal termination of Gaussian 16 at Tue Apr  8 22:20:14 2025.
