 Gaussian 16, Revision C.01,

 ----------------------------------------------------------------------
 #t hf aug-cc-pvdz symm=none int=(grid=ultrafine) guess=(read,tcheck) s
 table=(opt,rrhf)
 ----------------------------------------------------------------------
 -----
 title
 -----
 Symbolic Z-matrix:
 Charge =  0 Multiplicity = 1

 SCF Done:  E(RHF) =  -502.486882469     A.U. after   11 cycles
 Normal termination of Gaussian 16 at Tue Apr  8 22:22:39 2025.
 Gaussian 16:  ES64L-G16RevC.01  3-Jul-2019

 ----------------------------------------------------------------------
 #t hf aug-cc-pvdz iop(5/13=1,5/36=2,99/5=2) pseudo=read geom=check gue
 ss=(read,tcheck) scf=(maxcycle=1)
 ----------------------------------------------------------------------
 -----
 title
 -----
 Structure from the checkpoint file:  "B-set_boricacid_boricacid_105_dimer_mol1.chk"
 Charge =  0 Multiplicity = 1

                         Standard orientation:
 ---------------------------------------------------------------------
 Center     Atomic      Atomic             Coordinates (Angstroms)
 Number     Number       Type             X           Y           Z
 ---------------------------------------------------------------------
      1          5           0        2.168614    0.026425   -0.000101
      2          8           0        3.525917   -0.122305    0.000459
      3          8           0        1.590610    1.244568   -0.000731
      4          8           0        1.400810   -1.123322   -0.000041
      5          1           0        3.984303    0.715689    0.000469
      6          1           0        0.621647    1.236305   -0.000481
      7          1           0        1.932478   -1.917470    0.000599
      8          5           0       -2.168576   -0.026382    0.000072
      9          8           0       -1.400862    1.123374    0.000412
     10          8           0       -3.525929    0.122218    0.000112
     11          8           0       -1.590582   -1.244536   -0.000298
     12          1           0       -1.932610    1.917483    0.000732
     13          1           0       -3.984105   -0.715887   -0.000098
     14          1           0       -0.621610   -1.236313   -0.000378
 ---------------------------------------------------------------------

 SCF Done:  E(RHF) =  -502.987515294     A.U. after    2 cycles

 The electronic state is 1-A.
 Alpha  occ. eigenvalues --  -20.56725 -20.56725 -20.55786 -20.55785 -20.54819
 Alpha  occ. eigenvalues --  -20.54819  -7.66857  -7.66844  -1.50456  -1.50152
 Alpha  occ. eigenvalues --   -1.45187  -1.44986  -1.44263  -1.44229  -0.79303
 Alpha  occ. eigenvalues --   -0.78520  -0.75246  -0.74967  -0.73721  -0.73382
 Alpha  occ. eigenvalues --   -0.60423  -0.59947  -0.59039  -0.57836  -0.56984
 Alpha  occ. eigenvalues --   -0.56724  -0.54674  -0.54541  -0.50700  -0.50463
 Alpha  occ. eigenvalues --   -0.49470  -0.49306
 Alpha virt. eigenvalues --    0.03871   0.03947   0.04379   0.04935   0.05740
 Alpha virt. eigenvalues --    0.06454   0.07113   0.08446   0.08846   0.08912
 Alpha virt. eigenvalues --    0.11850   0.11868   0.13092   0.13386   0.18899

 Mulliken charges:
               1
     1  B    1.839797
     2  O   -1.204403
     3  O   -1.141039
     4  O   -1.181379
     5  H    0.463367
     6  H    0.749864
     7  H    0.473773
     8  B    1.839736
     9  O   -1.181287
    10  O   -1.204465
    11  O   -1.141014
    12  H    0.473789
    13  H    0.463386
    14  H    0.749873
 Sum of Mulliken charges =  -0.00000

 Dipole moment (field-independent basis, Debye):
    X=              0.0008    Y=              0.0001    Z=              0.0016  Tot=              0.0018

 Test job not archived.
 1\1\GINC-SE339\SP\RHF\Aug-CC-pVDZ\B2H6O6\OHZDE\08-Apr-2025\0\\#t hf au
 g-cc-pvdz iop(5/13=1,5/36=2,99/5=2) pseudo=read geom=check guess=(read
 ,tcheck) scf=(maxcycle=1)\\title\\0,1\B,0,2.06504,0.02667,-0.0001\O,0,
 3.42239,-0.12163,0.00046\O,0,1.48665,1.24463,-0.00073\O,0,1.2976,-1.12
 332,-0.00004\H,0,3.88051,0.71651,0.00047\H,0,0.51769,1.23606,-0.00048\
 H,0,1.82952,-1.9173,0.0006\B,0,-2.27213343,-0.0275115,0.00007257\O,0,-
 1.50478343,1.1224885,0.00041257\O,0,-3.62953343,0.1206585,0.00011257\O
 ,0,-1.69375343,-1.2454815,-0.00029743\H,0,-2.03678343,1.9164285,0.0007

 Normal termination of Gaussian 16 at Tue Apr  8 22:22:43 2025.
