 Gaussian 16, Revision C.01,

 ----------------------------------------------------------------------
 #t hf aug-cc-pvdz symm=none int=(grid=ultrafine) guess=(read,tcheck) s
 table=(opt,rrhf)
 ----------------------------------------------------------------------
 -----
 title
 -----
 Symbolic Z-matrix:
 Charge =  0 Multiplicity = 1

 SCF Done:  E(RHF) =  -481.904854747     A.U. after   14 cycles
 Normal termination of Gaussian 16 at Tue Apr  8 22:26:33 2025.
 Gaussian 16:  ES64L-G16RevC.01  3-Jul-2019

 ----------------------------------------------------------------------
 #t hf aug-cc-pvdz iop(5/13=1,5/36=2,99/5=2) pseudo=read geom=check gue
 ss=(read,tcheck) scf=(maxcycle=1)
 ----------------------------------------------------------------------
 -----
 title
 -----
 Structure from the checkpoint file:  "B-set_phenylboronicacid_h2o_090_dimer_mol1.chk"
 Charge =  0 Multiplicity = 1

                         Standard orientation:
 ---------------------------------------------------------------------
 Center     Atomic      Atomic             Coordinates (Angstroms)
 Number     Number       Type             X           Y           Z
 ---------------------------------------------------------------------
      1          6           0       -1.182981    1.196739   -0.000034
      2          6           0       -2.568531    1.199775    0.000876
      3          6           0       -0.464517    0.000309   -0.000534
      4          1           0       -0.643619    2.134889   -0.000334
      5          6           0       -3.262647   -0.000927    0.001276
      6          1           0       -3.109019    2.136935    0.001236
      7          6           0       -1.181923   -1.196751   -0.000094
      8          5           0        1.101923    0.000963   -0.001534
      9          6           0       -2.567473   -1.201015    0.000766
     10          1           0       -4.344627   -0.001397    0.001956
     11          1           0       -0.641744   -2.134431   -0.000504
     12          8           0        1.758969    1.200177   -0.001964
     13          8           0        1.760147   -1.197613   -0.001874
     14          1           0       -3.107134   -2.138645    0.001066
     15          1           0        2.714314    1.106034   -0.002324
     16          1           0        2.715393   -1.101816   -0.002414
     17          8           0        3.897573   -0.001173    0.001991
     18          1           0        4.466663   -0.003844    0.770641
     19          1           0        4.475063   -0.002445   -0.760389
 ---------------------------------------------------------------------

 SCF Done:  E(RHF) =  -482.396788794     A.U. after    2 cycles

 The electronic state is 1-A.
 Alpha  occ. eigenvalues --  -20.62969 -20.51540 -20.51512 -11.22610 -11.21985
 Alpha  occ. eigenvalues --  -11.21965 -11.21897 -11.21859 -11.19328  -7.60896
 Alpha  occ. eigenvalues --   -1.53680  -1.44617  -1.40807  -1.13414  -0.99763
 Alpha  occ. eigenvalues --   -0.99670  -0.82308  -0.81369  -0.79596  -0.76372
 Alpha  occ. eigenvalues --   -0.72319  -0.69681  -0.67706  -0.61693  -0.61590
 Alpha  occ. eigenvalues --   -0.58487  -0.57855  -0.57709  -0.54109  -0.53196
 Alpha  occ. eigenvalues --   -0.48985  -0.48785  -0.47501  -0.45952  -0.45881
 Alpha  occ. eigenvalues --   -0.32629  -0.32563
 Alpha virt. eigenvalues --    0.01118   0.03890   0.04398   0.04500   0.05343
 Alpha virt. eigenvalues --    0.05512   0.07000   0.07108   0.08281   0.08575
 Alpha virt. eigenvalues --    0.09401   0.10609   0.10742   0.10922   0.12655

 Mulliken charges:
               1
     1  C   -0.053391
     2  C    0.357634
     3  C    0.712076
     4  H   -0.346032
     5  C    0.234612
     6  H   -0.225442
     7  C   -0.053776
     8  B    1.267997
     9  C    0.357917
    10  H   -0.226929
    11  H   -0.345966
    12  O   -1.449986
    13  O   -1.449883
    14  H   -0.225439
    15  H    0.845423
    16  H    0.849106
    17  O   -1.297987
    18  H    0.525082
    19  H    0.524985
 Sum of Mulliken charges =  -0.00000

 Dipole moment (field-independent basis, Debye):
    X=              6.0745    Y=             -0.0039    Z=              0.0114  Tot=              6.0746

 Test job not archived.
 1\1\GINC-SE334\SP\RHF\Aug-CC-pVDZ\C6H9B1O3\OHZDE\08-Apr-2025\0\\#t hf
 aug-cc-pvdz iop(5/13=1,5/36=2,99/5=2) pseudo=read geom=check guess=(re
 ad,tcheck) scf=(maxcycle=1)\\title\\0,1\C,0,1.25953,-1.19671,-0.0001\C
 ,0,2.64508,-1.19967,0.00081\C,0,0.541,-0.00032,-0.0006\H,0,0.72022,-2.
 13489,-0.0004\C,0,3.33913,0.00107,0.00121\H,0,3.18562,-2.1368,0.00117\
 C,0,1.25834,1.19678,-0.00016\B,0,-1.02544,-0.00106,-0.0016\C,0,2.64389
 ,1.20112,0.0007\H,0,4.42111,0.0016,0.00189\H,0,0.71811,2.13443,-0.0005
 7\O,0,-1.68242,-1.20031,-0.00203\O,0,-1.68373,1.19748,-0.00194\H,0,3.1

 Normal termination of Gaussian 16 at Tue Apr  8 22:26:43 2025.
