 Gaussian 16, Revision C.01,

 ----------------------------------------------------------------------
 #t hf aug-cc-pvdz symm=none int=(grid=ultrafine) guess=(read,tcheck) s
 table=(opt,rrhf)
 ----------------------------------------------------------------------
 -----
 title
 -----
 Symbolic Z-matrix:
 Charge =  0 Multiplicity = 1

 SCF Done:  E(RHF) =  -463.630115143     A.U. after   14 cycles
 Normal termination of Gaussian 16 at Tue Apr  8 22:24:16 2025.
 Gaussian 16:  ES64L-G16RevC.01  3-Jul-2019

 ----------------------------------------------------------------------
 #t hf aug-cc-pvdz iop(5/13=1,5/36=2,99/5=2) pseudo=read geom=check gue
 ss=(read,tcheck) scf=(maxcycle=1)
 ----------------------------------------------------------------------
 -----
 title
 -----
 Structure from the checkpoint file:  "B-set_borabenzene_pyridine_150_dimer_mol1.chk"
 Charge =  0 Multiplicity = 1

                         Standard orientation:
 ---------------------------------------------------------------------
 Center     Atomic      Atomic             Coordinates (Angstroms)
 Number     Number       Type             X           Y           Z
 ---------------------------------------------------------------------
      1          6           0       -1.899649    1.234663    0.364072
      2          6           0       -3.287219    1.163903    0.350052
      3          6           0       -3.967530   -0.000026   -0.000078
      4          6           0       -3.287121   -1.163937   -0.350038
      5          6           0       -1.899491   -1.234707   -0.364178
      6          1           0       -5.049800   -0.000045   -0.000148
      7          1           0       -1.454728    2.174542    0.680842
      8          1           0       -3.874668    2.033734    0.625782
      9          1           0       -3.874551   -2.033656   -0.626148
     10          1           0       -1.454921   -2.174498   -0.681678
     11          5           0       -1.157900   -0.000008   -0.000008
     12          6           0        1.847384   -1.092100    0.383707
     13          6           0        3.223264   -1.127051    0.387057
     14          6           0        3.928745    0.000009   -0.000153
     15          6           0        3.223166    1.127129   -0.387073
     16          6           0        1.847306    1.092100   -0.383403
     17          7           0        1.168435   -0.000010    0.000157
     18          1           0        5.009285    0.000008   -0.000263
     19          1           0        1.240114   -1.927050    0.697057
     20          1           0        3.728494   -2.027261    0.701957
     21          1           0        3.728297    2.027409   -0.701933
     22          1           0        1.239787    1.927030   -0.696323
 ---------------------------------------------------------------------

 SCF Done:  E(RHF) =  -464.103346944     A.U. after    2 cycles

 The electronic state is 1-A.
 Alpha  occ. eigenvalues --  -15.56210 -11.31527 -11.31523 -11.29686 -11.27603
 Alpha  occ. eigenvalues --  -11.27590 -11.21742 -11.21724 -11.19327 -11.19008
 Alpha  occ. eigenvalues --  -11.18966  -7.59738  -1.30035  -1.12712  -1.08842
 Alpha  occ. eigenvalues --   -1.07849  -0.97919  -0.91368  -0.90952  -0.90244
 Alpha  occ. eigenvalues --   -0.77748  -0.77663  -0.72568  -0.71834  -0.69124
 Alpha  occ. eigenvalues --   -0.66141  -0.64976  -0.63185  -0.60427  -0.56973
 Alpha  occ. eigenvalues --   -0.56728  -0.56472  -0.56068  -0.51266  -0.48528
 Alpha  occ. eigenvalues --   -0.45994  -0.44538  -0.43939  -0.39269  -0.31658
 Alpha  occ. eigenvalues --   -0.27011
 Alpha virt. eigenvalues --    0.02041   0.02901   0.03404   0.04244   0.04649
 Alpha virt. eigenvalues --    0.04772   0.05495   0.05984   0.06488   0.06522
 Alpha virt. eigenvalues --    0.07166   0.07842   0.08602   0.09132   0.09862

 Mulliken charges:
               1
     1  C    0.152255
     2  C    0.102366
     3  C   -0.030876
     4  C    0.102342
     5  C    0.152192
     6  H   -0.231704
     7  H   -0.319107
     8  H   -0.242849
     9  H   -0.242902
    10  H   -0.318977
    11  B    0.759349
    12  C   -0.939763
    13  C    0.933823
    14  C   -0.003443
    15  C    0.933925
    16  C   -0.939946
    17  N    1.365848
    18  H   -0.178194
    19  H   -0.341142
    20  H   -0.185973
    21  H   -0.185939
    22  H   -0.341285
 Sum of Mulliken charges =  -0.00000

 Dipole moment (field-independent basis, Debye):
    X=              7.4127    Y=              0.0004    Z=             -0.0006  Tot=              7.4127

 Test job not archived.
 1\1\GINC-SE105\SP\RHF\Aug-CC-pVDZ\C10H10B1N1\OHZDE\08-Apr-2025\0\\#t h
 f aug-cc-pvdz iop(5/13=1,5/36=2,99/5=2) pseudo=read geom=check guess=(
 read,tcheck) scf=(maxcycle=1)\\title\\0,1\C,0,1.50247,-1.23466,0.3641\
 C,0,2.89004,-1.1639,0.35008\C,0,3.57035,0.00003,-0.00005\C,0,2.88994,1
 .16394,-0.35001\C,0,1.50231,1.23471,-0.36415\H,0,4.65262,0.00005,-0.00
 012\H,0,1.05755,-2.17454,0.68087\H,0,3.47749,-2.03373,0.62581\H,0,3.47
 737,2.03366,-0.62612\H,0,1.05774,2.1745,-0.68165\B,0,0.76072,0.00001,0
 .00002\C,0,-2.244565,1.0921,0.383735\C,0,-3.620445,1.12705,0.387085\C,

 Normal termination of Gaussian 16 at Tue Apr  8 22:24:58 2025.
