 Gaussian 16, Revision C.01,

 ----------------------------------------------------------------------
 #t hf aug-cc-pvdz symm=none int=(grid=ultrafine) guess=(read,tcheck) s
 table=(opt,rrhf)
 ----------------------------------------------------------------------
 -----
 title
 -----
 Symbolic Z-matrix:
 Charge =  0 Multiplicity = 1

 SCF Done:  E(RHF) =  -251.237453702     A.U. after   11 cycles
 Normal termination of Gaussian 16 at Tue Apr  8 22:22:15 2025.
 Gaussian 16:  ES64L-G16RevC.01  3-Jul-2019

 ----------------------------------------------------------------------
 #t hf aug-cc-pvdz iop(5/13=1,5/36=2,99/5=2) pseudo=read geom=check gue
 ss=(read,tcheck) scf=(maxcycle=1)
 ----------------------------------------------------------------------
 -----
 title
 -----
 Structure from the checkpoint file:  "B-set_boricacid_benzene_090_dimer_mol2.chk"
 Charge =  0 Multiplicity = 1

                         Standard orientation:
 ---------------------------------------------------------------------
 Center     Atomic      Atomic             Coordinates (Angstroms)
 Number     Number       Type             X           Y           Z
 ---------------------------------------------------------------------
      1          5           0       -0.006289   -0.005286    0.000021
      2          8           0        0.386402    1.305369    0.000014
      3          8           0       -1.329377   -0.318317   -0.000053
      4          8           0        0.949332   -0.986127   -0.000012
      5          1           0       -0.355749    1.906580    0.000005
      6          1           0       -1.497055   -1.263348    0.000314
      7          1           0        1.833383   -0.624198   -0.000022
 ---------------------------------------------------------------------

 SCF Done:  E(RHF) =  -251.488080195     A.U. after    2 cycles

 The electronic state is 1-A.
 Alpha  occ. eigenvalues --  -20.55927 -20.55633 -20.55612  -7.66677  -1.50131
 Alpha  occ. eigenvalues --   -1.44765  -1.44421  -0.78623  -0.74221  -0.73909
 Alpha  occ. eigenvalues --   -0.60006  -0.56898  -0.56447  -0.55963  -0.49973
 Alpha  occ. eigenvalues --   -0.49709
 Alpha virt. eigenvalues --    0.03909   0.05066   0.05122   0.05457   0.07924
 Alpha virt. eigenvalues --    0.07963   0.10240   0.20140   0.20295   0.20407
 Alpha virt. eigenvalues --    0.21241   0.21445   0.23752   0.23811   0.24284

 Mulliken charges:
               1
     1  B    1.811143
     2  O   -1.058295
     3  O   -1.052033
     4  O   -1.063654
     5  H    0.453168
     6  H    0.454278
     7  H    0.455393
 Sum of Mulliken charges =  -0.00000

 Dipole moment (field-independent basis, Debye):
    X=             -0.1217    Y=             -0.0098    Z=              0.0007  Tot=              0.1221

 Test job not archived.
 1\1\GINC-SE015\SP\RHF\Aug-CC-pVDZ\B1H3O3\OHZDE\08-Apr-2025\0\\#t hf au
 g-cc-pvdz iop(5/13=1,5/36=2,99/5=2) pseudo=read geom=check guess=(read
 ,tcheck) scf=(maxcycle=1)\\title\\0,1\B,0,2.47525,0.1904,0.00446\O,0,3
 .75759,0.66722,0.02093\O,0,1.42772,1.05703,0.01798\O,0,2.26904,-1.1630
 5,-0.02572\H,0,3.78968,1.62157,0.04163\H,0,0.57273,0.62112,0.00482\H,0
 ,3.09084,-1.65002,-0.03224\\Version=ES64L-G16RevC.01\State=1-A\HF=-251
 .4880802\RMSD=9.666e-03\Dipole=-0.0319436,0.0358507,0.0008939\Quadrupo
 le=0.7708423,0.4989382,-1.2697805,-0.0940513,0.0066597,0.0378811\PG=C0

 Normal termination of Gaussian 16 at Tue Apr  8 22:22:18 2025.
