 Gaussian 16, Revision C.01,

 ----------------------------------------------------------------------
 #t hf aug-cc-pvdz symm=none int=(grid=ultrafine) guess=(read,tcheck) s
 table=(opt,rrhf)
 ----------------------------------------------------------------------
 -----
 title
 -----
 Symbolic Z-matrix:
 Charge =  0 Multiplicity = 1

 SCF Done:  E(RHF) =  -360.418895057     A.U. after   15 cycles

 1\1\GINC-SE090\Stability\RHF\Aug-CC-pVDZ\C8H14B2\OHZDE\08-Apr-2025\0\\
 #t hf aug-cc-pvdz symm=none int=(grid=ultrafine) guess=(read,tcheck) s
 table=(opt,rrhf)\\title\\0,1\B,0,-1.44421,-0.34378,-1.38976\C,0,-1.353
 82,1.11975,-0.80607\C,0,-2.20691,-1.16484,-0.27513\H,0,-1.05979,-0.732
 25,-2.44825\C,0,-1.96773,1.08262,0.37927\H,0,-0.92918,2.01911,-1.22576
 \C,0,-2.47978,-0.29789,0.7014\H,0,-2.48296,-2.20807,-0.24206\H,0,-2.10
 422,1.91644,1.05668\H,0,-2.99941,-0.51278,1.627\B,0,0.94166383,1.06902
 139,0.82932863\C,0,0.69482383,-0.40857861,1.29167863\C,0,1.77662383,1.

 Normal termination of Gaussian 16 at Tue Apr  8 22:26:45 2025.
 Gaussian 16:  ES64L-G16RevC.01  3-Jul-2019

 ----------------------------------------------------------------------
 #t hf aug-cc-pvdz iop(5/13=1,5/36=2,99/5=2) pseudo=read geom=check gue
 ss=(read,tcheck) scf=(maxcycle=1)
 ----------------------------------------------------------------------
 -----
 title
 -----
 Structure from the checkpoint file:  "B-set_borole_borolane_090_dimer_mol1.chk"
 Charge =  0 Multiplicity = 1

                         Standard orientation:
 ---------------------------------------------------------------------
 Center     Atomic      Atomic             Coordinates (Angstroms)
 Number     Number       Type             X           Y           Z
 ---------------------------------------------------------------------
      1          5           0       -1.208343   -0.365071   -1.402098
      2          6           0       -1.115325    1.109618   -0.847640
      3          6           0       -2.024285   -1.148969   -0.298471
      4          1           0       -0.792154   -0.783125   -2.437041
      5          6           0       -1.772370    1.108638    0.314938
      6          1           0       -0.661117    1.992634   -1.271060
      7          6           0       -2.318230   -0.256184    0.648208
      8          1           0       -2.318338   -2.186787   -0.252727
      9          1           0       -1.919729    1.959475    0.968491
     10          1           0       -2.874544   -0.442152    1.558625
     11          5           0        1.118166    1.060030    0.871489
     12          6           0        0.830634   -0.402810    1.356693
     13          6           0        1.999978    0.965106   -0.428283
     14          1           0        0.788873    2.066155    1.425923
     15          1           0        1.542110   -0.581407    2.177270
     16          1           0       -0.157348   -0.607103    1.768272
     17          6           0        1.209385   -1.273918    0.150929
     18          6           0        2.357188   -0.529603   -0.540922
     19          1           0        1.364338    1.266012   -1.269853
     20          1           0        2.860340    1.634850   -0.460590
     21          1           0        0.353462   -1.336627   -0.533988
     22          1           0        1.464912   -2.301393    0.410499
     23          1           0        2.513037   -0.863455   -1.566614
     24          1           0        3.285187   -0.723137    0.003126
 ---------------------------------------------------------------------

 SCF Done:  E(RHF) =  -360.806498864     A.U. after    2 cycles

 The electronic state is 1-A.
 Alpha  occ. eigenvalues --  -11.26189 -11.25482 -11.22334 -11.21817 -11.21373
 Alpha  occ. eigenvalues --  -11.21318 -11.19217 -11.19188  -7.60002  -7.56934
 Alpha  occ. eigenvalues --   -1.13004  -1.08879  -0.98038  -0.95065  -0.88448
 Alpha  occ. eigenvalues --   -0.85152  -0.77476  -0.72233  -0.71420  -0.66783
 Alpha  occ. eigenvalues --   -0.65984  -0.63052  -0.61418  -0.58682  -0.56800
 Alpha  occ. eigenvalues --   -0.53605  -0.51591  -0.48358  -0.48088  -0.47755
 Alpha  occ. eigenvalues --   -0.47297  -0.46708  -0.44820  -0.44709  -0.43036
 Alpha  occ. eigenvalues --   -0.32940
 Alpha virt. eigenvalues --    0.02415   0.02816   0.03049   0.03216   0.03543
 Alpha virt. eigenvalues --    0.05046   0.05131   0.05278   0.05569   0.05653
 Alpha virt. eigenvalues --    0.07874   0.08069   0.08136   0.08556   0.08881

 Mulliken charges:
               1
     1  B    0.181548
     2  C    0.069044
     3  C   -0.013206
     4  H    0.256616
     5  C    0.129309
     6  H   -0.280171
     7  C    0.246147
     8  H   -0.267714
     9  H   -0.184747
    10  H   -0.226238
    11  B    0.289403
    12  C   -0.080919
    13  C   -0.127335
    14  H    0.140324
    15  H    0.062350
    16  H    0.133875
    17  C   -0.355991
    18  C   -0.362778
    19  H    0.132202
    20  H   -0.030551
    21  H    0.027510
    22  H    0.063670
    23  H    0.084772
    24  H    0.112881
 Sum of Mulliken charges =  -0.00000

 Dipole moment (field-independent basis, Debye):
    X=             -0.4549    Y=             -0.0469    Z=              0.7058  Tot=              0.8410

 Test job not archived.
 1\1\GINC-SE090\SP\RHF\Aug-CC-pVDZ\C8H14B2\OHZDE\08-Apr-2025\0\\#t hf a
 ug-cc-pvdz iop(5/13=1,5/36=2,99/5=2) pseudo=read geom=check guess=(rea
 d,tcheck) scf=(maxcycle=1)\\title\\0,1\B,0,-1.44421,-0.34378,-1.38976\
 C,0,-1.35382,1.11975,-0.80607\C,0,-2.20691,-1.16484,-0.27513\H,0,-1.05
 979,-0.73225,-2.44825\C,0,-1.96773,1.08262,0.37927\H,0,-0.92918,2.0191
 1,-1.22576\C,0,-2.47978,-0.29789,0.7014\H,0,-2.48296,-2.20807,-0.24206
 \H,0,-2.10422,1.91644,1.05668\H,0,-2.99941,-0.51278,1.627\B,0,0.941663
 83,1.06902139,0.82932863\C,0,0.69482383,-0.40857861,1.29167863\C,0,1.7

 Normal termination of Gaussian 16 at Tue Apr  8 22:27:02 2025.
