 Gaussian 16, Revision C.01,

 ----------------------------------------------------------------------
 #t hf aug-cc-pvdz symm=none int=(grid=ultrafine) guess=(read,tcheck) s
 table=(opt,rrhf)
 ----------------------------------------------------------------------
 -----
 title
 -----
 Symbolic Z-matrix:
 Charge =  0 Multiplicity = 1

 SCF Done:  E(RHF) =  -143.472847509     A.U. after   11 cycles
 Normal termination of Gaussian 16 at Tue Apr  8 22:23:21 2025.
 Gaussian 16:  ES64L-G16RevC.01  3-Jul-2019

 ----------------------------------------------------------------------
 #t hf aug-cc-pvdz iop(5/13=1,5/36=2,99/5=2) pseudo=read geom=check gue
 ss=(read,tcheck) scf=(maxcycle=1)
 ----------------------------------------------------------------------
 -----
 title
 -----
 Structure from the checkpoint file:  "B-set_borirane_methane_105_dimer_mol1.chk"
 Charge =  0 Multiplicity = 1

                         Standard orientation:
 ---------------------------------------------------------------------
 Center     Atomic      Atomic             Coordinates (Angstroms)
 Number     Number       Type             X           Y           Z
 ---------------------------------------------------------------------
      1          5           0       -0.762578   -0.000425    0.936843
      2          6           0       -1.243808   -0.772063   -0.288531
      3          6           0       -1.243275    0.772437   -0.287968
      4          1           0       -0.357106   -0.000898    2.046480
      5          1           0       -2.204816   -1.272996   -0.267236
      6          1           0       -0.526578   -1.270185   -0.929976
      7          1           0       -2.203988    1.273924   -0.266137
      8          1           0       -0.525839    1.270595   -0.929158
      9          6           0        2.454837   -0.000056   -0.087994
     10          1           0        2.066286   -0.890915    0.402142
     11          1           0        3.540221   -0.000363   -0.023417
     12          1           0        2.151432    0.000337   -1.132628
     13          1           0        2.066758    0.890725    0.402674
 ---------------------------------------------------------------------

 SCF Done:  E(RHF) =  -143.634788818     A.U. after    2 cycles

 The electronic state is 1-A.
 Alpha  occ. eigenvalues --  -11.22452 -11.21252 -11.21127  -7.60147  -1.06402
 Alpha  occ. eigenvalues --   -0.95327  -0.81397  -0.67172  -0.62602  -0.59723
 Alpha  occ. eigenvalues --   -0.55798  -0.55679  -0.55432  -0.51004  -0.41466
 Alpha  occ. eigenvalues --   -0.38880
 Alpha virt. eigenvalues --    0.03297   0.03655   0.04140   0.04200   0.05910
 Alpha virt. eigenvalues --    0.06526   0.06743   0.07411   0.08988   0.09216
 Alpha virt. eigenvalues --    0.10093   0.10978   0.12033   0.13810   0.14765

 Mulliken charges:
               1
     1  B   -0.294834
     2  C    0.018354
     3  C    0.018362
     4  H    0.436775
     5  H   -0.068894
     6  H   -0.036801
     7  H   -0.068875
     8  H   -0.036755
     9  C   -0.338039
    10  H    0.132171
    11  H    0.012972
    12  H    0.093345
    13  H    0.132219
 Sum of Mulliken charges =   0.00000

 Dipole moment (field-independent basis, Debye):
    X=              0.1464    Y=              0.0001    Z=             -0.0501  Tot=              0.1547

 Test job not archived.
 1\1\GINC-SE080\SP\RHF\Aug-CC-pVDZ\C3H9B1\OHZDE\08-Apr-2025\0\\#t hf au
 g-cc-pvdz iop(5/13=1,5/36=2,99/5=2) pseudo=read geom=check guess=(read
 ,tcheck) scf=(maxcycle=1)\\title\\0,1\B,0,0.70593,0.00043,0.93795\C,0,
 1.19139,0.77206,-0.28576\C,0,1.19085,-0.77244,-0.28519\H,0,0.29663,0.0
 0091,2.04618\H,0,2.15232,1.27299,-0.26115\H,0,0.47638,1.27018,-0.92968
 \H,0,2.15148,-1.27393,-0.26004\H,0,0.47563,-1.2706,-0.92885\C,0,-2.507
 92831,0.0000654,-0.09798833\H,0,-2.12106831,0.8909254,0.39348167\H,0,-
 3.59352831,0.0003754,-0.03715832\H,0,-2.20091831,-0.0003346,-1.1415683

 Normal termination of Gaussian 16 at Tue Apr  8 22:23:24 2025.
