 Gaussian 16, Revision C.01,

 ----------------------------------------------------------------------
 #t hf aug-cc-pvdz symm=none int=(grid=ultrafine) guess=(read,tcheck) s
 table=(opt,rrhf)
 ----------------------------------------------------------------------
 -----
 title
 -----
 Symbolic Z-matrix:
 Charge =  0 Multiplicity = 1

 SCF Done:  E(RHF) =  -463.677337953     A.U. after   16 cycles
 Normal termination of Gaussian 16 at Tue Apr  8 22:23:35 2025.
 Gaussian 16:  ES64L-G16RevC.01  3-Jul-2019

 ----------------------------------------------------------------------
 #t hf aug-cc-pvdz iop(5/13=1,5/36=2,99/5=2) pseudo=read geom=check gue
 ss=(read,tcheck) scf=(maxcycle=1)
 ----------------------------------------------------------------------
 -----
 title
 -----
 Structure from the checkpoint file:  "B-set_borabenzene_pyridine_095_dimer_mol1.chk"
 Charge =  0 Multiplicity = 1

                         Standard orientation:
 ---------------------------------------------------------------------
 Center     Atomic      Atomic             Coordinates (Angstroms)
 Number     Number       Type             X           Y           Z
 ---------------------------------------------------------------------
      1          6           0       -1.462753    1.234661    0.364103
      2          6           0       -2.850323    1.163900    0.350083
      3          6           0       -3.530633   -0.000030   -0.000047
      4          6           0       -2.850222   -1.163940   -0.350007
      5          6           0       -1.462592   -1.234709   -0.364147
      6          1           0       -4.612903   -0.000051   -0.000117
      7          1           0       -1.017834    2.174541    0.680873
      8          1           0       -3.437774    2.033730    0.625813
      9          1           0       -3.437652   -2.033660   -0.626117
     10          1           0       -1.018022   -2.174499   -0.681647
     11          5           0       -0.721003   -0.000009    0.000023
     12          6           0        1.431293   -1.092098    0.383678
     13          6           0        2.807173   -1.127047    0.387028
     14          6           0        3.512653    0.000013   -0.000182
     15          6           0        2.807072    1.127133   -0.387102
     16          6           0        1.431212    1.092102   -0.383432
     17          7           0        0.752343   -0.000008    0.000128
     18          1           0        4.593193    0.000013   -0.000292
     19          1           0        0.824024   -1.927048    0.697028
     20          1           0        3.312404   -2.027257    0.701928
     21          1           0        3.312202    2.027413   -0.701962
     22          1           0        0.823692    1.927032   -0.696352
 ---------------------------------------------------------------------

 SCF Done:  E(RHF) =  -464.157727429     A.U. after    2 cycles

 The electronic state is 1-A.
 Alpha  occ. eigenvalues --  -15.59735 -11.33534 -11.33533 -11.31417 -11.29256
 Alpha  occ. eigenvalues --  -11.29238 -11.19778 -11.19756 -11.17534 -11.16106
 Alpha  occ. eigenvalues --  -11.16063  -7.51723  -1.35117  -1.15719  -1.10169
 Alpha  occ. eigenvalues --   -1.06896  -0.96381  -0.94354  -0.94008  -0.89399
 Alpha  occ. eigenvalues --   -0.82415  -0.76521  -0.74709  -0.73691  -0.70645
 Alpha  occ. eigenvalues --   -0.67401  -0.66774  -0.64920  -0.62927  -0.58721
 Alpha  occ. eigenvalues --   -0.58597  -0.54655  -0.54462  -0.51923  -0.47632
 Alpha  occ. eigenvalues --   -0.46777  -0.43580  -0.41714  -0.40998  -0.29858
 Alpha  occ. eigenvalues --   -0.24371
 Alpha virt. eigenvalues --    0.01494   0.01758   0.02477   0.03246   0.04718
 Alpha virt. eigenvalues --    0.05154   0.05199   0.05595   0.06457   0.06477
 Alpha virt. eigenvalues --    0.06783   0.07055   0.08748   0.08894   0.10099

 Mulliken charges:
               1
     1  C    0.006268
     2  C    0.233117
     3  C   -0.144009
     4  C    0.233183
     5  C    0.006278
     6  H   -0.254449
     7  H   -0.367018
     8  H   -0.264004
     9  H   -0.264056
    10  H   -0.366908
    11  B    0.746877
    12  C   -0.634825
    13  C    0.784064
    14  C    0.034794
    15  C    0.784169
    16  C   -0.635278
    17  N    1.451617
    18  H   -0.173657
    19  H   -0.398278
    20  H   -0.189739
    21  H   -0.189712
    22  H   -0.398434
 Sum of Mulliken charges =  -0.00000

 Dipole moment (field-independent basis, Debye):
    X=              9.3152    Y=              0.0004    Z=             -0.0004  Tot=              9.3152

 Test job not archived.
 1\1\GINC-SE455\SP\RHF\Aug-CC-pVDZ\C10H10B1N1\OHZDE\08-Apr-2025\0\\#t h
 f aug-cc-pvdz iop(5/13=1,5/36=2,99/5=2) pseudo=read geom=check guess=(
 read,tcheck) scf=(maxcycle=1)\\title\\0,1\C,0,1.50247,-1.23466,0.3641\
 C,0,2.89004,-1.1639,0.35008\C,0,3.57035,0.00003,-0.00005\C,0,2.88994,1
 .16394,-0.35001\C,0,1.50231,1.23471,-0.36415\H,0,4.65262,0.00005,-0.00
 012\H,0,1.05755,-2.17454,0.68087\H,0,3.47749,-2.03373,0.62581\H,0,3.47
 737,2.03366,-0.62612\H,0,1.05774,2.1745,-0.68165\B,0,0.76072,0.00001,0
 .00002\C,0,-1.3915755,1.0921,0.3836745\C,0,-2.7674555,1.12705,0.387024

 Normal termination of Gaussian 16 at Tue Apr  8 22:23:50 2025.
