 Gaussian 16, Revision C.01,

 ----------------------------------------------------------------------
 #t hf aug-cc-pvdz symm=none int=(grid=ultrafine) guess=(read,tcheck) s
 table=(opt,rrhf)
 ----------------------------------------------------------------------
 -----
 title
 -----
 Symbolic Z-matrix:
 Charge =  0 Multiplicity = 1

 SCF Done:  E(RHF) =  -2334.96754630     A.U. after   12 cycles

 1\1\GINC-SE247\Stability\RHF\Aug-CC-pVDZ\B4Cl4F4\OHZDE\08-Apr-2025\0\\
 #t hf aug-cc-pvdz symm=none int=(grid=ultrafine) guess=(read,tcheck) s
 table=(opt,rrhf)\\title\\0,1\B,0,-1.57438,-0.71073,0.17185\B,0,-1.4340
 6,0.93593,-0.18667\Cl,0,-2.09565,-1.82193,-1.067\Cl,0,-1.25402,-1.2836
 8,1.78589\Cl,0,-2.80515,1.98794,0.03394\Cl,0,0.06371,1.62548,-0.79315\
 B,0,2.18498758,-0.67899292,-0.67457433\B,0,2.56424758,0.29046708,0.704
 77567\F,0,1.29507758,-1.65034292,-0.60478433\F,0,2.77138758,-0.4858829
 2,-1.83549433\F,0,2.04484758,0.03472708,1.88694567\F,0,3.38053758,1.31

 Normal termination of Gaussian 16 at Tue Apr  8 22:20:22 2025.
 Gaussian 16:  ES64L-G16RevC.01  3-Jul-2019

 ----------------------------------------------------------------------
 #t hf aug-cc-pvdz iop(5/13=1,5/36=2,99/5=2) pseudo=read geom=check gue
 ss=(read,tcheck) scf=(maxcycle=1)
 ----------------------------------------------------------------------
 -----
 title
 -----
 Structure from the checkpoint file:  "B-set_b2f4_b2cl4_095_dimer_mol1.chk"
 Charge =  0 Multiplicity = 1

                         Standard orientation:
 ---------------------------------------------------------------------
 Center     Atomic      Atomic             Coordinates (Angstroms)
 Number     Number       Type             X           Y           Z
 ---------------------------------------------------------------------
      1          5           0       -1.508012   -0.696779    0.171357
      2          5           0       -1.345410    0.947744   -0.187557
      3         17           0       -2.043112   -1.801305   -1.067566
      4         17           0       -1.196612   -1.273448    1.785826
      5         17           0       -2.702488    2.018058    0.031643
      6         17           0        0.161922    1.617019   -0.793061
      7          5           0        2.252111   -0.715566   -0.672097
      8          5           0        2.643208    0.249176    0.707256
      9          9           0        1.349241   -1.674911   -0.602714
     10          9           0        2.841955   -0.530680   -1.832610
     11          9           0        2.119504    0.000776    1.889093
     12          9           0        3.473237    1.266104    0.617218
 ---------------------------------------------------------------------

 SCF Done:  E(RHF) =  -2335.71663977     A.U. after    2 cycles

 The electronic state is 1-A.
 Alpha  occ. eigenvalues -- -105.61074-105.60163-105.59301-105.59269 -26.49906
 Alpha  occ. eigenvalues --  -26.49523 -26.49475 -26.49418 -10.66129 -10.65190
 Alpha  occ. eigenvalues --  -10.64338 -10.64297  -7.83016  -7.82736  -7.82705
 Alpha  occ. eigenvalues --   -7.82086  -7.81798  -7.81749  -7.81232  -7.81196
 Alpha  occ. eigenvalues --   -7.80940  -7.80911  -7.80894  -7.80861  -7.73374
 Alpha  occ. eigenvalues --   -7.73234  -7.73195  -7.72429  -1.65262  -1.64808
 Alpha  occ. eigenvalues --   -1.61191  -1.60725  -1.14415  -1.12440  -1.08844
 Alpha  occ. eigenvalues --   -1.07652  -0.84374  -0.81863  -0.77312  -0.77038
 Alpha  occ. eigenvalues --   -0.76843  -0.75009  -0.71949  -0.70436  -0.69232
 Alpha  occ. eigenvalues --   -0.68750  -0.65229  -0.64715  -0.64642  -0.63516
 Alpha  occ. eigenvalues --   -0.62352  -0.61545  -0.60718  -0.55524  -0.54122
 Alpha  occ. eigenvalues --   -0.53733  -0.51831  -0.50584  -0.49187  -0.48950
 Alpha  occ. eigenvalues --   -0.48200  -0.44868
 Alpha virt. eigenvalues --    0.03240   0.03943   0.03977   0.04225   0.04441
 Alpha virt. eigenvalues --    0.04996   0.05980   0.06466   0.06618   0.07066
 Alpha virt. eigenvalues --    0.07225   0.07726   0.08993   0.09142   0.09596

 Mulliken charges:
               1
     1  B    0.720288
     2  B    0.551781
     3  Cl  -0.358506
     4  Cl  -0.333589
     5  Cl  -0.323453
     6  Cl  -0.302402
     7  B    1.287029
     8  B    1.390964
     9  F   -0.692404
    10  F   -0.675741
    11  F   -0.617350
    12  F   -0.646617
 Sum of Mulliken charges =  -0.00000

 Dipole moment (field-independent basis, Debye):
    X=             -0.4386    Y=              0.0553    Z=              0.0083  Tot=              0.4422

 Test job not archived.
 1\1\GINC-SE247\SP\RHF\Aug-CC-pVDZ\B4Cl4F4\OHZDE\08-Apr-2025\0\\#t hf a
 ug-cc-pvdz iop(5/13=1,5/36=2,99/5=2) pseudo=read geom=check guess=(rea
 d,tcheck) scf=(maxcycle=1)\\title\\0,1\B,0,-1.57438,-0.71073,0.17185\B
 ,0,-1.43406,0.93593,-0.18667\Cl,0,-2.09565,-1.82193,-1.067\Cl,0,-1.254
 02,-1.28368,1.78589\Cl,0,-2.80515,1.98794,0.03394\Cl,0,0.06371,1.62548
 ,-0.79315\B,0,2.18498758,-0.67899292,-0.67457433\B,0,2.56424758,0.2904
 6708,0.70477567\F,0,1.29507758,-1.65034292,-0.60478433\F,0,2.77138758,
 -0.48588292,-1.83549433\F,0,2.04484758,0.03472708,1.88694567\F,0,3.380

 Normal termination of Gaussian 16 at Tue Apr  8 22:20:33 2025.
