 Gaussian 16, Revision C.01,

 ----------------------------------------------------------------------
 #t hf aug-cc-pvdz symm=none int=(grid=ultrafine) guess=(read,tcheck) s
 table=(opt,rrhf)
 ----------------------------------------------------------------------
 -----
 title
 -----
 Symbolic Z-matrix:
 Charge =  0 Multiplicity = 1

 SCF Done:  E(RHF) =  -219.226194134     A.U. after   13 cycles
 Normal termination of Gaussian 16 at Tue Apr  8 22:25:04 2025.
 Gaussian 16:  ES64L-G16RevC.01  3-Jul-2019

 ----------------------------------------------------------------------
 #t hf aug-cc-pvdz iop(5/13=1,5/36=2,99/5=2) pseudo=read geom=check gue
 ss=(read,tcheck) scf=(maxcycle=1)
 ----------------------------------------------------------------------
 -----
 title
 -----
 Structure from the checkpoint file:  "B-set_borole_methane_100_dimer_mol1.chk"
 Charge =  0 Multiplicity = 1

                         Standard orientation:
 ---------------------------------------------------------------------
 Center     Atomic      Atomic             Coordinates (Angstroms)
 Number     Number       Type             X           Y           Z
 ---------------------------------------------------------------------
      1          5           0       -0.065129   -0.163800    1.201798
      2          6           0       -0.741701   -1.267199    0.295678
      3          6           0       -0.448158    1.204300    0.511938
      4          1           0        0.547830   -0.325441    2.210558
      5          6           0       -1.397320   -0.605669   -0.659482
      6          1           0       -0.741162   -2.343249    0.384298
      7          6           0       -1.219128    0.887491   -0.529392
      8          1           0       -0.195537    2.218800    0.781428
      9          1           0       -1.995770   -1.042698   -1.449672
     10          1           0       -1.680728    1.580212   -1.222512
     11          6           0        2.722671   -0.058053   -0.443032
     12          1           0        3.648470   -0.548104   -0.736092
     13          1           0        2.694022    0.950107   -0.848552
     14          1           0        1.876830   -0.625552   -0.826552
     15          1           0        2.673511   -0.010303    0.643858
 ---------------------------------------------------------------------

 SCF Done:  E(RHF) =  -219.462541754     A.U. after    2 cycles

 The electronic state is 1-A.
 Alpha  occ. eigenvalues --  -11.25599 -11.25535 -11.21630 -11.20999 -11.20945
 Alpha  occ. eigenvalues --   -7.59628  -1.12284  -0.97438  -0.94576  -0.84424
 Alpha  occ. eigenvalues --   -0.71741  -0.70838  -0.65686  -0.58093  -0.55145
 Alpha  occ. eigenvalues --   -0.54984  -0.54897  -0.52676  -0.47644  -0.47152
 Alpha  occ. eigenvalues --   -0.46436  -0.32530
 Alpha virt. eigenvalues --    0.02367   0.03367   0.03625   0.03757   0.04399
 Alpha virt. eigenvalues --    0.05465   0.05878   0.06151   0.07182   0.07884
 Alpha virt. eigenvalues --    0.08955   0.09489   0.12455   0.13271   0.14215

 Mulliken charges:
               1
     1  B    0.286758
     2  C   -0.041281
     3  C    0.062819
     4  H    0.268026
     5  C    0.120637
     6  H   -0.218648
     7  C    0.056977
     8  H   -0.228354
     9  H   -0.161957
    10  H   -0.168716
    11  C   -0.309213
    12  H    0.016766
    13  H    0.109261
    14  H    0.098946
    15  H    0.107979
 Sum of Mulliken charges =  -0.00000

 Dipole moment (field-independent basis, Debye):
    X=             -0.4490    Y=              0.1454    Z=             -0.8329  Tot=              0.9573

 Test job not archived.
 1\1\GINC-SE332\SP\RHF\Aug-CC-pVDZ\C5H9B1\OHZDE\08-Apr-2025\0\\#t hf au
 g-cc-pvdz iop(5/13=1,5/36=2,99/5=2) pseudo=read geom=check guess=(read
 ,tcheck) scf=(maxcycle=1)\\title\\0,1\B,0,0.06513,-0.1638,-1.2018\C,0,
 0.7417,-1.2672,-0.29568\C,0,0.44816,1.2043,-0.51194\H,0,-0.54783,-0.32
 544,-2.21056\C,0,1.39732,-0.60567,0.65948\H,0,0.74116,-2.34325,-0.3843
 \C,0,1.21913,0.88749,0.52939\H,0,0.19554,2.2188,-0.78143\H,0,1.99577,-
 1.0427,1.44967\H,0,1.68073,1.58021,1.22251\C,0,-2.72267,-0.05805,0.443
 03\H,0,-3.64847,-0.5481,0.73609\H,0,-2.69402,0.95011,0.84855\H,0,-1.87

 Normal termination of Gaussian 16 at Tue Apr  8 22:25:09 2025.
