 Gaussian 16, Revision C.01,

 ----------------------------------------------------------------------
 #t hf aug-cc-pvdz symm=none int=(grid=ultrafine) guess=(read,tcheck) s
 table=(opt,rrhf)
 ----------------------------------------------------------------------
 -----
 title
 -----
 Symbolic Z-matrix:
 Charge =  0 Multiplicity = 1

 SCF Done:  E(RHF) =  -241.184518497     A.U. after   11 cycles
 Normal termination of Gaussian 16 at Tue Apr  8 22:21:19 2025.
 Gaussian 16:  ES64L-G16RevC.01  3-Jul-2019

 ----------------------------------------------------------------------
 #t hf aug-cc-pvdz iop(5/13=1,5/36=2,99/5=2) pseudo=read geom=check gue
 ss=(read,tcheck) scf=(maxcycle=1)
 ----------------------------------------------------------------------
 -----
 title
 -----
 Structure from the checkpoint file:  "B-set_borepin_borazine_090_dimer_mol3.chk"
 Charge =  0 Multiplicity = 1

                         Standard orientation:
 ---------------------------------------------------------------------
 Center     Atomic      Atomic             Coordinates (Angstroms)
 Number     Number       Type             X           Y           Z
 ---------------------------------------------------------------------
      1          5           0        1.361071   -0.481579    0.001178
      2          7           0        1.069741    0.911200   -0.007772
      3          7           0        0.255873   -1.381255    0.004640
      4          1           0        2.487375   -0.882886    0.008999
      5          5           0       -0.263503    1.419245    0.007493
      6          1           0        1.831830    1.564022   -0.004136
      7          5           0       -1.100109   -0.935748   -0.000624
      8          1           0        0.438470   -2.367965    0.001458
      9          7           0       -1.323985    0.468742   -0.010213
     10          1           0       -0.480455    2.593537    0.025431
     11          1           0       -2.007463   -1.713660   -0.003697
     12          1           0       -2.268452    0.806555    0.025124
 ---------------------------------------------------------------------

 SCF Done:  E(RHF) =  -241.436218710     A.U. after    2 cycles

 The electronic state is 1-A.
 Alpha  occ. eigenvalues --  -15.47187 -15.47149 -15.47116  -7.59447  -7.59399
 Alpha  occ. eigenvalues --   -7.59302  -1.21004  -1.14123  -1.14000  -0.78342
 Alpha  occ. eigenvalues --   -0.77003  -0.76924  -0.65755  -0.64318  -0.64276
 Alpha  occ. eigenvalues --   -0.56957  -0.55213  -0.48881  -0.48740  -0.45139
 Alpha  occ. eigenvalues --   -0.45016
 Alpha virt. eigenvalues --    0.03730   0.03880   0.03881   0.05184   0.05190
 Alpha virt. eigenvalues --    0.05677   0.05910   0.05919   0.06585   0.08743
 Alpha virt. eigenvalues --    0.10290   0.10952   0.10955   0.13015   0.13017

 Mulliken charges:
               1
     1  B   -0.383330
     2  N    0.345707
     3  N    0.343551
     4  H    0.222221
     5  B   -0.381901
     6  H   -0.187671
     7  B   -0.381494
     8  H   -0.188037
     9  N    0.347528
    10  H    0.226294
    11  H    0.224071
    12  H   -0.186938
 Sum of Mulliken charges =  -0.00000

 Dipole moment (field-independent basis, Debye):
    X=             -0.0267    Y=              0.0329    Z=              0.0701  Tot=              0.0819

 Test job not archived.
 1\1\GINC-SE453\SP\RHF\Aug-CC-pVDZ\B3H6N3\OHZDE\08-Apr-2025\0\\#t hf au
 g-cc-pvdz iop(5/13=1,5/36=2,99/5=2) pseudo=read geom=check guess=(read
 ,tcheck) scf=(maxcycle=1)\\title\\0,1\B,0,2.87962,-0.02559,0.63894\N,0
 ,2.42292,1.19068,0.05851\N,0,2.36027,-1.24073,0.10546\H,0,3.66499,-0.0
 2982,1.54052\B,0,1.46825,1.22747,-1.00127\H,0,2.77001,2.05934,0.42173\
 B,0,1.41919,-1.27101,-0.96722\H,0,2.67594,-2.11055,0.49368\N,0,1.00318
 ,-0.02132,-1.50389\H,0,1.08219,2.26315,-1.45368\H,0,1.00513,-2.30583,-
 1.39867\H,0,0.31295,-0.01542,-2.23254\\Version=ES64L-G16RevC.01\State=

 Normal termination of Gaussian 16 at Tue Apr  8 22:21:23 2025.
