 Gaussian 16, Revision C.01,

 ----------------------------------------------------------------------
 #t hf aug-cc-pvdz symm=none int=(grid=ultrafine) guess=(read,tcheck) s
 table=(opt,rrhf)
 ----------------------------------------------------------------------
 -----
 title
 -----
 Symbolic Z-matrix:
 Charge =  0 Multiplicity = 1

 SCF Done:  E(RHF) =  -502.479421568     A.U. after   11 cycles
 Normal termination of Gaussian 16 at Tue Apr  8 22:22:39 2025.
 Gaussian 16:  ES64L-G16RevC.01  3-Jul-2019

 ----------------------------------------------------------------------
 #t hf aug-cc-pvdz iop(5/13=1,5/36=2,99/5=2) pseudo=read geom=check gue
 ss=(read,tcheck) scf=(maxcycle=1)
 ----------------------------------------------------------------------
 -----
 title
 -----
 Structure from the checkpoint file:  "B-set_boricacid_boricacid_125_dimer_mol1.chk"
 Charge =  0 Multiplicity = 1

                         Standard orientation:
 ---------------------------------------------------------------------
 Center     Atomic      Atomic             Coordinates (Angstroms)
 Number     Number       Type             X           Y           Z
 ---------------------------------------------------------------------
      1          5           0        2.582907    0.025632   -0.000106
      2          8           0        3.940069   -0.124373    0.000454
      3          8           0        2.006047    1.244317   -0.000736
      4          8           0        1.814023   -1.123394   -0.000046
      5          1           0        4.399241    0.713191    0.000464
      6          1           0        1.037077    1.236964   -0.000486
      7          1           0        2.344946   -1.918041    0.000594
      8          5           0       -2.582869   -0.025589    0.000077
      9          8           0       -1.814075    1.123446    0.000417
     10          8           0       -3.940082    0.124285    0.000117
     11          8           0       -2.006019   -1.244285   -0.000293
     12          1           0       -2.345078    1.918054    0.000737
     13          1           0       -4.399044   -0.713389   -0.000093
     14          1           0       -1.037039   -1.236971   -0.000373
 ---------------------------------------------------------------------

 SCF Done:  E(RHF) =  -502.979932983     A.U. after    2 cycles

 The electronic state is 1-A.
 Alpha  occ. eigenvalues --  -20.55876 -20.55875 -20.55827 -20.55827 -20.55805
 Alpha  occ. eigenvalues --  -20.55804  -7.66822  -7.66821  -1.50174  -1.50139
 Alpha  occ. eigenvalues --   -1.44837  -1.44831  -1.44404  -1.44392  -0.78844
 Alpha  occ. eigenvalues --   -0.78718  -0.74560  -0.74269  -0.73986  -0.73777
 Alpha  occ. eigenvalues --   -0.60150  -0.60072  -0.57396  -0.57236  -0.56609
 Alpha  occ. eigenvalues --   -0.56299  -0.55796  -0.55717  -0.50056  -0.49970
 Alpha  occ. eigenvalues --   -0.49898  -0.49869
 Alpha virt. eigenvalues --    0.03855   0.04056   0.04520   0.04855   0.05563
 Alpha virt. eigenvalues --    0.06247   0.06873   0.08178   0.08603   0.08643
 Alpha virt. eigenvalues --    0.11468   0.11532   0.12431   0.13431   0.18322

 Mulliken charges:
               1
     1  B    1.893714
     2  O   -1.126822
     3  O   -1.149621
     4  O   -1.150898
     5  H    0.470323
     6  H    0.586134
     7  H    0.477169
     8  B    1.893668
     9  O   -1.150853
    10  O   -1.126858
    11  O   -1.149623
    12  H    0.477178
    13  H    0.470357
    14  H    0.586131
 Sum of Mulliken charges =  -0.00000

 Dipole moment (field-independent basis, Debye):
    X=              0.0008    Y=              0.0001    Z=              0.0015  Tot=              0.0017

 Test job not archived.
 1\1\GINC-SE080\SP\RHF\Aug-CC-pVDZ\B2H6O6\OHZDE\08-Apr-2025\0\\#t hf au
 g-cc-pvdz iop(5/13=1,5/36=2,99/5=2) pseudo=read geom=check guess=(read
 ,tcheck) scf=(maxcycle=1)\\title\\0,1\B,0,2.06504,0.02667,-0.0001\O,0,
 3.42239,-0.12163,0.00046\O,0,1.48665,1.24463,-0.00073\O,0,1.2976,-1.12
 332,-0.00004\H,0,3.88051,0.71651,0.00047\H,0,0.51769,1.23606,-0.00048\
 H,0,1.82952,-1.9173,0.0006\B,0,-3.10066714,-0.0310375,0.00008286\O,0,-
 2.33331714,1.1189625,0.00042286\O,0,-4.45806714,0.1171325,0.00012286\O
 ,0,-2.52228714,-1.2490075,-0.00028714\H,0,-2.86531714,1.9129025,0.0007

 Normal termination of Gaussian 16 at Tue Apr  8 22:22:43 2025.
