 Gaussian 16, Revision C.01,

 ----------------------------------------------------------------------
 #t hf aug-cc-pvdz symm=none int=(grid=ultrafine) guess=(read,tcheck) s
 table=(opt,rrhf)
 ----------------------------------------------------------------------
 -----
 title
 -----
 Symbolic Z-matrix:
 Charge =  0 Multiplicity = 1

 SCF Done:  E(RHF) =  -481.922769027     A.U. after   14 cycles
 Normal termination of Gaussian 16 at Tue Apr  8 22:26:28 2025.
 Gaussian 16:  ES64L-G16RevC.01  3-Jul-2019

 ----------------------------------------------------------------------
 #t hf aug-cc-pvdz iop(5/13=1,5/36=2,99/5=2) pseudo=read geom=check gue
 ss=(read,tcheck) scf=(maxcycle=1)
 ----------------------------------------------------------------------
 -----
 title
 -----
 Structure from the checkpoint file:  "B-set_phenylboronicacid_h2o_125_dimer_mol1.chk"
 Charge =  0 Multiplicity = 1

                         Standard orientation:
 ---------------------------------------------------------------------
 Center     Atomic      Atomic             Coordinates (Angstroms)
 Number     Number       Type             X           Y           Z
 ---------------------------------------------------------------------
      1          6           0       -1.450869    1.196639   -0.000263
      2          6           0       -2.836419    1.199445    0.000647
      3          6           0       -0.732205    0.000329   -0.000763
      4          1           0       -0.911663    2.134879   -0.000563
      5          6           0       -3.530335   -0.001373    0.001047
      6          1           0       -3.377063    2.136514    0.001007
      7          6           0       -1.449412   -1.196851   -0.000323
      8          5           0        0.834234    0.001243   -0.001763
      9          6           0       -2.834962   -1.201345    0.000537
     10          1           0       -4.612315   -0.002023    0.001727
     11          1           0       -0.909078   -2.134441   -0.000733
     12          8           0        1.491081    1.200566   -0.002193
     13          8           0        1.492658   -1.197224   -0.002103
     14          1           0       -3.374467   -2.139065    0.000837
     15          1           0        2.446441    1.106583   -0.002553
     16          1           0        2.447887   -1.101267   -0.002643
     17          8           0        5.610781   -0.001144    0.003457
     18          1           0        6.179871   -0.003721    0.772107
     19          1           0        6.188271   -0.002320   -0.758923
 ---------------------------------------------------------------------

 SCF Done:  E(RHF) =  -482.413593304     A.U. after    2 cycles

 The electronic state is 1-A.
 Alpha  occ. eigenvalues --  -20.58027 -20.55221 -20.55218 -11.23516 -11.23027
 Alpha  occ. eigenvalues --  -11.23021 -11.22767 -11.22742 -11.20576  -7.63254
 Alpha  occ. eigenvalues --   -1.47854  -1.46305  -1.43460  -1.14392  -1.00813
 Alpha  occ. eigenvalues --   -1.00613  -0.83289  -0.82356  -0.76292  -0.73862
 Alpha  occ. eigenvalues --   -0.72520  -0.69924  -0.63620  -0.62724  -0.62309
 Alpha  occ. eigenvalues --   -0.60104  -0.58782  -0.56763  -0.55990  -0.52218
 Alpha  occ. eigenvalues --   -0.52008  -0.49845  -0.48925  -0.48756  -0.47493
 Alpha  occ. eigenvalues --   -0.33700  -0.33457
 Alpha virt. eigenvalues --    0.02319   0.04070   0.04338   0.04353   0.04929
 Alpha virt. eigenvalues --    0.05715   0.06485   0.06574   0.08272   0.08844
 Alpha virt. eigenvalues --    0.08993   0.09699   0.11413   0.11743   0.11883

 Mulliken charges:
               1
     1  C    0.034361
     2  C    0.326968
     3  C    0.628855
     4  H   -0.336893
     5  C    0.268201
     6  H   -0.224032
     7  C    0.034404
     8  B    1.255452
     9  C    0.326954
    10  H   -0.222519
    11  H   -0.336922
    12  O   -1.222724
    13  O   -1.222591
    14  H   -0.224039
    15  H    0.451325
    16  H    0.451517
    17  O   -0.793175
    18  H    0.402451
    19  H    0.402406
 Sum of Mulliken charges =  -0.00000

 Dipole moment (field-independent basis, Debye):
    X=              4.4764    Y=             -0.0039    Z=              0.0097  Tot=              4.4764

 Test job not archived.
 1\1\GINC-SE455\SP\RHF\Aug-CC-pVDZ\C6H9B1O3\OHZDE\08-Apr-2025\0\\#t hf
 aug-cc-pvdz iop(5/13=1,5/36=2,99/5=2) pseudo=read geom=check guess=(re
 ad,tcheck) scf=(maxcycle=1)\\title\\0,1\C,0,1.25953,-1.19671,-0.0001\C
 ,0,2.64508,-1.19967,0.00081\C,0,0.541,-0.00032,-0.0006\H,0,0.72022,-2.
 13489,-0.0004\C,0,3.33913,0.00107,0.00121\H,0,3.18562,-2.1368,0.00117\
 C,0,1.25834,1.19678,-0.00016\B,0,-1.02544,-0.00106,-0.0016\C,0,2.64389
 ,1.20112,0.0007\H,0,4.42111,0.0016,0.00189\H,0,0.71811,2.13443,-0.0005
 7\O,0,-1.68242,-1.20031,-0.00203\O,0,-1.68373,1.19748,-0.00194\H,0,3.1

 Normal termination of Gaussian 16 at Tue Apr  8 22:26:37 2025.
