 Gaussian 16, Revision C.01,

 ----------------------------------------------------------------------
 #t hf aug-cc-pvdz symm=none int=(grid=ultrafine) guess=(read,tcheck) s
 table=(opt,rrhf)
 ----------------------------------------------------------------------
 -----
 title
 -----
 Symbolic Z-matrix:
 Charge =  0 Multiplicity = 1

 SCF Done:  E(RHF) =  -497.147202563     A.U. after   14 cycles
 Normal termination of Gaussian 16 at Tue Apr  8 22:26:13 2025.
 Gaussian 16:  ES64L-G16RevC.01  3-Jul-2019

 ----------------------------------------------------------------------
 #t hf aug-cc-pvdz iop(5/13=1,5/36=2,99/5=2) pseudo=read geom=check gue
 ss=(read,tcheck) scf=(maxcycle=1)
 ----------------------------------------------------------------------
 -----
 title
 -----
 Structure from the checkpoint file:  "B-set_borepin_borazine_125_dimer_mol1.chk"
 Charge =  0 Multiplicity = 1

                         Standard orientation:
 ---------------------------------------------------------------------
 Center     Atomic      Atomic             Coordinates (Angstroms)
 Number     Number       Type             X           Y           Z
 ---------------------------------------------------------------------
      1          6           0       -1.631227   -1.143260    1.207413
      2          6           0       -2.297695   -1.529462    0.084853
      3          6           0       -1.324528    0.155625    1.690749
      4          1           0       -1.271750   -1.952778    1.832089
      5          6           0       -2.890007   -0.749303   -0.943321
      6          1           0       -2.392324   -2.600748   -0.050137
      7          6           0       -1.611680    1.366726    1.138207
      8          1           0       -0.772725    0.152371    2.626206
      9          6           0       -2.927515    0.605592   -1.080916
     10          1           0       -3.369167   -1.342628   -1.717157
     11          1           0       -1.248053    2.212164    1.716031
     12          5           0       -2.344288    1.671159   -0.161771
     13          1           0       -3.448430    0.944727   -1.972622
     14          1           0       -2.475482    2.819766   -0.477888
     15          5           0        3.296948   -0.000160    0.840369
     16          7           0        2.887647    1.204847    0.203802
     17          7           0        2.838322   -1.226220    0.277048
     18          1           0        3.994849    0.013525    1.811151
     19          5           0        2.035705    1.220310   -0.940679
     20          1           0        3.193126    2.080882    0.586184
     21          5           0        2.001593   -1.277867   -0.878118
     22          1           0        3.122648   -2.088415    0.704514
     23          7           0        1.628485   -0.038553   -1.467774
     24          1           0        1.686093    2.246950   -1.440812
     25          1           0        1.636990   -2.321462   -1.332454
     26          1           0        1.009172   -0.047597   -2.257554
 ---------------------------------------------------------------------

 SCF Done:  E(RHF) =  -497.664481774     A.U. after    2 cycles

 The electronic state is 1-A.
 Alpha  occ. eigenvalues --  -15.46995 -15.46881 -15.46724 -11.26307 -11.26185
 Alpha  occ. eigenvalues --  -11.26021 -11.25928 -11.22309 -11.22203  -7.59179
 Alpha  occ. eigenvalues --   -7.59119  -7.58992  -7.56049  -1.20770  -1.13774
 Alpha  occ. eigenvalues --   -1.13714  -1.12876  -1.05423  -0.99809  -0.88250
 Alpha  occ. eigenvalues --   -0.82650  -0.78035  -0.76683  -0.76606  -0.71225
 Alpha  occ. eigenvalues --   -0.69396  -0.68462  -0.65452  -0.64038  -0.63952
 Alpha  occ. eigenvalues --   -0.63280  -0.59012  -0.56744  -0.54962  -0.54188
 Alpha  occ. eigenvalues --   -0.53973  -0.49215  -0.48545  -0.48510  -0.46301
 Alpha  occ. eigenvalues --   -0.46129  -0.44801  -0.44714  -0.38675  -0.32903
 Alpha virt. eigenvalues --    0.02803   0.02959   0.03409   0.03798   0.04189
 Alpha virt. eigenvalues --    0.04268   0.04436   0.04627   0.04713   0.05387
 Alpha virt. eigenvalues --    0.05838   0.06749   0.06864   0.07308   0.07604

 Mulliken charges:
               1
     1  C    0.320061
     2  C    0.243970
     3  C    0.638624
     4  H   -0.314663
     5  C    0.510734
     6  H   -0.289977
     7  C    0.119051
     8  H   -0.328814
     9  C    0.018045
    10  H   -0.262939
    11  H   -0.293997
    12  B   -0.345767
    13  H   -0.269395
    14  H    0.257434
    15  B   -0.655733
    16  N    0.520237
    17  N    0.522363
    18  H    0.276862
    19  B   -0.825421
    20  H   -0.196250
    21  B   -0.891006
    22  H   -0.184067
    23  N    0.761661
    24  H    0.426948
    25  H    0.431012
    26  H   -0.188973
 Sum of Mulliken charges =  -0.00000

 Dipole moment (field-independent basis, Debye):
    X=              0.1072    Y=             -1.8661    Z=              0.5473  Tot=              1.9476

 Test job not archived.
 1\1\GINC-SE074\SP\RHF\Aug-CC-pVDZ\C6H13B4N3\OHZDE\08-Apr-2025\0\\#t hf
  aug-cc-pvdz iop(5/13=1,5/36=2,99/5=2) pseudo=read geom=check guess=(r
 ead,tcheck) scf=(maxcycle=1)\\title\\0,1\C,0,-1.1002,-1.1557,1.24379\C
 ,0,-1.87153,-1.52215,0.18349\C,0,-0.73895,0.13441,1.71272\H,0,-0.6909,
 -1.97601,1.822\C,0,-2.55047,-0.72416,-0.77509\H,0,-1.98729,-2.59084,0.
 04445\C,0,-1.06616,1.35478,1.20463\H,0,-0.10247,0.11476,2.59254\C,0,-2
 .58928,0.63268,-0.89154\H,0,-3.10457,-1.30369,-1.50828\H,0,-0.64323,2.
 18983,1.75662\B,0,-1.91408,1.68172,-0.01745\H,0,-3.18812,0.98737,-1.72

 Normal termination of Gaussian 16 at Tue Apr  8 22:26:37 2025.
