 Gaussian 16, Revision C.01,

 ----------------------------------------------------------------------
 #t hf aug-cc-pvdz symm=none int=(grid=ultrafine) guess=(read,tcheck) s
 table=(opt,rrhf)
 ----------------------------------------------------------------------
 -----
 title
 -----
 Symbolic Z-matrix:
 Charge =  0 Multiplicity = 1

 SCF Done:  E(RHF) =  -481.917982770     A.U. after   14 cycles
 Normal termination of Gaussian 16 at Tue Apr  8 22:26:48 2025.
 Gaussian 16:  ES64L-G16RevC.01  3-Jul-2019

 ----------------------------------------------------------------------
 #t hf aug-cc-pvdz iop(5/13=1,5/36=2,99/5=2) pseudo=read geom=check gue
 ss=(read,tcheck) scf=(maxcycle=1)
 ----------------------------------------------------------------------
 -----
 title
 -----
 Structure from the checkpoint file:  "B-set_phenylboronicacid_h2o_200_dimer_mol1.chk"
 Charge =  0 Multiplicity = 1

                         Standard orientation:
 ---------------------------------------------------------------------
 Center     Atomic      Atomic             Coordinates (Angstroms)
 Number     Number       Type             X           Y           Z
 ---------------------------------------------------------------------
      1          6           0       -2.024697    1.196491    0.000250
      2          6           0       -3.410248    1.199053    0.001846
      3          6           0       -1.305825    0.000307   -0.000608
      4          1           0       -1.485657    2.134825   -0.000315
      5          6           0       -4.103953   -0.001886    0.002588
      6          1           0       -3.951056    2.136028    0.002476
      7          6           0       -2.022821   -1.196999    0.000186
      8          5           0        0.260614    0.001496   -0.002383
      9          6           0       -3.408369   -1.201736    0.001732
     10          1           0       -5.185932   -0.002726    0.003804
     11          1           0       -1.482322   -2.134494   -0.000494
     12          8           0        0.917250    1.200935   -0.003137
     13          8           0        0.919248   -1.196855   -0.003051
     14          1           0       -3.947710   -2.139551    0.002297
     15          1           0        1.872627    1.107119   -0.003970
     16          1           0        1.874460   -1.100731   -0.004064
     17          8           0        9.281942   -0.000842    0.002002
     18          1           0        9.851413   -0.003320    0.770370
     19          1           0        9.859055   -0.001915   -0.760664
 ---------------------------------------------------------------------

 SCF Done:  E(RHF) =  -482.408870489     A.U. after    2 cycles

 The electronic state is 1-A.
 Alpha  occ. eigenvalues --  -20.56282 -20.56093 -20.56089 -11.23826 -11.23382
 Alpha  occ. eigenvalues --  -11.23376 -11.23068 -11.23044 -11.20973  -7.63951
 Alpha  occ. eigenvalues --   -1.48713  -1.44542  -1.44313  -1.14725  -1.01167
 Alpha  occ. eigenvalues --   -1.00936  -0.83715  -0.82708  -0.76927  -0.73325
 Alpha  occ. eigenvalues --   -0.72143  -0.70344  -0.64392  -0.63063  -0.62669
 Alpha  occ. eigenvalues --   -0.59106  -0.58131  -0.57557  -0.56426  -0.52800
 Alpha  occ. eigenvalues --   -0.50421  -0.50191  -0.49773  -0.49110  -0.47915
 Alpha  occ. eigenvalues --   -0.34057  -0.33768
 Alpha virt. eigenvalues --    0.02550   0.03716   0.03982   0.04186   0.04994
 Alpha virt. eigenvalues --    0.05362   0.05430   0.05518   0.07603   0.08393
 Alpha virt. eigenvalues --    0.08420   0.09332   0.10501   0.11270   0.11598

 Mulliken charges:
               1
     1  C    0.077603
     2  C    0.304162
     3  C    0.557991
     4  H   -0.333712
     5  C    0.284660
     6  H   -0.224217
     7  C    0.077404
     8  B    1.223548
     9  C    0.304249
    10  H   -0.220643
    11  H   -0.333777
    12  O   -1.178083
    13  O   -1.178063
    14  H   -0.224219
    15  H    0.431508
    16  H    0.431630
    17  O   -0.734672
    18  H    0.367304
    19  H    0.367328
 Sum of Mulliken charges =   0.00000

 Dipole moment (field-independent basis, Debye):
    X=              4.0975    Y=             -0.0031    Z=              0.0076  Tot=              4.0975

 Test job not archived.
 1\1\GINC-SE109\SP\RHF\Aug-CC-pVDZ\C6H9B1O3\OHZDE\08-Apr-2025\0\\#t hf
 aug-cc-pvdz iop(5/13=1,5/36=2,99/5=2) pseudo=read geom=check guess=(re
 ad,tcheck) scf=(maxcycle=1)\\title\\0,1\C,0,1.25953,-1.19671,-0.0001\C
 ,0,2.64508,-1.19967,0.00081\C,0,0.541,-0.00032,-0.0006\H,0,0.72022,-2.
 13489,-0.0004\C,0,3.33913,0.00107,0.00121\H,0,3.18562,-2.1368,0.00117\
 C,0,1.25834,1.19678,-0.00016\B,0,-1.02544,-0.00106,-0.0016\C,0,2.64389
 ,1.20112,0.0007\H,0,4.42111,0.0016,0.00189\H,0,0.71811,2.13443,-0.0005
 7\O,0,-1.68242,-1.20031,-0.00203\O,0,-1.68373,1.19748,-0.00194\H,0,3.1

 Normal termination of Gaussian 16 at Tue Apr  8 22:26:57 2025.
