 Gaussian 16, Revision C.01,

 ----------------------------------------------------------------------
 #t hf aug-cc-pvdz symm=none int=(grid=ultrafine) guess=(read,tcheck) s
 table=(opt,rrhf)
 ----------------------------------------------------------------------
 -----
 title
 -----
 Symbolic Z-matrix:
 Charge =  0 Multiplicity = 1

 SCF Done:  E(RHF) =  -497.142090670     A.U. after   14 cycles
 Normal termination of Gaussian 16 at Tue Apr  8 22:25:41 2025.
 Gaussian 16:  ES64L-G16RevC.01  3-Jul-2019

 ----------------------------------------------------------------------
 #t hf aug-cc-pvdz iop(5/13=1,5/36=2,99/5=2) pseudo=read geom=check gue
 ss=(read,tcheck) scf=(maxcycle=1)
 ----------------------------------------------------------------------
 -----
 title
 -----
 Structure from the checkpoint file:  "B-set_borepin_borazine_100_dimer_mol1.chk"
 Charge =  0 Multiplicity = 1

                         Standard orientation:
 ---------------------------------------------------------------------
 Center     Atomic      Atomic             Coordinates (Angstroms)
 Number     Number       Type             X           Y           Z
 ---------------------------------------------------------------------
      1          6           0       -1.100200   -1.155703    1.243790
      2          6           0       -1.871529   -1.522153    0.183490
      3          6           0       -0.738951    0.134408    1.712720
      4          1           0       -0.690899   -1.976012    1.822000
      5          6           0       -2.550470   -0.724164   -0.775090
      6          1           0       -1.987288   -2.590843    0.044450
      7          6           0       -1.066162    1.354777    1.204630
      8          1           0       -0.102471    0.114758    2.592540
      9          6           0       -2.589281    0.632676   -0.891540
     10          1           0       -3.104570   -1.303694   -1.508280
     11          1           0       -0.643233    2.189828    1.756620
     12          5           0       -1.914082    1.681717   -0.017450
     13          1           0       -3.188122    0.987366   -1.726460
     14          1           0       -2.064523    2.835337   -0.305490
     15          5           0        2.879619   -0.025589    0.638940
     16          7           0        2.422918    1.190680    0.058510
     17          7           0        2.360270   -1.240730    0.105460
     18          1           0        3.664989   -0.029819    1.540520
     19          5           0        1.468248    1.227470   -1.001270
     20          1           0        2.770008    2.059341    0.421730
     21          5           0        1.419190   -1.271010   -0.967220
     22          1           0        2.675941   -2.110549    0.493680
     23          7           0        1.003179   -0.021321   -1.503890
     24          1           0        1.082187    2.263149   -1.453680
     25          1           0        1.005131   -2.305831   -1.398670
     26          1           0        0.312949   -0.015421   -2.232540
 ---------------------------------------------------------------------

 SCF Done:  E(RHF) =  -497.655957477     A.U. after    2 cycles

 The electronic state is 1-A.
 Alpha  occ. eigenvalues --  -15.46885 -15.46646 -15.46379 -11.26258 -11.26084
 Alpha  occ. eigenvalues --  -11.25968 -11.25875 -11.22253 -11.22106  -7.59060
 Alpha  occ. eigenvalues --   -7.58967  -7.58803  -7.56036  -1.20645  -1.13634
 Alpha  occ. eigenvalues --   -1.13518  -1.12789  -1.05409  -0.99799  -0.88189
 Alpha  occ. eigenvalues --   -0.82624  -0.77841  -0.76536  -0.76398  -0.71151
 Alpha  occ. eigenvalues --   -0.69352  -0.68405  -0.65255  -0.63898  -0.63738
 Alpha  occ. eigenvalues --   -0.63246  -0.58988  -0.56742  -0.55157  -0.54137
 Alpha  occ. eigenvalues --   -0.53908  -0.49052  -0.48402  -0.48333  -0.46266
 Alpha  occ. eigenvalues --   -0.46088  -0.44813  -0.44366  -0.38651  -0.32871
 Alpha virt. eigenvalues --    0.02787   0.03018   0.03409   0.03705   0.04115
 Alpha virt. eigenvalues --    0.04207   0.04405   0.04550   0.04645   0.05287
 Alpha virt. eigenvalues --    0.05900   0.07107   0.07298   0.07685   0.07870

 Mulliken charges:
               1
     1  C    0.314801
     2  C    0.253342
     3  C    0.704431
     4  H   -0.318967
     5  C    0.482018
     6  H   -0.296751
     7  C    0.100228
     8  H   -0.287941
     9  C   -0.019363
    10  H   -0.270533
    11  H   -0.304201
    12  B   -0.593658
    13  H   -0.274684
    14  H    0.314195
    15  B   -1.023979
    16  N    0.659460
    17  N    0.680227
    18  H    0.398158
    19  B   -1.106251
    20  H   -0.189064
    21  B   -1.027791
    22  H   -0.195493
    23  N    1.215736
    24  H    0.545750
    25  H    0.465594
    26  H   -0.225264
 Sum of Mulliken charges =  -0.00000

 Dipole moment (field-independent basis, Debye):
    X=              0.0883    Y=             -1.8429    Z=              0.5559  Tot=              1.9269

 Test job not archived.
 1\1\GINC-SE367\SP\RHF\Aug-CC-pVDZ\C6H13B4N3\OHZDE\08-Apr-2025\0\\#t hf
  aug-cc-pvdz iop(5/13=1,5/36=2,99/5=2) pseudo=read geom=check guess=(r
 ead,tcheck) scf=(maxcycle=1)\\title\\0,1\C,0,-1.1002,-1.1557,1.24379\C
 ,0,-1.87153,-1.52215,0.18349\C,0,-0.73895,0.13441,1.71272\H,0,-0.6909,
 -1.97601,1.822\C,0,-2.55047,-0.72416,-0.77509\H,0,-1.98729,-2.59084,0.
 04445\C,0,-1.06616,1.35478,1.20463\H,0,-0.10247,0.11476,2.59254\C,0,-2
 .58928,0.63268,-0.89154\H,0,-3.10457,-1.30369,-1.50828\H,0,-0.64323,2.
 18983,1.75662\B,0,-1.91408,1.68172,-0.01745\H,0,-3.18812,0.98737,-1.72

 Normal termination of Gaussian 16 at Tue Apr  8 22:26:02 2025.
