 Gaussian 16, Revision C.01,

 ----------------------------------------------------------------------
 #t hf aug-cc-pvdz symm=none int=(grid=ultrafine) guess=(read,tcheck) s
 table=(opt,rrhf)
 ----------------------------------------------------------------------
 -----
 title
 -----
 Symbolic Z-matrix:
 Charge =  0 Multiplicity = 1

 SCF Done:  E(RHF) =  -464.889524343     A.U. after   15 cycles
 Normal termination of Gaussian 16 at Tue Apr  8 22:24:14 2025.
 Gaussian 16:  ES64L-G16RevC.01  3-Jul-2019

 ----------------------------------------------------------------------
 #t hf aug-cc-pvdz iop(5/13=1,5/36=2,99/5=2) pseudo=read geom=check gue
 ss=(read,tcheck) scf=(maxcycle=1)
 ----------------------------------------------------------------------
 -----
 title
 -----
 Structure from the checkpoint file:  "B-set_azaborine_benzene_095_dimer_mol1.chk"
 Charge =  0 Multiplicity = 1

                         Standard orientation:
 ---------------------------------------------------------------------
 Center     Atomic      Atomic             Coordinates (Angstroms)
 Number     Number       Type             X           Y           Z
 ---------------------------------------------------------------------
      1          7           0        0.869817    0.198251   -0.055164
      2          5           0        1.671992    1.377297   -0.032195
      3          6           0        1.382831   -1.057268   -0.038178
      4          1           0       -0.135537    0.259069   -0.084016
      5          6           0        3.161841    1.129984    0.012143
      6          1           0        1.115761    2.434291   -0.049318
      7          6           0        2.723874   -1.265085    0.001793
      8          1           0        0.673261   -1.872981   -0.057626
      9          6           0        3.612483   -0.159360    0.026780
     10          1           0        3.895533    1.926351    0.033116
     11          1           0        3.102657   -2.275910    0.014428
     12          1           0        4.675844   -0.372595    0.058388
     13          6           0       -2.181943   -0.169373    1.392221
     14          6           0       -2.241424    1.104529    0.845826
     15          6           0       -2.157521   -1.280200    0.561263
     16          1           0       -2.149028   -0.296047    2.465363
     17          6           0       -2.275784    1.267795   -0.531767
     18          1           0       -2.252244    1.970500    1.492750
     19          6           0       -2.191701   -1.117285   -0.816409
     20          1           0       -2.111036   -2.272883    0.987839
     21          6           0       -2.250642    0.156828   -1.362925
     22          1           0       -2.313599    2.260763   -0.957398
     23          1           0       -2.171102   -1.982590   -1.464610
     24          1           0       -2.271268    0.284399   -2.436275
 ---------------------------------------------------------------------

 SCF Done:  E(RHF) =  -465.376097740     A.U. after    2 cycles

 The electronic state is 1-A.
 Alpha  occ. eigenvalues --  -15.50677 -11.27637 -11.25640 -11.25574 -11.25525
 Alpha  occ. eigenvalues --  -11.25499 -11.25428 -11.25387 -11.24089 -11.21567
 Alpha  occ. eigenvalues --  -11.18885  -7.55481  -1.23587  -1.17364  -1.06911
 Alpha  occ. eigenvalues --   -1.03421  -1.03362  -0.97361  -0.84725  -0.84719
 Alpha  occ. eigenvalues --   -0.83803  -0.79817  -0.74700  -0.73851  -0.66187
 Alpha  occ. eigenvalues --   -0.65374  -0.64316  -0.63274  -0.61565  -0.61533
 Alpha  occ. eigenvalues --   -0.60292  -0.55900  -0.55077  -0.52701  -0.51929
 Alpha  occ. eigenvalues --   -0.51911  -0.49150  -0.45899  -0.40204  -0.36496
 Alpha  occ. eigenvalues --   -0.36161  -0.30647
 Alpha virt. eigenvalues --    0.02926   0.03331   0.03392   0.04087   0.04548
 Alpha virt. eigenvalues --    0.04735   0.04854   0.05612   0.06669   0.07663
 Alpha virt. eigenvalues --    0.07860   0.08221   0.08421   0.08701   0.09720

 Mulliken charges:
               1
     1  N    1.713921
     2  B   -0.463596
     3  C   -1.278745
     4  H    0.139969
     5  C    0.314588
     6  H    0.277747
     7  C    0.681962
     8  H   -0.412422
     9  C   -0.097985
    10  H   -0.266754
    11  H   -0.200239
    12  H   -0.217678
    13  C    0.209400
    14  C    0.268507
    15  C    0.270528
    16  H   -0.274678
    17  C    0.269123
    18  H   -0.280464
    19  C    0.249458
    20  H   -0.274077
    21  C    0.206906
    22  H   -0.282942
    23  H   -0.272667
    24  H   -0.279861
 Sum of Mulliken charges =  -0.00000

 Dipole moment (field-independent basis, Debye):
    X=             -1.9378    Y=             -1.4657    Z=              0.0121  Tot=              2.4297

 Test job not archived.
 1\1\GINC-SE334\SP\RHF\Aug-CC-pVDZ\C10H12B1N1\OHZDE\08-Apr-2025\0\\#t h
 f aug-cc-pvdz iop(5/13=1,5/36=2,99/5=2) pseudo=read geom=check guess=(
 read,tcheck) scf=(maxcycle=1)\\title\\0,1\N,0,-0.98689,0.19856,0.05529
 \B,0,-1.78972,1.37715,0.03178\C,0,-1.49918,-1.05725,0.03801\H,0,0.0184
 1,0.25995,0.08478\C,0,-3.2794,1.12899,-0.0135\H,0,-1.2341,2.43446,0.04
 923\C,0,-2.84008,-1.26583,-0.00281\H,0,-0.78916,-1.87256,0.05793\C,0,-
 3.7293,-0.16061,-0.02839\H,0,-4.01353,1.92494,-0.03496\H,0,-3.21828,-2
 .27687,-0.01566\H,0,-4.79252,-0.37445,-0.06067\C,0,2.06599879,-0.16736

 Normal termination of Gaussian 16 at Tue Apr  8 22:25:01 2025.
