 Gaussian 16, Revision C.01,

 ----------------------------------------------------------------------
 #t hf aug-cc-pvdz symm=none int=(grid=ultrafine) guess=(read,tcheck) s
 table=(opt,rrhf)
 ----------------------------------------------------------------------
 -----
 title
 -----
 Symbolic Z-matrix:
 Charge =  0 Multiplicity = 1

 SCF Done:  E(RHF) =  -736.593303733     A.U. after   11 cycles
 Normal termination of Gaussian 16 at Tue Apr  8 22:34:40 2025.
 Gaussian 16:  ES64L-G16RevC.01  3-Jul-2019

 ----------------------------------------------------------------------
 #t hf aug-cc-pvdz iop(5/13=1,5/36=2,99/5=2) pseudo=read geom=check gue
 ss=(read,tcheck) scf=(maxcycle=1)
 ----------------------------------------------------------------------
 -----
 title
 -----
 Structure from the checkpoint file:  "B-set_trimethylborate_trimethylborate_125_dimer_mol1.chk"
 Charge =  0 Multiplicity = 1

                         Standard orientation:
 ---------------------------------------------------------------------
 Center     Atomic      Atomic             Coordinates (Angstroms)
 Number     Number       Type             X           Y           Z
 ---------------------------------------------------------------------
      1          5           0        1.997818   -0.000735    0.000354
      2          8           0        1.999905   -1.340343    0.245656
      3          8           0        2.002407    0.881621    1.037706
      4          8           0        2.002171    0.456616   -1.282454
      5          6           0        1.939786   -1.834472    1.569998
      6          6           0        1.944348    2.275665    0.803502
      7          6           0        1.943489   -0.443144   -2.372615
      8          1           0        0.945271   -1.677199    1.988561
      9          1           0        2.147549   -2.901709    1.530129
     10          1           0        2.676602   -1.347781    2.209161
     11          1           0        2.157012    2.774607    1.746641
     12          1           0        2.678656    2.584084    0.059195
     13          1           0        0.949023    2.561492    0.461964
     14          1           0        2.148062    0.125714   -3.277175
     15          1           0        2.683053   -1.237671   -2.272110
     16          1           0        0.950400   -0.887591   -2.444562
     17          5           0       -1.997757    0.000553   -0.000356
     18          8           0       -2.001868   -0.880723   -1.038648
     19          8           0       -2.001620   -0.457927    1.282072
     20          8           0       -2.000655    1.340430   -0.244358
     21          6           0       -1.943349   -2.274977   -0.805454
     22          6           0       -1.942807    0.441243    2.372843
     23          6           0       -1.941766    1.836039   -1.568189
     24          1           0       -2.679707   -2.584618   -0.063697
     25          1           0       -2.152774   -2.773206   -1.749684
     26          1           0       -0.948844   -2.560314   -0.461116
     27          1           0       -2.148260   -0.127946    3.277004
     28          1           0       -0.949317    0.884730    2.445391
     29          1           0       -2.681692    1.236350    2.272268
     30          1           0       -0.947303    1.680335   -1.987523
     31          1           0       -2.678263    1.349128   -2.207542
     32          1           0       -2.150689    2.902995   -1.527200
 ---------------------------------------------------------------------

 SCF Done:  E(RHF) =  -737.347005883     A.U. after    2 cycles

 The electronic state is 1-A.
 Alpha  occ. eigenvalues --  -20.53696 -20.53695 -20.53694 -20.53694 -20.53692
 Alpha  occ. eigenvalues --  -20.53690 -11.27853 -11.27852 -11.27852 -11.27852
 Alpha  occ. eigenvalues --  -11.27851 -11.27851  -7.64771  -7.64764  -1.49511
 Alpha  occ. eigenvalues --   -1.49394  -1.44223  -1.44222  -1.44172  -1.44172
 Alpha  occ. eigenvalues --   -0.94675  -0.94591  -0.93438  -0.93436  -0.93303
 Alpha  occ. eigenvalues --   -0.93302  -0.72977  -0.72969  -0.69456  -0.69454
 Alpha  occ. eigenvalues --   -0.69341  -0.69339  -0.66605  -0.65499  -0.62001
 Alpha  occ. eigenvalues --   -0.62000  -0.61555  -0.61553  -0.60313  -0.60311
 Alpha  occ. eigenvalues --   -0.60280  -0.60279  -0.58406  -0.58405  -0.50106
 Alpha  occ. eigenvalues --   -0.49844  -0.49643  -0.49627  -0.47958  -0.47955
 Alpha  occ. eigenvalues --   -0.47939  -0.47935  -0.43821  -0.43816  -0.43686
 Alpha  occ. eigenvalues --   -0.43684
 Alpha virt. eigenvalues --    0.03429   0.03499   0.03500   0.03529   0.05389
 Alpha virt. eigenvalues --    0.05391   0.05448   0.05692   0.05693   0.07394
 Alpha virt. eigenvalues --    0.07397   0.07576   0.08084   0.08161   0.08163

 Mulliken charges:
               1
     1  B    2.863158
     2  O   -1.557663
     3  O   -1.554790
     4  O   -1.559191
     5  C    0.419220
     6  C    0.418577
     7  C    0.418158
     8  H    0.085223
     9  H   -0.022786
    10  H    0.121953
    11  H   -0.023115
    12  H    0.121493
    13  H    0.085008
    14  H   -0.023155
    15  H    0.122312
    16  H    0.085710
    17  B    2.862816
    18  O   -1.555801
    19  O   -1.559052
    20  O   -1.557000
    21  C    0.418678
    22  C    0.418386
    23  C    0.418623
    24  H    0.121739
    25  H   -0.022980
    26  H    0.085231
    27  H   -0.022889
    28  H    0.085573
    29  H    0.122072
    30  H    0.085547
    31  H    0.121749
    32  H   -0.022805
 Sum of Mulliken charges =  -0.00000

 Dipole moment (field-independent basis, Debye):
    X=             -0.0011    Y=              0.0004    Z=              0.0001  Tot=              0.0012

 Test job not archived.
 1\1\GINC-SE393\SP\RHF\Aug-CC-pVDZ\C6H18B2O6\OHZDE\08-Apr-2025\0\\#t hf
  aug-cc-pvdz iop(5/13=1,5/36=2,99/5=2) pseudo=read geom=check guess=(r
 ead,tcheck) scf=(maxcycle=1)\\title\\0,1\B,0,1.60824,0.00191,-0.00082\
 O,0,1.60915,1.34156,-0.2459\O,0,1.61322,-0.88027,-1.03832\O,0,1.61338,
 -0.45565,1.28191\C,0,1.5482,1.83586,-1.57014\C,0,1.55638,-2.2744,-0.80
 433\C,0,1.55431,0.44388,2.37224\H,0,0.55368,1.67784,-1.98841\H,0,1.755
 1,2.90326,-1.53016\H,0,2.28521,1.34988,-2.20962\H,0,1.76915,-2.77301,-
 1.74762\H,0,2.29118,-2.58234,-0.06031\H,0,0.5614,-2.5611,-0.46252\H,0,

 Normal termination of Gaussian 16 at Tue Apr  8 22:35:13 2025.
