 Gaussian 16, Revision C.01,

 ----------------------------------------------------------------------
 #t hf aug-cc-pvdz symm=none int=(grid=ultrafine) guess=(read,tcheck) s
 table=(opt,rrhf)
 ----------------------------------------------------------------------
 -----
 title
 -----
 Symbolic Z-matrix:
 Charge =  0 Multiplicity = 1

 SCF Done:  E(RHF) =  -3775.11192670     A.U. after   12 cycles
 Normal termination of Gaussian 16 at Tue Apr  8 22:20:10 2025.
 Gaussian 16:  ES64L-G16RevC.01  3-Jul-2019

 ----------------------------------------------------------------------
 #t hf aug-cc-pvdz iop(5/13=1,5/36=2,99/5=2) pseudo=read geom=check gue
 ss=(read,tcheck) scf=(maxcycle=1)
 ----------------------------------------------------------------------
 -----
 title
 -----
 Structure from the checkpoint file:  "B-set_b2cl4_b2cl4_090_dimer_mol1.chk"
 Charge =  0 Multiplicity = 1

                         Standard orientation:
 ---------------------------------------------------------------------
 Center     Atomic      Atomic             Coordinates (Angstroms)
 Number     Number       Type             X           Y           Z
 ---------------------------------------------------------------------
      1          5           0        1.873522    0.833639    0.150300
      2          5           0        1.873682   -0.833551   -0.150340
      3         17           0        1.001327    1.506494    1.506830
      4         17           0        2.795395    1.893645   -0.885250
      5         17           0        2.795939   -1.893305    0.885130
      6         17           0        1.001397   -1.506676   -1.506670
      7          5           0       -1.873640    0.833552   -0.150340
      8          5           0       -1.873660   -0.833618    0.150350
      9         17           0       -1.001195    1.506417   -1.506700
     10         17           0       -2.795777    1.893536    0.885000
     11         17           0       -1.001455   -1.506533    1.506850
     12         17           0       -2.795603   -1.893584   -0.885180
 ---------------------------------------------------------------------

 SCF Done:  E(RHF) =  -3775.80327818     A.U. after    2 cycles

 The electronic state is 1-A.
 Alpha  occ. eigenvalues -- -105.59422-105.59422-105.59422-105.59422-105.59360
 Alpha  occ. eigenvalues -- -105.59360-105.59360-105.59360 -10.64481 -10.64481
 Alpha  occ. eigenvalues --  -10.64481 -10.64480 -10.64383 -10.64383 -10.64383
 Alpha  occ. eigenvalues --  -10.64382  -7.81379  -7.81377  -7.81376  -7.81376
 Alpha  occ. eigenvalues --   -7.81283  -7.81283  -7.81282  -7.81281  -7.81106
 Alpha  occ. eigenvalues --   -7.81103  -7.81098  -7.81098  -7.81041  -7.81039
 Alpha  occ. eigenvalues --   -7.81038  -7.81038  -7.80999  -7.80999  -7.80999
 Alpha  occ. eigenvalues --   -7.80998  -7.80950  -7.80948  -7.80946  -7.80946
 Alpha  occ. eigenvalues --   -7.72500  -7.72495  -7.72387  -7.72382  -1.14060
 Alpha  occ. eigenvalues --   -1.13435  -1.12433  -1.11936  -1.08148  -1.07794
 Alpha  occ. eigenvalues --   -1.07760  -1.07286  -0.76787  -0.76729  -0.68619
 Alpha  occ. eigenvalues --   -0.68100  -0.62403  -0.61459  -0.61418  -0.61032
 Alpha  occ. eigenvalues --   -0.60521  -0.59908  -0.56753  -0.56001  -0.53280
 Alpha  occ. eigenvalues --   -0.52876  -0.52864  -0.52432  -0.49674  -0.49610
 Alpha  occ. eigenvalues --   -0.49383  -0.48982  -0.48942  -0.48781  -0.47557
 Alpha  occ. eigenvalues --   -0.47316  -0.44684  -0.44272
 Alpha virt. eigenvalues --    0.03072   0.03401   0.04112   0.04170   0.04202
 Alpha virt. eigenvalues --    0.04584   0.05444   0.06285   0.06550   0.06726
 Alpha virt. eigenvalues --    0.06898   0.07353   0.07527   0.08317   0.08970

 Mulliken charges:
               1
     1  B    0.737218
     2  B    0.737153
     3  Cl  -0.362670
     4  Cl  -0.374526
     5  Cl  -0.374525
     6  Cl  -0.362647
     7  B    0.737146
     8  B    0.737195
     9  Cl  -0.362658
    10  Cl  -0.374511
    11  Cl  -0.362657
    12  Cl  -0.374519
 Sum of Mulliken charges =  -0.00000

 Dipole moment (field-independent basis, Debye):
    X=             -0.0002    Y=              0.0001    Z=             -0.0001  Tot=              0.0003

 Test job not archived.
 1\1\GINC-SE361\SP\RHF\Aug-CC-pVDZ\B4Cl8\OHZDE\08-Apr-2025\0\\#t hf aug
 -cc-pvdz iop(5/13=1,5/36=2,99/5=2) pseudo=read geom=check guess=(read,
 tcheck) scf=(maxcycle=1)\\title\\0,1\B,0,2.08355,-0.83363,-0.1503\B,0,
 2.0837,0.83356,0.15034\Cl,0,1.21136,-1.50649,-1.50683\Cl,0,3.00543,-1.
 89363,0.88525\Cl,0,3.00595,1.89332,-0.88513\Cl,0,1.21141,1.50668,1.506
 67\B,0,-1.663612,-0.83356617,0.15033967\B,0,-1.663642,0.83360383,-0.15
 035033\Cl,0,-0.791162,-1.50642617,1.50669967\Cl,0,-2.585742,-1.8935561
 7,-0.88500033\Cl,0,-0.791442,1.50652383,-1.50685033\Cl,0,-2.585592,1.8

 Normal termination of Gaussian 16 at Tue Apr  8 22:20:24 2025.
