 Gaussian 16, Revision C.01,

 ----------------------------------------------------------------------
 #t hf aug-cc-pvdz symm=none int=(grid=ultrafine) guess=(read,tcheck) s
 table=(opt,rrhf)
 ----------------------------------------------------------------------
 -----
 title
 -----
 Symbolic Z-matrix:
 Charge =  0 Multiplicity = 1

 SCF Done:  E(RHF) =  -481.928950635     A.U. after   14 cycles
 Normal termination of Gaussian 16 at Tue Apr  8 22:26:33 2025.
 Gaussian 16:  ES64L-G16RevC.01  3-Jul-2019

 ----------------------------------------------------------------------
 #t hf aug-cc-pvdz iop(5/13=1,5/36=2,99/5=2) pseudo=read geom=check gue
 ss=(read,tcheck) scf=(maxcycle=1)
 ----------------------------------------------------------------------
 -----
 title
 -----
 Structure from the checkpoint file:  "B-set_phenylboronicacid_h2o_100_dimer_mol1.chk"
 Charge =  0 Multiplicity = 1

                         Standard orientation:
 ---------------------------------------------------------------------
 Center     Atomic      Atomic             Coordinates (Angstroms)
 Number     Number       Type             X           Y           Z
 ---------------------------------------------------------------------
      1          6           0       -1.259530    1.196709   -0.000100
      2          6           0       -2.645080    1.199668    0.000810
      3          6           0       -0.540999    0.000320   -0.000600
      4          1           0       -0.720220    2.134889   -0.000400
      5          6           0       -3.339129   -0.001072    0.001210
      6          1           0       -3.185620    2.136798    0.001170
      7          6           0       -1.258339   -1.196781   -0.000160
      8          5           0        1.025441    0.001060   -0.001600
      9          6           0       -2.643889   -1.201122    0.000700
     10          1           0       -4.421109   -0.001603    0.001890
     11          1           0       -0.718108   -2.134431   -0.000570
     12          8           0        1.682420    1.200311   -0.002030
     13          8           0        1.683731   -1.197479   -0.001940
     14          1           0       -3.183498   -2.138782    0.001000
     15          1           0        2.637770    1.106221   -0.002390
     16          1           0        2.638971   -1.101629   -0.002480
     17          8           0        4.387061   -0.001188    0.002410
     18          1           0        4.956151   -0.003827    0.771060
     19          1           0        4.964551   -0.002427   -0.759970
 ---------------------------------------------------------------------

 SCF Done:  E(RHF) =  -482.420193313     A.U. after    2 cycles

 The electronic state is 1-A.
 Alpha  occ. eigenvalues --  -20.61010 -20.53455 -20.53446 -11.23028 -11.22465
 Alpha  occ. eigenvalues --  -11.22454 -11.22303 -11.22273 -11.19907  -7.62011
 Alpha  occ. eigenvalues --   -1.49765  -1.46220  -1.41936  -1.13868  -1.00246
 Alpha  occ. eigenvalues --   -1.00107  -0.82645  -0.81805  -0.76906  -0.75521
 Alpha  occ. eigenvalues --   -0.71409  -0.69301  -0.65460  -0.62192  -0.61756
 Alpha  occ. eigenvalues --   -0.60692  -0.58275  -0.55622  -0.55342  -0.54920
 Alpha  occ. eigenvalues --   -0.50519  -0.49284  -0.48159  -0.47355  -0.46706
 Alpha  occ. eigenvalues --   -0.33126  -0.32977
 Alpha virt. eigenvalues --    0.01616   0.04106   0.04250   0.04471   0.05209
 Alpha virt. eigenvalues --    0.05668   0.06915   0.07010   0.08501   0.08587
 Alpha virt. eigenvalues --    0.09439   0.10270   0.11013   0.11133   0.12303

 Mulliken charges:
               1
     1  C   -0.022781
     2  C    0.357315
     3  C    0.672801
     4  H   -0.343607
     5  C    0.244021
     6  H   -0.224118
     7  C   -0.022312
     8  B    1.250359
     9  C    0.357523
    10  H   -0.225318
    11  H   -0.343553
    12  O   -1.309283
    13  O   -1.308886
    14  H   -0.224122
    15  H    0.622652
    16  H    0.624803
    17  O   -1.120634
    18  H    0.507447
    19  H    0.507692
 Sum of Mulliken charges =   0.00000

 Dipole moment (field-independent basis, Debye):
    X=              5.3380    Y=             -0.0042    Z=              0.0105  Tot=              5.3381

 Test job not archived.
 1\1\GINC-SE339\SP\RHF\Aug-CC-pVDZ\C6H9B1O3\OHZDE\08-Apr-2025\0\\#t hf
 aug-cc-pvdz iop(5/13=1,5/36=2,99/5=2) pseudo=read geom=check guess=(re
 ad,tcheck) scf=(maxcycle=1)\\title\\0,1\C,0,1.25953,-1.19671,-0.0001\C
 ,0,2.64508,-1.19967,0.00081\C,0,0.541,-0.00032,-0.0006\H,0,0.72022,-2.
 13489,-0.0004\C,0,3.33913,0.00107,0.00121\H,0,3.18562,-2.1368,0.00117\
 C,0,1.25834,1.19678,-0.00016\B,0,-1.02544,-0.00106,-0.0016\C,0,2.64389
 ,1.20112,0.0007\H,0,4.42111,0.0016,0.00189\H,0,0.71811,2.13443,-0.0005
 7\O,0,-1.68242,-1.20031,-0.00203\O,0,-1.68373,1.19748,-0.00194\H,0,3.1

 Normal termination of Gaussian 16 at Tue Apr  8 22:26:43 2025.
