 Gaussian 16, Revision C.01,

 ----------------------------------------------------------------------
 #t hf aug-cc-pvdz symm=none int=(grid=ultrafine) guess=(read,tcheck) s
 table=(opt,rrhf)
 ----------------------------------------------------------------------
 -----
 title
 -----
 Symbolic Z-matrix:
 Charge =  0 Multiplicity = 1

 SCF Done:  E(RHF) =  -502.486284456     A.U. after   11 cycles
 Normal termination of Gaussian 16 at Tue Apr  8 22:22:39 2025.
 Gaussian 16:  ES64L-G16RevC.01  3-Jul-2019

 ----------------------------------------------------------------------
 #t hf aug-cc-pvdz iop(5/13=1,5/36=2,99/5=2) pseudo=read geom=check gue
 ss=(read,tcheck) scf=(maxcycle=1)
 ----------------------------------------------------------------------
 -----
 title
 -----
 Structure from the checkpoint file:  "B-set_boricacid_boricacid_100_dimer_mol1.chk"
 Charge =  0 Multiplicity = 1

                         Standard orientation:
 ---------------------------------------------------------------------
 Center     Atomic      Atomic             Coordinates (Angstroms)
 Number     Number       Type             X           Y           Z
 ---------------------------------------------------------------------
      1          5           0        2.065039    0.026673   -0.000100
      2          8           0        3.422389   -0.121626    0.000460
      3          8           0        1.486648    1.244633   -0.000730
      4          8           0        1.297600   -1.123318   -0.000040
      5          1           0        3.880508    0.716515    0.000470
      6          1           0        0.517688    1.236062   -0.000480
      7          1           0        1.829521   -1.917297    0.000600
      8          5           0       -2.065001   -0.026631    0.000070
      9          8           0       -1.297652    1.123370    0.000410
     10          8           0       -3.422401    0.121538    0.000110
     11          8           0       -1.486620   -1.244600   -0.000300
     12          1           0       -1.829653    1.917310    0.000730
     13          1           0       -3.880310   -0.716712   -0.000100
     14          1           0       -0.517650   -1.236069   -0.000380
 ---------------------------------------------------------------------

 SCF Done:  E(RHF) =  -502.986708041     A.U. after    2 cycles

 The electronic state is 1-A.
 Alpha  occ. eigenvalues --  -20.57075 -20.57075 -20.55743 -20.55742 -20.54186
 Alpha  occ. eigenvalues --  -20.54185  -7.66829  -7.66819  -1.50731  -1.50188
 Alpha  occ. eigenvalues --   -1.45577  -1.45228  -1.43945  -1.43816  -0.79669
 Alpha  occ. eigenvalues --   -0.78455  -0.75830  -0.75553  -0.73634  -0.72929
 Alpha  occ. eigenvalues --   -0.60610  -0.59923  -0.59864  -0.58528  -0.56852
 Alpha  occ. eigenvalues --   -0.56547  -0.53972  -0.53768  -0.51061  -0.50693
 Alpha  occ. eigenvalues --   -0.49165  -0.48886
 Alpha virt. eigenvalues --    0.03867   0.03911   0.04328   0.04955   0.05778
 Alpha virt. eigenvalues --    0.06494   0.07169   0.08510   0.08894   0.08970
 Alpha virt. eigenvalues --    0.11924   0.11957   0.13216   0.13384   0.18873

 Mulliken charges:
               1
     1  B    1.818217
     2  O   -1.235377
     3  O   -1.140480
     4  O   -1.204549
     5  H    0.459353
     6  H    0.834570
     7  H    0.468233
     8  B    1.818149
     9  O   -1.204439
    10  O   -1.235445
    11  O   -1.140445
    12  H    0.468254
    13  H    0.459368
    14  H    0.834592
 Sum of Mulliken charges =   0.00000

 Dipole moment (field-independent basis, Debye):
    X=              0.0009    Y=              0.0001    Z=              0.0017  Tot=              0.0019

 Test job not archived.
 1\1\GINC-SE453\SP\RHF\Aug-CC-pVDZ\B2H6O6\OHZDE\08-Apr-2025\0\\#t hf au
 g-cc-pvdz iop(5/13=1,5/36=2,99/5=2) pseudo=read geom=check guess=(read
 ,tcheck) scf=(maxcycle=1)\\title\\0,1\B,0,2.06504,0.02667,-0.0001\O,0,
 3.42239,-0.12163,0.00046\O,0,1.48665,1.24463,-0.00073\O,0,1.2976,-1.12
 332,-0.00004\H,0,3.88051,0.71651,0.00047\H,0,0.51769,1.23606,-0.00048\
 H,0,1.82952,-1.9173,0.0006\B,0,-2.065,-0.02663,0.00007\O,0,-1.29765,1.
 12337,0.00041\O,0,-3.4224,0.12154,0.00011\O,0,-1.48662,-1.2446,-0.0003
 \H,0,-1.82965,1.91731,0.00073\H,0,-3.88031,-0.71671,-0.0001\H,0,-0.517

 Normal termination of Gaussian 16 at Tue Apr  8 22:22:44 2025.
