 Gaussian 16, Revision C.01,

 ----------------------------------------------------------------------
 #t hf aug-cc-pvdz symm=none int=(grid=ultrafine) guess=(read,tcheck) s
 table=(opt,rrhf)
 ----------------------------------------------------------------------
 -----
 title
 -----
 Symbolic Z-matrix:
 Charge =  0 Multiplicity = 1

 SCF Done:  E(RHF) =  -497.145897683     A.U. after   14 cycles
 Normal termination of Gaussian 16 at Tue Apr  8 22:26:00 2025.
 Gaussian 16:  ES64L-G16RevC.01  3-Jul-2019

 ----------------------------------------------------------------------
 #t hf aug-cc-pvdz iop(5/13=1,5/36=2,99/5=2) pseudo=read geom=check gue
 ss=(read,tcheck) scf=(maxcycle=1)
 ----------------------------------------------------------------------
 -----
 title
 -----
 Structure from the checkpoint file:  "B-set_borepin_borazine_110_dimer_mol1.chk"
 Charge =  0 Multiplicity = 1

                         Standard orientation:
 ---------------------------------------------------------------------
 Center     Atomic      Atomic             Coordinates (Angstroms)
 Number     Number       Type             X           Y           Z
 ---------------------------------------------------------------------
      1          6           0       -1.322731   -1.149819    1.228704
      2          6           0       -2.042517   -1.525509    0.135892
      3          6           0       -0.988399    0.144429    1.706120
      4          1           0       -0.937819   -1.965109    1.830291
      5          6           0       -2.678983   -0.735829   -0.858059
      6          1           0       -2.147792   -2.595443   -0.001913
      7          6           0       -1.296030    1.360502    1.175975
      8          1           0       -0.393509    0.132440    2.614712
      9          6           0       -2.717260    0.620141   -0.984400
     10          1           0       -3.196232   -1.321822   -1.612721
     11          1           0       -0.902298    2.200430    1.741985
     12          5           0       -2.087310    1.676933   -0.086200
     13          1           0       -3.277860    0.967572   -1.848417
     14          1           0       -2.228367    2.828243   -0.387907
     15          5           0        3.041125   -0.013825    0.737561
     16          7           0        2.607529    1.197217    0.129153
     17          7           0        2.551599   -1.234102    0.187854
     18          1           0        3.783673   -0.009683    1.674724
     19          5           0        1.703113    1.224042   -0.974112
     20          1           0        2.934170    2.069348    0.502869
     21          5           0        1.661602   -1.274367   -0.927259
     22          1           0        2.852009   -2.100383    0.595602
     23          7           0        1.266493   -0.029490   -1.490263
     24          1           0        1.334775    2.255527   -1.450260
     25          1           0        1.271845   -2.313317   -1.371240
     26          1           0        0.610922   -0.030574   -2.250270
 ---------------------------------------------------------------------

 SCF Done:  E(RHF) =  -497.661674862     A.U. after    2 cycles

 The electronic state is 1-A.
 Alpha  occ. eigenvalues --  -15.46948 -15.46776 -15.46553 -11.26297 -11.26136
 Alpha  occ. eigenvalues --  -11.25996 -11.25904 -11.22291 -11.22150  -7.59120
 Alpha  occ. eigenvalues --   -7.59037  -7.58889  -7.56039  -1.20711  -1.13702
 Alpha  occ. eigenvalues --   -1.13598  -1.12847  -1.05407  -0.99793  -0.88212
 Alpha  occ. eigenvalues --   -0.82626  -0.77933  -0.76603  -0.76489  -0.71182
 Alpha  occ. eigenvalues --   -0.69369  -0.68429  -0.65350  -0.63966  -0.63836
 Alpha  occ. eigenvalues --   -0.63260  -0.58995  -0.56717  -0.54992  -0.54160
 Alpha  occ. eigenvalues --   -0.53938  -0.49156  -0.48457  -0.48438  -0.46279
 Alpha  occ. eigenvalues --   -0.46105  -0.44780  -0.44540  -0.38678  -0.32901
 Alpha virt. eigenvalues --    0.02796   0.02994   0.03411   0.03754   0.04145
 Alpha virt. eigenvalues --    0.04234   0.04420   0.04587   0.04672   0.05342
 Alpha virt. eigenvalues --    0.05885   0.06979   0.07116   0.07516   0.07756

 Mulliken charges:
               1
     1  C    0.339174
     2  C    0.222409
     3  C    0.650777
     4  H   -0.307914
     5  C    0.529717
     6  H   -0.292071
     7  C    0.124029
     8  H   -0.305889
     9  C   -0.016919
    10  H   -0.266415
    11  H   -0.292268
    12  B   -0.501561
    13  H   -0.273840
    14  H    0.287353
    15  B   -0.870562
    16  N    0.594155
    17  N    0.594860
    18  H    0.345065
    19  B   -1.000471
    20  H   -0.182020
    21  B   -0.990261
    22  H   -0.180891
    23  N    1.032628
    24  H    0.515311
    25  H    0.463977
    26  H   -0.218373
 Sum of Mulliken charges =  -0.00000

 Dipole moment (field-independent basis, Debye):
    X=              0.0977    Y=             -1.8557    Z=              0.5474  Tot=              1.9372

 Test job not archived.
 1\1\GINC-SE435\SP\RHF\Aug-CC-pVDZ\C6H13B4N3\OHZDE\08-Apr-2025\0\\#t hf
  aug-cc-pvdz iop(5/13=1,5/36=2,99/5=2) pseudo=read geom=check guess=(r
 ead,tcheck) scf=(maxcycle=1)\\title\\0,1\C,0,-1.1002,-1.1557,1.24379\C
 ,0,-1.87153,-1.52215,0.18349\C,0,-0.73895,0.13441,1.71272\H,0,-0.6909,
 -1.97601,1.822\C,0,-2.55047,-0.72416,-0.77509\H,0,-1.98729,-2.59084,0.
 04445\C,0,-1.06616,1.35478,1.20463\H,0,-0.10247,0.11476,2.59254\C,0,-2
 .58928,0.63268,-0.89154\H,0,-3.10457,-1.30369,-1.50828\H,0,-0.64323,2.
 18983,1.75662\B,0,-1.91408,1.68172,-0.01745\H,0,-3.18812,0.98737,-1.72

 Normal termination of Gaussian 16 at Tue Apr  8 22:26:23 2025.
