 Gaussian 16, Revision C.01,

 ----------------------------------------------------------------------
 #t hf aug-cc-pvdz symm=none int=(grid=ultrafine) guess=(read,tcheck) s
 table=(opt,rrhf)
 ----------------------------------------------------------------------
 -----
 title
 -----
 Symbolic Z-matrix:
 Charge =  0 Multiplicity = 1

 SCF Done:  E(RHF) =  -464.895153639     A.U. after   15 cycles
 Normal termination of Gaussian 16 at Tue Apr  8 22:25:16 2025.
 Gaussian 16:  ES64L-G16RevC.01  3-Jul-2019

 ----------------------------------------------------------------------
 #t hf aug-cc-pvdz iop(5/13=1,5/36=2,99/5=2) pseudo=read geom=check gue
 ss=(read,tcheck) scf=(maxcycle=1)
 ----------------------------------------------------------------------
 -----
 title
 -----
 Structure from the checkpoint file:  "B-set_azaborine_benzene_105_dimer_mol1.chk"
 Charge =  0 Multiplicity = 1

                         Standard orientation:
 ---------------------------------------------------------------------
 Center     Atomic      Atomic             Coordinates (Angstroms)
 Number     Number       Type             X           Y           Z
 ---------------------------------------------------------------------
      1          7           0        1.103943    0.198824   -0.055363
      2          5           0        1.907334    1.377022   -0.031385
      3          6           0        1.615611   -1.057236   -0.037832
      4          1           0        0.098689    0.260705   -0.085403
      5          6           0        3.396868    1.128135    0.014706
      6          1           0        1.352239    2.434603   -0.049115
      7          6           0        2.956387   -1.266470    0.003719
      8          1           0        0.905205   -1.872199   -0.058160
      9          6           0        3.846131   -0.161684    0.029812
     10          1           0        4.131374    1.923727    0.036587
     11          1           0        3.334087   -2.277695    0.016752
     12          1           0        4.909229   -0.376043    0.062670
     13          6           0       -2.417621   -0.168627    1.390865
     14          6           0       -2.475111    1.105365    0.844463
     15          6           0       -2.393387   -1.279439    0.559883
     16          1           0       -2.386112   -0.295387    2.464040
     17          6           0       -2.507666    1.268733   -0.533161
     18          1           0       -2.485784    1.971315    1.491418
     19          6           0       -2.425762   -1.116421   -0.817821
     20          1           0       -2.348455   -2.272191    0.986464
     21          6           0       -2.482712    0.157780   -1.364343
     22          1           0       -2.543929    2.261761   -0.958788
     23          1           0       -2.405308   -1.981715   -1.466040
     24          1           0       -2.501931    0.285425   -2.437711
 ---------------------------------------------------------------------

 SCF Done:  E(RHF) =  -465.382562264     A.U. after    2 cycles

 The electronic state is 1-A.
 Alpha  occ. eigenvalues --  -15.51299 -11.27994 -11.25413 -11.25354 -11.25324
 Alpha  occ. eigenvalues --  -11.25283 -11.25228 -11.25201 -11.24326 -11.21832
 Alpha  occ. eigenvalues --  -11.19114  -7.55798  -1.23938  -1.17034  -1.07170
 Alpha  occ. eigenvalues --   -1.03102  -1.03072  -0.97642  -0.84500  -0.84495
 Alpha  occ. eigenvalues --   -0.84075  -0.80105  -0.74822  -0.73678  -0.66008
 Alpha  occ. eigenvalues --   -0.65159  -0.64508  -0.63496  -0.61312  -0.61288
 Alpha  occ. eigenvalues --   -0.60480  -0.56086  -0.55449  -0.52744  -0.51727
 Alpha  occ. eigenvalues --   -0.51715  -0.49405  -0.46156  -0.40370  -0.36134
 Alpha  occ. eigenvalues --   -0.35987  -0.30919
 Alpha virt. eigenvalues --    0.02948   0.03334   0.03399   0.04059   0.04571
 Alpha virt. eigenvalues --    0.04706   0.04900   0.05565   0.06624   0.07444
 Alpha virt. eigenvalues --    0.07832   0.08163   0.08363   0.08968   0.09709

 Mulliken charges:
               1
     1  N    1.486217
     2  B   -0.387803
     3  C   -1.152363
     4  H    0.029351
     5  C    0.243888
     6  H    0.266539
     7  C    0.737451
     8  H   -0.408669
     9  C   -0.057638
    10  H   -0.267595
    11  H   -0.193840
    12  H   -0.211632
    13  C    0.234377
    14  C    0.272525
    15  C    0.261602
    16  H   -0.255051
    17  C    0.252267
    18  H   -0.270367
    19  C    0.253673
    20  H   -0.278053
    21  C    0.250876
    22  H   -0.270318
    23  H   -0.273771
    24  H   -0.261664
 Sum of Mulliken charges =   0.00000

 Dipole moment (field-independent basis, Debye):
    X=             -1.7536    Y=             -1.4807    Z=              0.0021  Tot=              2.2952

 Test job not archived.
 1\1\GINC-SE398\SP\RHF\Aug-CC-pVDZ\C10H12B1N1\OHZDE\08-Apr-2025\0\\#t h
 f aug-cc-pvdz iop(5/13=1,5/36=2,99/5=2) pseudo=read geom=check guess=(
 read,tcheck) scf=(maxcycle=1)\\title\\0,1\N,0,-0.98689,0.19856,0.05529
 \B,0,-1.78972,1.37715,0.03178\C,0,-1.49918,-1.05725,0.03801\H,0,0.0184
 1,0.25995,0.08478\C,0,-3.2794,1.12899,-0.0135\H,0,-1.2341,2.43446,0.04
 923\C,0,-2.84008,-1.26583,-0.00281\H,0,-0.78916,-1.87256,0.05793\C,0,-
 3.7293,-0.16061,-0.02839\H,0,-4.01353,1.92494,-0.03496\H,0,-3.21828,-2
 .27687,-0.01566\H,0,-4.79252,-0.37445,-0.06067\C,0,2.53370121,-0.17057

 Normal termination of Gaussian 16 at Tue Apr  8 22:25:34 2025.
