 Gaussian 16, Revision C.01,

 ----------------------------------------------------------------------
 #t hf aug-cc-pvdz symm=none int=(grid=ultrafine) guess=(read,tcheck) s
 table=(opt,rrhf)
 ----------------------------------------------------------------------
 -----
 title
 -----
 Symbolic Z-matrix:
 Charge =  0 Multiplicity = 1

 SCF Done:  E(RHF) =  -497.137880096     A.U. after   14 cycles
 Normal termination of Gaussian 16 at Tue Apr  8 22:26:48 2025.
 Gaussian 16:  ES64L-G16RevC.01  3-Jul-2019

 ----------------------------------------------------------------------
 #t hf aug-cc-pvdz iop(5/13=1,5/36=2,99/5=2) pseudo=read geom=check gue
 ss=(read,tcheck) scf=(maxcycle=1)
 ----------------------------------------------------------------------
 -----
 title
 -----
 Structure from the checkpoint file:  "B-set_borepin_borazine_095_dimer_mol1.chk"
 Charge =  0 Multiplicity = 1

                         Standard orientation:
 ---------------------------------------------------------------------
 Center     Atomic      Atomic             Coordinates (Angstroms)
 Number     Number       Type             X           Y           Z
 ---------------------------------------------------------------------
      1          6           0       -0.981366   -1.159261    1.250745
      2          6           0       -1.785260   -1.520188    0.212979
      3          6           0       -0.602975    0.128349    1.712979
      4          1           0       -0.556789   -1.982548    1.813502
      5          6           0       -2.490896   -0.717258   -0.721902
      6          1           0       -1.907770   -2.588111    0.073827
      7          6           0       -0.942407    1.351255    1.219205
      8          1           0        0.059739    0.104127    2.573095
      9          6           0       -2.529900    0.640070   -0.832461
     10          1           0       -3.068299   -1.292917   -1.440004
     11          1           0       -0.500964    2.183374    1.761033
     12          5           0       -1.826052    1.684458    0.024432
     13          1           0       -3.152818    0.999083   -1.647684
     14          1           0       -1.982312    2.839430   -0.254964
     15          5           0        2.802015   -0.032526    0.576399
     16          7           0        2.330957    1.186835    0.014216
     17          7           0        2.263829   -1.244572    0.054679
     18          1           0        3.614245   -0.041752    1.453820
     19          5           0        1.344806    1.229571   -1.016105
     20          1           0        2.690975    2.053403    0.369768
     21          5           0        1.290708   -1.268892   -0.989177
     22          1           0        2.588960   -2.116483    0.430192
     23          7           0        0.861725   -0.016360   -1.508734
     24          1           0        0.947782    2.267729   -1.453081
     25          1           0        0.861285   -2.301223   -1.411475
     26          1           0        0.149818   -0.006293   -2.216174
 ---------------------------------------------------------------------

 SCF Done:  E(RHF) =  -497.650768667     A.U. after    2 cycles

 The electronic state is 1-A.
 Alpha  occ. eigenvalues --  -15.46833 -15.46546 -15.46267 -11.26214 -11.26051
 Alpha  occ. eigenvalues --  -11.25948 -11.25849 -11.22213 -11.22084  -7.59019
 Alpha  occ. eigenvalues --   -7.58926  -7.58756  -7.56043  -1.20603  -1.13597
 Alpha  occ. eigenvalues --   -1.13488  -1.12741  -1.05418  -0.99815  -0.88185
 Alpha  occ. eigenvalues --   -0.82638  -0.77789  -0.76500  -0.76355  -0.71142
 Alpha  occ. eigenvalues --   -0.69348  -0.68399  -0.65198  -0.63855  -0.63687
 Alpha  occ. eigenvalues --   -0.63242  -0.58991  -0.56799  -0.55336  -0.54127
 Alpha  occ. eigenvalues --   -0.53893  -0.48977  -0.48399  -0.48219  -0.46265
 Alpha  occ. eigenvalues --   -0.46082  -0.44862  -0.44257  -0.38601  -0.32828
 Alpha virt. eigenvalues --    0.02779   0.03030   0.03407   0.03676   0.04100
 Alpha virt. eigenvalues --    0.04190   0.04391   0.04534   0.04633   0.05253
 Alpha virt. eigenvalues --    0.05890   0.07164   0.07388   0.07777   0.07938

 Mulliken charges:
               1
     1  C    0.269487
     2  C    0.293988
     3  C    0.717288
     4  H   -0.321312
     5  C    0.441405
     6  H   -0.297543
     7  C    0.078834
     8  H   -0.275674
     9  C   -0.010123
    10  H   -0.274533
    11  H   -0.304808
    12  B   -0.618168
    13  H   -0.278117
    14  H    0.327318
    15  B   -1.080880
    16  N    0.684835
    17  N    0.728670
    18  H    0.423323
    19  B   -1.138150
    20  H   -0.191369
    21  B   -1.034554
    22  H   -0.198858
    23  N    1.266474
    24  H    0.546180
    25  H    0.462312
    26  H   -0.216026
 Sum of Mulliken charges =  -0.00000

 Dipole moment (field-independent basis, Debye):
    X=              0.0847    Y=             -1.8325    Z=              0.5654  Tot=              1.9196

 Test job not archived.
 1\1\GINC-SE361\SP\RHF\Aug-CC-pVDZ\C6H13B4N3\OHZDE\08-Apr-2025\0\\#t hf
  aug-cc-pvdz iop(5/13=1,5/36=2,99/5=2) pseudo=read geom=check guess=(r
 ead,tcheck) scf=(maxcycle=1)\\title\\0,1\C,0,-1.1002,-1.1557,1.24379\C
 ,0,-1.87153,-1.52215,0.18349\C,0,-0.73895,0.13441,1.71272\H,0,-0.6909,
 -1.97601,1.822\C,0,-2.55047,-0.72416,-0.77509\H,0,-1.98729,-2.59084,0.
 04445\C,0,-1.06616,1.35478,1.20463\H,0,-0.10247,0.11476,2.59254\C,0,-2
 .58928,0.63268,-0.89154\H,0,-3.10457,-1.30369,-1.50828\H,0,-0.64323,2.
 18983,1.75662\B,0,-1.91408,1.68172,-0.01745\H,0,-3.18812,0.98737,-1.72

 Normal termination of Gaussian 16 at Tue Apr  8 22:27:13 2025.
