 Gaussian 16, Revision C.01,

 ----------------------------------------------------------------------
 #t hf aug-cc-pvdz symm=none int=(grid=ultrafine) guess=(read,tcheck) s
 table=(opt,rrhf)
 ----------------------------------------------------------------------
 -----
 title
 -----
 Symbolic Z-matrix:
 Charge =  0 Multiplicity = 1

 SCF Done:  E(RHF) =  -327.287588305     A.U. after   11 cycles
 Normal termination of Gaussian 16 at Tue Apr  8 22:23:19 2025.
 Gaussian 16:  ES64L-G16RevC.01  3-Jul-2019

 ----------------------------------------------------------------------
 #t hf aug-cc-pvdz iop(5/13=1,5/36=2,99/5=2) pseudo=read geom=check gue
 ss=(read,tcheck) scf=(maxcycle=1)
 ----------------------------------------------------------------------
 -----
 title
 -----
 Structure from the checkpoint file:  "B-set_boricacid_h2o_110_dimer_mol1.chk"
 Charge =  0 Multiplicity = 1

                         Standard orientation:
 ---------------------------------------------------------------------
 Center     Atomic      Atomic             Coordinates (Angstroms)
 Number     Number       Type             X           Y           Z
 ---------------------------------------------------------------------
      1          5           0       -0.845232   -0.024107    0.002091
      2          8           0       -0.191152   -1.207776   -0.001549
      3          8           0       -0.140232    1.163439   -0.001828
      4          8           0       -2.209660    0.037446    0.013166
      5          1           0        0.770853   -1.102176   -0.026834
      6          1           0       -0.712725    1.927896   -0.014973
      7          1           0       -2.612291   -0.828774    0.008333
      8          8           0        2.708072   -0.066289   -0.084231
      9          1           0        2.148011    0.717646   -0.047901
     10          1           0        3.296077   -0.008613    0.666447
 ---------------------------------------------------------------------

 SCF Done:  E(RHF) =  -327.616947408     A.U. after    2 cycles

 The electronic state is 1-A.
 Alpha  occ. eigenvalues --  -20.56490 -20.56112 -20.55617 -20.54831  -7.66534
 Alpha  occ. eigenvalues --   -1.49948  -1.44911  -1.44486  -1.44093  -0.78374
 Alpha  occ. eigenvalues --   -0.74399  -0.73743  -0.71897  -0.59888  -0.58800
 Alpha  occ. eigenvalues --   -0.56994  -0.56400  -0.55643  -0.50613  -0.50034
 Alpha  occ. eigenvalues --   -0.49295
 Alpha virt. eigenvalues --    0.03634   0.04285   0.05065   0.05652   0.07292
 Alpha virt. eigenvalues --    0.07797   0.09518   0.10106   0.10987   0.17502
 Alpha virt. eigenvalues --    0.19202   0.20629   0.20861   0.21216   0.22841

 Mulliken charges:
               1
     1  B    1.827018
     2  O   -1.120427
     3  O   -1.107138
     4  O   -1.076838
     5  H    0.573594
     6  H    0.464754
     7  H    0.430872
     8  O   -0.830980
     9  H    0.457736
    10  H    0.381407
 Sum of Mulliken charges =   0.00000

 Dipole moment (field-independent basis, Debye):
    X=              0.1616    Y=              1.2886    Z=              1.2274  Tot=              1.7869

 Test job not archived.
 1\1\GINC-SE126\SP\RHF\Aug-CC-pVDZ\B1H5O4\OHZDE\08-Apr-2025\0\\#t hf au
 g-cc-pvdz iop(5/13=1,5/36=2,99/5=2) pseudo=read geom=check guess=(read
 ,tcheck) scf=(maxcycle=1)\\title\\0,1\B,0,-0.76791,-0.02465,0.00325\O,
 0,-0.10569,-1.20379,0.00191\O,0,-0.07109,1.16772,0.00192\O,0,-2.13276,
 0.02751,0.00942\H,0,0.85565,-1.09157,-0.01991\H,0,-0.64878,1.92822,-0.
 01325\H,0,-2.5294,-0.84146,0.0031\O,0,2.78588757,-0.04237119,-0.070291
 29\H,0,2.22031757,0.73768881,-0.03594129\H,0,3.37077757,0.01929881,0.6
 8249871\\Version=ES64L-G16RevC.01\State=1-A\HF=-327.6169474\RMSD=8.085

 Normal termination of Gaussian 16 at Tue Apr  8 22:23:21 2025.
