 Gaussian 16, Revision C.01,

 ----------------------------------------------------------------------
 #t hf aug-cc-pvdz symm=none int=(grid=ultrafine) guess=(read,tcheck) s
 table=(opt,rrhf)
 ----------------------------------------------------------------------
 -----
 title
 -----
 Symbolic Z-matrix:
 Charge =  0 Multiplicity = 1

 SCF Done:  E(RHF) =  -497.146892016     A.U. after   13 cycles
 Normal termination of Gaussian 16 at Tue Apr  8 22:25:05 2025.
 Gaussian 16:  ES64L-G16RevC.01  3-Jul-2019

 ----------------------------------------------------------------------
 #t hf aug-cc-pvdz iop(5/13=1,5/36=2,99/5=2) pseudo=read geom=check gue
 ss=(read,tcheck) scf=(maxcycle=1)
 ----------------------------------------------------------------------
 -----
 title
 -----
 Structure from the checkpoint file:  "B-set_borepin_borazine_200_dimer_mol1.chk"
 Charge =  0 Multiplicity = 1

                         Standard orientation:
 ---------------------------------------------------------------------
 Center     Atomic      Atomic             Coordinates (Angstroms)
 Number     Number       Type             X           Y           Z
 ---------------------------------------------------------------------
      1          6           0       -3.013777   -1.128786    1.142431
      2          6           0       -3.579140   -1.539828   -0.025850
      3          6           0       -2.759316    0.180767    1.627302
      4          1           0       -2.702710   -1.924397    1.809516
      5          6           0       -4.087559   -0.782464   -1.114212
      6          1           0       -3.653745   -2.614046   -0.149628
      7          6           0       -3.007535    1.379758    1.031203
      8          1           0       -2.289275    0.198241    2.606247
      9          6           0       -4.123527    0.569533   -1.278202
     10          1           0       -4.494457   -1.393031   -1.915518
     11          1           0       -2.700956    2.238051    1.622991
     12          5           0       -3.628934    1.655644   -0.331547
     13          1           0       -4.569086    0.888896   -2.216813
     14          1           0       -3.741450    2.797539   -0.677746
     15          5           0        4.692399    0.033847    1.051065
     16          7           0        4.329690    1.224223    0.360969
     17          7           0        4.292834   -1.205618    0.472304
     18          1           0        5.304861    0.070177    2.077340
     19          5           0        3.578340    1.212719   -0.851971
     20          1           0        4.594765    2.109297    0.752567
     21          5           0        3.558064   -1.284262   -0.748810
     22          1           0        4.546242   -2.057892    0.937451
     23          7           0        3.227154   -0.058468   -1.389693
     24          1           0        3.264828    2.227594   -1.397946
     25          1           0        3.241495   -2.338611   -1.214190
     26          1           0        2.677523   -0.086404   -2.229043
 ---------------------------------------------------------------------

 SCF Done:  E(RHF) =  -497.664924518     A.U. after    2 cycles

 The electronic state is 1-A.
 Alpha  occ. eigenvalues --  -15.47099 -15.47062 -15.47048 -11.26309 -11.26265
 Alpha  occ. eigenvalues --  -11.26076 -11.25983 -11.22329 -11.22280  -7.59341
 Alpha  occ. eigenvalues --   -7.59321  -7.59231  -7.56084  -1.20923  -1.14009
 Alpha  occ. eigenvalues --   -1.13936  -1.12886  -1.05488  -0.99873  -0.88325
 Alpha  occ. eigenvalues --   -0.82716  -0.78256  -0.76897  -0.76853  -0.71297
 Alpha  occ. eigenvalues --   -0.69455  -0.68518  -0.65670  -0.64214  -0.64205
 Alpha  occ. eigenvalues --   -0.63326  -0.59060  -0.56882  -0.55126  -0.54242
 Alpha  occ. eigenvalues --   -0.54038  -0.49232  -0.48766  -0.48684  -0.46351
 Alpha  occ. eigenvalues --   -0.46180  -0.45028  -0.44951  -0.38702  -0.32933
 Alpha virt. eigenvalues --    0.02764   0.02957   0.03367   0.03750   0.04140
 Alpha virt. eigenvalues --    0.04326   0.04495   0.04772   0.04918   0.05064
 Alpha virt. eigenvalues --    0.05711   0.05800   0.05954   0.06501   0.06734

 Mulliken charges:
               1
     1  C    0.193994
     2  C    0.173322
     3  C    0.507460
     4  H   -0.267622
     5  C    0.452455
     6  H   -0.263716
     7  C    0.034204
     8  H   -0.246971
     9  C    0.039565
    10  H   -0.240134
    11  H   -0.263182
    12  B   -0.043088
    13  H   -0.256248
    14  H    0.183559
    15  B   -0.431003
    16  N    0.399934
    17  N    0.385339
    18  H    0.222138
    19  B   -0.469258
    20  H   -0.182980
    21  B   -0.477262
    22  H   -0.185966
    23  N    0.394097
    24  H    0.259274
    25  H    0.260915
    26  H   -0.178828
 Sum of Mulliken charges =   0.00000

 Dipole moment (field-independent basis, Debye):
    X=              0.1378    Y=             -1.8898    Z=              0.5742  Tot=              1.9800

 Test job not archived.
 1\1\GINC-SE095\SP\RHF\Aug-CC-pVDZ\C6H13B4N3\OHZDE\08-Apr-2025\0\\#t hf
  aug-cc-pvdz iop(5/13=1,5/36=2,99/5=2) pseudo=read geom=check guess=(r
 ead,tcheck) scf=(maxcycle=1)\\title\\0,1\C,0,-1.1002,-1.1557,1.24379\C
 ,0,-1.87153,-1.52215,0.18349\C,0,-0.73895,0.13441,1.71272\H,0,-0.6909,
 -1.97601,1.822\C,0,-2.55047,-0.72416,-0.77509\H,0,-1.98729,-2.59084,0.
 04445\C,0,-1.06616,1.35478,1.20463\H,0,-0.10247,0.11476,2.59254\C,0,-2
 .58928,0.63268,-0.89154\H,0,-3.10457,-1.30369,-1.50828\H,0,-0.64323,2.
 18983,1.75662\B,0,-1.91408,1.68172,-0.01745\H,0,-3.18812,0.98737,-1.72

 Normal termination of Gaussian 16 at Tue Apr  8 22:25:23 2025.
