 Gaussian 16, Revision C.01,

 ----------------------------------------------------------------------
 #t hf aug-cc-pvdz symm=none int=(grid=ultrafine) guess=(read,tcheck) s
 table=(opt,rrhf)
 ----------------------------------------------------------------------
 -----
 title
 -----
 Symbolic Z-matrix:
 Charge =  0 Multiplicity = 1

 SCF Done:  E(RHF) =  -219.228272252     A.U. after   12 cycles
 Normal termination of Gaussian 16 at Tue Apr  8 22:25:35 2025.
 Gaussian 16:  ES64L-G16RevC.01  3-Jul-2019

 ----------------------------------------------------------------------
 #t hf aug-cc-pvdz iop(5/13=1,5/36=2,99/5=2) pseudo=read geom=check gue
 ss=(read,tcheck) scf=(maxcycle=1)
 ----------------------------------------------------------------------
 -----
 title
 -----
 Structure from the checkpoint file:  "B-set_borole_methane_125_dimer_mol1.chk"
 Charge =  0 Multiplicity = 1

                         Standard orientation:
 ---------------------------------------------------------------------
 Center     Atomic      Atomic             Coordinates (Angstroms)
 Number     Number       Type             X           Y           Z
 ---------------------------------------------------------------------
      1          5           0       -0.344498   -0.153002    1.216658
      2          6           0       -0.949376   -1.269792    0.276874
      3          6           0       -0.693886    1.206037    0.491911
      4          1           0        0.201957   -0.301012    2.264954
      5          6           0       -1.546612   -0.621950   -0.724824
      6          1           0       -0.944632   -2.345089    0.374092
      7          6           0       -1.391375    0.873830   -0.595416
      8          1           0       -0.469120    2.224974    0.769219
      9          1           0       -2.087434   -1.070780   -1.549203
     10          1           0       -1.812628    1.556741   -1.323103
     11          6           0        3.432000   -0.042699   -0.331546
     12          1           0        4.379681   -0.525776   -0.558870
     13          1           0        3.420781    0.962058   -0.746265
     14          1           0        2.618690   -0.621379   -0.765419
     15          1           0        3.310692    0.012718    0.749306
 ---------------------------------------------------------------------

 SCF Done:  E(RHF) =  -219.465419011     A.U. after    2 cycles

 The electronic state is 1-A.
 Alpha  occ. eigenvalues --  -11.25729 -11.25695 -11.21705 -11.21054 -11.21002
 Alpha  occ. eigenvalues --   -7.59682  -1.12357  -0.97511  -0.94461  -0.84518
 Alpha  occ. eigenvalues --   -0.71811  -0.70900  -0.65668  -0.58166  -0.54963
 Alpha  occ. eigenvalues --   -0.54897  -0.54750  -0.52825  -0.47733  -0.47208
 Alpha  occ. eigenvalues --   -0.46736  -0.32572
 Alpha virt. eigenvalues --    0.02037   0.03329   0.03684   0.03816   0.04438
 Alpha virt. eigenvalues --    0.05456   0.05939   0.06112   0.07071   0.07725
 Alpha virt. eigenvalues --    0.08729   0.09056   0.12517   0.13113   0.13927

 Mulliken charges:
               1
     1  B    0.310910
     2  C    0.013794
     3  C    0.022572
     4  H    0.229285
     5  C    0.070026
     6  H   -0.208007
     7  C    0.077912
     8  H   -0.196581
     9  H   -0.152452
    10  H   -0.155536
    11  C   -0.287304
    12  H    0.034687
    13  H    0.097152
    14  H    0.065327
    15  H    0.078216
 Sum of Mulliken charges =   0.00000

 Dipole moment (field-independent basis, Debye):
    X=             -0.4782    Y=              0.1331    Z=             -0.8428  Tot=              0.9782

 Test job not archived.
 1\1\GINC-SE105\SP\RHF\Aug-CC-pVDZ\C5H9B1\OHZDE\08-Apr-2025\0\\#t hf au
 g-cc-pvdz iop(5/13=1,5/36=2,99/5=2) pseudo=read geom=check guess=(read
 ,tcheck) scf=(maxcycle=1)\\title\\0,1\B,0,0.06513,-0.1638,-1.2018\C,0,
 0.7417,-1.2672,-0.29568\C,0,0.44816,1.2043,-0.51194\H,0,-0.54783,-0.32
 544,-2.21056\C,0,1.39732,-0.60567,0.65948\H,0,0.74116,-2.34325,-0.3843
 \C,0,1.21913,0.88749,0.52939\H,0,0.19554,2.2188,-0.78143\H,0,1.99577,-
 1.0427,1.44967\H,0,1.68073,1.58021,1.22251\C,0,-3.60186525,-0.076213,0
 .5916645\H,0,-4.52766525,-0.566263,0.8847245\H,0,-3.57321525,0.931947,

 Normal termination of Gaussian 16 at Tue Apr  8 22:25:40 2025.
