 Gaussian 16, Revision C.01,

 ----------------------------------------------------------------------
 #t hf aug-cc-pvdz symm=none int=(grid=ultrafine) guess=(read,tcheck) s
 table=(opt,rrhf)
 ----------------------------------------------------------------------
 -----
 title
 -----
 Symbolic Z-matrix:
 Charge =  0 Multiplicity = 1

 SCF Done:  E(RHF) =  -327.278572649     A.U. after   11 cycles
 Normal termination of Gaussian 16 at Tue Apr  8 22:23:18 2025.
 Gaussian 16:  ES64L-G16RevC.01  3-Jul-2019

 ----------------------------------------------------------------------
 #t hf aug-cc-pvdz iop(5/13=1,5/36=2,99/5=2) pseudo=read geom=check gue
 ss=(read,tcheck) scf=(maxcycle=1)
 ----------------------------------------------------------------------
 -----
 title
 -----
 Structure from the checkpoint file:  "B-set_boricacid_h2o_200_dimer_mol1.chk"
 Charge =  0 Multiplicity = 1

                         Standard orientation:
 ---------------------------------------------------------------------
 Center     Atomic      Atomic             Coordinates (Angstroms)
 Number     Number       Type             X           Y           Z
 ---------------------------------------------------------------------
      1          5           0       -1.541564   -0.021635   -0.001502
      2          8           0       -0.922659   -1.223970   -0.017472
      3          8           0       -0.802302    1.144734   -0.021012
      4          8           0       -2.903086    0.079889    0.037543
      5          1           0        0.041304   -1.146622   -0.062613
      6          1           0       -1.352301    1.925640   -0.023108
      7          1           0       -3.330938   -0.774158    0.041791
      8          8           0        4.930536   -0.074261   -0.072651
      9          1           0        4.394550    0.725767   -0.025556
     10          1           0        5.535289   -0.033595    0.665734
 ---------------------------------------------------------------------

 SCF Done:  E(RHF) =  -327.607727816     A.U. after    2 cycles

 The electronic state is 1-A.
 Alpha  occ. eigenvalues --  -20.56035 -20.55988 -20.55750 -20.55400  -7.66679
 Alpha  occ. eigenvalues --   -1.50050  -1.44856  -1.44108  -1.44026  -0.78494
 Alpha  occ. eigenvalues --   -0.74180  -0.73706  -0.71576  -0.59972  -0.57727
 Alpha  occ. eigenvalues --   -0.57074  -0.56337  -0.55757  -0.50041  -0.50034
 Alpha  occ. eigenvalues --   -0.49564
 Alpha virt. eigenvalues --    0.03372   0.04220   0.04986   0.05436   0.05893
 Alpha virt. eigenvalues --    0.07023   0.08318   0.09525   0.10694   0.17242
 Alpha virt. eigenvalues --    0.20113   0.20428   0.20653   0.21286   0.21424

 Mulliken charges:
               1
     1  B    1.831785
     2  O   -1.067763
     3  O   -1.091128
     4  O   -1.051967
     5  H    0.475141
     6  H    0.455850
     7  H    0.448106
     8  O   -0.746397
     9  H    0.380138
    10  H    0.366235
 Sum of Mulliken charges =  -0.00000

 Dipole moment (field-independent basis, Debye):
    X=              0.1068    Y=              1.2076    Z=              1.2393  Tot=              1.7337

 Test job not archived.
 1\1\GINC-SE329\SP\RHF\Aug-CC-pVDZ\B1H5O4\OHZDE\08-Apr-2025\0\\#t hf au
 g-cc-pvdz iop(5/13=1,5/36=2,99/5=2) pseudo=read geom=check guess=(read
 ,tcheck) scf=(maxcycle=1)\\title\\0,1\B,0,-0.76791,-0.02465,0.00325\O,
 0,-0.10569,-1.20379,0.00191\O,0,-0.07109,1.16772,0.00192\O,0,-2.13276,
 0.02751,0.00942\H,0,0.85565,-1.09157,-0.01991\H,0,-0.64878,1.92822,-0.
 01325\H,0,-2.5294,-0.84146,0.0031\O,0,5.70168571,0.1569681,0.08845714\
 H,0,5.13611571,0.93702809,0.12280714\H,0,6.28657571,0.2186381,0.841247
 14\\Version=ES64L-G16RevC.01\State=1-A\HF=-327.6077278\RMSD=7.553e-03\

 Normal termination of Gaussian 16 at Tue Apr  8 22:23:20 2025.
