 Gaussian 16, Revision C.01,

 ----------------------------------------------------------------------
 #t hf aug-cc-pvdz symm=none int=(grid=ultrafine) guess=(read,tcheck) s
 table=(opt,rrhf)
 ----------------------------------------------------------------------
 -----
 title
 -----
 Symbolic Z-matrix:
 Charge =  0 Multiplicity = 1

 SCF Done:  E(RHF) =  -255.962267157     A.U. after   14 cycles
 Normal termination of Gaussian 16 at Tue Apr  8 22:21:39 2025.
 Gaussian 16:  ES64L-G16RevC.01  3-Jul-2019

 ----------------------------------------------------------------------
 #t hf aug-cc-pvdz iop(5/13=1,5/36=2,99/5=2) pseudo=read geom=check gue
 ss=(read,tcheck) scf=(maxcycle=1)
 ----------------------------------------------------------------------
 -----
 title
 -----
 Structure from the checkpoint file:  "B-set_borepin_borazine_090_dimer_mol2.chk"
 Charge =  0 Multiplicity = 1

                         Standard orientation:
 ---------------------------------------------------------------------
 Center     Atomic      Atomic             Coordinates (Angstroms)
 Number     Number       Type             X           Y           Z
 ---------------------------------------------------------------------
      1          6           0       -0.685404   -1.409326    0.003342
      2          6           0        0.676009   -1.414182    0.004412
      3          6           0       -1.598662   -0.322761   -0.007585
      4          1           0       -1.150325   -2.388306    0.017790
      5          6           0        1.596310   -0.332725   -0.006508
      6          1           0        1.134026   -2.396473    0.016926
      7          6           0       -1.341280    1.014503   -0.005797
      8          1           0       -2.640304   -0.630238   -0.003673
      9          6           0        1.348549    1.006931   -0.002303
     10          1           0        2.636144   -0.647567   -0.014854
     11          1           0       -2.233357    1.635042   -0.004299
     12          5           0        0.005427    1.725443    0.011007
     13          1           0        2.244814    1.621877   -0.009808
     14          1           0        0.008736    2.923810    0.029516
 ---------------------------------------------------------------------

 SCF Done:  E(RHF) =  -256.228959673     A.U. after    2 cycles

 The electronic state is 1-A.
 Alpha  occ. eigenvalues --  -11.26325 -11.26304 -11.26107 -11.26014 -11.22352
 Alpha  occ. eigenvalues --  -11.22311  -7.56109  -1.12912  -1.05521  -0.99907
 Alpha  occ. eigenvalues --   -0.88357  -0.82746  -0.71326  -0.69484  -0.68545
 Alpha  occ. eigenvalues --   -0.63356  -0.59090  -0.54271  -0.54069  -0.49257
 Alpha  occ. eigenvalues --   -0.46379  -0.46205  -0.38732  -0.32965
 Alpha virt. eigenvalues --    0.03035   0.03284   0.03889   0.04491   0.04619
 Alpha virt. eigenvalues --    0.05112   0.05287   0.06606   0.07584   0.07706
 Alpha virt. eigenvalues --    0.08970   0.10455   0.12479   0.12991   0.13108

 Mulliken charges:
               1
     1  C    0.152948
     2  C    0.150390
     3  C    0.444802
     4  H   -0.254979
     5  C    0.441574
     6  H   -0.255228
     7  C    0.053310
     8  H   -0.235585
     9  C    0.052395
    10  H   -0.234806
    11  H   -0.255578
    12  B    0.033495
    13  H   -0.254769
    14  H    0.162031
 Sum of Mulliken charges =   0.00000

 Dipole moment (field-independent basis, Debye):
    X=             -0.0077    Y=             -2.0341    Z=              0.0109  Tot=              2.0342

 Test job not archived.
 1\1\GINC-SE364\SP\RHF\Aug-CC-pVDZ\C6H7B1\OHZDE\08-Apr-2025\0\\#t hf au
 g-cc-pvdz iop(5/13=1,5/36=2,99/5=2) pseudo=read geom=check guess=(read
 ,tcheck) scf=(maxcycle=1)\\title\\0,1\C,0,-1.1002,-1.1557,1.24379\C,0,
 -1.87153,-1.52215,0.18349\C,0,-0.73895,0.13441,1.71272\H,0,-0.6909,-1.
 97601,1.822\C,0,-2.55047,-0.72416,-0.77509\H,0,-1.98729,-2.59084,0.044
 45\C,0,-1.06616,1.35478,1.20463\H,0,-0.10247,0.11476,2.59254\C,0,-2.58
 928,0.63268,-0.89154\H,0,-3.10457,-1.30369,-1.50828\H,0,-0.64323,2.189
 83,1.75662\B,0,-1.91408,1.68172,-0.01745\H,0,-3.18812,0.98737,-1.72646

 Normal termination of Gaussian 16 at Tue Apr  8 22:21:43 2025.
