 Gaussian 16, Revision C.01,

 ----------------------------------------------------------------------
 #t hf aug-cc-pvdz symm=none int=(grid=ultrafine) guess=(read,tcheck) s
 table=(opt,rrhf)
 ----------------------------------------------------------------------
 -----
 title
 -----
 Symbolic Z-matrix:
 Charge =  0 Multiplicity = 1

 SCF Done:  E(RHF) =  -497.147209169     A.U. after   14 cycles
 Normal termination of Gaussian 16 at Tue Apr  8 22:26:01 2025.
 Gaussian 16:  ES64L-G16RevC.01  3-Jul-2019

 ----------------------------------------------------------------------
 #t hf aug-cc-pvdz iop(5/13=1,5/36=2,99/5=2) pseudo=read geom=check gue
 ss=(read,tcheck) scf=(maxcycle=1)
 ----------------------------------------------------------------------
 -----
 title
 -----
 Structure from the checkpoint file:  "B-set_borepin_borazine_150_dimer_mol1.chk"
 Charge =  0 Multiplicity = 1

                         Standard orientation:
 ---------------------------------------------------------------------
 Center     Atomic      Atomic             Coordinates (Angstroms)
 Number     Number       Type             X           Y           Z
 ---------------------------------------------------------------------
      1          6           0       -2.109593   -1.136121    1.179144
      2          6           0       -2.723396   -1.534167    0.030982
      3          6           0       -1.830071    0.167902    1.665119
      4          1           0       -1.775355   -1.939055    1.825940
      5          6           0       -3.271979   -0.764825   -1.029109
      6          1           0       -2.807622   -2.606898   -0.099349
      7          6           0       -2.096889    1.373292    1.090343
      8          1           0       -1.320864    0.174517    2.624411
      9          6           0       -3.308628    0.588752   -1.179335
     10          1           0       -3.713521   -1.366386   -1.818802
     11          1           0       -1.762951    2.224889    1.676977
     12          5           0       -2.771526    1.664148   -0.243676
     13          1           0       -3.790275    0.918488   -2.096284
     14          1           0       -2.892924    2.809611   -0.574758
     15          5           0        3.747569    0.015688    0.945405
     16          7           0        3.362527    1.213784    0.281255
     17          7           0        3.319583   -1.216810    0.372108
     18          1           0        4.401070    0.040154    1.946408
     19          5           0        2.562833    1.216410   -0.900423
     20          1           0        3.647040    2.094162    0.669788
     21          5           0        2.535832   -1.281312   -0.819011
     22          1           0        3.587818   -2.074321    0.818957
     23          7           0        2.184702   -0.048378   -1.434954
     24          1           0        2.231993    2.237495   -1.424141
     25          1           0        2.196153   -2.330074   -1.280707
     26          1           0        1.601554   -0.066416   -2.251653
 ---------------------------------------------------------------------

 SCF Done:  E(RHF) =  -497.664977195     A.U. after    2 cycles

 The electronic state is 1-A.
 Alpha  occ. eigenvalues --  -15.47045 -15.46975 -15.46894 -11.26303 -11.26222
 Alpha  occ. eigenvalues --  -11.26046 -11.25952 -11.22314 -11.22245  -7.59251
 Alpha  occ. eigenvalues --   -7.59216  -7.59118  -7.56061  -1.20842  -1.13862
 Alpha  occ. eigenvalues --   -1.13854  -1.12876  -1.05449  -0.99835  -0.88287
 Alpha  occ. eigenvalues --   -0.82680  -0.78147  -0.76777  -0.76743  -0.71262
 Alpha  occ. eigenvalues --   -0.69423  -0.68489  -0.65561  -0.64119  -0.64083
 Alpha  occ. eigenvalues --   -0.63298  -0.59030  -0.56806  -0.55027  -0.54213
 Alpha  occ. eigenvalues --   -0.54004  -0.49230  -0.48640  -0.48606  -0.46322
 Alpha  occ. eigenvalues --   -0.46152  -0.44882  -0.44867  -0.38677  -0.32907
 Alpha virt. eigenvalues --    0.02799   0.02917   0.03395   0.03812   0.04224
 Alpha virt. eigenvalues --    0.04327   0.04453   0.04667   0.04783   0.05371
 Alpha virt. eigenvalues --    0.05815   0.06343   0.06481   0.07083   0.07305

 Mulliken charges:
               1
     1  C    0.284653
     2  C    0.235844
     3  C    0.652702
     4  H   -0.313365
     5  C    0.457518
     6  H   -0.282438
     7  C    0.066105
     8  H   -0.305486
     9  C    0.025946
    10  H   -0.253345
    11  H   -0.298939
    12  B   -0.201283
    13  H   -0.257652
    14  H    0.225635
    15  B   -0.496087
    16  N    0.470401
    17  N    0.463511
    18  H    0.223127
    19  B   -0.622940
    20  H   -0.195284
    21  B   -0.679541
    22  H   -0.188116
    23  N    0.530899
    24  H    0.309641
    25  H    0.334068
    26  H   -0.185575
 Sum of Mulliken charges =  -0.00000

 Dipole moment (field-independent basis, Debye):
    X=              0.1223    Y=             -1.8764    Z=              0.5575  Tot=              1.9613

 Test job not archived.
 1\1\GINC-SE029\SP\RHF\Aug-CC-pVDZ\C6H13B4N3\OHZDE\08-Apr-2025\0\\#t hf
  aug-cc-pvdz iop(5/13=1,5/36=2,99/5=2) pseudo=read geom=check guess=(r
 ead,tcheck) scf=(maxcycle=1)\\title\\0,1\C,0,-1.1002,-1.1557,1.24379\C
 ,0,-1.87153,-1.52215,0.18349\C,0,-0.73895,0.13441,1.71272\H,0,-0.6909,
 -1.97601,1.822\C,0,-2.55047,-0.72416,-0.77509\H,0,-1.98729,-2.59084,0.
 04445\C,0,-1.06616,1.35478,1.20463\H,0,-0.10247,0.11476,2.59254\C,0,-2
 .58928,0.63268,-0.89154\H,0,-3.10457,-1.30369,-1.50828\H,0,-0.64323,2.
 18983,1.75662\B,0,-1.91408,1.68172,-0.01745\H,0,-3.18812,0.98737,-1.72

 Normal termination of Gaussian 16 at Tue Apr  8 22:26:23 2025.
