 Gaussian 16, Revision C.01,

 ----------------------------------------------------------------------
 #t hf aug-cc-pvdz symm=none int=(grid=ultrafine) guess=(read,tcheck) s
 table=(opt,rrhf)
 ----------------------------------------------------------------------
 -----
 title
 -----
 Symbolic Z-matrix:
 Charge =  0 Multiplicity = 1

 SCF Done:  E(RHF) =  -181.408537193     A.U. after   12 cycles
 Normal termination of Gaussian 16 at Tue Apr  8 22:23:49 2025.
 Gaussian 16:  ES64L-G16RevC.01  3-Jul-2019

 ----------------------------------------------------------------------
 #t hf aug-cc-pvdz iop(5/13=1,5/36=2,99/5=2) pseudo=read geom=check gue
 ss=(read,tcheck) scf=(maxcycle=1)
 ----------------------------------------------------------------------
 -----
 title
 -----
 Structure from the checkpoint file:  "B-set_borole_borolane_090_dimer_mol3.chk"
 Charge =  0 Multiplicity = 1

                         Standard orientation:
 ---------------------------------------------------------------------
 Center     Atomic      Atomic             Coordinates (Angstroms)
 Number     Number       Type             X           Y           Z
 ---------------------------------------------------------------------
      1          5           0        0.005170    1.372288   -0.033192
      2          6           0       -1.256023    0.454963    0.127765
      3          6           0        1.268281    0.436345   -0.100808
      4          1           0        0.014629    2.567290   -0.032996
      5          1           0       -1.506201    0.491060    1.199002
      6          1           0       -2.161063    0.753415   -0.400505
      7          6           0       -0.742922   -0.946260   -0.232029
      8          6           0        0.722029   -0.968537    0.219122
      9          1           0        1.638826    0.471628   -1.132445
     10          1           0        2.111141    0.741389    0.520770
     11          1           0       -0.788663   -1.080434   -1.320860
     12          1           0       -1.331965   -1.756727    0.197560
     13          1           0        1.290404   -1.772872   -0.247555
     14          1           0        0.758853   -1.135253    1.298693
 ---------------------------------------------------------------------

 SCF Done:  E(RHF) =  -181.611805686     A.U. after    2 cycles

 The electronic state is 1-A.
 Alpha  occ. eigenvalues --  -11.22092 -11.22052 -11.19976 -11.19940  -7.57717
 Alpha  occ. eigenvalues --   -1.09141  -0.95526  -0.88755  -0.77612  -0.66410
 Alpha  occ. eigenvalues --   -0.63476  -0.61732  -0.56876  -0.52161  -0.48579
 Alpha  occ. eigenvalues --   -0.47440  -0.46051  -0.45348  -0.43590
 Alpha virt. eigenvalues --    0.03272   0.03534   0.03932   0.04039   0.06186
 Alpha virt. eigenvalues --    0.06248   0.06504   0.06700   0.07097   0.09294
 Alpha virt. eigenvalues --    0.09938   0.11559   0.12784   0.12917   0.14566

 Mulliken charges:
               1
     1  B    0.132688
     2  C   -0.120689
     3  C   -0.088513
     4  H    0.107769
     5  H    0.132482
     6  H    0.032069
     7  C   -0.396624
     8  C   -0.398606
     9  H    0.102506
    10  H    0.038031
    11  H    0.128567
    12  H    0.102689
    13  H    0.103317
    14  H    0.124315
 Sum of Mulliken charges =   0.00000

 Dipole moment (field-independent basis, Debye):
    X=              0.0002    Y=             -0.2817    Z=             -0.0152  Tot=              0.2821

 Test job not archived.
 1\1\GINC-SE329\SP\RHF\Aug-CC-pVDZ\C4H9B1\OHZDE\08-Apr-2025\0\\#t hf au
 g-cc-pvdz iop(5/13=1,5/36=2,99/5=2) pseudo=read geom=check guess=(read
 ,tcheck) scf=(maxcycle=1)\\title\\0,1\B,0,1.30377,1.04969,0.87592\C,0,
 1.05693,-0.42791,1.33827\C,0,2.13873,0.99762,-0.4568\H,0,0.97945,2.037
 94,1.46439\H,0,1.80068,-0.61278,2.12827\H,0,0.08798,-0.65725,1.78074\C
 ,0,1.40471,-1.26614,0.1003\C,0,2.51471,-0.48824,-0.61586\H,0,1.46809,1
 .30645,-1.26778\H,0,2.98684,1.68186,-0.50526\H,0,0.52534,-1.32781,-0.5
 5434\H,0,1.68548,-2.29474,0.32729\H,0,2.63803,-0.79699,-1.65377\H,0,3.

 Normal termination of Gaussian 16 at Tue Apr  8 22:23:52 2025.
