 Gaussian 16, Revision C.01,

 ----------------------------------------------------------------------
 #t hf aug-cc-pvdz symm=none int=(grid=ultrafine) guess=(read,tcheck) s
 table=(opt,rrhf)
 ----------------------------------------------------------------------
 -----
 title
 -----
 Symbolic Z-matrix:
 Charge =  0 Multiplicity = 1

 SCF Done:  E(RHF) =  -463.678063821     A.U. after   16 cycles
 Normal termination of Gaussian 16 at Tue Apr  8 22:24:24 2025.
 Gaussian 16:  ES64L-G16RevC.01  3-Jul-2019

 ----------------------------------------------------------------------
 #t hf aug-cc-pvdz iop(5/13=1,5/36=2,99/5=2) pseudo=read geom=check gue
 ss=(read,tcheck) scf=(maxcycle=1)
 ----------------------------------------------------------------------
 -----
 title
 -----
 Structure from the checkpoint file:  "B-set_borabenzene_pyridine_110_dimer_mol1.chk"
 Charge =  0 Multiplicity = 1

                         Standard orientation:
 ---------------------------------------------------------------------
 Center     Atomic      Atomic             Coordinates (Angstroms)
 Number     Number       Type             X           Y           Z
 ---------------------------------------------------------------------
      1          6           0       -1.581907    1.234661    0.364095
      2          6           0       -2.969477    1.163901    0.350075
      3          6           0       -3.649786   -0.000029   -0.000055
      4          6           0       -2.969376   -1.163939   -0.350015
      5          6           0       -1.581746   -1.234709   -0.364155
      6          1           0       -4.732056   -0.000049   -0.000125
      7          1           0       -1.136987    2.174541    0.680865
      8          1           0       -3.556927    2.033731    0.625805
      9          1           0       -3.556806   -2.033659   -0.626125
     10          1           0       -1.137176   -2.174499   -0.681655
     11          5           0       -0.840156   -0.000009    0.000015
     12          6           0        1.544773   -1.092099    0.383686
     13          6           0        2.920653   -1.127049    0.387036
     14          6           0        3.626133    0.000011   -0.000174
     15          6           0        2.920552    1.127131   -0.387094
     16          6           0        1.544692    1.092101   -0.383424
     17          7           0        0.865823   -0.000009    0.000136
     18          1           0        4.706673    0.000012   -0.000284
     19          1           0        0.937503   -1.927049    0.697036
     20          1           0        3.425883   -2.027259    0.701936
     21          1           0        3.425682    2.027411   -0.701954
     22          1           0        0.937172    1.927031   -0.696344
 ---------------------------------------------------------------------

 SCF Done:  E(RHF) =  -464.155660717     A.U. after    2 cycles

 The electronic state is 1-A.
 Alpha  occ. eigenvalues --  -15.59709 -11.33430 -11.33429 -11.31334 -11.29085
 Alpha  occ. eigenvalues --  -11.29069 -11.20074 -11.20053 -11.17762 -11.16651
 Alpha  occ. eigenvalues --  -11.16608  -7.54401  -1.33482  -1.14945  -1.09780
 Alpha  occ. eigenvalues --   -1.07173  -0.96366  -0.93579  -0.92978  -0.89261
 Alpha  occ. eigenvalues --   -0.80725  -0.76382  -0.74524  -0.72333  -0.70471
 Alpha  occ. eigenvalues --   -0.67147  -0.66579  -0.63614  -0.63177  -0.58473
 Alpha  occ. eigenvalues --   -0.57523  -0.55063  -0.54831  -0.52131  -0.47119
 Alpha  occ. eigenvalues --   -0.46835  -0.43961  -0.42371  -0.40809  -0.30084
 Alpha  occ. eigenvalues --   -0.24993
 Alpha virt. eigenvalues --    0.01536   0.02409   0.02510   0.03237   0.04723
 Alpha virt. eigenvalues --    0.05168   0.05234   0.05692   0.06472   0.06553
 Alpha virt. eigenvalues --    0.06730   0.07100   0.08709   0.08937   0.10032

 Mulliken charges:
               1
     1  C    0.125254
     2  C    0.155183
     3  C   -0.125540
     4  C    0.155248
     5  C    0.125232
     6  H   -0.250024
     7  H   -0.352447
     8  H   -0.258662
     9  H   -0.258718
    10  H   -0.352323
    11  B    0.818516
    12  C   -0.759219
    13  C    0.872665
    14  C    0.014274
    15  C    0.872812
    16  C   -0.759605
    17  N    1.296915
    18  H   -0.172886
    19  H   -0.386399
    20  H   -0.186877
    21  H   -0.186839
    22  H   -0.386562
 Sum of Mulliken charges =   0.00000

 Dipole moment (field-independent basis, Debye):
    X=              9.3014    Y=              0.0004    Z=             -0.0004  Tot=              9.3014

 Test job not archived.
 1\1\GINC-SE072\SP\RHF\Aug-CC-pVDZ\C10H10B1N1\OHZDE\08-Apr-2025\0\\#t h
 f aug-cc-pvdz iop(5/13=1,5/36=2,99/5=2) pseudo=read geom=check guess=(
 read,tcheck) scf=(maxcycle=1)\\title\\0,1\C,0,1.50247,-1.23466,0.3641\
 C,0,2.89004,-1.1639,0.35008\C,0,3.57035,0.00003,-0.00005\C,0,2.88994,1
 .16394,-0.35001\C,0,1.50231,1.23471,-0.36415\H,0,4.65262,0.00005,-0.00
 012\H,0,1.05755,-2.17454,0.68087\H,0,3.47749,-2.03373,0.62581\H,0,3.47
 737,2.03366,-0.62612\H,0,1.05774,2.1745,-0.68165\B,0,0.76072,0.00001,0
 .00002\C,0,-1.624209,1.0921,0.383691\C,0,-3.000089,1.12705,0.387041\C,

 Normal termination of Gaussian 16 at Tue Apr  8 22:24:58 2025.
