 Gaussian 16, Revision C.01,

 ----------------------------------------------------------------------
 #t hf aug-cc-pvdz symm=none int=(grid=ultrafine) guess=(read,tcheck) s
 table=(opt,rrhf)
 ----------------------------------------------------------------------
 -----
 title
 -----
 Symbolic Z-matrix:
 Charge =  0 Multiplicity = 1

 SCF Done:  E(RHF) =  -219.221180759     A.U. after   14 cycles
 Normal termination of Gaussian 16 at Tue Apr  8 22:25:05 2025.
 Gaussian 16:  ES64L-G16RevC.01  3-Jul-2019

 ----------------------------------------------------------------------
 #t hf aug-cc-pvdz iop(5/13=1,5/36=2,99/5=2) pseudo=read geom=check gue
 ss=(read,tcheck) scf=(maxcycle=1)
 ----------------------------------------------------------------------
 -----
 title
 -----
 Structure from the checkpoint file:  "B-set_borole_methane_090_dimer_mol1.chk"
 Charge =  0 Multiplicity = 1

                         Standard orientation:
 ---------------------------------------------------------------------
 Center     Atomic      Atomic             Coordinates (Angstroms)
 Number     Number       Type             X           Y           Z
 ---------------------------------------------------------------------
      1          5           0        0.068848   -0.172253    1.185413
      2          6           0       -0.657640   -1.265473    0.305994
      3          6           0       -0.335374    1.202521    0.521397
      4          1           0        0.726862   -0.344125    2.163638
      5          6           0       -1.351930   -0.593718   -0.614059
      6          1           0       -0.661238   -2.341980    0.388804
      7          6           0       -1.156412    0.897320   -0.484525
      8          1           0       -0.062694    2.213582    0.784178
      9          1           0       -1.989868   -1.021830   -1.377795
     10          1           0       -1.644456    1.597346   -1.151705
     11          6           0        2.429293   -0.068395   -0.511171
     12          1           0        3.336650   -0.563646   -0.849651
     13          1           0        2.389533    0.942220   -0.909580
     14          1           0        1.562176   -0.627427   -0.857842
     15          1           0        2.431170   -0.026409    0.577067
 ---------------------------------------------------------------------

 SCF Done:  E(RHF) =  -219.457875925     A.U. after    2 cycles

 The electronic state is 1-A.
 Alpha  occ. eigenvalues --  -11.25406 -11.25318 -11.21587 -11.20946 -11.20885
 Alpha  occ. eigenvalues --   -7.59593  -1.12205  -0.97369  -0.94838  -0.84305
 Alpha  occ. eigenvalues --   -0.71667  -0.70781  -0.65815  -0.58008  -0.55644
 Alpha  occ. eigenvalues --   -0.55218  -0.55022  -0.52458  -0.47525  -0.47089
 Alpha  occ. eigenvalues --   -0.45955  -0.32463
 Alpha virt. eigenvalues --    0.02660   0.03409   0.03590   0.03715   0.04388
 Alpha virt. eigenvalues --    0.05468   0.05856   0.06201   0.07223   0.07878
 Alpha virt. eigenvalues --    0.08967   0.09749   0.12441   0.13216   0.14218

 Mulliken charges:
               1
     1  B    0.317410
     2  C   -0.057426
     3  C    0.054509
     4  H    0.202317
     5  C    0.121843
     6  H   -0.227679
     7  C    0.088228
     8  H   -0.239175
     9  H   -0.162112
    10  H   -0.171767
    11  C   -0.317138
    12  H    0.005526
    13  H    0.128376
    14  H    0.154388
    15  H    0.102700
 Sum of Mulliken charges =   0.00000

 Dipole moment (field-independent basis, Debye):
    X=             -0.3713    Y=              0.1444    Z=             -0.8282  Tot=              0.9190

 Test job not archived.
 1\1\GINC-SE455\SP\RHF\Aug-CC-pVDZ\C5H9B1\OHZDE\08-Apr-2025\0\\#t hf au
 g-cc-pvdz iop(5/13=1,5/36=2,99/5=2) pseudo=read geom=check guess=(read
 ,tcheck) scf=(maxcycle=1)\\title\\0,1\B,0,0.06513,-0.1638,-1.2018\C,0,
 0.7417,-1.2672,-0.29568\C,0,0.44816,1.2043,-0.51194\H,0,-0.54783,-0.32
 544,-2.21056\C,0,1.39732,-0.60567,0.65948\H,0,0.74116,-2.34325,-0.3843
 \C,0,1.21913,0.88749,0.52939\H,0,0.19554,2.2188,-0.78143\H,0,1.99577,-
 1.0427,1.44967\H,0,1.68073,1.58021,1.22251\C,0,-2.3709919,-0.0507848,0
 .3835762\H,0,-3.2967919,-0.5408348,0.6766362\H,0,-2.3423419,0.9573752,

 Normal termination of Gaussian 16 at Tue Apr  8 22:25:09 2025.
