 Gaussian 16, Revision C.01,

 ----------------------------------------------------------------------
 #t hf aug-cc-pvdz symm=none int=(grid=ultrafine) guess=(read,tcheck) s
 table=(opt,rrhf)
 ----------------------------------------------------------------------
 -----
 title
 -----
 Symbolic Z-matrix:
 Charge =  0 Multiplicity = 1

 SCF Done:  E(RHF) =  -464.893615550     A.U. after   15 cycles
 Normal termination of Gaussian 16 at Tue Apr  8 22:23:51 2025.
 Gaussian 16:  ES64L-G16RevC.01  3-Jul-2019

 ----------------------------------------------------------------------
 #t hf aug-cc-pvdz iop(5/13=1,5/36=2,99/5=2) pseudo=read geom=check gue
 ss=(read,tcheck) scf=(maxcycle=1)
 ----------------------------------------------------------------------
 -----
 title
 -----
 Structure from the checkpoint file:  "B-set_azaborine_benzene_100_dimer_mol1.chk"
 Charge =  0 Multiplicity = 1

                         Standard orientation:
 ---------------------------------------------------------------------
 Center     Atomic      Atomic             Coordinates (Angstroms)
 Number     Number       Type             X           Y           Z
 ---------------------------------------------------------------------
      1          7           0        0.986890    0.198560   -0.055289
      2          5           0        1.789719    1.377150   -0.031779
      3          6           0        1.499180   -1.057250   -0.038009
      4          1           0       -0.018410    0.259949   -0.084779
      5          6           0        3.279399    1.128991    0.013501
      6          1           0        1.234099    2.434460   -0.049229
      7          6           0        2.840080   -1.265829    0.002811
      8          1           0        0.789160   -1.872560   -0.057929
      9          6           0        3.729300   -0.160609    0.028391
     10          1           0        4.013529    1.924941    0.034961
     11          1           0        3.218281   -2.276869    0.015661
     12          1           0        4.792520   -0.374449    0.060671
     13          6           0       -2.299850   -0.168971    1.391511
     14          6           0       -2.358261    1.104978    0.845111
     15          6           0       -2.275530   -1.279791    0.560541
     16          1           0       -2.267690   -0.295691    2.464671
     17          6           0       -2.391651    1.268298   -0.532499
     18          1           0       -2.369001    1.970938    1.492051
     19          6           0       -2.308740   -1.116821   -0.817149
     20          1           0       -2.229879   -2.272511    0.987121
     21          6           0       -2.366610    0.157338   -1.363669
     22          1           0       -2.428631    2.261298   -0.958129
     23          1           0       -2.288220   -1.982121   -1.465359
     24          1           0       -2.386480    0.284948   -2.437029
 ---------------------------------------------------------------------

 SCF Done:  E(RHF) =  -465.380644021     A.U. after    2 cycles

 The electronic state is 1-A.
 Alpha  occ. eigenvalues --  -15.51031 -11.27834 -11.25529 -11.25467 -11.25428
 Alpha  occ. eigenvalues --  -11.25394 -11.25333 -11.25300 -11.24217 -11.21708
 Alpha  occ. eigenvalues --  -11.19007  -7.55653  -1.23766  -1.17189  -1.07047
 Alpha  occ. eigenvalues --   -1.03249  -1.03208  -0.97511  -0.84607  -0.84602
 Alpha  occ. eigenvalues --   -0.83944  -0.79964  -0.74730  -0.73776  -0.66096
 Alpha  occ. eigenvalues --   -0.65265  -0.64406  -0.63386  -0.61432  -0.61403
 Alpha  occ. eigenvalues --   -0.60383  -0.55993  -0.55272  -0.52786  -0.51825
 Alpha  occ. eigenvalues --   -0.51811  -0.49286  -0.46038  -0.40280  -0.36311
 Alpha  occ. eigenvalues --   -0.36092  -0.30793
 Alpha virt. eigenvalues --    0.02940   0.03334   0.03396   0.04074   0.04560
 Alpha virt. eigenvalues --    0.04721   0.04878   0.05591   0.06651   0.07560
 Alpha virt. eigenvalues --    0.07846   0.08194   0.08401   0.08852   0.09705

 Mulliken charges:
               1
     1  N    1.589041
     2  B   -0.421061
     3  C   -1.201477
     4  H    0.075814
     5  C    0.279617
     6  H    0.270133
     7  C    0.709162
     8  H   -0.408487
     9  C   -0.077383
    10  H   -0.266866
    11  H   -0.196441
    12  H   -0.214448
    13  C    0.220329
    14  C    0.276617
    15  C    0.262669
    16  H   -0.263476
    17  C    0.267766
    18  H   -0.278326
    19  C    0.252345
    20  H   -0.277588
    21  C    0.225672
    22  H   -0.279597
    23  H   -0.274304
    24  H   -0.269711
 Sum of Mulliken charges =  -0.00000

 Dipole moment (field-independent basis, Debye):
    X=             -1.8465    Y=             -1.4727    Z=              0.0071  Tot=              2.3619

 Test job not archived.
 1\1\GINC-SE364\SP\RHF\Aug-CC-pVDZ\C10H12B1N1\OHZDE\08-Apr-2025\0\\#t h
 f aug-cc-pvdz iop(5/13=1,5/36=2,99/5=2) pseudo=read geom=check guess=(
 read,tcheck) scf=(maxcycle=1)\\title\\0,1\N,0,-0.98689,0.19856,0.05529
 \B,0,-1.78972,1.37715,0.03178\C,0,-1.49918,-1.05725,0.03801\H,0,0.0184
 1,0.25995,0.08478\C,0,-3.2794,1.12899,-0.0135\H,0,-1.2341,2.43446,0.04
 923\C,0,-2.84008,-1.26583,-0.00281\H,0,-0.78916,-1.87256,0.05793\C,0,-
 3.7293,-0.16061,-0.02839\H,0,-4.01353,1.92494,-0.03496\H,0,-3.21828,-2
 .27687,-0.01566\H,0,-4.79252,-0.37445,-0.06067\C,0,2.29985,-0.16897,-1

 Normal termination of Gaussian 16 at Tue Apr  8 22:24:09 2025.
