 Gaussian 16, Revision C.01,

 ----------------------------------------------------------------------
 #t hf aug-cc-pvdz symm=none int=(grid=ultrafine) guess=(read,tcheck) s
 table=(opt,rrhf)
 ----------------------------------------------------------------------
 -----
 title
 -----
 Symbolic Z-matrix:
 Charge =  0 Multiplicity = 1

 SCF Done:  E(RHF) =  -405.875980890     A.U. after   14 cycles
 Normal termination of Gaussian 16 at Tue Apr  8 22:26:01 2025.
 Gaussian 16:  ES64L-G16RevC.01  3-Jul-2019

 ----------------------------------------------------------------------
 #t hf aug-cc-pvdz iop(5/13=1,5/36=2,99/5=2) pseudo=read geom=check gue
 ss=(read,tcheck) scf=(maxcycle=1)
 ----------------------------------------------------------------------
 -----
 title
 -----
 Structure from the checkpoint file:  "B-set_phenylboronicacid_h2o_090_dimer_mol2.chk"
 Charge =  0 Multiplicity = 1

                         Standard orientation:
 ---------------------------------------------------------------------
 Center     Atomic      Atomic             Coordinates (Angstroms)
 Number     Number       Type             X           Y           Z
 ---------------------------------------------------------------------
      1          6           0       -0.555536    1.196742    0.000006
      2          6           0       -1.941085    1.200396    0.000042
      3          6           0        0.162394   -0.000008   -0.000023
      4          1           0       -0.015757    2.134651    0.000032
      5          6           0       -2.635736    0.000003    0.000022
      6          1           0       -2.481156    2.137796    0.000047
      7          6           0       -0.555545   -1.196749   -0.000018
      8          5           0        1.728835   -0.000053   -0.000035
      9          6           0       -1.941097   -1.200395   -0.000032
     10          1           0       -3.717717    0.000015    0.000020
     11          1           0       -0.015785   -2.134669   -0.000073
     12          8           0        2.386416    1.198868   -0.000068
     13          8           0        2.386525   -1.198922    0.000058
     14          1           0       -2.481177   -2.137784   -0.000058
     15          1           0        3.341718    1.104300    0.000176
     16          1           0        3.341813   -1.103550    0.000119
 ---------------------------------------------------------------------

 SCF Done:  E(RHF) =  -406.288146370     A.U. after    2 cycles

 The electronic state is 1-A.
 Alpha  occ. eigenvalues --  -20.56375 -20.56371 -11.23986 -11.23556 -11.23551
 Alpha  occ. eigenvalues --  -11.23227 -11.23204 -11.21157  -7.64200  -1.48994
 Alpha  occ. eigenvalues --   -1.44594  -1.14892  -1.01340  -1.01102  -0.83904
 Alpha  occ. eigenvalues --   -0.82880  -0.77160  -0.73594  -0.70530  -0.64656
 Alpha  occ. eigenvalues --   -0.63231  -0.62843  -0.59273  -0.57829  -0.56612
 Alpha  occ. eigenvalues --   -0.53070  -0.50361  -0.50055  -0.49282  -0.48101
 Alpha  occ. eigenvalues --   -0.34229  -0.33932
 Alpha virt. eigenvalues --    0.02448   0.03862   0.04033   0.04919   0.05189
 Alpha virt. eigenvalues --    0.05206   0.07389   0.08124   0.08239   0.09154
 Alpha virt. eigenvalues --    0.10283   0.11024   0.11439   0.13356   0.14447

 Mulliken charges:
               1
     1  C    0.078031
     2  C    0.303227
     3  C    0.558827
     4  H   -0.333745
     5  C    0.285154
     6  H   -0.223997
     7  C    0.077837
     8  B    1.222708
     9  C    0.303311
    10  H   -0.220251
    11  H   -0.333813
    12  O   -1.176429
    13  O   -1.176402
    14  H   -0.223998
    15  H    0.429715
    16  H    0.429826
 Sum of Mulliken charges =   0.00000

 Dipole moment (field-independent basis, Debye):
    X=              2.0979    Y=              0.0012    Z=              0.0004  Tot=              2.0979

 Test job not archived.
 1\1\GINC-SE364\SP\RHF\Aug-CC-pVDZ\C6H7B1O2\OHZDE\08-Apr-2025\0\\#t hf
 aug-cc-pvdz iop(5/13=1,5/36=2,99/5=2) pseudo=read geom=check guess=(re
 ad,tcheck) scf=(maxcycle=1)\\title\\0,1\C,0,1.25953,-1.19671,-0.0001\C
 ,0,2.64508,-1.19967,0.00081\C,0,0.541,-0.00032,-0.0006\H,0,0.72022,-2.
 13489,-0.0004\C,0,3.33913,0.00107,0.00121\H,0,3.18562,-2.1368,0.00117\
 C,0,1.25834,1.19678,-0.00016\B,0,-1.02544,-0.00106,-0.0016\C,0,2.64389
 ,1.20112,0.0007\H,0,4.42111,0.0016,0.00189\H,0,0.71811,2.13443,-0.0005
 7\O,0,-1.68242,-1.20031,-0.00203\O,0,-1.68373,1.19748,-0.00194\H,0,3.1

 Normal termination of Gaussian 16 at Tue Apr  8 22:26:08 2025.
