 Gaussian 16, Revision C.01,

 ----------------------------------------------------------------------
 #t hf aug-cc-pvdz symm=none int=(grid=ultrafine) guess=(read,tcheck) s
 table=(opt,rrhf)
 ----------------------------------------------------------------------
 -----
 title
 -----
 Symbolic Z-matrix:
 Charge =  0 Multiplicity = 1

 SCF Done:  E(RHF) =  -464.880460223     A.U. after   15 cycles
 Normal termination of Gaussian 16 at Tue Apr  8 22:24:16 2025.
 Gaussian 16:  ES64L-G16RevC.01  3-Jul-2019

 ----------------------------------------------------------------------
 #t hf aug-cc-pvdz iop(5/13=1,5/36=2,99/5=2) pseudo=read geom=check gue
 ss=(read,tcheck) scf=(maxcycle=1)
 ----------------------------------------------------------------------
 -----
 title
 -----
 Structure from the checkpoint file:  "B-set_azaborine_benzene_090_dimer_mol1.chk"
 Charge =  0 Multiplicity = 1

                         Standard orientation:
 ---------------------------------------------------------------------
 Center     Atomic      Atomic             Coordinates (Angstroms)
 Number     Number       Type             X           Y           Z
 ---------------------------------------------------------------------
      1          7           0        0.752719    0.197885   -0.054973
      2          5           0        1.554123    1.377467   -0.032637
      3          6           0        1.266585   -1.057290   -0.038332
      4          1           0       -0.252696    0.258030   -0.083077
      5          6           0        3.044170    1.131151    0.010598
      6          1           0        0.997173    2.434089   -0.049377
      7          6           0        2.607796   -1.264210    0.000646
      8          1           0        0.557546   -1.873478   -0.057226
      9          6           0        3.495684   -0.157891    0.024937
     10          1           0        3.777345    1.928009    0.030999
     11          1           0        2.987263   -2.274781    0.013029
     12          1           0        4.559211   -0.370414    0.055759
     13          6           0       -2.063868   -0.169843    1.393006
     14          6           0       -2.124607    1.104003    0.846618
     15          6           0       -2.039323   -1.280679    0.562065
     16          1           0       -2.030068   -0.296462    2.466128
     17          6           0       -2.160103    1.267203   -0.530954
     18          1           0       -2.135524    1.969986    1.493524
     19          6           0       -2.074638   -1.117828   -0.815587
     20          1           0       -1.991856   -2.273318    0.988636
     21          6           0       -2.134838    0.156228   -1.362097
     22          1           0       -2.198899    2.260133   -0.956587
     23          1           0       -2.053944   -1.983139   -1.463777
     24          1           0       -2.156349    0.283753   -2.435435
 ---------------------------------------------------------------------

 SCF Done:  E(RHF) =  -465.366699946     A.U. after    2 cycles

 The electronic state is 1-A.
 Alpha  occ. eigenvalues --  -15.50202 -11.27388 -11.25740 -11.25671 -11.25611
 Alpha  occ. eigenvalues --  -11.25587 -11.25503 -11.25447 -11.23941 -11.21412
 Alpha  occ. eigenvalues --  -11.18754  -7.55280  -1.23449  -1.17552  -1.06773
 Alpha  occ. eigenvalues --   -1.03629  -1.03537  -0.97196  -0.84861  -0.84845
 Alpha  occ. eigenvalues --   -0.83666  -0.79687  -0.74826  -0.73853  -0.66277
 Alpha  occ. eigenvalues --   -0.65484  -0.64248  -0.63170  -0.61707  -0.61680
 Alpha  occ. eigenvalues --   -0.60222  -0.55817  -0.54883  -0.52384  -0.52037
 Alpha  occ. eigenvalues --   -0.52015  -0.48999  -0.45735  -0.40169  -0.36667
 Alpha  occ. eigenvalues --   -0.36154  -0.30480
 Alpha virt. eigenvalues --    0.02906   0.03327   0.03388   0.04099   0.04534
 Alpha virt. eigenvalues --    0.04745   0.04827   0.05630   0.06675   0.07749
 Alpha virt. eigenvalues --    0.07876   0.08247   0.08431   0.08508   0.09755

 Mulliken charges:
               1
     1  N    1.830606
     2  B   -0.495855
     3  C   -1.355426
     4  H    0.181669
     5  C    0.341037
     6  H    0.291515
     7  C    0.663388
     8  H   -0.420843
     9  C   -0.120207
    10  H   -0.270005
    11  H   -0.205819
    12  H   -0.219677
    13  C    0.202101
    14  C    0.249768
    15  C    0.279306
    16  H   -0.285345
    17  C    0.261198
    18  H   -0.274032
    19  C    0.247153
    20  H   -0.264685
    21  C    0.197584
    22  H   -0.278751
    23  H   -0.266615
    24  H   -0.288065
 Sum of Mulliken charges =  -0.00000

 Dipole moment (field-independent basis, Debye):
    X=             -2.0172    Y=             -1.4613    Z=              0.0167  Tot=              2.4910

 Test job not archived.
 1\1\GINC-SE094\SP\RHF\Aug-CC-pVDZ\C10H12B1N1\OHZDE\08-Apr-2025\0\\#t h
 f aug-cc-pvdz iop(5/13=1,5/36=2,99/5=2) pseudo=read geom=check guess=(
 read,tcheck) scf=(maxcycle=1)\\title\\0,1\N,0,-0.98689,0.19856,0.05529
 \B,0,-1.78972,1.37715,0.03178\C,0,-1.49918,-1.05725,0.03801\H,0,0.0184
 1,0.25995,0.08478\C,0,-3.2794,1.12899,-0.0135\H,0,-1.2341,2.43446,0.04
 923\C,0,-2.84008,-1.26583,-0.00281\H,0,-0.78916,-1.87256,0.05793\C,0,-
 3.7293,-0.16061,-0.02839\H,0,-4.01353,1.92494,-0.03496\H,0,-3.21828,-2
 .27687,-0.01566\H,0,-4.79252,-0.37445,-0.06067\C,0,1.83214758,-0.16576

 Normal termination of Gaussian 16 at Tue Apr  8 22:25:02 2025.
