 Gaussian 16, Revision C.01,

 ----------------------------------------------------------------------
 #t hf aug-cc-pvdz symm=none int=(grid=ultrafine) guess=(read,tcheck) s
 table=(opt,rrhf)
 ----------------------------------------------------------------------
 -----
 title
 -----
 Symbolic Z-matrix:
 Charge =  0 Multiplicity = 1

 SCF Done:  E(RHF) =  -502.473202302     A.U. after   11 cycles
 Normal termination of Gaussian 16 at Tue Apr  8 22:22:57 2025.
 Gaussian 16:  ES64L-G16RevC.01  3-Jul-2019

 ----------------------------------------------------------------------
 #t hf aug-cc-pvdz iop(5/13=1,5/36=2,99/5=2) pseudo=read geom=check gue
 ss=(read,tcheck) scf=(maxcycle=1)
 ----------------------------------------------------------------------
 -----
 title
 -----
 Structure from the checkpoint file:  "B-set_boricacid_boricacid_200_dimer_mol1.chk"
 Charge =  0 Multiplicity = 1

                         Standard orientation:
 ---------------------------------------------------------------------
 Center     Atomic      Atomic             Coordinates (Angstroms)
 Number     Number       Type             X           Y           Z
 ---------------------------------------------------------------------
      1          5           0        4.136455    0.024077   -0.000125
      2          8           0        5.493391   -0.127967    0.000435
      3          8           0        3.561427    1.243627   -0.000755
      4          8           0        3.365846   -1.123792   -0.000065
      5          1           0        5.953821    0.708906    0.000445
      6          1           0        2.592447    1.237730   -0.000505
      7          1           0        3.895574   -1.919236    0.000575
      8          5           0       -4.136417   -0.024034    0.000096
      9          8           0       -3.365898    1.123845    0.000436
     10          8           0       -5.493404    0.127879    0.000136
     11          8           0       -3.561399   -1.243595   -0.000274
     12          1           0       -3.895706    1.919249    0.000756
     13          1           0       -5.953624   -0.709104   -0.000074
     14          1           0       -2.592409   -1.237738   -0.000354
 ---------------------------------------------------------------------

 SCF Done:  E(RHF) =  -502.974040681     A.U. after    2 cycles

 The electronic state is 1-A.
 Alpha  occ. eigenvalues --  -20.56174 -20.56174 -20.55731 -20.55731 -20.55252
 Alpha  occ. eigenvalues --  -20.55251  -7.66695  -7.66695  -1.50063  -1.50063
 Alpha  occ. eigenvalues --   -1.44968  -1.44967  -1.43958  -1.43956  -0.78730
 Alpha  occ. eigenvalues --   -0.78729  -0.74469  -0.74469  -0.73533  -0.73533
 Alpha  occ. eigenvalues --   -0.60011  -0.60011  -0.57254  -0.57254  -0.56138
 Alpha  occ. eigenvalues --   -0.56135  -0.55572  -0.55570  -0.50154  -0.50154
 Alpha  occ. eigenvalues --   -0.49446  -0.49446
 Alpha virt. eigenvalues --    0.03404   0.04196   0.04701   0.04718   0.04995
 Alpha virt. eigenvalues --    0.05438   0.05987   0.06898   0.07654   0.08009
 Alpha virt. eigenvalues --    0.09826   0.10092   0.10533   0.12195   0.20186

 Mulliken charges:
               1
     1  B    1.846523
     2  O   -1.051189
     3  O   -1.073795
     4  O   -1.104677
     5  H    0.448870
     6  H    0.475149
     7  H    0.459120
     8  B    1.846481
     9  O   -1.104641
    10  O   -1.051222
    11  O   -1.073793
    12  H    0.459134
    13  H    0.448901
    14  H    0.475142
 Sum of Mulliken charges =  -0.00000

 Dipole moment (field-independent basis, Debye):
    X=              0.0007    Y=              0.0000    Z=              0.0014  Tot=              0.0016

 Test job not archived.
 1\1\GINC-SE110\SP\RHF\Aug-CC-pVDZ\B2H6O6\OHZDE\08-Apr-2025\0\\#t hf au
 g-cc-pvdz iop(5/13=1,5/36=2,99/5=2) pseudo=read geom=check guess=(read
 ,tcheck) scf=(maxcycle=1)\\title\\0,1\B,0,2.06504,0.02667,-0.0001\O,0,
 3.42239,-0.12163,0.00046\O,0,1.48665,1.24463,-0.00073\O,0,1.2976,-1.12
 332,-0.00004\H,0,3.88051,0.71651,0.00047\H,0,0.51769,1.23606,-0.00048\
 H,0,1.82952,-1.9173,0.0006\B,0,-6.20766857,-0.04426,0.00012143\O,0,-5.
 44031857,1.10574,0.00046143\O,0,-7.56506857,0.10391,0.00016143\O,0,-5.
 62928857,-1.26223,-0.00024857\H,0,-5.97231857,1.89968,0.00078143\H,0,-

 Normal termination of Gaussian 16 at Tue Apr  8 22:23:01 2025.
