 Gaussian 16, Revision C.01,

 ----------------------------------------------------------------------
 #t hf aug-cc-pvdz symm=none int=(grid=ultrafine) guess=(read,tcheck) s
 table=(opt,rrhf)
 ----------------------------------------------------------------------
 -----
 title
 -----
 Symbolic Z-matrix:
 Charge =  0 Multiplicity = 1

 SCF Done:  E(RHF) =  -251.236443217     A.U. after   11 cycles
 Normal termination of Gaussian 16 at Tue Apr  8 22:22:13 2025.
 Gaussian 16:  ES64L-G16RevC.01  3-Jul-2019

 ----------------------------------------------------------------------
 #t hf aug-cc-pvdz iop(5/13=1,5/36=2,99/5=2) pseudo=read geom=check gue
 ss=(read,tcheck) scf=(maxcycle=1)
 ----------------------------------------------------------------------
 -----
 title
 -----
 Structure from the checkpoint file:  "B-set_boricacid_boricacid_090_dimer_mol2.chk"
 Charge =  0 Multiplicity = 1

                         Standard orientation:
 ---------------------------------------------------------------------
 Center     Atomic      Atomic             Coordinates (Angstroms)
 Number     Number       Type             X           Y           Z
 ---------------------------------------------------------------------
      1          5           0       -0.020761    0.006753   -0.000017
      2          8           0        0.753433    1.131482    0.000012
      3          8           0       -1.367348    0.075053   -0.000069
      4          8           0        0.627820   -1.214224   -0.000033
      5          1           0        0.232742    1.932252    0.000113
      6          1           0       -1.819263   -0.782111    0.000525
      7          1           0        1.579088   -1.122395    0.000174
 ---------------------------------------------------------------------

 SCF Done:  E(RHF) =  -251.487005686     A.U. after    2 cycles

 The electronic state is 1-A.
 Alpha  occ. eigenvalues --  -20.56171 -20.55702 -20.55163  -7.66655  -1.50029
 Alpha  occ. eigenvalues --   -1.44952  -1.43886  -0.78699  -0.74447  -0.73471
 Alpha  occ. eigenvalues --   -0.59976  -0.57230  -0.56118  -0.55485  -0.50142
 Alpha  occ. eigenvalues --   -0.49374
 Alpha virt. eigenvalues --    0.03888   0.05028   0.05159   0.05466   0.07906
 Alpha virt. eigenvalues --    0.07967   0.10246   0.19975   0.20219   0.20515
 Alpha virt. eigenvalues --    0.21092   0.21605   0.23715   0.23832   0.24242

 Mulliken charges:
               1
     1  B    1.821174
     2  O   -1.049185
     3  O   -1.052660
     4  O   -1.084560
     5  H    0.449821
     6  H    0.463518
     7  H    0.451892
 Sum of Mulliken charges =  -0.00000

 Dipole moment (field-independent basis, Debye):
    X=             -0.2605    Y=              0.1444    Z=              0.0015  Tot=              0.2979

 Test job not archived.
 1\1\GINC-SE250\SP\RHF\Aug-CC-pVDZ\B1H3O3\OHZDE\08-Apr-2025\0\\#t hf au
 g-cc-pvdz iop(5/13=1,5/36=2,99/5=2) pseudo=read geom=check guess=(read
 ,tcheck) scf=(maxcycle=1)\\title\\0,1\B,0,2.06504,0.02667,-0.0001\O,0,
 3.42239,-0.12163,0.00046\O,0,1.48665,1.24463,-0.00073\O,0,1.2976,-1.12
 332,-0.00004\H,0,3.88051,0.71651,0.00047\H,0,0.51769,1.23606,-0.00048\
 H,0,1.82952,-1.9173,0.0006\\Version=ES64L-G16RevC.01\State=1-A\HF=-251
 .4870057\RMSD=9.706e-03\Dipole=0.0014175,0.1171921,0.0005672\Quadrupol
 e=0.7759787,0.548524,-1.3245028,-0.3135428,-0.0004738,-0.00006\PG=C01

 Normal termination of Gaussian 16 at Tue Apr  8 22:22:15 2025.
