 Gaussian 16, Revision C.01,

 ----------------------------------------------------------------------
 #t hf aug-cc-pvdz symm=none int=(grid=ultrafine) guess=(read,tcheck) s
 table=(opt,rrhf)
 ----------------------------------------------------------------------
 -----
 title
 -----
 Symbolic Z-matrix:
 Charge =  0 Multiplicity = 1

 SCF Done:  E(RHF) =  -894.816196769     A.U. after   12 cycles
 Normal termination of Gaussian 16 at Tue Apr  8 22:20:48 2025.
 Gaussian 16:  ES64L-G16RevC.01  3-Jul-2019

 ----------------------------------------------------------------------
 #t hf aug-cc-pvdz iop(5/13=1,5/36=2,99/5=2) pseudo=read geom=check gue
 ss=(read,tcheck) scf=(maxcycle=1)
 ----------------------------------------------------------------------
 -----
 title
 -----
 Structure from the checkpoint file:  "B-set_b2f4_b2f4_090_dimer_mol1.chk"
 Charge =  0 Multiplicity = 1

                         Standard orientation:
 ---------------------------------------------------------------------
 Center     Atomic      Atomic             Coordinates (Angstroms)
 Number     Number       Type             X           Y           Z
 ---------------------------------------------------------------------
      1          5           0        1.744601   -0.601131    0.489913
      2          5           0        1.469291    1.010046   -0.074431
      3          9           0        0.741522   -1.339284    0.930712
      4          9           0        2.939945   -1.141225    0.504323
      5          9           0        0.363467    1.656400    0.250703
      6          9           0        2.337632    1.643532   -0.825551
      7          5           0       -1.269903   -0.801704   -0.735442
      8          5           0       -1.914682    0.396459    0.324569
      9          9           0       -0.284934   -0.522754   -1.578769
     10          9           0       -1.739162   -2.028803   -0.768585
     11          9           0       -2.490445    1.482900   -0.147026
     12          9           0       -1.884306    0.247194    1.631634
 ---------------------------------------------------------------------

 SCF Done:  E(RHF) =  -895.621628345     A.U. after    2 cycles

 The electronic state is 1-A.
 Alpha  occ. eigenvalues --  -26.51542 -26.51519 -26.51190 -26.50758 -26.50658
 Alpha  occ. eigenvalues --  -26.49941 -26.49180 -26.49116  -7.74811  -7.74803
 Alpha  occ. eigenvalues --   -7.73953  -7.73148  -1.66849  -1.66484  -1.66054
 Alpha  occ. eigenvalues --   -1.64614  -1.62691  -1.62370  -1.61873  -1.60580
 Alpha  occ. eigenvalues --   -0.86131  -0.84815  -0.83599  -0.82098  -0.79046
 Alpha  occ. eigenvalues --   -0.78528  -0.77152  -0.76911  -0.76615  -0.75557
 Alpha  occ. eigenvalues --   -0.74072  -0.72308  -0.71230  -0.70851  -0.70208
 Alpha  occ. eigenvalues --   -0.69842  -0.66579  -0.66270  -0.66082  -0.65768
 Alpha  occ. eigenvalues --   -0.65158  -0.64987  -0.64391  -0.63625  -0.52963
 Alpha  occ. eigenvalues --   -0.51541
 Alpha virt. eigenvalues --    0.02748   0.03772   0.03930   0.04134   0.05288
 Alpha virt. eigenvalues --    0.06776   0.07066   0.07408   0.07743   0.07779
 Alpha virt. eigenvalues --    0.09240   0.09458   0.09801   0.10300   0.11109

 Mulliken charges:
               1
     1  B    1.260805
     2  B    1.392314
     3  F   -0.662111
     4  F   -0.621830
     5  F   -0.740911
     6  F   -0.675558
     7  B    1.421131
     8  B    1.514630
     9  F   -0.797938
    10  F   -0.692863
    11  F   -0.698507
    12  F   -0.699163
 Sum of Mulliken charges =  -0.00000

 Dipole moment (field-independent basis, Debye):
    X=              0.4139    Y=              0.0108    Z=              0.0510  Tot=              0.4172

 Test job not archived.
 1\1\GINC-SE226\SP\RHF\Aug-CC-pVDZ\B4F8\OHZDE\08-Apr-2025\0\\#t hf aug-
 cc-pvdz iop(5/13=1,5/36=2,99/5=2) pseudo=read geom=check guess=(read,t
 check) scf=(maxcycle=1)\\title\\0,1\B,0,1.91416,-0.63907,0.46973\B,0,1
 .67914,0.97528,-0.10369\F,0,0.89841,-1.33833,0.94368\F,0,3.09043,-1.21
 961,0.45886\F,0,0.60477,1.6621,0.24321\F,0,2.54863,1.57167,-0.88331\B,
 0,-1.13633717,-0.7476955,-0.6755325\B,0,-1.71217717,0.4816245,0.388487
 5\F,0,-0.16477717,-0.5104655,-1.5467225\F,0,-1.64772717,-1.9582655,-0.
 6841125\F,0,-2.26278717,1.5827145,-0.0791525\F,0,-1.65282717,0.3435445

 Normal termination of Gaussian 16 at Tue Apr  8 22:20:57 2025.
