 Gaussian 16, Revision C.01,

 ----------------------------------------------------------------------
 #t hf aug-cc-pvdz symm=none int=(grid=ultrafine) guess=(read,tcheck) s
 table=(opt,rrhf)
 ----------------------------------------------------------------------
 -----
 title
 -----
 Symbolic Z-matrix:
 Charge =  0 Multiplicity = 1

 SCF Done:  E(RHF) =  -360.427147780     A.U. after   15 cycles

 1\1\GINC-SE083\Stability\RHF\Aug-CC-pVDZ\C8H14B2\OHZDE\08-Apr-2025\0\\
 #t hf aug-cc-pvdz symm=none int=(grid=ultrafine) guess=(read,tcheck) s
 table=(opt,rrhf)\\title\\0,1\B,0,-1.44421,-0.34378,-1.38976\C,0,-1.353
 82,1.11975,-0.80607\C,0,-2.20691,-1.16484,-0.27513\H,0,-1.05979,-0.732
 25,-2.44825\C,0,-1.96773,1.08262,0.37927\H,0,-0.92918,2.01911,-1.22576
 \C,0,-2.47978,-0.29789,0.7014\H,0,-2.48296,-2.20807,-0.24206\H,0,-2.10
 422,1.91644,1.05668\H,0,-2.99941,-0.51278,1.627\B,0,1.12271691,1.05935
 569,0.85262431\C,0,0.87587691,-0.41824431,1.31497431\C,0,1.95767691,1.

 Normal termination of Gaussian 16 at Tue Apr  8 22:28:06 2025.
 Gaussian 16:  ES64L-G16RevC.01  3-Jul-2019

 ----------------------------------------------------------------------
 #t hf aug-cc-pvdz iop(5/13=1,5/36=2,99/5=2) pseudo=read geom=check gue
 ss=(read,tcheck) scf=(maxcycle=1)
 ----------------------------------------------------------------------
 -----
 title
 -----
 Structure from the checkpoint file:  "B-set_borole_borolane_095_dimer_mol1.chk"
 Charge =  0 Multiplicity = 1

                         Standard orientation:
 ---------------------------------------------------------------------
 Center     Atomic      Atomic             Coordinates (Angstroms)
 Number     Number       Type             X           Y           Z
 ---------------------------------------------------------------------
      1          5           0       -1.328357   -0.353379   -1.395917
      2          6           0       -1.236904    1.115379   -0.825680
      3          6           0       -2.115223   -1.157516   -0.285756
      4          1           0       -0.929446   -0.755410   -2.443930
      5          6           0       -1.870453    1.094777    0.349687
      6          1           0       -0.798887    2.007342   -1.247402
      7          6           0       -2.397769   -0.278677    0.677302
      8          1           0       -2.399373   -2.198361   -0.246672
      9          1           0       -2.011970    1.936450    1.016267
     10          1           0       -2.934083   -0.480360    1.596335
     11          5           0        1.211552    1.054369    0.874170
     12          6           0        0.946392   -0.416618    1.347338
     13          6           0        2.067885    0.982693   -0.443998
     14          1           0        0.884821    2.050885    1.447163
     15          1           0        1.675701   -0.598667    2.151333
     16          1           0       -0.031339   -0.634505    1.776065
     17          6           0        1.308340   -1.269953    0.123834
     18          6           0        2.435590   -0.507359   -0.581766
     19          1           0        1.412923    1.287956   -1.269020
     20          1           0        2.921640    1.660345   -0.485394
     21          1           0        0.439414   -1.332071   -0.544565
     22          1           0        1.577842   -2.298144    0.365839
     23          1           0        2.573686   -0.827606   -1.614317
     24          1           0        3.375948   -0.699145   -0.058727
 ---------------------------------------------------------------------

 SCF Done:  E(RHF) =  -360.814299030     A.U. after    2 cycles

 The electronic state is 1-A.
 Alpha  occ. eigenvalues --  -11.26180 -11.25644 -11.22169 -11.21796 -11.21368
 Alpha  occ. eigenvalues --  -11.21298 -11.19330 -11.19293  -7.60000  -7.57069
 Alpha  occ. eigenvalues --   -1.12867  -1.08893  -0.97904  -0.95081  -0.88401
 Alpha  occ. eigenvalues --   -0.84997  -0.77417  -0.72153  -0.71324  -0.66484
 Alpha  occ. eigenvalues --   -0.65964  -0.63097  -0.61393  -0.58547  -0.56724
 Alpha  occ. eigenvalues --   -0.53408  -0.51694  -0.48311  -0.48079  -0.47626
 Alpha  occ. eigenvalues --   -0.47275  -0.46812  -0.45160  -0.44858  -0.43078
 Alpha  occ. eigenvalues --   -0.32952
 Alpha virt. eigenvalues --    0.02229   0.02803   0.03060   0.03199   0.03528
 Alpha virt. eigenvalues --    0.05027   0.05110   0.05261   0.05563   0.05628
 Alpha virt. eigenvalues --    0.07776   0.08004   0.08057   0.08492   0.08841

 Mulliken charges:
               1
     1  B    0.185976
     2  C    0.093643
     3  C   -0.023647
     4  H    0.245100
     5  C    0.120671
     6  H   -0.288124
     7  C    0.242039
     8  H   -0.255026
     9  H   -0.186577
    10  H   -0.220944
    11  B    0.285092
    12  C   -0.069786
    13  C   -0.128689
    14  H    0.138275
    15  H    0.071042
    16  H    0.110794
    17  C   -0.336329
    18  C   -0.388193
    19  H    0.123116
    20  H   -0.012671
    21  H    0.017269
    22  H    0.072643
    23  H    0.083517
    24  H    0.120810
 Sum of Mulliken charges =  -0.00000

 Dipole moment (field-independent basis, Debye):
    X=             -0.4615    Y=             -0.0055    Z=              0.7250  Tot=              0.8595

 Test job not archived.
 1\1\GINC-SE083\SP\RHF\Aug-CC-pVDZ\C8H14B2\OHZDE\08-Apr-2025\0\\#t hf a
 ug-cc-pvdz iop(5/13=1,5/36=2,99/5=2) pseudo=read geom=check guess=(rea
 d,tcheck) scf=(maxcycle=1)\\title\\0,1\B,0,-1.44421,-0.34378,-1.38976\
 C,0,-1.35382,1.11975,-0.80607\C,0,-2.20691,-1.16484,-0.27513\H,0,-1.05
 979,-0.73225,-2.44825\C,0,-1.96773,1.08262,0.37927\H,0,-0.92918,2.0191
 1,-1.22576\C,0,-2.47978,-0.29789,0.7014\H,0,-2.48296,-2.20807,-0.24206
 \H,0,-2.10422,1.91644,1.05668\H,0,-2.99941,-0.51278,1.627\B,0,1.122716
 91,1.05935569,0.85262431\C,0,0.87587691,-0.41824431,1.31497431\C,0,1.9

 Normal termination of Gaussian 16 at Tue Apr  8 22:28:26 2025.
