 Gaussian 16, Revision C.01,

 ----------------------------------------------------------------------
 #t hf aug-cc-pvdz symm=none int=(grid=ultrafine) guess=(read,tcheck) s
 table=(opt,rrhf)
 ----------------------------------------------------------------------
 -----
 title
 -----
 Symbolic Z-matrix:
 Charge =  0 Multiplicity = 1

 SCF Done:  E(RHF) =  -464.895448977     A.U. after   15 cycles
 Normal termination of Gaussian 16 at Tue Apr  8 22:23:01 2025.
 Gaussian 16:  ES64L-G16RevC.01  3-Jul-2019

 ----------------------------------------------------------------------
 #t hf aug-cc-pvdz iop(5/13=1,5/36=2,99/5=2) pseudo=read geom=check gue
 ss=(read,tcheck) scf=(maxcycle=1)
 ----------------------------------------------------------------------
 -----
 title
 -----
 Structure from the checkpoint file:  "B-set_azaborine_benzene_110_dimer_mol1.chk"
 Charge =  0 Multiplicity = 1

                         Standard orientation:
 ---------------------------------------------------------------------
 Center     Atomic      Atomic             Coordinates (Angstroms)
 Number     Number       Type             X           Y           Z
 ---------------------------------------------------------------------
      1          7           0        1.220980    0.199052   -0.055398
      2          5           0        2.024859    1.376909   -0.031015
      3          6           0        1.732108   -1.057225   -0.037649
      4          1           0        0.215767    0.261359   -0.085915
      5          6           0        3.514265    1.127391    0.015778
      6          1           0        1.470220    2.434726   -0.048987
      7          6           0        3.072775   -1.267028    0.004534
      8          1           0        1.021367   -1.871887   -0.058332
      9          6           0        3.962975   -0.162619    0.031072
     10          1           0        4.249097    1.922671    0.038025
     11          1           0        3.450041   -2.278412    0.017727
     12          1           0        5.025966   -0.377429    0.064431
     13          6           0       -2.535280   -0.168325    1.390277
     14          6           0       -2.591970    1.105701    0.843874
     15          6           0       -2.511121   -1.279131    0.559284
     16          1           0       -2.504334   -0.295120    2.463464
     17          6           0       -2.623802    1.269111   -0.533763
     18          1           0       -2.602584    1.971643    1.490840
     19          6           0       -2.542773   -1.116072   -0.818432
     20          1           0       -2.466812   -2.271910    0.985867
     21          6           0       -2.598923    0.158164   -1.364955
     22          1           0       -2.659442    2.262162   -0.959387
     23          1           0       -2.522378   -1.981362   -1.466659
     24          1           0       -2.617578    0.285838   -2.438329
 ---------------------------------------------------------------------

 SCF Done:  E(RHF) =  -465.383059886     A.U. after    2 cycles

 The electronic state is 1-A.
 Alpha  occ. eigenvalues --  -15.51506 -11.28123 -11.25299 -11.25243 -11.25219
 Alpha  occ. eigenvalues --  -11.25172 -11.25121 -11.25098 -11.24418 -11.21938
 Alpha  occ. eigenvalues --  -11.19207  -7.55920  -1.24088  -1.16897  -1.07278
 Alpha  occ. eigenvalues --   -1.02975  -1.02953  -0.97755  -0.84403  -0.84398
 Alpha  occ. eigenvalues --   -0.84192  -0.80232  -0.74928  -0.73582  -0.65924
 Alpha  occ. eigenvalues --   -0.65059  -0.64609  -0.63596  -0.61205  -0.61185
 Alpha  occ. eigenvalues --   -0.60574  -0.56173  -0.55603  -0.52647  -0.51635
 Alpha  occ. eigenvalues --   -0.51625  -0.49507  -0.46258  -0.40459  -0.35973
 Alpha  occ. eigenvalues --   -0.35874  -0.31025
 Alpha virt. eigenvalues --    0.02951   0.03333   0.03401   0.04044   0.04580
 Alpha virt. eigenvalues --    0.04691   0.04919   0.05534   0.06588   0.07318
 Alpha virt. eigenvalues --    0.07819   0.08122   0.08310   0.09054   0.09723

 Mulliken charges:
               1
     1  N    1.411705
     2  B   -0.373223
     3  C   -1.128447
     4  H    0.012896
     5  C    0.212380
     6  H    0.265140
     7  C    0.758874
     8  H   -0.409671
     9  C   -0.040622
    10  H   -0.267794
    11  H   -0.192025
    12  H   -0.209289
    13  C    0.247118
    14  C    0.264222
    15  C    0.269943
    16  H   -0.251172
    17  C    0.230239
    18  H   -0.260907
    19  C    0.252199
    20  H   -0.278174
    21  C    0.276829
    22  H   -0.259872
    23  H   -0.272768
    24  H   -0.257582
 Sum of Mulliken charges =   0.00000

 Dipole moment (field-independent basis, Debye):
    X=             -1.6647    Y=             -1.4888    Z=             -0.0025  Tot=              2.2333

 Test job not archived.
 1\1\GINC-SE453\SP\RHF\Aug-CC-pVDZ\C10H12B1N1\OHZDE\08-Apr-2025\0\\#t h
 f aug-cc-pvdz iop(5/13=1,5/36=2,99/5=2) pseudo=read geom=check guess=(
 read,tcheck) scf=(maxcycle=1)\\title\\0,1\N,0,-0.98689,0.19856,0.05529
 \B,0,-1.78972,1.37715,0.03178\C,0,-1.49918,-1.05725,0.03801\H,0,0.0184
 1,0.25995,0.08478\C,0,-3.2794,1.12899,-0.0135\H,0,-1.2341,2.43446,0.04
 923\C,0,-2.84008,-1.26583,-0.00281\H,0,-0.78916,-1.87256,0.05793\C,0,-
 3.7293,-0.16061,-0.02839\H,0,-4.01353,1.92494,-0.03496\H,0,-3.21828,-2
 .27687,-0.01566\H,0,-4.79252,-0.37445,-0.06067\C,0,2.76755242,-0.17217

 Normal termination of Gaussian 16 at Tue Apr  8 22:23:18 2025.
