 Gaussian 16, Revision C.01,

 ----------------------------------------------------------------------
 #t hf aug-cc-pvdz symm=none int=(grid=ultrafine) guess=(read,tcheck) s
 table=(opt,rrhf)
 ----------------------------------------------------------------------
 -----
 title
 -----
 Symbolic Z-matrix:
 Charge =  0 Multiplicity = 1

 SCF Done:  E(RHF) =  -481.959765906     A.U. after   14 cycles
 Normal termination of Gaussian 16 at Tue Apr  8 22:22:56 2025.
 Gaussian 16:  ES64L-G16RevC.01  3-Jul-2019

 ----------------------------------------------------------------------
 #t hf aug-cc-pvdz iop(5/13=1,5/36=2,99/5=2) pseudo=read geom=check gue
 ss=(read,tcheck) scf=(maxcycle=1)
 ----------------------------------------------------------------------
 -----
 title
 -----
 Structure from the checkpoint file:  "B-set_boricacid_benzene_090_dimer_mol1.chk"
 Charge =  0 Multiplicity = 1

                         Standard orientation:
 ---------------------------------------------------------------------
 Center     Atomic      Atomic             Coordinates (Angstroms)
 Number     Number       Type             X           Y           Z
 ---------------------------------------------------------------------
      1          5           0        2.223527   -0.212495   -0.005291
      2          8           0        3.496846   -0.712860   -0.023099
      3          8           0        1.160184   -1.059633   -0.019715
      4          8           0        2.042330    1.144478    0.027132
      5          1           0        3.511319   -1.667605   -0.045330
      6          1           0        0.313386   -0.608049   -0.005475
      7          1           0        2.872975    1.616196    0.034054
      8          6           0       -2.499241   -0.706664   -0.726414
      9          6           0       -1.693721    0.212247   -1.382488
     10          6           0       -2.507305   -0.757616    0.659520
     11          1           0       -3.118249   -1.386308   -1.295818
     12          6           0       -0.894650    1.080477   -0.652368
     13          1           0       -1.683727    0.248656   -2.463135
     14          6           0       -1.709889    0.110372    1.390580
     15          1           0       -3.132519   -1.476999    1.170317
     16          6           0       -0.902794    1.029503    0.735366
     17          1           0       -0.251257    1.786503   -1.158043
     18          1           0       -1.712541    0.067517    2.471034
     19          1           0       -0.266303    1.696771    1.299123
 ---------------------------------------------------------------------

 SCF Done:  E(RHF) =  -482.451073472     A.U. after    2 cycles

 The electronic state is 1-A.
 Alpha  occ. eigenvalues --  -20.55030 -20.54764 -20.53391 -11.24647 -11.24604
 Alpha  occ. eigenvalues --  -11.24539 -11.24529 -11.24320 -11.24244  -7.65489
 Alpha  occ. eigenvalues --   -1.49089  -1.43827  -1.43088  -1.16401  -1.02438
 Alpha  occ. eigenvalues --   -1.02401  -0.83820  -0.83751  -0.77537  -0.73595
 Alpha  occ. eigenvalues --   -0.73097  -0.72474  -0.65234  -0.64413  -0.60639
 Alpha  occ. eigenvalues --   -0.60613  -0.58896  -0.56318  -0.55533  -0.54956
 Alpha  occ. eigenvalues --   -0.51178  -0.51034  -0.50919  -0.49028  -0.48253
 Alpha  occ. eigenvalues --   -0.35364  -0.35203
 Alpha virt. eigenvalues --    0.03457   0.03515   0.03639   0.04782   0.05155
 Alpha virt. eigenvalues --    0.05315   0.06509   0.07042   0.07718   0.07919
 Alpha virt. eigenvalues --    0.09956   0.09969   0.10275   0.11223   0.12306

 Mulliken charges:
               1
     1  B    1.924762
     2  O   -1.323128
     3  O   -1.225243
     4  O   -1.232308
     5  H    0.495285
     6  H    1.046641
     7  H    0.499534
     8  C    0.192190
     9  C    0.240901
    10  C    0.193368
    11  H   -0.226706
    12  C    0.189677
    13  H   -0.244497
    14  C    0.239971
    15  H   -0.226667
    16  C    0.185690
    17  H   -0.240793
    18  H   -0.244071
    19  H   -0.244607
 Sum of Mulliken charges =  -0.00000

 Dipole moment (field-independent basis, Debye):
    X=             -0.4112    Y=              0.1938    Z=              0.0011  Tot=              0.4546

 Test job not archived.
 1\1\GINC-SE221\SP\RHF\Aug-CC-pVDZ\C6H9B1O3\OHZDE\08-Apr-2025\0\\#t hf
 aug-cc-pvdz iop(5/13=1,5/36=2,99/5=2) pseudo=read geom=check guess=(re
 ad,tcheck) scf=(maxcycle=1)\\title\\0,1\B,0,2.47525,0.1904,0.00446\O,0
 ,3.75759,0.66722,0.02093\O,0,1.42772,1.05703,0.01798\O,0,2.26904,-1.16
 305,-0.02572\H,0,3.78968,1.62157,0.04163\H,0,0.57273,0.62112,0.00482\H
 ,0,3.09084,-1.65002,-0.03224\C,0,-2.23727249,0.77274452,0.72678939\C,0
 ,-1.44854249,-0.15982548,1.38398939\C,0,-2.24502249,0.82163452,-0.6592
 2061\H,0,-2.84338249,1.46459452,1.29536939\C,0,-0.66595249,-1.04380548

 Normal termination of Gaussian 16 at Tue Apr  8 22:23:06 2025.
