 Gaussian 16, Revision C.01,

 ----------------------------------------------------------------------
 #t hf aug-cc-pvdz symm=none int=(grid=ultrafine) guess=(read,tcheck) s
 table=(opt,rrhf)
 ----------------------------------------------------------------------
 -----
 title
 -----
 Symbolic Z-matrix:
 Charge =  0 Multiplicity = 1

 SCF Done:  E(RHF) =  -447.406297781     A.U. after   11 cycles
 Normal termination of Gaussian 16 at Tue Apr  8 22:20:12 2025.
 Gaussian 16:  ES64L-G16RevC.01  3-Jul-2019

 ----------------------------------------------------------------------
 #t hf aug-cc-pvdz iop(5/13=1,5/36=2,99/5=2) pseudo=read geom=check gue
 ss=(read,tcheck) scf=(maxcycle=1)
 ----------------------------------------------------------------------
 -----
 title
 -----
 Structure from the checkpoint file:  "B-set_b2f4_b2f4_090_dimer_mol3.chk"
 Charge =  0 Multiplicity = 1

                         Standard orientation:
 ---------------------------------------------------------------------
 Center     Atomic      Atomic             Coordinates (Angstroms)
 Number     Number       Type             X           Y           Z
 ---------------------------------------------------------------------
      1          5           0       -0.858112   -0.010857   -0.006082
      2          5           0        0.866606    0.005773   -0.011600
      3          9           0       -1.562034    0.960008   -0.572733
      4          9           0       -1.544420   -0.968718    0.575773
      5          9           0        1.539306    0.973819    0.575444
      6          9           0        1.562429   -0.962285   -0.568660
 ---------------------------------------------------------------------

 SCF Done:  E(RHF) =  -447.810930248     A.U. after    2 cycles

 The electronic state is 1-A.
 Alpha  occ. eigenvalues --  -26.50003 -26.50000 -26.49981 -26.49628  -7.73838
 Alpha  occ. eigenvalues --   -7.73783  -1.65475  -1.65132  -1.61381  -1.60970
 Alpha  occ. eigenvalues --   -0.84648  -0.82105  -0.76943  -0.76840  -0.75821
 Alpha  occ. eigenvalues --   -0.71449  -0.70880  -0.69864  -0.65260  -0.64936
 Alpha  occ. eigenvalues --   -0.64601  -0.64122  -0.51833
 Alpha virt. eigenvalues --    0.03844   0.04133   0.05097   0.05630   0.07914
 Alpha virt. eigenvalues --    0.07947   0.08051   0.09554   0.13840   0.16172
 Alpha virt. eigenvalues --    0.20844   0.22310   0.24977   0.25070   0.26188

 Mulliken charges:
               1
     1  B    1.106141
     2  B    1.143612
     3  F   -0.571723
     4  F   -0.561539
     5  F   -0.561627
     6  F   -0.554864
 Sum of Mulliken charges =  -0.00000

 Dipole moment (field-independent basis, Debye):
    X=              0.0652    Y=             -0.0516    Z=             -0.0369  Tot=              0.0910

 Test job not archived.
 1\1\GINC-SE424\SP\RHF\Aug-CC-pVDZ\B2F4\OHZDE\08-Apr-2025\0\\#t hf aug-
 cc-pvdz iop(5/13=1,5/36=2,99/5=2) pseudo=read geom=check guess=(read,t
 check) scf=(maxcycle=1)\\title\\0,1\B,0,-1.49397,-0.78141,-0.71312\B,0
 ,-2.06981,0.44791,0.3509\F,0,-0.52241,-0.54418,-1.58431\F,0,-2.00536,-
 1.99198,-0.7217\F,0,-2.62042,1.549,-0.11674\F,0,-2.01046,0.30983,1.658
 2\\Version=ES64L-G16RevC.01\State=1-A\HF=-447.8109302\RMSD=9.733e-03\D
 ipole=0.0000865,0.0051751,0.0354081\Quadrupole=1.7475498,-1.1038377,-0
 .6437121,0.7073954,1.4603807,-0.7505776\PG=C01 [X(B2F4)]\\@

 Normal termination of Gaussian 16 at Tue Apr  8 22:20:14 2025.
