 Gaussian 16, Revision C.01,

 ----------------------------------------------------------------------
 #t hf aug-cc-pvdz symm=none int=(grid=ultrafine) guess=(read,tcheck) s
 table=(opt,rrhf)
 ----------------------------------------------------------------------
 -----
 title
 -----
 Symbolic Z-matrix:
 Charge =  0 Multiplicity = 1

 SCF Done:  E(RHF) =  -497.144530287     A.U. after   14 cycles
 Normal termination of Gaussian 16 at Tue Apr  8 22:26:28 2025.
 Gaussian 16:  ES64L-G16RevC.01  3-Jul-2019

 ----------------------------------------------------------------------
 #t hf aug-cc-pvdz iop(5/13=1,5/36=2,99/5=2) pseudo=read geom=check gue
 ss=(read,tcheck) scf=(maxcycle=1)
 ----------------------------------------------------------------------
 -----
 title
 -----
 Structure from the checkpoint file:  "B-set_borepin_borazine_105_dimer_mol1.chk"
 Charge =  0 Multiplicity = 1

                         Standard orientation:
 ---------------------------------------------------------------------
 Center     Atomic      Atomic             Coordinates (Angstroms)
 Number     Number       Type             X           Y           Z
 ---------------------------------------------------------------------
      1          6           0       -1.213652   -1.152577    1.236289
      2          6           0       -1.957200   -1.523918    0.157997
      3          6           0       -0.866941    0.139729    1.710120
      4          1           0       -0.817468   -1.970237    1.827249
      5          6           0       -2.613277   -0.730319   -0.819953
      6          1           0       -2.067281   -2.593272    0.019454
      7          6           0       -1.183630    1.357834    1.190068
      8          1           0       -0.252868    0.124132    2.605803
      9          6           0       -2.651831    0.626069   -0.941634
     10          1           0       -3.147510   -1.313271   -1.565078
     11          1           0       -0.776452    2.195469    1.749929
     12          5           0       -2.001034    1.679217   -0.054079
     13          1           0       -3.230078    0.976922   -1.792539
     14          1           0       -2.146440    2.831622   -0.349473
     15          5           0        2.959349   -0.019389    0.692100
     16          7           0        2.515048    1.194122    0.096472
     17          7           0        2.456071   -1.237254    0.149507
     18          1           0        3.721683   -0.019191    1.613250
     19          5           0        1.587403    1.225641   -0.987209
     20          1           0        2.851115    2.064624    0.465601
     21          5           0        1.542471   -1.272817   -0.946514
     22          1           0        2.763556   -2.105208    0.548328
     23          7           0        1.137675   -0.025665   -1.497473
     24          1           0        1.210843    2.259108   -1.452502
     25          1           0        1.141511   -2.309828   -1.385018
     26          1           0        0.466075   -0.023459   -2.243350
 ---------------------------------------------------------------------

 SCF Done:  E(RHF) =  -497.659418789     A.U. after    2 cycles

 The electronic state is 1-A.
 Alpha  occ. eigenvalues --  -15.46922 -15.46720 -15.46474 -11.26284 -11.26112
 Alpha  occ. eigenvalues --  -11.25984 -11.25892 -11.22277 -11.22128  -7.59093
 Alpha  occ. eigenvalues --   -7.59003  -7.58847  -7.56036  -1.20682  -1.13670
 Alpha  occ. eigenvalues --   -1.13556  -1.12823  -1.05406  -0.99793  -0.88199
 Alpha  occ. eigenvalues --   -0.82621  -0.77889  -0.76571  -0.76444  -0.71165
 Alpha  occ. eigenvalues --   -0.69359  -0.68416  -0.65306  -0.63935  -0.63789
 Alpha  occ. eigenvalues --   -0.63252  -0.58990  -0.56720  -0.55050  -0.54148
 Alpha  occ. eigenvalues --   -0.53923  -0.49113  -0.48417  -0.48407  -0.46271
 Alpha  occ. eigenvalues --   -0.46096  -0.44788  -0.44460  -0.38672  -0.32892
 Alpha virt. eigenvalues --    0.02792   0.03006   0.03411   0.03731   0.04130
 Alpha virt. eigenvalues --    0.04222   0.04413   0.04569   0.04658   0.05317
 Alpha virt. eigenvalues --    0.05896   0.07046   0.07207   0.07597   0.07810

 Mulliken charges:
               1
     1  C    0.336102
     2  C    0.229740
     3  C    0.676731
     4  H   -0.313072
     5  C    0.512902
     6  H   -0.294437
     7  C    0.116476
     8  H   -0.297361
     9  C   -0.021709
    10  H   -0.267910
    11  H   -0.298537
    12  B   -0.553920
    13  H   -0.273767
    14  H    0.300676
    15  B   -0.950429
    16  N    0.627484
    17  N    0.634039
    18  H    0.371423
    19  B   -1.058587
    20  H   -0.184482
    21  B   -1.012910
    22  H   -0.187772
    23  N    1.132610
    24  H    0.535401
    25  H    0.466551
    26  H   -0.225243
 Sum of Mulliken charges =  -0.00000

 Dipole moment (field-independent basis, Debye):
    X=              0.0932    Y=             -1.8503    Z=              0.5503  Tot=              1.9326

 Test job not archived.
 1\1\GINC-SE070\SP\RHF\Aug-CC-pVDZ\C6H13B4N3\OHZDE\08-Apr-2025\0\\#t hf
  aug-cc-pvdz iop(5/13=1,5/36=2,99/5=2) pseudo=read geom=check guess=(r
 ead,tcheck) scf=(maxcycle=1)\\title\\0,1\C,0,-1.1002,-1.1557,1.24379\C
 ,0,-1.87153,-1.52215,0.18349\C,0,-0.73895,0.13441,1.71272\H,0,-0.6909,
 -1.97601,1.822\C,0,-2.55047,-0.72416,-0.77509\H,0,-1.98729,-2.59084,0.
 04445\C,0,-1.06616,1.35478,1.20463\H,0,-0.10247,0.11476,2.59254\C,0,-2
 .58928,0.63268,-0.89154\H,0,-3.10457,-1.30369,-1.50828\H,0,-0.64323,2.
 18983,1.75662\B,0,-1.91408,1.68172,-0.01745\H,0,-3.18812,0.98737,-1.72

 Normal termination of Gaussian 16 at Tue Apr  8 22:26:53 2025.
