 Gaussian 16, Revision C.01,

 ----------------------------------------------------------------------
 #t hf aug-cc-pvdz symm=none int=(grid=ultrafine) guess=(read,tcheck) s
 table=(opt,rrhf)
 ----------------------------------------------------------------------
 -----
 title
 -----
 Symbolic Z-matrix:
 Charge =  0 Multiplicity = 1

 SCF Done:  E(RHF) =  -2334.96902028     A.U. after   12 cycles

 1\1\GINC-SE083\Stability\RHF\Aug-CC-pVDZ\B4Cl4F4\OHZDE\08-Apr-2025\0\\
 #t hf aug-cc-pvdz symm=none int=(grid=ultrafine) guess=(read,tcheck) s
 table=(opt,rrhf)\\title\\0,1\B,0,-1.57438,-0.71073,0.17185\B,0,-1.4340
 6,0.93593,-0.18667\Cl,0,-2.09565,-1.82193,-1.067\Cl,0,-1.25402,-1.2836
 8,1.78589\Cl,0,-2.80515,1.98794,0.03394\Cl,0,0.06371,1.62548,-0.79315\
 B,0,2.38973,-0.6957,-0.67329\B,0,2.76899,0.27376,0.70606\F,0,1.49982,-
 1.66705,-0.6035\F,0,2.97613,-0.50259,-1.83421\F,0,2.24959,0.01802,1.88
 823\F,0,3.58528,1.30172,0.61569\\Version=ES64L-G16RevC.01\HF=-2334.969

 Normal termination of Gaussian 16 at Tue Apr  8 22:21:00 2025.
 Gaussian 16:  ES64L-G16RevC.01  3-Jul-2019

 ----------------------------------------------------------------------
 #t hf aug-cc-pvdz iop(5/13=1,5/36=2,99/5=2) pseudo=read geom=check gue
 ss=(read,tcheck) scf=(maxcycle=1)
 ----------------------------------------------------------------------
 -----
 title
 -----
 Structure from the checkpoint file:  "B-set_b2f4_b2cl4_100_dimer_mol1.chk"
 Charge =  0 Multiplicity = 1

                         Standard orientation:
 ---------------------------------------------------------------------
 Center     Atomic      Atomic             Coordinates (Angstroms)
 Number     Number       Type             X           Y           Z
 ---------------------------------------------------------------------
      1          5           0       -1.574379   -0.710731    0.171848
      2          5           0       -1.434060    0.935929   -0.186672
      3         17           0       -2.095648   -1.821932   -1.067002
      4         17           0       -1.254018   -1.283681    1.785888
      5         17           0       -2.805151    1.987938    0.033938
      6         17           0        0.063709    1.625480   -0.793152
      7          5           0        2.389731   -0.695698   -0.673292
      8          5           0        2.768990    0.273763    0.706058
      9          9           0        1.499822   -1.667048   -0.603502
     10          9           0        2.976131   -0.502587   -1.834212
     11          9           0        2.249591    0.018022    1.888228
     12          9           0        3.585280    1.301723    0.615688
 ---------------------------------------------------------------------

 SCF Done:  E(RHF) =  -2335.71868554     A.U. after    2 cycles

 The electronic state is 1-A.
 Alpha  occ. eigenvalues -- -105.60820-105.60058-105.59373-105.59347 -26.49860
 Alpha  occ. eigenvalues --  -26.49607 -26.49557 -26.49518 -10.65863 -10.65089
 Alpha  occ. eigenvalues --  -10.64410 -10.64372  -7.82752  -7.82471  -7.82437
 Alpha  occ. eigenvalues --   -7.81985  -7.81697  -7.81648  -7.81303  -7.81272
 Alpha  occ. eigenvalues --   -7.81011  -7.80987  -7.80964  -7.80938  -7.73466
 Alpha  occ. eigenvalues --   -7.73330  -7.73108  -7.72427  -1.65273  -1.64861
 Alpha  occ. eigenvalues --   -1.61205  -1.60780  -1.14258  -1.12441  -1.08645
 Alpha  occ. eigenvalues --   -1.07706  -0.84388  -0.81891  -0.77214  -0.77079
 Alpha  occ. eigenvalues --   -0.76856  -0.75052  -0.71847  -0.70427  -0.69260
 Alpha  occ. eigenvalues --   -0.68731  -0.65164  -0.64717  -0.64672  -0.63547
 Alpha  occ. eigenvalues --   -0.62290  -0.61424  -0.60750  -0.55316  -0.54237
 Alpha  occ. eigenvalues --   -0.53498  -0.51838  -0.50455  -0.49206  -0.49020
 Alpha  occ. eigenvalues --   -0.48259  -0.44822
 Alpha virt. eigenvalues --    0.03201   0.03965   0.04001   0.04258   0.04491
 Alpha virt. eigenvalues --    0.04930   0.05832   0.06403   0.06583   0.07000
 Alpha virt. eigenvalues --    0.07222   0.07653   0.08964   0.09116   0.09530

 Mulliken charges:
               1
     1  B    0.716181
     2  B    0.550742
     3  Cl  -0.350944
     4  Cl  -0.326874
     5  Cl  -0.319944
     6  Cl  -0.294494
     7  B    1.260129
     8  B    1.358019
     9  F   -0.676619
    10  F   -0.666142
    11  F   -0.616077
    12  F   -0.633979
 Sum of Mulliken charges =  -0.00000

 Dipole moment (field-independent basis, Debye):
    X=             -0.4020    Y=             -0.0071    Z=              0.0348  Tot=              0.4035

 Test job not archived.
 1\1\GINC-SE083\SP\RHF\Aug-CC-pVDZ\B4Cl4F4\OHZDE\08-Apr-2025\0\\#t hf a
 ug-cc-pvdz iop(5/13=1,5/36=2,99/5=2) pseudo=read geom=check guess=(rea
 d,tcheck) scf=(maxcycle=1)\\title\\0,1\B,0,-1.57438,-0.71073,0.17185\B
 ,0,-1.43406,0.93593,-0.18667\Cl,0,-2.09565,-1.82193,-1.067\Cl,0,-1.254
 02,-1.28368,1.78589\Cl,0,-2.80515,1.98794,0.03394\Cl,0,0.06371,1.62548
 ,-0.79315\B,0,2.38973,-0.6957,-0.67329\B,0,2.76899,0.27376,0.70606\F,0
 ,1.49982,-1.66705,-0.6035\F,0,2.97613,-0.50259,-1.83421\F,0,2.24959,0.
 01802,1.88823\F,0,3.58528,1.30172,0.61569\\Version=ES64L-G16RevC.01\St

 Normal termination of Gaussian 16 at Tue Apr  8 22:21:12 2025.
