 Gaussian 16, Revision C.01,

 ----------------------------------------------------------------------
 #t hf aug-cc-pvdz symm=none int=(grid=ultrafine) guess=(read,tcheck) s
 table=(opt,rrhf)
 ----------------------------------------------------------------------
 -----
 title
 -----
 Symbolic Z-matrix:
 Charge =  0 Multiplicity = 1

 SCF Done:  E(RHF) =  -2334.96962506     A.U. after   12 cycles

 1\1\GINC-SE221\Stability\RHF\Aug-CC-pVDZ\B4Cl4F4\OHZDE\08-Apr-2025\0\\
 #t hf aug-cc-pvdz symm=none int=(grid=ultrafine) guess=(read,tcheck) s
 table=(opt,rrhf)\\title\\0,1\B,0,-1.57438,-0.71073,0.17185\B,0,-1.4340
 6,0.93593,-0.18667\Cl,0,-2.09565,-1.82193,-1.067\Cl,0,-1.25402,-1.2836
 8,1.78589\Cl,0,-2.80515,1.98794,0.03394\Cl,0,0.06371,1.62548,-0.79315\
 B,0,2.59447242,-0.71240708,-0.67200567\B,0,2.97373242,0.25705292,0.707
 34433\F,0,1.70456242,-1.68375708,-0.60221567\F,0,3.18087242,-0.5192970
 8,-1.83292567\F,0,2.45433242,0.00131292,1.88951433\F,0,3.79002242,1.28

 Normal termination of Gaussian 16 at Tue Apr  8 22:20:59 2025.
 Gaussian 16:  ES64L-G16RevC.01  3-Jul-2019

 ----------------------------------------------------------------------
 #t hf aug-cc-pvdz iop(5/13=1,5/36=2,99/5=2) pseudo=read geom=check gue
 ss=(read,tcheck) scf=(maxcycle=1)
 ----------------------------------------------------------------------
 -----
 title
 -----
 Structure from the checkpoint file:  "B-set_b2f4_b2cl4_105_dimer_mol1.chk"
 Charge =  0 Multiplicity = 1

                         Standard orientation:
 ---------------------------------------------------------------------
 Center     Atomic      Atomic             Coordinates (Angstroms)
 Number     Number       Type             X           Y           Z
 ---------------------------------------------------------------------
      1          5           0       -1.642696   -0.721941    0.172278
      2          5           0       -1.519988    0.926196   -0.185912
      3         17           0       -2.153037   -1.838269   -1.066513
      4         17           0       -1.315244   -1.291883    1.785960
      5         17           0       -2.901951    1.963632    0.035870
      6         17           0       -0.029975    1.631656   -0.793202
      7          5           0        2.525383   -0.679439   -0.674323
      8          5           0        2.895309    0.293623    0.705025
      9          9           0        1.645814   -1.660139   -0.604196
     10          9           0        3.108946   -0.479866   -1.835580
     11          9           0        2.379417    0.032124    1.887471
     12          9           0        3.700652    1.330157    0.614381
 ---------------------------------------------------------------------

 SCF Done:  E(RHF) =  -2335.71993847     A.U. after    2 cycles

 The electronic state is 1-A.
 Alpha  occ. eigenvalues -- -105.60600-105.59966-105.59415-105.59397 -26.49832
 Alpha  occ. eigenvalues --  -26.49675 -26.49624 -26.49597 -10.65635 -10.65001
 Alpha  occ. eigenvalues --  -10.64454 -10.64420  -7.82527  -7.82244  -7.82207
 Alpha  occ. eigenvalues --   -7.81897  -7.81608  -7.81559  -7.81346  -7.81321
 Alpha  occ. eigenvalues --   -7.81054  -7.81037  -7.81006  -7.80987  -7.73542
 Alpha  occ. eigenvalues --   -7.73438  -7.72999  -7.72419  -1.65295  -1.64905
 Alpha  occ. eigenvalues --   -1.61226  -1.60824  -1.14137  -1.12428  -1.08478
 Alpha  occ. eigenvalues --   -1.07742  -0.84413  -0.81921  -0.77141  -0.77109
 Alpha  occ. eigenvalues --   -0.76879  -0.75090  -0.71799  -0.70429  -0.69290
 Alpha  occ. eigenvalues --   -0.68693  -0.65135  -0.64730  -0.64700  -0.63578
 Alpha  occ. eigenvalues --   -0.62224  -0.61309  -0.60768  -0.55148  -0.54306
 Alpha  occ. eigenvalues --   -0.53326  -0.51858  -0.50341  -0.49224  -0.48994
 Alpha  occ. eigenvalues --   -0.48298  -0.44774
 Alpha virt. eigenvalues --    0.03156   0.03969   0.04030   0.04282   0.04543
 Alpha virt. eigenvalues --    0.04882   0.05706   0.06342   0.06549   0.06946
 Alpha virt. eigenvalues --    0.07219   0.07599   0.08930   0.09080   0.09450

 Mulliken charges:
               1
     1  B    0.710823
     2  B    0.552433
     3  Cl  -0.345188
     4  Cl  -0.322056
     5  Cl  -0.316703
     6  Cl  -0.291622
     7  B    1.236449
     8  B    1.324331
     9  F   -0.658680
    10  F   -0.656878
    11  F   -0.608649
    12  F   -0.624261
 Sum of Mulliken charges =   0.00000

 Dipole moment (field-independent basis, Debye):
    X=             -0.3608    Y=             -0.0499    Z=              0.0522  Tot=              0.3679

 Test job not archived.
 1\1\GINC-SE221\SP\RHF\Aug-CC-pVDZ\B4Cl4F4\OHZDE\08-Apr-2025\0\\#t hf a
 ug-cc-pvdz iop(5/13=1,5/36=2,99/5=2) pseudo=read geom=check guess=(rea
 d,tcheck) scf=(maxcycle=1)\\title\\0,1\B,0,-1.57438,-0.71073,0.17185\B
 ,0,-1.43406,0.93593,-0.18667\Cl,0,-2.09565,-1.82193,-1.067\Cl,0,-1.254
 02,-1.28368,1.78589\Cl,0,-2.80515,1.98794,0.03394\Cl,0,0.06371,1.62548
 ,-0.79315\B,0,2.59447242,-0.71240708,-0.67200567\B,0,2.97373242,0.2570
 5292,0.70734433\F,0,1.70456242,-1.68375708,-0.60221567\F,0,3.18087242,
 -0.51929708,-1.83292567\F,0,2.45433242,0.00131292,1.88951433\F,0,3.790

 Normal termination of Gaussian 16 at Tue Apr  8 22:21:10 2025.
