 Gaussian 16, Revision C.01,

 ----------------------------------------------------------------------
 #t hf aug-cc-pvdz symm=none int=(grid=ultrafine) guess=(read,tcheck) s
 table=(opt,rrhf)
 ----------------------------------------------------------------------
 -----
 title
 -----
 Symbolic Z-matrix:
 Charge =  0 Multiplicity = 1

 SCF Done:  E(RHF) =  -2334.96447055     A.U. after   12 cycles

 1\1\GINC-SE029\Stability\RHF\Aug-CC-pVDZ\B4Cl4F4\OHZDE\08-Apr-2025\0\\
 #t hf aug-cc-pvdz symm=none int=(grid=ultrafine) guess=(read,tcheck) s
 table=(opt,rrhf)\\title\\0,1\B,0,-1.57438,-0.71073,0.17185\B,0,-1.4340
 6,0.93593,-0.18667\Cl,0,-2.09565,-1.82193,-1.067\Cl,0,-1.25402,-1.2836
 8,1.78589\Cl,0,-2.80515,1.98794,0.03394\Cl,0,0.06371,1.62548,-0.79315\
 B,0,1.98024517,-0.66228583,-0.67585867\B,0,2.35950517,0.30717417,0.703
 49133\F,0,1.09033517,-1.63363583,-0.60606867\F,0,2.56664517,-0.4691758
 3,-1.83677867\F,0,1.84010517,0.05143417,1.88566133\F,0,3.17579517,1.33

 Normal termination of Gaussian 16 at Tue Apr  8 22:20:25 2025.
 Gaussian 16:  ES64L-G16RevC.01  3-Jul-2019

 ----------------------------------------------------------------------
 #t hf aug-cc-pvdz iop(5/13=1,5/36=2,99/5=2) pseudo=read geom=check gue
 ss=(read,tcheck) scf=(maxcycle=1)
 ----------------------------------------------------------------------
 -----
 title
 -----
 Structure from the checkpoint file:  "B-set_b2f4_b2cl4_090_dimer_mol1.chk"
 Charge =  0 Multiplicity = 1

                         Standard orientation:
 ---------------------------------------------------------------------
 Center     Atomic      Atomic             Coordinates (Angstroms)
 Number     Number       Type             X           Y           Z
 ---------------------------------------------------------------------
      1          5           0       -1.444337   -0.678913    0.170789
      2          5           0       -1.252821    0.962389   -0.188606
      3         17           0       -1.997377   -1.774470   -1.068218
      4         17           0       -1.144556   -1.260256    1.785781
      5         17           0       -2.591293    2.056226    0.028872
      6         17           0        0.266498    1.605108   -0.792918
      7          5           0        2.111566   -0.740425   -0.670691
      8          5           0        2.518060    0.217929    0.708663
      9          9           0        1.192085   -1.683898   -0.601806
     10          9           0        2.705645   -0.566293   -1.830708
     11          9           0        1.988986   -0.020848    1.890090
     12          9           0        3.365732    1.220234    0.619029
 ---------------------------------------------------------------------

 SCF Done:  E(RHF) =  -2335.71329285     A.U. after    2 cycles

 The electronic state is 1-A.
 Alpha  occ. eigenvalues -- -105.61366-105.60282-105.59181-105.59150 -26.49982
 Alpha  occ. eigenvalues --  -26.49422 -26.49375 -26.49295 -10.66441 -10.65304
 Alpha  occ. eigenvalues --  -10.64222 -10.64182  -7.83323  -7.83047  -7.83018
 Alpha  occ. eigenvalues --   -7.82201  -7.81912  -7.81863  -7.81116  -7.81082
 Alpha  occ. eigenvalues --   -7.80824  -7.80797  -7.80778  -7.80747  -7.73377
 Alpha  occ. eigenvalues --   -7.73270  -7.73034  -7.72424  -1.65281  -1.64745
 Alpha  occ. eigenvalues --   -1.61195  -1.60660  -1.14623  -1.12417  -1.09081
 Alpha  occ. eigenvalues --   -1.07572  -0.84387  -0.81846  -0.77444  -0.76996
 Alpha  occ. eigenvalues --   -0.76863  -0.74966  -0.72138  -0.70469  -0.69220
 Alpha  occ. eigenvalues --   -0.68735  -0.65352  -0.64739  -0.64613  -0.63492
 Alpha  occ. eigenvalues --   -0.62392  -0.61670  -0.60667  -0.55784  -0.54059
 Alpha  occ. eigenvalues --   -0.53916  -0.51841  -0.50733  -0.49143  -0.48759
 Alpha  occ. eigenvalues --   -0.48108  -0.44905
 Alpha virt. eigenvalues --    0.03270   0.03903   0.03950   0.04186   0.04399
 Alpha virt. eigenvalues --    0.05090   0.06139   0.06533   0.06654   0.07139
 Alpha virt. eigenvalues --    0.07230   0.07828   0.09015   0.09161   0.09648

 Mulliken charges:
               1
     1  B    0.723734
     2  B    0.557243
     3  Cl  -0.369264
     4  Cl  -0.343180
     5  Cl  -0.327410
     6  Cl  -0.318106
     7  B    1.316724
     8  B    1.426364
     9  F   -0.703068
    10  F   -0.688691
    11  F   -0.609611
    12  F   -0.664735
 Sum of Mulliken charges =  -0.00000

 Dipole moment (field-independent basis, Debye):
    X=             -0.4617    Y=              0.1431    Z=             -0.0302  Tot=              0.4843

 Test job not archived.
 1\1\GINC-SE029\SP\RHF\Aug-CC-pVDZ\B4Cl4F4\OHZDE\08-Apr-2025\0\\#t hf a
 ug-cc-pvdz iop(5/13=1,5/36=2,99/5=2) pseudo=read geom=check guess=(rea
 d,tcheck) scf=(maxcycle=1)\\title\\0,1\B,0,-1.57438,-0.71073,0.17185\B
 ,0,-1.43406,0.93593,-0.18667\Cl,0,-2.09565,-1.82193,-1.067\Cl,0,-1.254
 02,-1.28368,1.78589\Cl,0,-2.80515,1.98794,0.03394\Cl,0,0.06371,1.62548
 ,-0.79315\B,0,1.98024517,-0.66228583,-0.67585867\B,0,2.35950517,0.3071
 7417,0.70349133\F,0,1.09033517,-1.63363583,-0.60606867\F,0,2.56664517,
 -0.46917583,-1.83677867\F,0,1.84010517,0.05143417,1.88566133\F,0,3.175

 Normal termination of Gaussian 16 at Tue Apr  8 22:20:36 2025.
