 Gaussian 16, Revision C.01,

 ----------------------------------------------------------------------
 #t hf aug-cc-pvdz symm=none int=(grid=ultrafine) guess=(read,tcheck) s
 table=(opt,rrhf)
 ----------------------------------------------------------------------
 -----
 title
 -----
 Symbolic Z-matrix:
 Charge =  0 Multiplicity = 1

 SCF Done:  E(RHF) =  -497.130786069     A.U. after   15 cycles
 Normal termination of Gaussian 16 at Tue Apr  8 22:26:24 2025.
 Gaussian 16:  ES64L-G16RevC.01  3-Jul-2019

 ----------------------------------------------------------------------
 #t hf aug-cc-pvdz iop(5/13=1,5/36=2,99/5=2) pseudo=read geom=check gue
 ss=(read,tcheck) scf=(maxcycle=1)
 ----------------------------------------------------------------------
 -----
 title
 -----
 Structure from the checkpoint file:  "B-set_borepin_borazine_090_dimer_mol1.chk"
 Charge =  0 Multiplicity = 1

                         Standard orientation:
 ---------------------------------------------------------------------
 Center     Atomic      Atomic             Coordinates (Angstroms)
 Number     Number       Type             X           Y           Z
 ---------------------------------------------------------------------
      1          6           0       -0.855986   -1.163327    1.256358
      2          6           0       -1.698033   -1.517987    0.247079
      3          6           0       -0.457346    0.121423    1.709441
      4          1           0       -0.413668   -1.989969    1.800214
      5          6           0       -2.434780   -0.709475   -0.658534
      6          1           0       -1.828607   -2.585017    0.108413
      7          6           0       -0.810915    1.347176    1.232948
      8          1           0        0.236054    0.092021    2.544850
      9          6           0       -2.473830    0.648375   -0.762457
     10          1           0       -3.039515   -1.280736   -1.357395
     11          1           0       -0.347699    2.175955    1.761557
     12          5           0       -1.736342    1.687470    0.072292
     13          1           0       -3.124862    1.012280   -1.553175
     14          1           0       -1.899281    2.843948   -0.196868
     15          5           0        2.726422   -0.040318    0.502534
     16          7           0        2.238824    1.182520   -0.037559
     17          7           0        2.166155   -1.248832   -0.003911
     18          1           0        3.569911   -0.055205    1.349869
     19          5           0        1.216081    1.231992   -1.031255
     20          1           0        2.614013    2.046699    0.307982
     21          5           0        1.155749   -1.266398   -1.011860
     22          1           0        2.502161   -2.123093    0.356250
     23          7           0        0.711839   -0.010671   -1.510757
     24          1           0        0.806483    2.272937   -1.449600
     25          1           0        0.708300   -2.295887   -1.422214
     26          1           0       -0.025225    0.004117   -2.191860
 ---------------------------------------------------------------------

 SCF Done:  E(RHF) =  -497.643044482     A.U. after    2 cycles

 The electronic state is 1-A.
 Alpha  occ. eigenvalues --  -15.46759 -15.46410 -15.46134 -11.26141 -11.26015
 Alpha  occ. eigenvalues --  -11.25928 -11.25806 -11.22152 -11.22071  -7.58971
 Alpha  occ. eigenvalues --   -7.58885  -7.58713  -7.56063  -1.20562  -1.13564
 Alpha  occ. eigenvalues --   -1.13476  -1.12676  -1.05434  -0.99848  -0.88192
 Alpha  occ. eigenvalues --   -0.82676  -0.77737  -0.76470  -0.76318  -0.71143
 Alpha  occ. eigenvalues --   -0.69353  -0.68403  -0.65136  -0.63809  -0.63642
 Alpha  occ. eigenvalues --   -0.63240  -0.59003  -0.56928  -0.55601  -0.54118
 Alpha  occ. eigenvalues --   -0.53878  -0.48900  -0.48418  -0.48038  -0.46271
 Alpha  occ. eigenvalues --   -0.46080  -0.44950  -0.44126  -0.38493  -0.32746
 Alpha virt. eigenvalues --    0.02768   0.03042   0.03401   0.03645   0.04082
 Alpha virt. eigenvalues --    0.04169   0.04371   0.04530   0.04621   0.05214
 Alpha virt. eigenvalues --    0.05861   0.07216   0.07475   0.07869   0.08018

 Mulliken charges:
               1
     1  C    0.204004
     2  C    0.346500
     3  C    0.701788
     4  H   -0.315991
     5  C    0.395753
     6  H   -0.295103
     7  C    0.058475
     8  H   -0.259153
     9  C    0.004680
    10  H   -0.278806
    11  H   -0.296872
    12  B   -0.633817
    13  H   -0.284621
    14  H    0.340809
    15  B   -1.108526
    16  N    0.696404
    17  N    0.768698
    18  H    0.443673
    19  B   -1.150592
    20  H   -0.186116
    21  B   -1.036389
    22  H   -0.192436
    23  N    1.275296
    24  H    0.538178
    25  H    0.460207
    26  H   -0.196044
 Sum of Mulliken charges =   0.00000

 Dipole moment (field-independent basis, Debye):
    X=              0.0869    Y=             -1.8173    Z=              0.5800  Tot=              1.9096

 Test job not archived.
 1\1\GINC-SE250\SP\RHF\Aug-CC-pVDZ\C6H13B4N3\OHZDE\08-Apr-2025\0\\#t hf
  aug-cc-pvdz iop(5/13=1,5/36=2,99/5=2) pseudo=read geom=check guess=(r
 ead,tcheck) scf=(maxcycle=1)\\title\\0,1\C,0,-1.1002,-1.1557,1.24379\C
 ,0,-1.87153,-1.52215,0.18349\C,0,-0.73895,0.13441,1.71272\H,0,-0.6909,
 -1.97601,1.822\C,0,-2.55047,-0.72416,-0.77509\H,0,-1.98729,-2.59084,0.
 04445\C,0,-1.06616,1.35478,1.20463\H,0,-0.10247,0.11476,2.59254\C,0,-2
 .58928,0.63268,-0.89154\H,0,-3.10457,-1.30369,-1.50828\H,0,-0.64323,2.
 18983,1.75662\B,0,-1.91408,1.68172,-0.01745\H,0,-3.18812,0.98737,-1.72

 Normal termination of Gaussian 16 at Tue Apr  8 22:26:50 2025.
