 Gaussian 16, Revision C.01,

 ----------------------------------------------------------------------
 #t hf aug-cc-pvdz symm=none int=(grid=ultrafine) guess=(read,tcheck) s
 table=(opt,rrhf)
 ----------------------------------------------------------------------
 -----
 title
 -----
 Symbolic Z-matrix:
 Charge =  0 Multiplicity = 1

 SCF Done:  E(RHF) =  -219.227242885     A.U. after   12 cycles
 Normal termination of Gaussian 16 at Tue Apr  8 22:25:35 2025.
 Gaussian 16:  ES64L-G16RevC.01  3-Jul-2019

 ----------------------------------------------------------------------
 #t hf aug-cc-pvdz iop(5/13=1,5/36=2,99/5=2) pseudo=read geom=check gue
 ss=(read,tcheck) scf=(maxcycle=1)
 ----------------------------------------------------------------------
 -----
 title
 -----
 Structure from the checkpoint file:  "B-set_borole_methane_105_dimer_mol1.chk"
 Charge =  0 Multiplicity = 1

                         Standard orientation:
 ---------------------------------------------------------------------
 Center     Atomic      Atomic             Coordinates (Angstroms)
 Number     Number       Type             X           Y           Z
 ---------------------------------------------------------------------
      1          5           0       -0.126080   -0.160767    1.206841
      2          6           0       -0.783515   -1.267863    0.291194
      3          6           0       -0.500469    1.204864    0.507413
      4          1           0        0.469318   -0.318665    2.226652
      5          6           0       -1.423854   -0.610083   -0.676836
      6          1           0       -0.781670   -2.343723    0.382079
      7          6           0       -1.251994    0.883819   -0.546756
      8          1           0       -0.255383    2.220599    0.779200
      9          1           0       -2.007021   -1.050362   -1.476591
     10          1           0       -1.703076    1.573855   -1.249412
     11          6           0        2.866516   -0.054067   -0.415105
     12          1           0        3.798676   -0.542208   -0.690666
     13          1           0        2.842368    0.953174   -0.823195
     14          1           0        2.029134   -0.624647   -0.812368
     15          1           0        2.797955   -0.004210    0.670639
 ---------------------------------------------------------------------

 SCF Done:  E(RHF) =  -219.463675733     A.U. after    2 cycles

 The electronic state is 1-A.
 Alpha  occ. eigenvalues --  -11.25651 -11.25595 -11.21649 -11.21017 -11.20965
 Alpha  occ. eigenvalues --   -7.59645  -1.12311  -0.97461  -0.94521  -0.84458
 Alpha  occ. eigenvalues --   -0.71765  -0.70859  -0.65668  -0.58119  -0.55037
 Alpha  occ. eigenvalues --   -0.54934  -0.54850  -0.52735  -0.47678  -0.47171
 Alpha  occ. eigenvalues --   -0.46558  -0.32546
 Alpha virt. eigenvalues --    0.02265   0.03355   0.03639   0.03774   0.04412
 Alpha virt. eigenvalues --    0.05464   0.05895   0.06129   0.07158   0.07871
 Alpha virt. eigenvalues --    0.08943   0.09364   0.12467   0.13280   0.14204

 Mulliken charges:
               1
     1  B    0.295884
     2  C   -0.032201
     3  C    0.056821
     4  H    0.275051
     5  C    0.113362
     6  H   -0.217193
     7  C    0.052912
     8  H   -0.223402
     9  H   -0.161754
    10  H   -0.166399
    11  C   -0.304613
    12  H    0.020275
    13  H    0.104717
    14  H    0.082670
    15  H    0.103869
 Sum of Mulliken charges =  -0.00000

 Dipole moment (field-independent basis, Debye):
    X=             -0.4659    Y=              0.1437    Z=             -0.8356  Tot=              0.9674

 Test job not archived.
 1\1\GINC-SE044\SP\RHF\Aug-CC-pVDZ\C5H9B1\OHZDE\08-Apr-2025\0\\#t hf au
 g-cc-pvdz iop(5/13=1,5/36=2,99/5=2) pseudo=read geom=check guess=(read
 ,tcheck) scf=(maxcycle=1)\\title\\0,1\B,0,0.06513,-0.1638,-1.2018\C,0,
 0.7417,-1.2672,-0.29568\C,0,0.44816,1.2043,-0.51194\H,0,-0.54783,-0.32
 544,-2.21056\C,0,1.39732,-0.60567,0.65948\H,0,0.74116,-2.34325,-0.3843
 \C,0,1.21913,0.88749,0.52939\H,0,0.19554,2.2188,-0.78143\H,0,1.99577,-
 1.0427,1.44967\H,0,1.68073,1.58021,1.22251\C,0,-2.89850905,-0.0616826,
 0.4727569\H,0,-3.82430905,-0.5517326,0.7658169\H,0,-2.86985905,0.94647

 Normal termination of Gaussian 16 at Tue Apr  8 22:25:40 2025.
