 Gaussian 16, Revision C.01,

 ----------------------------------------------------------------------
 #t hf aug-cc-pvdz symm=none int=(grid=ultrafine) guess=(read,tcheck) s
 table=(opt,rrhf)
 ----------------------------------------------------------------------
 -----
 title
 -----
 Symbolic Z-matrix:
 Charge =  0 Multiplicity = 1

 SCF Done:  E(RHF) =  -360.437425574     A.U. after   15 cycles

 1\1\GINC-SE453\Stability\RHF\Aug-CC-pVDZ\C8H14B2\OHZDE\08-Apr-2025\0\\
 #t hf aug-cc-pvdz symm=none int=(grid=ultrafine) guess=(read,tcheck) s
 table=(opt,rrhf)\\title\\0,1\B,0,-1.44421,-0.34378,-1.38976\C,0,-1.353
 82,1.11975,-0.80607\C,0,-2.20691,-1.16484,-0.27513\H,0,-1.05979,-0.732
 25,-2.44825\C,0,-1.96773,1.08262,0.37927\H,0,-0.92918,2.01911,-1.22576
 \C,0,-2.47978,-0.29789,0.7014\H,0,-2.48296,-2.20807,-0.24206\H,0,-2.10
 422,1.91644,1.05668\H,0,-2.99941,-0.51278,1.627\B,0,3.11430086,0.95303
 307,1.10887686\C,0,2.86746086,-0.52456693,1.57122686\C,0,3.94926086,0.

 Normal termination of Gaussian 16 at Tue Apr  8 22:26:54 2025.
 Gaussian 16:  ES64L-G16RevC.01  3-Jul-2019

 ----------------------------------------------------------------------
 #t hf aug-cc-pvdz iop(5/13=1,5/36=2,99/5=2) pseudo=read geom=check gue
 ss=(read,tcheck) scf=(maxcycle=1)
 ----------------------------------------------------------------------
 -----
 title
 -----
 Structure from the checkpoint file:  "B-set_borole_borolane_150_dimer_mol1.chk"
 Charge =  0 Multiplicity = 1

                         Standard orientation:
 ---------------------------------------------------------------------
 Center     Atomic      Atomic             Coordinates (Angstroms)
 Number     Number       Type             X           Y           Z
 ---------------------------------------------------------------------
      1          5           0       -2.497298   -0.302024   -1.343569
      2          6           0       -2.409493    1.132619   -0.691744
      3          6           0       -3.146456   -1.204817   -0.220266
      4          1           0       -2.182295   -0.622809   -2.446727
      5          6           0       -2.929987    1.014031    0.532314
      6          1           0       -2.046892    2.066547   -1.093747
      7          6           0       -3.371778   -0.398354    0.818251
      8          1           0       -3.385787   -2.257596   -0.221910
      9          1           0       -3.041084    1.807338    1.261074
     10          1           0       -3.812398   -0.677937    1.767259
     11          5           0        2.194352    1.029800    0.874449
     12          6           0        2.030627   -0.477051    1.275191
     13          6           0        2.926780    1.074671   -0.517509
     14          1           0        1.884377    1.974994    1.536750
     15          1           0        2.837815   -0.674668    1.996880
     16          1           0        1.105938   -0.762848    1.775701
     17          6           0        2.309806   -1.239030   -0.027727
     18          6           0        3.336761   -0.386918   -0.782302
     19          1           0        2.186904    1.399681   -1.258978
     20          1           0        3.746499    1.790379   -0.592651
     21          1           0        1.385614   -1.299137   -0.617562
     22          1           0        2.639679   -2.267036    0.123142
     23          1           0        3.390576   -0.638509   -1.841357
     24          1           0        4.328234   -0.568194   -0.359520
 ---------------------------------------------------------------------

 SCF Done:  E(RHF) =  -360.827840137     A.U. after    2 cycles

 The electronic state is 1-A.
 Alpha  occ. eigenvalues --  -11.25920 -11.25827 -11.21918 -11.21887 -11.21207
 Alpha  occ. eigenvalues --  -11.21146 -11.19778 -11.19735  -7.59855  -7.57525
 Alpha  occ. eigenvalues --   -1.12539  -1.08976  -0.97627  -0.95321  -0.88558
 Alpha  occ. eigenvalues --   -0.84710  -0.77430  -0.71955  -0.71067  -0.66209
 Alpha  occ. eigenvalues --   -0.65857  -0.63304  -0.61549  -0.58264  -0.56681
 Alpha  occ. eigenvalues --   -0.52997  -0.51967  -0.48392  -0.47956  -0.47371
 Alpha  occ. eigenvalues --   -0.47261  -0.46937  -0.45869  -0.45155  -0.43390
 Alpha  occ. eigenvalues --   -0.32692
 Alpha virt. eigenvalues --    0.01676   0.02974   0.03166   0.03288   0.03609
 Alpha virt. eigenvalues --    0.04831   0.04883   0.05038   0.05410   0.05662
 Alpha virt. eigenvalues --    0.07018   0.07247   0.07328   0.07895   0.08192

 Mulliken charges:
               1
     1  B    0.331019
     2  C    0.071373
     3  C   -0.051337
     4  H    0.188245
     5  C    0.156397
     6  H   -0.224103
     7  C    0.106200
     8  H   -0.195307
     9  H   -0.178631
    10  H   -0.166655
    11  B    0.108760
    12  C   -0.130690
    13  C   -0.121949
    14  H    0.141596
    15  H    0.124734
    16  H    0.034062
    17  C   -0.353285
    18  C   -0.398373
    19  H    0.103893
    20  H    0.022940
    21  H    0.112083
    22  H    0.100405
    23  H    0.097730
    24  H    0.120894
 Sum of Mulliken charges =   0.00000

 Dipole moment (field-independent basis, Debye):
    X=             -0.3126    Y=              0.0409    Z=              0.7518  Tot=              0.8152

 Test job not archived.
 1\1\GINC-SE453\SP\RHF\Aug-CC-pVDZ\C8H14B2\OHZDE\08-Apr-2025\0\\#t hf a
 ug-cc-pvdz iop(5/13=1,5/36=2,99/5=2) pseudo=read geom=check guess=(rea
 d,tcheck) scf=(maxcycle=1)\\title\\0,1\B,0,-1.44421,-0.34378,-1.38976\
 C,0,-1.35382,1.11975,-0.80607\C,0,-2.20691,-1.16484,-0.27513\H,0,-1.05
 979,-0.73225,-2.44825\C,0,-1.96773,1.08262,0.37927\H,0,-0.92918,2.0191
 1,-1.22576\C,0,-2.47978,-0.29789,0.7014\H,0,-2.48296,-2.20807,-0.24206
 \H,0,-2.10422,1.91644,1.05668\H,0,-2.99941,-0.51278,1.627\B,0,3.114300
 86,0.95303307,1.10887686\C,0,2.86746086,-0.52456693,1.57122686\C,0,3.9

 Normal termination of Gaussian 16 at Tue Apr  8 22:27:06 2025.
