 Gaussian 16, Revision C.01,

 ----------------------------------------------------------------------
 #t hf aug-cc-pvdz symm=none int=(grid=ultrafine) guess=(read,tcheck) s
 table=(opt,rrhf)
 ----------------------------------------------------------------------
 -----
 title
 -----
 Symbolic Z-matrix:
 Charge =  0 Multiplicity = 1

 SCF Done:  E(RHF) =  -143.473651730     A.U. after   11 cycles
 Normal termination of Gaussian 16 at Tue Apr  8 22:23:21 2025.
 Gaussian 16:  ES64L-G16RevC.01  3-Jul-2019

 ----------------------------------------------------------------------
 #t hf aug-cc-pvdz iop(5/13=1,5/36=2,99/5=2) pseudo=read geom=check gue
 ss=(read,tcheck) scf=(maxcycle=1)
 ----------------------------------------------------------------------
 -----
 title
 -----
 Structure from the checkpoint file:  "B-set_borirane_methane_125_dimer_mol1.chk"
 Charge =  0 Multiplicity = 1

                         Standard orientation:
 ---------------------------------------------------------------------
 Center     Atomic      Atomic             Coordinates (Angstroms)
 Number     Number       Type             X           Y           Z
 ---------------------------------------------------------------------
      1          5           0       -0.985023   -0.000418    0.932985
      2          6           0       -1.454738   -0.772072   -0.296839
      3          6           0       -1.454223    0.772428   -0.296286
      4          1           0       -0.589971   -0.000877    2.046374
      5          1           0       -2.415899   -1.273013   -0.284549
      6          1           0       -0.731522   -1.270194   -0.931527
      7          1           0       -2.415102    1.273907   -0.283467
      8          1           0       -0.730812    1.270586   -0.930726
      9          6           0        2.925685   -0.000046   -0.072308
     10          1           0        2.532563   -0.890903    0.414173
     11          1           0        4.010415   -0.000343    0.002441
     12          1           0        2.632086    0.000334   -1.119740
     13          1           0        2.533016    0.890737    0.414692
 ---------------------------------------------------------------------

 SCF Done:  E(RHF) =  -143.636283863     A.U. after    2 cycles

 The electronic state is 1-A.
 Alpha  occ. eigenvalues --  -11.22287 -11.21345 -11.21221  -7.60230  -1.06469
 Alpha  occ. eigenvalues --   -0.95060  -0.81465  -0.67219  -0.62615  -0.59680
 Alpha  occ. eigenvalues --   -0.55504  -0.55499  -0.55349  -0.51108  -0.41543
 Alpha  occ. eigenvalues --   -0.38963
 Alpha virt. eigenvalues --    0.03299   0.03707   0.04146   0.04200   0.05702
 Alpha virt. eigenvalues --    0.06311   0.06625   0.07443   0.08575   0.09107
 Alpha virt. eigenvalues --    0.09733   0.10722   0.11811   0.13606   0.14916

 Mulliken charges:
               1
     1  B   -0.200515
     2  C    0.007475
     3  C    0.007509
     4  H    0.368183
     5  H   -0.052600
     6  H   -0.040539
     7  H   -0.052573
     8  H   -0.040506
     9  C   -0.314925
    10  H    0.095308
    11  H    0.029045
    12  H    0.098817
    13  H    0.095320
 Sum of Mulliken charges =  -0.00000

 Dipole moment (field-independent basis, Debye):
    X=              0.0768    Y=              0.0000    Z=             -0.0418  Tot=              0.0875

 Test job not archived.
 1\1\GINC-SE457\SP\RHF\Aug-CC-pVDZ\C3H9B1\OHZDE\08-Apr-2025\0\\#t hf au
 g-cc-pvdz iop(5/13=1,5/36=2,99/5=2) pseudo=read geom=check guess=(read
 ,tcheck) scf=(maxcycle=1)\\title\\0,1\B,0,0.70593,0.00043,0.93795\C,0,
 1.19139,0.77206,-0.28576\C,0,1.19085,-0.77244,-0.28519\H,0,0.29663,0.0
 0091,2.04618\H,0,2.15232,1.27299,-0.26115\H,0,0.47638,1.27018,-0.92968
 \H,0,2.15148,-1.27393,-0.26004\H,0,0.47563,-1.2706,-0.92885\C,0,-3.191
 56156,0.000087,-0.11742163\H,0,-2.80470156,0.890947,0.37404837\H,0,-4.
 27716156,0.000397,-0.05659162\H,0,-2.88455156,-0.000313,-1.16100162\H,

 Normal termination of Gaussian 16 at Tue Apr  8 22:23:24 2025.
