 Gaussian 16, Revision C.01,

 ----------------------------------------------------------------------
 #t hf aug-cc-pvdz symm=none int=(grid=ultrafine) guess=(read,tcheck) s
 table=(opt,rrhf)
 ----------------------------------------------------------------------
 -----
 title
 -----
 Symbolic Z-matrix:
 Charge =  0 Multiplicity = 1

 SCF Done:  E(RHF) =  -481.965260678     A.U. after   14 cycles
 Normal termination of Gaussian 16 at Tue Apr  8 22:23:40 2025.
 Gaussian 16:  ES64L-G16RevC.01  3-Jul-2019

 ----------------------------------------------------------------------
 #t hf aug-cc-pvdz iop(5/13=1,5/36=2,99/5=2) pseudo=read geom=check gue
 ss=(read,tcheck) scf=(maxcycle=1)
 ----------------------------------------------------------------------
 -----
 title
 -----
 Structure from the checkpoint file:  "B-set_boricacid_benzene_095_dimer_mol1.chk"
 Charge =  0 Multiplicity = 1

                         Standard orientation:
 ---------------------------------------------------------------------
 Center     Atomic      Atomic             Coordinates (Angstroms)
 Number     Number       Type             X           Y           Z
 ---------------------------------------------------------------------
      1          5           0        2.349541   -0.200844   -0.004834
      2          8           0        3.627790   -0.688503   -0.021897
      3          8           0        1.294701   -1.058555   -0.018753
      4          8           0        2.154815    1.154284    0.026338
      5          1           0        3.651787   -1.643076   -0.043274
      6          1           0        0.443439   -0.615424   -0.005115
      7          1           0        2.980714    1.634266    0.033035
      8          6           0       -2.586373   -0.724175   -0.726177
      9          6           0       -1.789895    0.202140   -1.382880
     10          6           0       -2.594267   -0.773973    0.659800
     11          1           0       -3.198435   -1.410462   -1.295121
     12          6           0       -0.999699    1.078942   -0.653346
     13          1           0       -1.780000    0.237686   -2.463557
     14          6           0       -1.805723    0.102572    1.390274
     15          1           0       -3.212402   -1.499100    1.171090
     16          6           0       -1.007673    1.029123    0.734431
     17          1           0       -0.363254    1.790899   -1.159499
     18          1           0       -1.808212    0.060653    2.470765
     19          1           0       -0.378005    1.703205    1.297743
 ---------------------------------------------------------------------

 SCF Done:  E(RHF) =  -482.456778113     A.U. after    2 cycles

 The electronic state is 1-A.
 Alpha  occ. eigenvalues --  -20.55089 -20.54864 -20.53813 -11.24646 -11.24616
 Alpha  occ. eigenvalues --  -11.24553 -11.24528 -11.24412 -11.24342  -7.65631
 Alpha  occ. eigenvalues --   -1.49178  -1.43853  -1.43289  -1.16321  -1.02404
 Alpha  occ. eigenvalues --   -1.02385  -0.83812  -0.83759  -0.77618  -0.73446
 Alpha  occ. eigenvalues --   -0.73084  -0.72709  -0.65246  -0.64424  -0.60595
 Alpha  occ. eigenvalues --   -0.60563  -0.59007  -0.56173  -0.55663  -0.55045
 Alpha  occ. eigenvalues --   -0.51564  -0.51002  -0.50947  -0.49124  -0.48467
 Alpha  occ. eigenvalues --   -0.35344  -0.35283
 Alpha virt. eigenvalues --    0.03477   0.03543   0.03639   0.04763   0.05150
 Alpha virt. eigenvalues --    0.05312   0.06473   0.07019   0.07658   0.07938
 Alpha virt. eigenvalues --    0.09880   0.09937   0.10248   0.11091   0.12653

 Mulliken charges:
               1
     1  B    1.927560
     2  O   -1.288446
     3  O   -1.205799
     4  O   -1.197818
     5  H    0.493654
     6  H    0.915137
     7  H    0.495483
     8  C    0.199631
     9  C    0.221949
    10  C    0.199933
    11  H   -0.224132
    12  C    0.231934
    13  H   -0.240591
    14  C    0.222618
    15  H   -0.224003
    16  C    0.224997
    17  H   -0.254857
    18  H   -0.240042
    19  H   -0.257210
 Sum of Mulliken charges =  -0.00000

 Dipole moment (field-independent basis, Debye):
    X=             -0.4361    Y=              0.1371    Z=             -0.0002  Tot=              0.4572

 Test job not archived.
 1\1\GINC-SE083\SP\RHF\Aug-CC-pVDZ\C6H9B1O3\OHZDE\08-Apr-2025\0\\#t hf
 aug-cc-pvdz iop(5/13=1,5/36=2,99/5=2) pseudo=read geom=check guess=(re
 ad,tcheck) scf=(maxcycle=1)\\title\\0,1\B,0,2.47525,0.1904,0.00446\O,0
 ,3.75759,0.66722,0.02093\O,0,1.42772,1.05703,0.01798\O,0,2.26904,-1.16
 305,-0.02572\H,0,3.78968,1.62157,0.04163\H,0,0.57273,0.62112,0.00482\H
 ,0,3.09084,-1.65002,-0.03224\C,0,-2.45590624,0.75605226,0.7263947\C,0,
 -1.66717624,-0.17651774,1.3835947\C,0,-2.46365624,0.80494226,-0.659615
 3\H,0,-3.06201624,1.44790226,1.2949747\C,0,-0.88458624,-1.06049774,0.6

 Normal termination of Gaussian 16 at Tue Apr  8 22:23:56 2025.
