 Gaussian 16, Revision C.01,

 ----------------------------------------------------------------------
 #t hf aug-cc-pvdz symm=none int=(grid=ultrafine) guess=(read,tcheck) s
 table=(opt,rrhf)
 ----------------------------------------------------------------------
 -----
 title
 -----
 Symbolic Z-matrix:
 Charge =  0 Multiplicity = 1

 SCF Done:  E(RHF) =  -736.586159055     A.U. after   12 cycles
 Normal termination of Gaussian 16 at Tue Apr  8 22:38:02 2025.
 Gaussian 16:  ES64L-G16RevC.01  3-Jul-2019

 ----------------------------------------------------------------------
 #t hf aug-cc-pvdz iop(5/13=1,5/36=2,99/5=2) pseudo=read geom=check gue
 ss=(read,tcheck) scf=(maxcycle=1)
 ----------------------------------------------------------------------
 -----
 title
 -----
 Structure from the checkpoint file:  "B-set_trimethylborate_trimethylborate_095_dimer_mol1.chk"
 Charge =  0 Multiplicity = 1

                         Standard orientation:
 ---------------------------------------------------------------------
 Center     Atomic      Atomic             Coordinates (Angstroms)
 Number     Number       Type             X           Y           Z
 ---------------------------------------------------------------------
      1          5           0        1.530323   -0.003014    0.001258
      2          8           0        1.530109   -1.342241    0.248641
      3          8           0        1.535675    0.880945    1.037241
      4          8           0        1.536214    0.452335   -1.282255
      5          6           0        1.468366   -1.834215    1.573710
      6          6           0        1.479998    2.274714    0.800837
      7          6           0        1.476774   -0.449022   -2.371055
      8          1           0        0.473842   -1.674699    1.991402
      9          1           0        1.674443   -2.901844    1.535629
     10          1           0        2.205560   -1.347713    2.212581
     11          1           0        1.692869    2.774779    1.743334
     12          1           0        2.215267    2.580800    0.056515
     13          1           0        0.485347    2.561604    0.458229
     14          1           0        1.682827    0.118102   -3.276368
     15          1           0        2.215001   -1.244575   -2.268850
     16          1           0        0.483019   -0.891988   -2.442938
     17          5           0       -1.530263    0.002832   -0.001260
     18          8           0       -1.535134   -0.880049   -1.038185
     19          8           0       -1.535665   -0.453649    1.281876
     20          8           0       -1.530859    1.342332   -0.247344
     21          6           0       -1.478997   -2.274030   -0.802790
     22          6           0       -1.476096    0.447119    2.371287
     23          6           0       -1.470346    1.835788   -1.571906
     24          1           0       -2.216316   -2.581339   -0.061017
     25          1           0       -1.688627   -2.773390   -1.746377
     26          1           0       -0.485167   -2.560425   -0.457382
     27          1           0       -1.683028   -0.120334    3.276200
     28          1           0       -0.481942    0.889127    2.443771
     29          1           0       -2.213642    1.243252    2.269011
     30          1           0       -0.475870    1.677840   -1.990370
     31          1           0       -2.207220    1.349065   -2.210965
     32          1           0       -1.677583    2.903139   -1.532704
 ---------------------------------------------------------------------

 SCF Done:  E(RHF) =  -737.336969019     A.U. after    2 cycles

 The electronic state is 1-A.
 Alpha  occ. eigenvalues --  -20.53664 -20.53664 -20.53662 -20.53662 -20.53661
 Alpha  occ. eigenvalues --  -20.53659 -11.27474 -11.27473 -11.27471 -11.27468
 Alpha  occ. eigenvalues --  -11.27468 -11.27466  -7.64738  -7.64725  -1.49705
 Alpha  occ. eigenvalues --   -1.49238  -1.44380  -1.44380  -1.44049  -1.44048
 Alpha  occ. eigenvalues --   -0.94693  -0.94257  -0.93283  -0.93280  -0.93152
 Alpha  occ. eigenvalues --   -0.93151  -0.73165  -0.72724  -0.69638  -0.69638
 Alpha  occ. eigenvalues --   -0.69209  -0.69206  -0.68210  -0.63609  -0.62564
 Alpha  occ. eigenvalues --   -0.62561  -0.61124  -0.61118  -0.59965  -0.59964
 Alpha  occ. eigenvalues --   -0.59899  -0.59894  -0.58378  -0.58188  -0.50674
 Alpha  occ. eigenvalues --   -0.50113  -0.49210  -0.48900  -0.47938  -0.47937
 Alpha  occ. eigenvalues --   -0.47879  -0.47874  -0.43741  -0.43735  -0.43414
 Alpha  occ. eigenvalues --   -0.43412
 Alpha virt. eigenvalues --    0.03299   0.03476   0.03478   0.03534   0.05402
 Alpha virt. eigenvalues --    0.05402   0.05601   0.05872   0.05874   0.07633
 Alpha virt. eigenvalues --    0.07703   0.07706   0.08119   0.08377   0.08378

 Mulliken charges:
               1
     1  B    3.375985
     2  O   -1.746329
     3  O   -1.744859
     4  O   -1.750433
     5  C    0.412968
     6  C    0.412718
     7  C    0.412602
     8  H    0.134118
     9  H   -0.025215
    10  H    0.100816
    11  H   -0.025155
    12  H    0.100947
    13  H    0.133366
    14  H   -0.025634
    15  H    0.100953
    16  H    0.132954
    17  B    3.375058
    18  O   -1.744947
    19  O   -1.748460
    20  O   -1.746764
    21  C    0.413370
    22  C    0.413095
    23  C    0.412157
    24  H    0.099926
    25  H   -0.025438
    26  H    0.134060
    27  H   -0.025628
    28  H    0.133502
    29  H    0.100019
    30  H    0.134933
    31  H    0.100671
    32  H   -0.025355
 Sum of Mulliken charges =  -0.00000

 Dipole moment (field-independent basis, Debye):
    X=             -0.0016    Y=              0.0008    Z=              0.0002  Tot=              0.0018

 Test job not archived.
 1\1\GINC-SE127\SP\RHF\Aug-CC-pVDZ\C6H18B2O6\OHZDE\08-Apr-2025\0\\#t hf
  aug-cc-pvdz iop(5/13=1,5/36=2,99/5=2) pseudo=read geom=check guess=(r
 ead,tcheck) scf=(maxcycle=1)\\title\\0,1\B,0,1.60824,0.00191,-0.00082\
 O,0,1.60915,1.34156,-0.2459\O,0,1.61322,-0.88027,-1.03832\O,0,1.61338,
 -0.45565,1.28191\C,0,1.5482,1.83586,-1.57014\C,0,1.55638,-2.2744,-0.80
 433\C,0,1.55431,0.44388,2.37224\H,0,0.55368,1.67784,-1.98841\H,0,1.755
 1,2.90326,-1.53016\H,0,2.28521,1.34988,-2.20962\H,0,1.76915,-2.77301,-
 1.74762\H,0,2.29118,-2.58234,-0.06031\H,0,0.5614,-2.5611,-0.46252\H,0,

 Normal termination of Gaussian 16 at Tue Apr  8 22:38:44 2025.
