 Gaussian 16, Revision C.01,

 ----------------------------------------------------------------------
 #t hf aug-cc-pvdz symm=none int=(grid=ultrafine) guess=(read,tcheck) s
 table=(opt,rrhf)
 ----------------------------------------------------------------------
 -----
 title
 -----
 Symbolic Z-matrix:
 Charge =  0 Multiplicity = 1

 SCF Done:  E(RHF) =  -3775.12175326     A.U. after   11 cycles
 Normal termination of Gaussian 16 at Tue Apr  8 22:20:01 2025.
 Gaussian 16:  ES64L-G16RevC.01  3-Jul-2019

 ----------------------------------------------------------------------
 #t hf aug-cc-pvdz iop(5/13=1,5/36=2,99/5=2) pseudo=read geom=check gue
 ss=(read,tcheck) scf=(maxcycle=1)
 ----------------------------------------------------------------------
 -----
 title
 -----
 Structure from the checkpoint file:  "B-set_b2cl4_b2cl4_150_dimer_mol1.chk"
 Charge =  0 Multiplicity = 1

                         Standard orientation:
 ---------------------------------------------------------------------
 Center     Atomic      Atomic             Coordinates (Angstroms)
 Number     Number       Type             X           Y           Z
 ---------------------------------------------------------------------
      1          5           0        3.133680    0.833613    0.150301
      2          5           0        3.133812   -0.833577   -0.150339
      3         17           0        2.261497    1.506482    1.506831
      4         17           0        4.055571    1.893604   -0.885249
      5         17           0        4.056051   -1.893346    0.885131
      6         17           0        2.261515   -1.506688   -1.506669
      7          5           0       -3.133770    0.833578   -0.150341
      8          5           0       -3.133818   -0.833592    0.150349
      9         17           0       -2.261313    1.506428   -1.506701
     10         17           0       -4.055889    1.893577    0.884999
     11         17           0       -2.261625   -1.506522    1.506849
     12         17           0       -4.055779   -1.893543   -0.885181
 ---------------------------------------------------------------------

 SCF Done:  E(RHF) =  -3775.81828035     A.U. after    2 cycles

 The electronic state is 1-A.
 Alpha  occ. eigenvalues -- -105.59364-105.59364-105.59364-105.59364-105.59341
 Alpha  occ. eigenvalues -- -105.59341-105.59341-105.59341 -10.64407 -10.64407
 Alpha  occ. eigenvalues --  -10.64407 -10.64407 -10.64376 -10.64376 -10.64376
 Alpha  occ. eigenvalues --  -10.64375  -7.81299  -7.81299  -7.81297  -7.81297
 Alpha  occ. eigenvalues --   -7.81273  -7.81273  -7.81272  -7.81272  -7.81009
 Alpha  occ. eigenvalues --   -7.81008  -7.81007  -7.81006  -7.80992  -7.80992
 Alpha  occ. eigenvalues --   -7.80991  -7.80991  -7.80959  -7.80959  -7.80957
 Alpha  occ. eigenvalues --   -7.80957  -7.80943  -7.80943  -7.80940  -7.80939
 Alpha  occ. eigenvalues --   -7.72326  -7.72324  -7.72238  -7.72237  -1.13587
 Alpha  occ. eigenvalues --   -1.13580  -1.12045  -1.12042  -1.07834  -1.07832
 Alpha  occ. eigenvalues --   -1.07403  -1.07388  -0.76581  -0.76579  -0.68233
 Alpha  occ. eigenvalues --   -0.68221  -0.61725  -0.61702  -0.61077  -0.61077
 Alpha  occ. eigenvalues --   -0.60035  -0.60033  -0.54609  -0.54471  -0.54117
 Alpha  occ. eigenvalues --   -0.54065  -0.52614  -0.52596  -0.49703  -0.49616
 Alpha  occ. eigenvalues --   -0.49020  -0.48988  -0.48402  -0.48342  -0.47992
 Alpha  occ. eigenvalues --   -0.47938  -0.44415  -0.44403
 Alpha virt. eigenvalues --    0.03381   0.03404   0.03918   0.03986   0.04660
 Alpha virt. eigenvalues --    0.04727   0.05114   0.05948   0.06120   0.06849
 Alpha virt. eigenvalues --    0.06890   0.07268   0.07388   0.07850   0.08230

 Mulliken charges:
               1
     1  B    0.619180
     2  B    0.619142
     3  Cl  -0.304021
     4  Cl  -0.315150
     5  Cl  -0.315149
     6  Cl  -0.304001
     7  B    0.619156
     8  B    0.619165
     9  Cl  -0.304008
    10  Cl  -0.315141
    11  Cl  -0.304024
    12  Cl  -0.315148
 Sum of Mulliken charges =  -0.00000

 Dipole moment (field-independent basis, Debye):
    X=             -0.0002    Y=              0.0001    Z=             -0.0001  Tot=              0.0002

 Test job not archived.
 1\1\GINC-SE435\SP\RHF\Aug-CC-pVDZ\B4Cl8\OHZDE\08-Apr-2025\0\\#t hf aug
 -cc-pvdz iop(5/13=1,5/36=2,99/5=2) pseudo=read geom=check guess=(read,
 tcheck) scf=(maxcycle=1)\\title\\0,1\B,0,2.08355,-0.83363,-0.1503\B,0,
 2.0837,0.83356,0.15034\Cl,0,1.21136,-1.50649,-1.50683\Cl,0,3.00543,-1.
 89363,0.88525\Cl,0,3.00595,1.89332,-0.88513\Cl,0,1.21141,1.50668,1.506
 67\B,0,-4.1839,-0.83352917,0.15034167\B,0,-4.18393,0.83364083,-0.15034
 833\Cl,0,-3.31145,-1.50638917,1.50670167\Cl,0,-5.10603,-1.89351917,-0.
 88499833\Cl,0,-3.31173,1.50656083,-1.50684833\Cl,0,-5.10588,1.89360083

 Normal termination of Gaussian 16 at Tue Apr  8 22:20:12 2025.
