 Gaussian 16, Revision C.01,

 ----------------------------------------------------------------------
 #t hf aug-cc-pvdz symm=none int=(grid=ultrafine) guess=(read,tcheck) s
 table=(opt,rrhf)
 ----------------------------------------------------------------------
 -----
 title
 -----
 Symbolic Z-matrix:
 Charge =  0 Multiplicity = 1

 SCF Done:  E(RHF) =  -247.037291971     A.U. after   13 cycles
 Normal termination of Gaussian 16 at Tue Apr  8 22:26:43 2025.
 Gaussian 16:  ES64L-G16RevC.01  3-Jul-2019

 ----------------------------------------------------------------------
 #t hf aug-cc-pvdz iop(5/13=1,5/36=2,99/5=2) pseudo=read geom=check gue
 ss=(read,tcheck) scf=(maxcycle=1)
 ----------------------------------------------------------------------
 -----
 title
 -----
 Structure from the checkpoint file:  "BBI-007VAL-041VAL-1_mol2.chk"
 Charge =  0 Multiplicity = 1

                         Standard orientation:
 ---------------------------------------------------------------------
 Center     Atomic      Atomic             Coordinates (Angstroms)
 Number     Number       Type             X           Y           Z
 ---------------------------------------------------------------------
      1          6           0        1.832143   -0.539727   -0.039141
      2          6           0       -1.943445   -0.134744   -0.056850
      3          6           0        0.469602    0.181589    0.027744
      4          8           0        0.347604    1.414013    0.020514
      5          7           0       -0.580425   -0.631107    0.079260
      6          1           0        1.742773   -1.307854   -0.811429
      7          1           0       -0.424595   -1.637287    0.095611
      8          1           0       -2.016600    0.584427   -0.874601
      9          1           0        2.646784    0.154954   -0.291686
     10          1           0        2.007579   -1.059750    0.914169
     11          1           0       -2.567034   -1.026347   -0.218632
     12          1           0       -2.256561    0.354797    0.877125
 ---------------------------------------------------------------------

 SCF Done:  E(RHF) =  -247.295949458     A.U. after    2 cycles

 The electronic state is 1-A.
 Alpha  occ. eigenvalues --  -20.49710 -15.52779 -11.35045 -11.27503 -11.25073
 Alpha  occ. eigenvalues --   -1.43549  -1.24665  -1.02191  -0.94476  -0.82365
 Alpha  occ. eigenvalues --   -0.70106  -0.66336  -0.65258  -0.59045  -0.57678
 Alpha  occ. eigenvalues --   -0.57143  -0.56205  -0.50817  -0.41218  -0.41178
 Alpha virt. eigenvalues --    0.02693   0.04349   0.04911   0.05112   0.06063
 Alpha virt. eigenvalues --    0.06568   0.07491   0.09700   0.12125   0.13344
 Alpha virt. eigenvalues --    0.13605   0.14614   0.15396   0.16283   0.17077

 Mulliken charges:
               1
     1  C   -0.519119
     2  C   -0.424091
     3  C    0.540011
     4  O   -1.305572
     5  N    0.587588
     6  H    0.175631
     7  H    0.109972
     8  H    0.149780
     9  H    0.185209
    10  H    0.255751
    11  H    0.071142
    12  H    0.173698
 Sum of Mulliken charges =   0.00000

 Dipole moment (field-independent basis, Debye):
    X=             -0.5438    Y=             -4.1449    Z=             -0.1668  Tot=              4.1838

 Test job not archived.
 1\1\GINC-SE096\SP\RHF\Aug-CC-pVDZ\C3H7N1O1\OHZDE\08-Apr-2025\0\\#t hf
 aug-cc-pvdz iop(5/13=1,5/36=2,99/5=2) pseudo=read geom=check guess=(re
 ad,tcheck) scf=(maxcycle=1)\\title\\0,1\C,0,1.11826445,-0.93734189,1.2
 4031152\C,0,-1.66373555,0.80165811,-0.67168848\C,0,0.43626445,-0.16834
 189,0.08931152\O,0,0.97626445,0.04465811,-1.00468848\N,0,-0.79873555,0
 .24165811,0.35831152\H,0,0.39826445,-1.68134189,1.59031152\H,0,-1.1917
 3555,0.05165811,1.27831152\H,0,-1.61473555,0.20865811,-1.58668848\H,0,
 2.04054445,-1.43453199,0.90534652\H,0,1.29747445,-0.24417019,2.0754155

 Normal termination of Gaussian 16 at Tue Apr  8 22:26:47 2025.
