 Gaussian 16, Revision C.01,

 ----------------------------------------------------------------------
 #t hf aug-cc-pvdz symm=none int=(grid=ultrafine) guess=(read,tcheck) s
 table=(opt,rrhf)
 ----------------------------------------------------------------------
 -----
 title
 -----
 Symbolic Z-matrix:
 Charge =  0 Multiplicity = 1

 SCF Done:  E(RHF) =  -494.088475647     A.U. after   13 cycles
 Normal termination of Gaussian 16 at Tue Apr  8 22:30:22 2025.
 Gaussian 16:  ES64L-G16RevC.01  3-Jul-2019

 ----------------------------------------------------------------------
 #t hf aug-cc-pvdz iop(5/13=1,5/36=2,99/5=2) pseudo=read geom=check gue
 ss=(read,tcheck) scf=(maxcycle=1)
 ----------------------------------------------------------------------
 -----
 title
 -----
 Structure from the checkpoint file:  "BBI-051ALA-055ASN-1_mol1.chk"
 Charge =  0 Multiplicity = 1

                         Standard orientation:
 ---------------------------------------------------------------------
 Center     Atomic      Atomic             Coordinates (Angstroms)
 Number     Number       Type             X           Y           Z
 ---------------------------------------------------------------------
      1          6           0       -2.879099   -1.672199   -0.839588
      2          6           0       -2.541521    1.635957    1.032778
      3          6           0       -2.280760   -0.354796   -0.352691
      4          8           0       -1.202585    0.043471   -0.781146
      5          7           0       -2.982487    0.349521    0.532288
      6          1           0       -2.069159   -2.251982   -1.286437
      7          1           0       -3.878645   -0.020337    0.840417
      8          1           0       -2.298484    2.285698    0.191200
      9          1           0       -3.294997   -2.247266    0.000842
     10          1           0       -3.638192   -1.501383   -1.617141
     11          1           0       -3.370803    2.091452    1.593860
     12          1           0       -1.622635    1.526417    1.627464
     13          6           0        2.253841    1.724895   -0.865995
     14          6           0        1.947098   -1.584714    1.015051
     15          6           0        2.586903   -0.442609    0.239680
     16          8           0        3.789562   -0.414114    0.054971
     17          7           0        1.789062    0.549497   -0.150992
     18          1           0        0.789309    0.445437   -0.010881
     19          1           0        2.866656    1.406206   -1.713908
     20          1           0        2.731194   -2.026093    1.635596
     21          1           0        1.375105    2.273196   -1.236381
     22          1           0        2.858060    2.402159   -0.244527
     23          1           0        1.139767   -1.204154    1.658005
     24          1           0        1.552206   -2.346534    0.326799
 ---------------------------------------------------------------------

 SCF Done:  E(RHF) =  -494.604844481     A.U. after    2 cycles

 The electronic state is 1-A.
 Alpha  occ. eigenvalues --  -20.51808 -20.47322 -15.54643 -15.49517 -11.36951
 Alpha  occ. eigenvalues --  -11.32380 -11.28993 -11.26249 -11.25155 -11.22933
 Alpha  occ. eigenvalues --   -1.46867  -1.42841  -1.26460  -1.21662  -1.03816
 Alpha  occ. eigenvalues --   -1.00071  -0.96415  -0.92556  -0.84138  -0.79356
 Alpha  occ. eigenvalues --   -0.72251  -0.69152  -0.67998  -0.67120  -0.64624
 Alpha  occ. eigenvalues --   -0.62887  -0.60872  -0.60035  -0.58483  -0.57413
 Alpha  occ. eigenvalues --   -0.57280  -0.56120  -0.54614  -0.53700  -0.52794
 Alpha  occ. eigenvalues --   -0.49081  -0.43692  -0.43425  -0.39244  -0.38782
 Alpha virt. eigenvalues --    0.01829   0.03384   0.03890   0.04121   0.04926
 Alpha virt. eigenvalues --    0.05173   0.05881   0.05996   0.06844   0.07481
 Alpha virt. eigenvalues --    0.08086   0.08549   0.09056   0.10471   0.10958

 Mulliken charges:
               1
     1  C   -0.491249
     2  C   -0.390467
     3  C    0.397959
     4  O   -1.448259
     5  N    0.806157
     6  H    0.158976
     7  H    0.117085
     8  H    0.161314
     9  H    0.189061
    10  H    0.256999
    11  H    0.057281
    12  H    0.161431
    13  C   -0.406313
    14  C   -0.462661
    15  C    0.439606
    16  O   -1.341655
    17  N    0.793457
    18  H    0.010532
    19  H    0.134415
    20  H    0.152562
    21  H    0.041030
    22  H    0.175097
    23  H    0.189506
    24  H    0.298135
 Sum of Mulliken charges =  -0.00000

 Dipole moment (field-independent basis, Debye):
    X=             -8.5405    Y=              0.1301    Z=              1.7083  Tot=              8.7106

 Test job not archived.
 1\1\GINC-SE340\SP\RHF\Aug-CC-pVDZ\C6H14N2O2\OHZDE\08-Apr-2025\0\\#t hf
  aug-cc-pvdz iop(5/13=1,5/36=2,99/5=2) pseudo=read geom=check guess=(r
 ead,tcheck) scf=(maxcycle=1)\\title\\0,1\C,0,-1.34378644,-3.08290328,0
 .84343186\C,0,1.24121356,-2.33890328,-1.86356814\C,0,-0.23478644,-2.36
 490328,0.07843186\O,0,0.27721356,-1.34290328,0.52343186\N,0,0.16621356
 ,-2.90190328,-1.07156814\H,0,-1.75878644,-2.37090328,1.55943186\H,0,-0
 .28178644,-3.75990328,-1.38456814\H,0,2.11621356,-2.19090328,-1.229568
 14\H,0,-2.14768644,-3.39877328,0.16228186\H,0,-0.94690644,-3.93728328,

 Normal termination of Gaussian 16 at Tue Apr  8 22:30:34 2025.
