 Gaussian 16, Revision C.01,

 ----------------------------------------------------------------------
 #t hf aug-cc-pvdz symm=none int=(grid=ultrafine) guess=(read,tcheck) s
 table=(opt,rrhf)
 ----------------------------------------------------------------------
 -----
 title
 -----
 Symbolic Z-matrix:
 Charge =  0 Multiplicity = 1

 SCF Done:  E(RHF) =  -494.080737548     A.U. after   13 cycles
 Normal termination of Gaussian 16 at Tue Apr  8 22:31:09 2025.
 Gaussian 16:  ES64L-G16RevC.01  3-Jul-2019

 ----------------------------------------------------------------------
 #t hf aug-cc-pvdz iop(5/13=1,5/36=2,99/5=2) pseudo=read geom=check gue
 ss=(read,tcheck) scf=(maxcycle=1)
 ----------------------------------------------------------------------
 -----
 title
 -----
 Structure from the checkpoint file:  "BBI-007VAL-041VAL-1_mol1.chk"
 Charge =  0 Multiplicity = 1

                         Standard orientation:
 ---------------------------------------------------------------------
 Center     Atomic      Atomic             Coordinates (Angstroms)
 Number     Number       Type             X           Y           Z
 ---------------------------------------------------------------------
      1          6           0       -2.548554   -1.708696   -0.977091
      2          6           0       -2.849429    1.600806    0.860315
      3          6           0       -2.088210   -0.404606   -0.292460
      4          8           0       -0.922017    0.010822   -0.327360
      5          7           0       -3.054682    0.257643    0.334472
      6          1           0       -3.450337   -1.463889   -1.543917
      7          1           0       -3.994589   -0.134064    0.343963
      8          1           0       -2.320881    2.225629    0.138160
      9          1           0       -1.776407   -2.106929   -1.651776
     10          1           0       -2.840926   -2.433770   -0.203277
     11          1           0       -3.854061    1.981714    1.096143
     12          1           0       -2.259861    1.551662    1.787676
     13          6           0        2.287431    1.797523   -0.844374
     14          6           0        1.823146   -1.520469    1.022383
     15          6           0        2.490299   -0.386410    0.280499
     16          8           0        3.670579   -0.483609    0.007267
     17          7           0        1.750923    0.655450   -0.084662
     18          1           0        0.749808    0.627792    0.081567
     19          1           0        3.354303    1.674513   -1.038827
     20          1           0        0.783914   -1.563325    0.702732
     21          1           0        1.764923    1.891659   -1.807766
     22          1           0        2.135285    2.695467   -0.227488
     23          1           0        2.335910   -2.447488    0.726237
     24          1           0        1.822635   -1.377209    2.113015
 ---------------------------------------------------------------------

 SCF Done:  E(RHF) =  -494.597236388     A.U. after    2 cycles

 The electronic state is 1-A.
 Alpha  occ. eigenvalues --  -20.52518 -20.45869 -15.55109 -15.48245 -11.37844
 Alpha  occ. eigenvalues --  -11.31168 -11.29357 -11.26923 -11.24648 -11.21464
 Alpha  occ. eigenvalues --   -1.46910  -1.41829  -1.27038  -1.20320  -1.04254
 Alpha  occ. eigenvalues --   -0.99044  -0.96442  -0.91717  -0.84912  -0.78819
 Alpha  occ. eigenvalues --   -0.72209  -0.69584  -0.67436  -0.66796  -0.63730
 Alpha  occ. eigenvalues --   -0.61960  -0.60913  -0.60148  -0.59315  -0.58192
 Alpha  occ. eigenvalues --   -0.56813  -0.54668  -0.53527  -0.53311  -0.52268
 Alpha  occ. eigenvalues --   -0.48644  -0.44349  -0.43974  -0.38001  -0.37568
 Alpha virt. eigenvalues --    0.01638   0.03322   0.03800   0.03882   0.04819
 Alpha virt. eigenvalues --    0.05115   0.05747   0.06114   0.06531   0.07415
 Alpha virt. eigenvalues --    0.08089   0.08575   0.09378   0.10614   0.11071

 Mulliken charges:
               1
     1  C   -0.486005
     2  C   -0.438391
     3  C    0.354235
     4  O   -1.596933
     5  N    0.770581
     6  H    0.163187
     7  H    0.128396
     8  H    0.167897
     9  H    0.185659
    10  H    0.285508
    11  H    0.064584
    12  H    0.186235
    13  C   -0.369289
    14  C   -0.254721
    15  C    0.401745
    16  O   -1.367709
    17  N    0.834102
    18  H    0.080273
    19  H    0.038279
    20  H    0.052003
    21  H    0.145551
    22  H    0.181991
    23  H    0.224909
    24  H    0.247911
 Sum of Mulliken charges =  -0.00000

 Dipole moment (field-independent basis, Debye):
    X=             -9.4820    Y=              0.4641    Z=              0.5058  Tot=              9.5068

 Test job not archived.
 1\1\GINC-SE015\SP\RHF\Aug-CC-pVDZ\C6H14N2O2\OHZDE\08-Apr-2025\0\\#t hf
  aug-cc-pvdz iop(5/13=1,5/36=2,99/5=2) pseudo=read geom=check guess=(r
 ead,tcheck) scf=(maxcycle=1)\\title\\0,1\C,0,-0.50820164,-1.50404925,2
 .84248291\C,0,-3.29020164,0.23495075,0.93048291\C,0,-1.19020164,-0.735
 04925,1.69148291\O,0,-0.65020164,-0.52204925,0.59748291\N,0,-2.4252016
 4,-0.32504925,1.96048291\H,0,-1.22820164,-2.24804925,3.19248291\H,0,-2
 .81820164,-0.51504925,2.88048291\H,0,-3.24120164,-0.35804925,0.0154829
 1\H,0,0.41407836,-2.00123935,2.50751791\H,0,-0.32899164,-0.81087755,3.

 Normal termination of Gaussian 16 at Tue Apr  8 22:31:23 2025.
