 Gaussian 16, Revision C.01,

 ----------------------------------------------------------------------
 #t hf aug-cc-pvdz symm=none int=(grid=ultrafine) guess=(read,tcheck) s
 table=(opt,rrhf)
 ----------------------------------------------------------------------
 -----
 title
 -----
 Symbolic Z-matrix:
 Charge =  0 Multiplicity = 1

 SCF Done:  E(RHF) =  -247.038925664     A.U. after   13 cycles
 Normal termination of Gaussian 16 at Tue Apr  8 22:26:42 2025.
 Gaussian 16:  ES64L-G16RevC.01  3-Jul-2019

 ----------------------------------------------------------------------
 #t hf aug-cc-pvdz iop(5/13=1,5/36=2,99/5=2) pseudo=read geom=check gue
 ss=(read,tcheck) scf=(maxcycle=1)
 ----------------------------------------------------------------------
 -----
 title
 -----
 Structure from the checkpoint file:  "BBI-008TRP-251HIE-2_mol3.chk"
 Charge =  0 Multiplicity = 1

                         Standard orientation:
 ---------------------------------------------------------------------
 Center     Atomic      Atomic             Coordinates (Angstroms)
 Number     Number       Type             X           Y           Z
 ---------------------------------------------------------------------
      1          6           0        1.957474   -0.108580    0.038782
      2          6           0       -1.826431   -0.538476    0.036481
      3          6           0       -0.473862    0.157747   -0.026889
      4          8           0       -0.384507    1.386276   -0.013654
      5          7           0        0.596804   -0.629370   -0.056745
      6          1           0        0.486061   -1.638771   -0.099976
      7          1           0        1.968421    0.878070    0.503758
      8          1           0       -1.705597   -1.556025   -0.334932
      9          1           0        2.551760   -0.805866    0.647571
     10          1           0        2.381040   -0.040207   -0.974094
     11          1           0       -2.164978   -0.550522    1.083018
     12          1           0       -2.561366   -0.035445   -0.609149
 ---------------------------------------------------------------------

 SCF Done:  E(RHF) =  -247.297620548     A.U. after    2 cycles

 The electronic state is 1-A.
 Alpha  occ. eigenvalues --  -20.49171 -15.52973 -11.34833 -11.27364 -11.24806
 Alpha  occ. eigenvalues --   -1.43793  -1.24571  -1.02315  -0.94620  -0.82503
 Alpha  occ. eigenvalues --   -0.70244  -0.66548  -0.65298  -0.59633  -0.57422
 Alpha  occ. eigenvalues --   -0.56665  -0.55828  -0.51257  -0.41072  -0.40961
 Alpha virt. eigenvalues --    0.02810   0.04342   0.05029   0.05146   0.05788
 Alpha virt. eigenvalues --    0.06533   0.07680   0.10452   0.12457   0.12716
 Alpha virt. eigenvalues --    0.13230   0.14734   0.15079   0.16753   0.16932

 Mulliken charges:
               1
     1  C   -0.442496
     2  C   -0.432475
     3  C    0.495675
     4  O   -1.331454
     5  N    0.582471
     6  H    0.125547
     7  H    0.108256
     8  H    0.116126
     9  H    0.102433
    10  H    0.164671
    11  H    0.281410
    12  H    0.229836
 Sum of Mulliken charges =  -0.00000

 Dipole moment (field-independent basis, Debye):
    X=              0.6675    Y=             -4.0232    Z=              0.1069  Tot=              4.0796

 Test job not archived.
 1\1\GINC-SE226\SP\RHF\Aug-CC-pVDZ\C3H7N1O1\OHZDE\08-Apr-2025\0\\#t hf
 aug-cc-pvdz iop(5/13=1,5/36=2,99/5=2) pseudo=read geom=check guess=(re
 ad,tcheck) scf=(maxcycle=1)\\title\\0,1\C,0,-0.36801652,0.25608135,1.9
 2577029\C,0,-0.27401652,0.16508135,-1.88022971\C,0,0.14098348,-0.10391
 865,-0.44022971\O,0,1.21798348,-0.63891865,-0.17322971\N,0,-0.70001652
 ,0.30408135,0.50477029\H,0,-1.59501652,0.71208135,0.24877029\H,0,0.711
 98348,0.22608135,2.07577029\H,0,-1.35501652,0.30208135,-1.90522971\H,0
 ,-0.77867652,1.15620135,2.40655029\H,0,-0.82324652,-0.64418865,2.36427

 Normal termination of Gaussian 16 at Tue Apr  8 22:26:46 2025.
