 Gaussian 16, Revision C.01,

 ----------------------------------------------------------------------
 #t hf aug-cc-pvdz symm=none int=(grid=ultrafine) guess=(read,tcheck) s
 table=(opt,rrhf)
 ----------------------------------------------------------------------
 -----
 title
 -----
 Symbolic Z-matrix:
 Charge =  0 Multiplicity = 1

 SCF Done:  E(RHF) =  -247.036420300     A.U. after   13 cycles
 Normal termination of Gaussian 16 at Tue Apr  8 22:27:23 2025.
 Gaussian 16:  ES64L-G16RevC.01  3-Jul-2019

 ----------------------------------------------------------------------
 #t hf aug-cc-pvdz iop(5/13=1,5/36=2,99/5=2) pseudo=read geom=check gue
 ss=(read,tcheck) scf=(maxcycle=1)
 ----------------------------------------------------------------------
 -----
 title
 -----
 Structure from the checkpoint file:  "BBI-014VAL-017GLU-1_mol2.chk"
 Charge =  0 Multiplicity = 1

                         Standard orientation:
 ---------------------------------------------------------------------
 Center     Atomic      Atomic             Coordinates (Angstroms)
 Number     Number       Type             X           Y           Z
 ---------------------------------------------------------------------
      1          6           0        2.000613   -0.093973   -0.003138
      2          6           0       -1.816329   -0.574759    0.001396
      3          6           0       -0.477429    0.155032    0.009665
      4          8           0       -0.455433    1.400711   -0.006223
      5          7           0        0.619978   -0.619344    0.007552
      6          1           0        0.502412   -1.631755    0.022109
      7          1           0        1.915389    0.952082   -0.305538
      8          1           0       -1.609341   -1.643915    0.051135
      9          1           0        2.486757   -0.118044    0.983311
     10          1           0        2.558061   -0.702120   -0.730740
     11          1           0       -2.431192   -0.273297    0.862245
     12          1           0       -2.359598   -0.371026   -0.933140
 ---------------------------------------------------------------------

 SCF Done:  E(RHF) =  -247.293992196     A.U. after    2 cycles

 The electronic state is 1-A.
 Alpha  occ. eigenvalues --  -20.49402 -15.53452 -11.35397 -11.27792 -11.24862
 Alpha  occ. eigenvalues --   -1.42851  -1.24149  -1.02153  -0.94609  -0.82217
 Alpha  occ. eigenvalues --   -0.70096  -0.66388  -0.64665  -0.59378  -0.57474
 Alpha  occ. eigenvalues --   -0.56669  -0.56249  -0.51137  -0.41184  -0.40839
 Alpha virt. eigenvalues --    0.02818   0.04327   0.04977   0.05210   0.06021
 Alpha virt. eigenvalues --    0.06374   0.07636   0.10616   0.12492   0.12905
 Alpha virt. eigenvalues --    0.13245   0.14607   0.15246   0.16542   0.16929

 Mulliken charges:
               1
     1  C   -0.417293
     2  C   -0.427795
     3  C    0.516140
     4  O   -1.332415
     5  N    0.538801
     6  H    0.120201
     7  H    0.101848
     8  H    0.095904
     9  H    0.162837
    10  H    0.129236
    11  H    0.253887
    12  H    0.258650
 Sum of Mulliken charges =   0.00000

 Dipole moment (field-independent basis, Debye):
    X=              0.8760    Y=             -4.0421    Z=              0.0188  Tot=              4.1360

 Test job not archived.
 1\1\GINC-SE043\SP\RHF\Aug-CC-pVDZ\C3H7N1O1\OHZDE\08-Apr-2025\0\\#t hf
 aug-cc-pvdz iop(5/13=1,5/36=2,99/5=2) pseudo=read geom=check guess=(re
 ad,tcheck) scf=(maxcycle=1)\\title\\0,1\C,0,1.25111888,1.58425868,0.07
 82205\C,0,-0.55288112,-1.80974132,0.2412205\C,0,-0.34288112,-0.3257413
 2,-0.0397795\O,0,-1.25588112,0.33525868,-0.5707795\N,0,0.85811888,0.17
 625868,0.2912205\H,0,1.54311888,-0.44274132,0.7232205\H,0,0.52611888,1
 .98825868,-0.6317795\H,0,0.34611888,-2.18274132,0.7322205\H,0,1.201748
 88,2.19632868,0.9908705\H,0,2.27410888,1.56285868,-0.3255495\H,0,-1.42

 Normal termination of Gaussian 16 at Tue Apr  8 22:27:27 2025.
