 Gaussian 16, Revision C.01,

 ----------------------------------------------------------------------
 #t hf aug-cc-pvdz symm=none int=(grid=ultrafine) guess=(read,tcheck) s
 table=(opt,rrhf)
 ----------------------------------------------------------------------
 -----
 title
 -----
 Symbolic Z-matrix:
 Charge =  0 Multiplicity = 1

 SCF Done:  E(RHF) =  -494.086292400     A.U. after   13 cycles
 Normal termination of Gaussian 16 at Tue Apr  8 22:29:37 2025.
 Gaussian 16:  ES64L-G16RevC.01  3-Jul-2019

 ----------------------------------------------------------------------
 #t hf aug-cc-pvdz iop(5/13=1,5/36=2,99/5=2) pseudo=read geom=check gue
 ss=(read,tcheck) scf=(maxcycle=1)
 ----------------------------------------------------------------------
 -----
 title
 -----
 Structure from the checkpoint file:  "BBI-008TRP-251HIE-2_mol1.chk"
 Charge =  0 Multiplicity = 1

                         Standard orientation:
 ---------------------------------------------------------------------
 Center     Atomic      Atomic             Coordinates (Angstroms)
 Number     Number       Type             X           Y           Z
 ---------------------------------------------------------------------
      1          6           0       -2.313447    2.056860   -0.094430
      2          6           0       -3.479145   -1.560724    0.077483
      3          6           0       -2.247830    0.546617   -0.028708
      4          8           0       -1.185803   -0.005525    0.257024
      5          7           0       -3.391080   -0.117355   -0.204350
      6          1           0       -3.342123    2.364989   -0.295927
      7          1           0       -4.233933    0.392372   -0.437816
      8          1           0       -2.714345   -1.810105    0.814752
      9          1           0       -1.984265    2.446036    0.880342
     10          1           0       -1.674140    2.427073   -0.909438
     11          1           0       -4.440415   -1.804488    0.553444
     12          1           0       -3.263090   -2.208798   -0.784674
     13          6           0        1.785586   -1.973573   -0.010190
     14          6           0        2.735446    1.709795    0.172359
     15          6           0        2.889005    0.210044   -0.040601
     16          8           0        3.995001   -0.301401   -0.221264
     17          7           0        1.775797   -0.513837    0.018868
     18          1           0        0.876021   -0.056033    0.136523
     19          1           0        2.756514   -2.365781    0.295214
     20          1           0        1.701575    1.981791   -0.039974
     21          1           0        1.010898   -2.337546    0.680742
     22          1           0        1.561908   -2.307621   -1.034096
     23          1           0        2.985452    1.942036    1.218093
     24          1           0        3.375649    2.275720   -0.520371
 ---------------------------------------------------------------------

 SCF Done:  E(RHF) =  -494.602427271     A.U. after    2 cycles

 The electronic state is 1-A.
 Alpha  occ. eigenvalues --  -20.51891 -20.46712 -15.55270 -15.49385 -11.37302
 Alpha  occ. eigenvalues --  -11.32282 -11.28945 -11.26514 -11.24718 -11.22853
 Alpha  occ. eigenvalues --   -1.46799  -1.41398  -1.26395  -1.21370  -1.04068
 Alpha  occ. eigenvalues --   -0.99938  -0.96275  -0.92097  -0.84784  -0.79316
 Alpha  occ. eigenvalues --   -0.72183  -0.69353  -0.67610  -0.66916  -0.64103
 Alpha  occ. eigenvalues --   -0.62586  -0.61317  -0.60250  -0.58254  -0.57441
 Alpha  occ. eigenvalues --   -0.57146  -0.54989  -0.54335  -0.53273  -0.53025
 Alpha  occ. eigenvalues --   -0.48865  -0.43931  -0.43727  -0.38687  -0.38156
 Alpha virt. eigenvalues --    0.01878   0.03364   0.03969   0.04112   0.04788
 Alpha virt. eigenvalues --    0.05156   0.05706   0.06402   0.06894   0.07162
 Alpha virt. eigenvalues --    0.07327   0.08855   0.10111   0.10831   0.11254

 Mulliken charges:
               1
     1  C   -0.592025
     2  C   -0.328710
     3  C    0.396356
     4  O   -1.656690
     5  N    0.883870
     6  H    0.093964
     7  H    0.109687
     8  H    0.126884
     9  H    0.313408
    10  H    0.295174
    11  H    0.079677
    12  H    0.153416
    13  C   -0.434866
    14  C   -0.385861
    15  C    0.369514
    16  O   -1.375554
    17  N    0.912970
    18  H    0.087712
    19  H    0.065579
    20  H    0.074066
    21  H    0.121190
    22  H    0.195147
    23  H    0.275821
    24  H    0.219270
 Sum of Mulliken charges =  -0.00000

 Dipole moment (field-independent basis, Debye):
    X=             -9.0286    Y=              1.8108    Z=              0.1419  Tot=              9.2095

 Test job not archived.
 1\1\GINC-SE110\SP\RHF\Aug-CC-pVDZ\C6H14N2O2\OHZDE\08-Apr-2025\0\\#t hf
  aug-cc-pvdz iop(5/13=1,5/36=2,99/5=2) pseudo=read geom=check guess=(r
 ead,tcheck) scf=(maxcycle=1)\\title\\0,1\C,0,-2.67381842,0.70378354,-1
 .48543505\C,0,-2.86881842,1.20078354,2.28156495\C,0,-2.24881842,0.7267
 8354,-0.03343505\O,0,-1.05481842,0.64678354,0.25356495\N,0,-3.20581842
 ,0.92278354,0.87456495\H,0,-3.75481842,0.84978354,-1.54743505\H,0,-4.1
 7181842,0.98078354,0.57756495\H,0,-1.87381842,1.64778354,2.31056495\H,
 0,-2.14963842,1.52407354,-1.99764505\H,0,-2.42861842,-0.26982646,-1.93

 Normal termination of Gaussian 16 at Tue Apr  8 22:29:51 2025.
