 Gaussian 16, Revision C.01,

 ----------------------------------------------------------------------
 #t hf aug-cc-pvdz symm=none int=(grid=ultrafine) guess=(read,tcheck) s
 table=(opt,rrhf)
 ----------------------------------------------------------------------
 -----
 title
 -----
 Symbolic Z-matrix:
 Charge =  0 Multiplicity = 1

 SCF Done:  E(RHF) =  -494.085852338     A.U. after   13 cycles
 Normal termination of Gaussian 16 at Tue Apr  8 22:31:03 2025.
 Gaussian 16:  ES64L-G16RevC.01  3-Jul-2019

 ----------------------------------------------------------------------
 #t hf aug-cc-pvdz iop(5/13=1,5/36=2,99/5=2) pseudo=read geom=check gue
 ss=(read,tcheck) scf=(maxcycle=1)
 ----------------------------------------------------------------------
 -----
 title
 -----
 Structure from the checkpoint file:  "BBI-025ILE-070TRP-1_mol1.chk"
 Charge =  0 Multiplicity = 1

                         Standard orientation:
 ---------------------------------------------------------------------
 Center     Atomic      Atomic             Coordinates (Angstroms)
 Number     Number       Type             X           Y           Z
 ---------------------------------------------------------------------
      1          6           0       -2.542411    1.882847    0.556894
      2          6           0       -3.027636   -1.699525   -0.625578
      3          6           0       -2.185107    0.465628    0.119643
      4          8           0       -1.007940    0.160941   -0.082189
      5          7           0       -3.198156   -0.387217   -0.019675
      6          1           0       -3.590998    1.906171    0.857216
      7          1           0       -4.146191   -0.064423    0.136130
      8          1           0       -2.124548   -2.190628   -0.260828
      9          1           0       -1.891295    2.179942    1.392229
     10          1           0       -2.396831    2.565388   -0.293366
     11          1           0       -3.910417   -2.324952   -0.426733
     12          1           0       -2.988065   -1.569079   -1.717100
     13          6           0        2.516800    1.838603   -0.509872
     14          6           0        1.740141   -1.681469    0.717516
     15          6           0        2.569954   -0.561180    0.108046
     16          8           0        3.779223   -0.719029   -0.117067
     17          7           0        1.904540    0.568157   -0.138789
     18          1           0        0.900580    0.569072    0.012489
     19          1           0        3.598855    1.734881   -0.520218
     20          1           0        0.698238   -1.448786    0.532309
     21          1           0        2.165279    2.134345   -1.509356
     22          1           0        2.232416    2.589343    0.242133
     23          1           0        1.991220   -2.647617    0.255440
     24          1           0        1.916356   -1.704959    1.803056
 ---------------------------------------------------------------------

 SCF Done:  E(RHF) =  -494.602263589     A.U. after    2 cycles

 The electronic state is 1-A.
 Alpha  occ. eigenvalues --  -20.52320 -20.46395 -15.55443 -15.49106 -11.37744
 Alpha  occ. eigenvalues --  -11.32041 -11.29179 -11.26796 -11.25067 -11.21607
 Alpha  occ. eigenvalues --   -1.47118  -1.40339  -1.27168  -1.21258  -1.04350
 Alpha  occ. eigenvalues --   -0.99557  -0.96641  -0.91967  -0.85078  -0.78991
 Alpha  occ. eigenvalues --   -0.72557  -0.69764  -0.67436  -0.67216  -0.63714
 Alpha  occ. eigenvalues --   -0.62305  -0.61209  -0.60604  -0.58751  -0.58135
 Alpha  occ. eigenvalues --   -0.56998  -0.54682  -0.53856  -0.53422  -0.52803
 Alpha  occ. eigenvalues --   -0.48480  -0.44381  -0.43803  -0.38109  -0.37816
 Alpha virt. eigenvalues --    0.01681   0.03215   0.03842   0.04018   0.04906
 Alpha virt. eigenvalues --    0.05240   0.05462   0.06071   0.06864   0.07704
 Alpha virt. eigenvalues --    0.07911   0.08950   0.09441   0.11175   0.11508

 Mulliken charges:
               1
     1  C   -0.586498
     2  C   -0.344212
     3  C    0.436794
     4  O   -1.807533
     5  N    0.895214
     6  H    0.101511
     7  H    0.141061
     8  H    0.152460
     9  H    0.280516
    10  H    0.305341
    11  H    0.055697
    12  H    0.187321
    13  C   -0.365323
    14  C   -0.191150
    15  C    0.369252
    16  O   -1.362545
    17  N    0.858395
    18  H    0.001928
    19  H    0.011006
    20  H   -0.019658
    21  H    0.181648
    22  H    0.177361
    23  H    0.237143
    24  H    0.284272
 Sum of Mulliken charges =  -0.00000

 Dipole moment (field-independent basis, Debye):
    X=             -9.5650    Y=              1.7216    Z=              0.6737  Tot=              9.7420

 Test job not archived.
 1\1\GINC-SE398\SP\RHF\Aug-CC-pVDZ\C6H14N2O2\OHZDE\08-Apr-2025\0\\#t hf
  aug-cc-pvdz iop(5/13=1,5/36=2,99/5=2) pseudo=read geom=check guess=(r
 ead,tcheck) scf=(maxcycle=1)\\title\\0,1\C,0,-0.05733484,3.23459655,-0
 .4047127\C,0,-1.81733484,1.66259655,2.5782873\C,0,-0.54633484,2.153596
 55,0.5542873\O,0,-0.39433484,0.96359655,0.2712873\N,0,-1.12433484,2.57
 259655,1.6782873\H,0,-0.11433484,4.20259655,0.0952873\H,0,-1.24233484,
 3.56659655,1.8372873\H,0,-1.25033484,0.74259655,2.7262873\H,0,0.977014
 16,3.01192655,-0.7056137\H,0,-0.71079684,3.24807655,-1.2894757\H,0,-2.

 Normal termination of Gaussian 16 at Tue Apr  8 22:31:17 2025.
