 Gaussian 16, Revision C.01,

 ----------------------------------------------------------------------
 #t hf aug-cc-pvdz symm=none int=(grid=ultrafine) guess=(read,tcheck) s
 table=(opt,rrhf)
 ----------------------------------------------------------------------
 -----
 title
 -----
 Symbolic Z-matrix:
 Charge =  0 Multiplicity = 1

 SCF Done:  E(RHF) =  -494.079701184     A.U. after   14 cycles
 Normal termination of Gaussian 16 at Tue Apr  8 22:30:16 2025.
 Gaussian 16:  ES64L-G16RevC.01  3-Jul-2019

 ----------------------------------------------------------------------
 #t hf aug-cc-pvdz iop(5/13=1,5/36=2,99/5=2) pseudo=read geom=check gue
 ss=(read,tcheck) scf=(maxcycle=1)
 ----------------------------------------------------------------------
 -----
 title
 -----
 Structure from the checkpoint file:  "BBI-064TYR-067GLU-1_mol1.chk"
 Charge =  0 Multiplicity = 1

                         Standard orientation:
 ---------------------------------------------------------------------
 Center     Atomic      Atomic             Coordinates (Angstroms)
 Number     Number       Type             X           Y           Z
 ---------------------------------------------------------------------
      1          6           0        2.982153   -1.542605    0.819451
      2          6           0        2.071254    1.895394   -0.498838
      3          6           0        2.280238   -0.468971   -0.001423
      4          8           0        1.336847   -0.769919   -0.729679
      5          7           0        2.725350    0.780758    0.133374
      6          1           0        3.866851   -1.120775    1.289294
      7          1           0        3.503558    0.955668    0.759896
      8          1           0        2.621634    2.821860   -0.328370
      9          1           0        1.941356    1.722322   -1.567281
     10          1           0        2.259137   -1.889330    1.572467
     11          1           0        3.296565   -2.390185    0.192754
     12          1           0        1.099770    1.937851    0.015378
     13          6           0       -2.270184   -1.963047   -0.497055
     14          6           0       -1.747119    1.807678    0.129542
     15          6           0       -2.433784    0.433967    0.214022
     16          8           0       -3.575702    0.354140    0.710619
     17          7           0       -1.742873   -0.610207   -0.281713
     18          1           0       -0.789018   -0.446106   -0.576942
     19          1           0       -3.356949   -1.914405   -0.521887
     20          1           0       -1.655103    2.152346    1.158881
     21          1           0       -1.887252   -2.365255   -1.446574
     22          1           0       -1.961066   -2.588891    0.353107
     23          1           0       -0.753713    1.783816   -0.342238
     24          1           0       -2.447620    2.498952   -0.361820
 ---------------------------------------------------------------------

 SCF Done:  E(RHF) =  -494.595563965     A.U. after    2 cycles

 The electronic state is 1-A.
 Alpha  occ. eigenvalues --  -20.51750 -20.47699 -15.54849 -15.50394 -11.37053
 Alpha  occ. eigenvalues --  -11.33717 -11.28782 -11.26199 -11.25653 -11.23528
 Alpha  occ. eigenvalues --   -1.46659  -1.40960  -1.26990  -1.21648  -1.04180
 Alpha  occ. eigenvalues --   -1.00200  -0.96433  -0.92953  -0.84490  -0.79634
 Alpha  occ. eigenvalues --   -0.72344  -0.69172  -0.68074  -0.67804  -0.64503
 Alpha  occ. eigenvalues --   -0.62697  -0.61133  -0.60104  -0.58572  -0.58030
 Alpha  occ. eigenvalues --   -0.57574  -0.56052  -0.55008  -0.54154  -0.52553
 Alpha  occ. eigenvalues --   -0.48874  -0.43590  -0.43356  -0.39345  -0.38792
 Alpha virt. eigenvalues --    0.01933   0.03396   0.03949   0.04353   0.05120
 Alpha virt. eigenvalues --    0.05278   0.05518   0.05939   0.07040   0.07562
 Alpha virt. eigenvalues --    0.08323   0.08407   0.09962   0.10878   0.11612

 Mulliken charges:
               1
     1  C   -0.432997
     2  C   -0.447202
     3  C    0.378171
     4  O   -1.492887
     5  N    0.827035
     6  H    0.096545
     7  H    0.143030
     8  H    0.045746
     9  H    0.133004
    10  H    0.261588
    11  H    0.257011
    12  H    0.176120
    13  C   -0.373343
    14  C   -0.280823
    15  C    0.330853
    16  O   -1.368275
    17  N    0.807544
    18  H    0.038211
    19  H    0.039098
    20  H    0.199629
    21  H    0.146803
    22  H    0.205795
    23  H    0.063713
    24  H    0.245632
 Sum of Mulliken charges =   0.00000

 Dipole moment (field-independent basis, Debye):
    X=              7.5613    Y=              1.1068    Z=              0.2499  Tot=              7.6460

 Test job not archived.
 1\1\GINC-SE453\SP\RHF\Aug-CC-pVDZ\C6H14N2O2\OHZDE\08-Apr-2025\0\\#t hf
  aug-cc-pvdz iop(5/13=1,5/36=2,99/5=2) pseudo=read geom=check guess=(r
 ead,tcheck) scf=(maxcycle=1)\\title\\0,1\C,0,-0.98549638,2.4303157,2.2
 9741501\C,0,2.35250362,0.8463157,1.43941501\C,0,0.03450362,1.3593157,1
 .93441501\O,0,-0.33749638,0.2143157,1.68641501\N,0,1.31250362,1.736315
 7,1.88241501\H,0,-0.46849638,3.3323157,2.61441501\H,0,1.54450362,2.701
 3157,2.09141501\H,0,3.33450362,1.3123157,1.53341501\H,0,2.32550362,-0.
 0956843,1.98741501\H,0,-1.58767638,2.6134557,1.39528201\H,0,-1.6410563

 Normal termination of Gaussian 16 at Tue Apr  8 22:30:28 2025.
