 Gaussian 16, Revision C.01,

 ----------------------------------------------------------------------
 #t hf aug-cc-pvdz symm=none int=(grid=ultrafine) guess=(read,tcheck) s
 table=(opt,rrhf)
 ----------------------------------------------------------------------
 -----
 title
 -----
 Symbolic Z-matrix:
 Charge =  0 Multiplicity = 1

 SCF Done:  E(RHF) =  -494.075594196     A.U. after   14 cycles
 Normal termination of Gaussian 16 at Tue Apr  8 22:29:48 2025.
 Gaussian 16:  ES64L-G16RevC.01  3-Jul-2019

 ----------------------------------------------------------------------
 #t hf aug-cc-pvdz iop(5/13=1,5/36=2,99/5=2) pseudo=read geom=check gue
 ss=(read,tcheck) scf=(maxcycle=1)
 ----------------------------------------------------------------------
 -----
 title
 -----
 Structure from the checkpoint file:  "BBI-007GLN-010ASN-1_mol1.chk"
 Charge =  0 Multiplicity = 1

                         Standard orientation:
 ---------------------------------------------------------------------
 Center     Atomic      Atomic             Coordinates (Angstroms)
 Number     Number       Type             X           Y           Z
 ---------------------------------------------------------------------
      1          6           0       -2.916024   -1.307991    0.895747
      2          6           0       -1.700764    1.905223   -0.783109
      3          6           0       -2.177572   -0.401622   -0.083304
      4          8           0       -1.433712   -0.880548   -0.941877
      5          7           0       -2.376693    0.907943    0.051779
      6          1           0       -2.456836   -2.296766    0.852012
      7          1           0       -3.050159    1.227146    0.742020
      8          1           0       -1.893018    1.672385   -1.833219
      9          1           0       -2.849173   -0.915907    1.921321
     10          1           0       -3.962195   -1.383627    0.564387
     11          1           0       -2.101803    2.908757   -0.577953
     12          1           0       -0.609354    1.868997   -0.650760
     13          6           0        1.990960   -1.979563   -0.328590
     14          6           0        1.731324    1.602619    0.923711
     15          6           0        2.287764    0.381908    0.192075
     16          8           0        3.372520    0.425009   -0.394265
     17          7           0        1.541177   -0.718080    0.246806
     18          1           0        0.691113   -0.704142    0.801330
     19          1           0        3.020165   -2.159153   -0.009045
     20          1           0        2.279448    2.477132    0.567826
     21          1           0        1.371154   -2.812344    0.035159
     22          1           0        2.020298   -1.959493   -1.428016
     23          1           0        0.657736    1.724463    0.717420
     24          1           0        1.926646    1.464379    1.997372
 ---------------------------------------------------------------------

 SCF Done:  E(RHF) =  -494.591078082     A.U. after    2 cycles

 The electronic state is 1-A.
 Alpha  occ. eigenvalues --  -20.51015 -20.48441 -15.54350 -15.51318 -11.36269
 Alpha  occ. eigenvalues --  -11.33727 -11.28631 -11.26030 -11.25684 -11.24137
 Alpha  occ. eigenvalues --   -1.45410  -1.42708  -1.25771  -1.23037  -1.03438
 Alpha  occ. eigenvalues --   -1.01165  -0.95971  -0.93268  -0.83608  -0.80880
 Alpha  occ. eigenvalues --   -0.71629  -0.69166  -0.67866  -0.66885  -0.65266
 Alpha  occ. eigenvalues --   -0.63769  -0.60927  -0.59134  -0.58512  -0.57719
 Alpha  occ. eigenvalues --   -0.57174  -0.56536  -0.55709  -0.54521  -0.52234
 Alpha  occ. eigenvalues --   -0.49491  -0.42777  -0.42615  -0.40120  -0.39664
 Alpha virt. eigenvalues --    0.01915   0.03212   0.03777   0.04193   0.05101
 Alpha virt. eigenvalues --    0.05373   0.05456   0.06312   0.06857   0.07469
 Alpha virt. eigenvalues --    0.07974   0.08476   0.09180   0.09586   0.11643

 Mulliken charges:
               1
     1  C   -0.452579
     2  C   -0.280066
     3  C    0.144575
     4  O   -1.323038
     5  N    0.923614
     6  H    0.165981
     7  H    0.070607
     8  H    0.170918
     9  H    0.190101
    10  H    0.262780
    11  H    0.042107
    12  H    0.077747
    13  C   -0.427086
    14  C   -0.305512
    15  C    0.336262
    16  O   -1.349276
    17  N    0.867744
    18  H    0.102016
    19  H    0.103254
    20  H    0.161369
    21  H    0.067707
    22  H    0.187642
    23  H   -0.015719
    24  H    0.278853
 Sum of Mulliken charges =  -0.00000

 Dipole moment (field-independent basis, Debye):
    X=             -6.1406    Y=              1.1968    Z=              3.8884  Tot=              7.3661

 Test job not archived.
 1\1\GINC-SE457\SP\RHF\Aug-CC-pVDZ\C6H14N2O2\OHZDE\08-Apr-2025\0\\#t hf
  aug-cc-pvdz iop(5/13=1,5/36=2,99/5=2) pseudo=read geom=check guess=(r
 ead,tcheck) scf=(maxcycle=1)\\title\\0,1\C,0,-2.91012335,1.19531259,-1
 .15828453\C,0,0.79987665,1.67031259,-1.95228453\C,0,-1.46412335,0.8373
 1259,-1.48428453\O,0,-1.11012335,-0.34168741,-1.55128453\N,0,-0.628123
 35,1.85531259,-1.67828453\H,0,-3.39712335,0.30331259,-0.76128453\H,0,-
 1.00312335,2.79931259,-1.66728453\H,0,0.90887665,1.01431259,-2.8192845
 3\H,0,-2.95661535,2.00293159,-0.41290453\H,0,-3.40636435,1.48759859,-2

 Normal termination of Gaussian 16 at Tue Apr  8 22:30:01 2025.
