 Gaussian 16, Revision C.01,

 ----------------------------------------------------------------------
 #t hf aug-cc-pvdz symm=none int=(grid=ultrafine) guess=(read,tcheck) s
 table=(opt,rrhf)
 ----------------------------------------------------------------------
 -----
 title
 -----
 Symbolic Z-matrix:
 Charge =  0 Multiplicity = 1

 SCF Done:  E(RHF) =  -494.083823505     A.U. after   14 cycles
 Normal termination of Gaussian 16 at Tue Apr  8 22:30:14 2025.
 Gaussian 16:  ES64L-G16RevC.01  3-Jul-2019

 ----------------------------------------------------------------------
 #t hf aug-cc-pvdz iop(5/13=1,5/36=2,99/5=2) pseudo=read geom=check gue
 ss=(read,tcheck) scf=(maxcycle=1)
 ----------------------------------------------------------------------
 -----
 title
 -----
 Structure from the checkpoint file:  "BBI-004GLU-063LEU-2_mol1.chk"
 Charge =  0 Multiplicity = 1

                         Standard orientation:
 ---------------------------------------------------------------------
 Center     Atomic      Atomic             Coordinates (Angstroms)
 Number     Number       Type             X           Y           Z
 ---------------------------------------------------------------------
      1          6           0        2.490334    1.884149    0.054817
      2          6           0        1.751699   -1.854661    0.046076
      3          6           0        2.549697   -0.551528   -0.019901
      4          8           0        3.804271   -0.557238   -0.149166
      5          7           0        1.834393    0.579536    0.030709
      6          1           0        0.820942    0.535466    0.111230
      7          1           0        3.569427    1.768877    0.158827
      8          1           0        0.699203   -1.648424    0.238004
      9          1           0        2.292391    2.419738   -0.885376
     10          1           0        2.135169    2.469773    0.915579
     11          1           0        1.893757   -2.360158   -0.920514
     12          1           0        2.154499   -2.480979    0.855693
     13          6           0       -2.621462    1.958049   -0.075769
     14          6           0       -2.914501   -1.827270   -0.004142
     15          6           0       -2.197080    0.499388   -0.013640
     16          8           0       -1.011879    0.188417    0.153453
     17          7           0       -3.179596   -0.392480   -0.041037
     18          1           0       -3.707610    2.030486   -0.136773
     19          1           0       -4.141902   -0.076257   -0.117460
     20          1           0       -1.856580   -2.034958   -0.142168
     21          1           0       -2.253532    2.432913    0.845717
     22          1           0       -2.171884    2.446538   -0.952846
     23          1           0       -3.220366   -2.233569    0.971237
     24          1           0       -3.488352   -2.277028   -0.827794
 ---------------------------------------------------------------------

 SCF Done:  E(RHF) =  -494.599987738     A.U. after    2 cycles

 The electronic state is 1-A.
 Alpha  occ. eigenvalues --  -20.52241 -20.46374 -15.55593 -15.49218 -11.37863
 Alpha  occ. eigenvalues --  -11.32458 -11.29126 -11.26846 -11.24575 -11.22173
 Alpha  occ. eigenvalues --   -1.47040  -1.39120  -1.27297  -1.20804  -1.04634
 Alpha  occ. eigenvalues --   -0.99300  -0.96708  -0.91662  -0.85369  -0.79220
 Alpha  occ. eigenvalues --   -0.72407  -0.70032  -0.67568  -0.67168  -0.63584
 Alpha  occ. eigenvalues --   -0.61883  -0.61538  -0.60589  -0.58935  -0.57731
 Alpha  occ. eigenvalues --   -0.56824  -0.54241  -0.53744  -0.53557  -0.52333
 Alpha  occ. eigenvalues --   -0.48035  -0.44450  -0.43955  -0.38135  -0.37544
 Alpha virt. eigenvalues --    0.01662   0.03251   0.03902   0.03918   0.04855
 Alpha virt. eigenvalues --    0.04953   0.05740   0.06320   0.06789   0.07762
 Alpha virt. eigenvalues --    0.07935   0.08803   0.09360   0.10988   0.11158

 Mulliken charges:
               1
     1  C   -0.381184
     2  C   -0.260159
     3  C    0.343138
     4  O   -1.375148
     5  N    0.961684
     6  H    0.041083
     7  H    0.011178
     8  H    0.046243
     9  H    0.181600
    10  H    0.162315
    11  H    0.265139
    12  H    0.258366
    13  C   -0.589414
    14  C   -0.223304
    15  C    0.445649
    16  O   -1.844772
    17  N    0.844101
    18  H    0.090657
    19  H    0.114664
    20  H    0.020744
    21  H    0.310731
    22  H    0.290993
    23  H    0.144845
    24  H    0.140849
 Sum of Mulliken charges =  -0.00000

 Dipole moment (field-independent basis, Debye):
    X=             -9.7367    Y=              1.1003    Z=              0.0375  Tot=              9.7987

 Test job not archived.
 1\1\GINC-SE364\SP\RHF\Aug-CC-pVDZ\C6H14N2O2\OHZDE\08-Apr-2025\0\\#t hf
  aug-cc-pvdz iop(5/13=1,5/36=2,99/5=2) pseudo=read geom=check guess=(r
 ead,tcheck) scf=(maxcycle=1)\\title\\0,1\C,0,-0.35331962,2.93529294,-0
 .89244818\C,0,1.41168038,0.95729294,1.84555182\C,0,1.00368038,2.144292
 94,0.97155182\O,0,1.46268038,3.30029294,1.18055182\N,0,0.16768038,1.87
 129294,-0.03844818\H,0,-0.15831962,0.91829294,-0.18344818\H,0,-0.07331
 962,3.91329294,-0.50044818\H,0,0.85368038,0.06529294,1.56255182\H,0,0.
 06459038,2.84018294,-1.90551618\H,0,-1.45208962,2.89228794,-0.92183418

 Normal termination of Gaussian 16 at Tue Apr  8 22:30:27 2025.
