 Gaussian 16, Revision C.01,

 ----------------------------------------------------------------------
 #t hf aug-cc-pvdz symm=none int=(grid=ultrafine) guess=(read,tcheck) s
 table=(opt,rrhf)
 ----------------------------------------------------------------------
 -----
 title
 -----
 Symbolic Z-matrix:
 Charge =  0 Multiplicity = 1

 SCF Done:  E(RHF) =  -494.072619548     A.U. after   14 cycles
 Normal termination of Gaussian 16 at Tue Apr  8 22:31:19 2025.
 Gaussian 16:  ES64L-G16RevC.01  3-Jul-2019

 ----------------------------------------------------------------------
 #t hf aug-cc-pvdz iop(5/13=1,5/36=2,99/5=2) pseudo=read geom=check gue
 ss=(read,tcheck) scf=(maxcycle=1)
 ----------------------------------------------------------------------
 -----
 title
 -----
 Structure from the checkpoint file:  "BBI-015GLN-018LEU-1_mol1.chk"
 Charge =  0 Multiplicity = 1

                         Standard orientation:
 ---------------------------------------------------------------------
 Center     Atomic      Atomic             Coordinates (Angstroms)
 Number     Number       Type             X           Y           Z
 ---------------------------------------------------------------------
      1          6           0       -2.779784   -1.379955    0.859379
      2          6           0       -1.713958    1.878239   -0.798979
      3          6           0       -2.137461   -0.383118   -0.073912
      4          8           0       -1.381812   -0.823546   -0.947669
      5          7           0       -2.356790    0.912765    0.105674
      6          1           0       -2.114436   -2.246348    0.878879
      7          1           0       -3.032584    1.228186    0.797175
      8          1           0       -1.880003    1.529672   -1.812691
      9          1           0       -2.861364   -0.974097    1.878508
     10          1           0       -3.772207   -1.707141    0.515796
     11          1           0       -2.149240    2.875294   -0.636450
     12          1           0       -0.625707    1.879691   -0.638638
     13          6           0        1.971951   -1.940472   -0.373278
     14          6           0        1.677278    1.611351    0.915716
     15          6           0        2.222750    0.383548    0.210491
     16          8           0        3.291773    0.438751   -0.407192
     17          7           0        1.507797   -0.736993    0.307913
     18          1           0        0.667873   -0.757853    0.876728
     19          1           0        2.990705   -2.131641   -0.041543
     20          1           0        2.206531    2.485021    0.528732
     21          1           0        1.335683   -2.794075   -0.096641
     22          1           0        1.997137   -1.776523   -1.460699
     23          1           0        0.597787    1.692948    0.720679
     24          1           0        1.858425    1.527267    1.997434
 ---------------------------------------------------------------------

 SCF Done:  E(RHF) =  -494.588243924     A.U. after    2 cycles

 The electronic state is 1-A.
 Alpha  occ. eigenvalues --  -20.50718 -20.48334 -15.54559 -15.51158 -11.36063
 Alpha  occ. eigenvalues --  -11.33565 -11.28415 -11.25769 -11.25461 -11.23939
 Alpha  occ. eigenvalues --   -1.45278  -1.42578  -1.25905  -1.22851  -1.03404
 Alpha  occ. eigenvalues --   -1.01196  -0.95906  -0.93004  -0.84106  -0.81008
 Alpha  occ. eigenvalues --   -0.71584  -0.68932  -0.67915  -0.67009  -0.65124
 Alpha  occ. eigenvalues --   -0.63757  -0.60713  -0.59008  -0.58550  -0.57596
 Alpha  occ. eigenvalues --   -0.57081  -0.56403  -0.55843  -0.54494  -0.51941
 Alpha  occ. eigenvalues --   -0.49206  -0.42816  -0.42541  -0.40066  -0.39550
 Alpha virt. eigenvalues --    0.01920   0.03247   0.03798   0.04255   0.05103
 Alpha virt. eigenvalues --    0.05426   0.05471   0.06289   0.06895   0.07512
 Alpha virt. eigenvalues --    0.08114   0.08539   0.09389   0.09775   0.11804

 Mulliken charges:
               1
     1  C   -0.417814
     2  C   -0.269249
     3  C    0.101424
     4  O   -1.323781
     5  N    0.952962
     6  H    0.167685
     7  H    0.058133
     8  H    0.181812
     9  H    0.172944
    10  H    0.245578
    11  H    0.049245
    12  H    0.071353
    13  C   -0.465308
    14  C   -0.308660
    15  C    0.349214
    16  O   -1.358111
    17  N    0.919003
    18  H    0.067005
    19  H    0.126889
    20  H    0.153731
    21  H    0.052916
    22  H    0.213058
    23  H   -0.004066
    24  H    0.264037
 Sum of Mulliken charges =  -0.00000

 Dipole moment (field-independent basis, Debye):
    X=             -6.1530    Y=              1.0759    Z=              3.8344  Tot=              7.3293

 Test job not archived.
 1\1\GINC-SE093\SP\RHF\Aug-CC-pVDZ\C6H14N2O2\OHZDE\08-Apr-2025\0\\#t hf
  aug-cc-pvdz iop(5/13=1,5/36=2,99/5=2) pseudo=read geom=check guess=(r
 ead,tcheck) scf=(maxcycle=1)\\title\\0,1\C,0,1.34048334,-1.77854483,2.
 37000086\C,0,-2.14951666,-0.51254483,1.52200086\C,0,0.05848334,-1.4775
 4483,1.63300086\O,0,-0.01351666,-1.82254483,0.44800086\N,0,-0.90951666
 ,-0.81554483,2.25300086\H,0,2.12048334,-1.83454483,1.60700086\H,0,-0.8
 3351666,-0.60454483,3.24500086\H,0,-2.46951666,-1.42854483,1.03700086\
 H,0,1.59229234,-0.97185283,3.07416086\H,0,1.30716234,-2.73689583,2.908

 Normal termination of Gaussian 16 at Tue Apr  8 22:31:33 2025.
