 Gaussian 16, Revision C.01,

 ----------------------------------------------------------------------
 #t hf aug-cc-pvdz symm=none int=(grid=ultrafine) guess=(read,tcheck) s
 table=(opt,rrhf)
 ----------------------------------------------------------------------
 -----
 title
 -----
 Symbolic Z-matrix:
 Charge =  0 Multiplicity = 1

 SCF Done:  E(RHF) =  -494.084293565     A.U. after   14 cycles
 Normal termination of Gaussian 16 at Tue Apr  8 22:31:04 2025.
 Gaussian 16:  ES64L-G16RevC.01  3-Jul-2019

 ----------------------------------------------------------------------
 #t hf aug-cc-pvdz iop(5/13=1,5/36=2,99/5=2) pseudo=read geom=check gue
 ss=(read,tcheck) scf=(maxcycle=1)
 ----------------------------------------------------------------------
 -----
 title
 -----
 Structure from the checkpoint file:  "BBI-060LEU-064TYR-1_mol1.chk"
 Charge =  0 Multiplicity = 1

                         Standard orientation:
 ---------------------------------------------------------------------
 Center     Atomic      Atomic             Coordinates (Angstroms)
 Number     Number       Type             X           Y           Z
 ---------------------------------------------------------------------
      1          6           0       -2.343159   -0.536819    1.910582
      2          6           0       -2.960872    0.787479   -1.587769
      3          6           0       -2.173336   -0.274104    0.424978
      4          8           0       -1.204419   -0.724534   -0.185872
      5          7           0       -3.085596    0.483974   -0.167229
      6          1           0       -1.349434   -0.739218    2.302493
      7          1           0       -3.933023    0.736526    0.328234
      8          1           0       -2.865057   -0.144856   -2.147298
      9          1           0       -2.757866    0.342607    2.424999
     10          1           0       -2.973319   -1.420858    2.087722
     11          1           0       -3.881382    1.292813   -1.915328
     12          1           0       -2.074059    1.402349   -1.801065
     13          6           0        1.895803   -1.765286   -0.693044
     14          6           0        2.295223    1.844544    0.488165
     15          6           0        2.615169    0.425546    0.078547
     16          8           0        3.801380    0.067976    0.102240
     17          7           0        1.617367   -0.365342   -0.330362
     18          1           0        0.655291   -0.055959   -0.270218
     19          1           0        2.967927   -1.944154   -0.780326
     20          1           0        3.092463    2.455429    0.061038
     21          1           0        1.502537   -2.456787    0.066667
     22          1           0        1.460314   -2.042698   -1.664327
     23          1           0        1.305871    2.185076    0.148722
     24          1           0        2.378682    1.923610    1.582141
 ---------------------------------------------------------------------

 SCF Done:  E(RHF) =  -494.600853414     A.U. after    2 cycles

 The electronic state is 1-A.
 Alpha  occ. eigenvalues --  -20.51998 -20.46772 -15.54987 -15.49784 -11.37150
 Alpha  occ. eigenvalues --  -11.32590 -11.28945 -11.26250 -11.24352 -11.22943
 Alpha  occ. eigenvalues --   -1.47075  -1.41129  -1.26823  -1.21026  -1.04060
 Alpha  occ. eigenvalues --   -0.99837  -0.96371  -0.91959  -0.84915  -0.79690
 Alpha  occ. eigenvalues --   -0.72328  -0.69224  -0.67886  -0.67204  -0.64406
 Alpha  occ. eigenvalues --   -0.62065  -0.60840  -0.60128  -0.58600  -0.57395
 Alpha  occ. eigenvalues --   -0.56891  -0.55383  -0.54614  -0.53164  -0.52239
 Alpha  occ. eigenvalues --   -0.48515  -0.44036  -0.43870  -0.38837  -0.38247
 Alpha virt. eigenvalues --    0.01759   0.03383   0.03794   0.04057   0.04864
 Alpha virt. eigenvalues --    0.05193   0.05757   0.06135   0.07036   0.07583
 Alpha virt. eigenvalues --    0.07982   0.08547   0.08719   0.10176   0.10990

 Mulliken charges:
               1
     1  C   -0.492814
     2  C   -0.383402
     3  C    0.357121
     4  O   -1.545962
     5  N    0.882148
     6  H    0.153681
     7  H    0.105015
     8  H    0.189774
     9  H    0.174894
    10  H    0.266898
    11  H    0.038247
    12  H    0.169055
    13  C   -0.403897
    14  C   -0.430674
    15  C    0.510322
    16  O   -1.388111
    17  N    0.874533
    18  H    0.014497
    19  H    0.009149
    20  H    0.197950
    21  H    0.163953
    22  H    0.147125
    23  H    0.118442
    24  H    0.272055
 Sum of Mulliken charges =  -0.00000

 Dipole moment (field-independent basis, Debye):
    X=             -8.6303    Y=              1.7367    Z=              0.9215  Tot=              8.8514

 Test job not archived.
 1\1\GINC-SE403\SP\RHF\Aug-CC-pVDZ\C6H14N2O2\OHZDE\08-Apr-2025\0\\#t hf
  aug-cc-pvdz iop(5/13=1,5/36=2,99/5=2) pseudo=read geom=check guess=(r
 ead,tcheck) scf=(maxcycle=1)\\title\\0,1\C,0,-1.28882937,2.78861656,-0
 .44574848\C,0,1.90917063,1.85561656,-2.25574848\C,0,-0.21782937,1.9596
 1656,-1.13174848\O,0,-0.32282937,0.73561656,-1.20674848\N,0,0.83917063
 ,2.60361656,-1.60674848\H,0,-1.79282937,2.12361656,0.25125152\H,0,0.84
 117063,3.61661656,-1.64174848\H,0,1.48617063,1.24261656,-3.05374848\H,
 0,-0.84591937,3.62489556,0.11502352\H,0,-2.02919937,3.15844156,-1.1703

 Normal termination of Gaussian 16 at Tue Apr  8 22:31:18 2025.
