 Gaussian 16, Revision C.01,

 ----------------------------------------------------------------------
 #t hf aug-cc-pvdz symm=none int=(grid=ultrafine) guess=(read,tcheck) s
 table=(opt,rrhf)
 ----------------------------------------------------------------------
 -----
 title
 -----
 Symbolic Z-matrix:
 Charge =  0 Multiplicity = 1

 SCF Done:  E(RHF) =  -494.069502760     A.U. after   14 cycles
 Normal termination of Gaussian 16 at Tue Apr  8 22:30:36 2025.
 Gaussian 16:  ES64L-G16RevC.01  3-Jul-2019

 ----------------------------------------------------------------------
 #t hf aug-cc-pvdz iop(5/13=1,5/36=2,99/5=2) pseudo=read geom=check gue
 ss=(read,tcheck) scf=(maxcycle=1)
 ----------------------------------------------------------------------
 -----
 title
 -----
 Structure from the checkpoint file:  "BBI-051ALA-054VAL-1_mol1.chk"
 Charge =  0 Multiplicity = 1

                         Standard orientation:
 ---------------------------------------------------------------------
 Center     Atomic      Atomic             Coordinates (Angstroms)
 Number     Number       Type             X           Y           Z
 ---------------------------------------------------------------------
      1          6           0       -3.257438   -1.879720   -0.233942
      2          6           0       -3.058646    1.897330    0.101185
      3          6           0       -2.684887   -0.474563   -0.230990
      4          8           0       -1.499578   -0.286330   -0.506628
      5          7           0       -3.506897    0.510793    0.102219
      6          1           0       -2.445823   -2.546191    0.050473
      7          1           0       -4.465454    0.309468    0.363437
      8          1           0       -2.397209    2.038812   -0.757204
      9          1           0       -4.066750   -2.016224    0.498443
     10          1           0       -3.580566   -2.157295   -1.248109
     11          1           0       -3.905027    2.584547   -0.044969
     12          1           0       -2.455808    2.168557    0.980405
     13          6           0        1.933543   -0.289751    1.762986
     14          6           0        4.282809    0.044356   -1.166354
     15          6           0        2.414693    0.085362    0.380504
     16          8           0        1.645269    0.562651   -0.474680
     17          7           0        3.689520   -0.167024    0.142111
     18          1           0        2.661130    0.073068    2.484226
     19          1           0        4.293702   -0.461599    0.903036
     20          1           0        3.509330    0.075541   -1.937560
     21          1           0        0.957587    0.187997    1.934067
     22          1           0        1.886065   -1.387161    1.821564
     23          1           0        4.822019    1.002958   -1.184906
     24          1           0        4.962468   -0.787521   -1.403082
 ---------------------------------------------------------------------

 SCF Done:  E(RHF) =  -494.586758251     A.U. after    2 cycles

 The electronic state is 1-A.
 Alpha  occ. eigenvalues --  -20.47937 -20.47312 -15.51977 -15.51540 -11.33481
 Alpha  occ. eigenvalues --  -11.32981 -11.26139 -11.26029 -11.23689 -11.23108
 Alpha  occ. eigenvalues --   -1.42557  -1.41015  -1.23647  -1.23605  -1.01305
 Alpha  occ. eigenvalues --   -1.01162  -0.93645  -0.93243  -0.81708  -0.81331
 Alpha  occ. eigenvalues --   -0.69611  -0.68893  -0.65433  -0.64936  -0.64181
 Alpha  occ. eigenvalues --   -0.64144  -0.58380  -0.58264  -0.56461  -0.55519
 Alpha  occ. eigenvalues --   -0.55293  -0.55111  -0.54460  -0.54069  -0.49685
 Alpha  occ. eigenvalues --   -0.49457  -0.40027  -0.39761  -0.39258  -0.38892
 Alpha virt. eigenvalues --    0.03245   0.03331   0.04480   0.04766   0.05298
 Alpha virt. eigenvalues --    0.05431   0.05572   0.05922   0.06541   0.07271
 Alpha virt. eigenvalues --    0.07834   0.08653   0.09134   0.09844   0.11112

 Mulliken charges:
               1
     1  C   -0.507804
     2  C   -0.406352
     3  C    0.461394
     4  O   -1.400869
     5  N    0.802994
     6  H    0.190804
     7  H    0.094640
     8  H    0.156434
     9  H    0.136494
    10  H    0.267081
    11  H    0.051871
    12  H    0.159120
    13  C   -0.475438
    14  C   -0.373673
    15  C    0.296697
    16  O   -1.378006
    17  N    0.809073
    18  H    0.148084
    19  H    0.087249
    20  H    0.113661
    21  H    0.212275
    22  H    0.312316
    23  H    0.149146
    24  H    0.092807
 Sum of Mulliken charges =   0.00000

 Dipole moment (field-independent basis, Debye):
    X=             -0.7276    Y=             -1.1341    Z=              2.8402  Tot=              3.1436

 Test job not archived.
 1\1\GINC-SE252\SP\RHF\Aug-CC-pVDZ\C6H14N2O2\OHZDE\08-Apr-2025\0\\#t hf
  aug-cc-pvdz iop(5/13=1,5/36=2,99/5=2) pseudo=read geom=check guess=(r
 ead,tcheck) scf=(maxcycle=1)\\title\\0,1\C,0,3.18382991,-1.92653099,0.
 6135734\C,0,3.03282991,1.86646901,0.5225734\C,0,2.61582991,-0.51953099
 ,0.6175734\O,0,1.40082991,-0.34053099,0.7075734\N,0,3.47882991,0.47946
 901,0.4955734\H,0,2.43182991,-2.56353099,0.1525734\H,0,4.46782991,0.28
 846901,0.3815734\H,0,2.23882991,1.95246901,1.2685734\H,0,4.10294991,-2
 .01791099,0.0161834\H,0,3.33646991,-2.27867099,1.6444434\H,0,3.8418099

 Normal termination of Gaussian 16 at Tue Apr  8 22:30:49 2025.
