 Gaussian 16, Revision C.01,

 ----------------------------------------------------------------------
 #t hf aug-cc-pvdz symm=none int=(grid=ultrafine) guess=(read,tcheck) s
 table=(opt,rrhf)
 ----------------------------------------------------------------------
 -----
 title
 -----
 Symbolic Z-matrix:
 Charge =  0 Multiplicity = 1

 SCF Done:  E(RHF) =  -494.074620912     A.U. after   14 cycles
 Normal termination of Gaussian 16 at Tue Apr  8 22:31:14 2025.
 Gaussian 16:  ES64L-G16RevC.01  3-Jul-2019

 ----------------------------------------------------------------------
 #t hf aug-cc-pvdz iop(5/13=1,5/36=2,99/5=2) pseudo=read geom=check gue
 ss=(read,tcheck) scf=(maxcycle=1)
 ----------------------------------------------------------------------
 -----
 title
 -----
 Structure from the checkpoint file:  "BBI-011ILE-014PHE-1_mol1.chk"
 Charge =  0 Multiplicity = 1

                         Standard orientation:
 ---------------------------------------------------------------------
 Center     Atomic      Atomic             Coordinates (Angstroms)
 Number     Number       Type             X           Y           Z
 ---------------------------------------------------------------------
      1          6           0       -2.751828   -1.467692    0.843192
      2          6           0       -1.855144    1.914376   -0.695750
      3          6           0       -2.128455   -0.440785   -0.100733
      4          8           0       -1.355558   -0.791564   -0.993415
      5          7           0       -2.442609    0.835638    0.106209
      6          1           0       -2.103813   -2.345012    0.828446
      7          1           0       -3.105038    1.064800    0.839480
      8          1           0       -2.101754    1.743304   -1.745168
      9          1           0       -2.778019   -1.068322    1.867795
     10          1           0       -3.740961   -1.777011    0.474494
     11          1           0       -2.283981    2.884499   -0.404260
     12          1           0       -0.758109    1.915744   -0.615085
     13          6           0        2.056409   -1.957244   -0.332088
     14          6           0        1.646699    1.664809    0.856514
     15          6           0        2.251426    0.422518    0.203398
     16          8           0        3.323135    0.497434   -0.399937
     17          7           0        1.572329   -0.722762    0.301627
     18          1           0        0.725250   -0.757863    0.863411
     19          1           0        3.085945   -2.134881   -0.024232
     20          1           0        2.130898    2.534853    0.411766
     21          1           0        1.446059   -2.826787   -0.046833
     22          1           0        2.085513   -1.878607   -1.428890
     23          1           0        0.561554    1.735776    0.690923
     24          1           0        1.873164    1.656517    1.932914
 ---------------------------------------------------------------------

 SCF Done:  E(RHF) =  -494.589565156     A.U. after    2 cycles

 The electronic state is 1-A.
 Alpha  occ. eigenvalues --  -20.50884 -20.48354 -15.54287 -15.51374 -11.36182
 Alpha  occ. eigenvalues --  -11.33804 -11.28521 -11.26091 -11.25795 -11.24059
 Alpha  occ. eigenvalues --   -1.45427  -1.42800  -1.25681  -1.22467  -1.03330
 Alpha  occ. eigenvalues --   -1.00828  -0.95911  -0.93287  -0.83647  -0.80745
 Alpha  occ. eigenvalues --   -0.71602  -0.69262  -0.67783  -0.66824  -0.65163
 Alpha  occ. eigenvalues --   -0.63423  -0.60958  -0.59005  -0.58315  -0.57611
 Alpha  occ. eigenvalues --   -0.57007  -0.56562  -0.55584  -0.54525  -0.52281
 Alpha  occ. eigenvalues --   -0.49484  -0.42710  -0.42565  -0.40132  -0.39600
 Alpha virt. eigenvalues --    0.01943   0.03248   0.03765   0.04208   0.05091
 Alpha virt. eigenvalues --    0.05348   0.05450   0.06276   0.06975   0.07460
 Alpha virt. eigenvalues --    0.08041   0.08407   0.09428   0.09818   0.11584

 Mulliken charges:
               1
     1  C   -0.433204
     2  C   -0.268274
     3  C    0.099200
     4  O   -1.314253
     5  N    0.959782
     6  H    0.153846
     7  H    0.061450
     8  H    0.172141
     9  H    0.184893
    10  H    0.261143
    11  H    0.037407
    12  H    0.075142
    13  C   -0.419118
    14  C   -0.280784
    15  C    0.335497
    16  O   -1.354726
    17  N    0.892009
    18  H    0.084101
    19  H    0.104378
    20  H    0.152304
    21  H    0.054307
    22  H    0.191017
    23  H   -0.015203
    24  H    0.266947
 Sum of Mulliken charges =  -0.00000

 Dipole moment (field-independent basis, Debye):
    X=             -6.1530    Y=              0.7411    Z=              3.9697  Tot=              7.3598

 Test job not archived.
 1\1\GINC-SE090\SP\RHF\Aug-CC-pVDZ\C6H14N2O2\OHZDE\08-Apr-2025\0\\#t hf
  aug-cc-pvdz iop(5/13=1,5/36=2,99/5=2) pseudo=read geom=check guess=(r
 ead,tcheck) scf=(maxcycle=1)\\title\\0,1\C,0,-2.06462623,1.62744846,-1
 .93389649\C,0,1.48137378,2.25444846,-0.65189649\C,0,-0.59062622,1.3844
 4846,-1.61389649\O,0,-0.06662622,0.29344846,-1.84289649\N,0,0.07937377
 ,2.39244846,-1.06089649\H,0,-2.54662622,0.64944846,-1.96589649\H,0,-0.
 39562622,3.27744846,-0.91889649\H,0,2.07537378,1.98444846,-1.52689649\
 H,0,-2.52950922,2.22142346,-1.13322649\H,0,-2.17098023,2.08476846,-2.9

 Normal termination of Gaussian 16 at Tue Apr  8 22:31:29 2025.
