 Gaussian 16, Revision C.01,

 ----------------------------------------------------------------------
 #t hf aug-cc-pvdz symm=none int=(grid=ultrafine) guess=(read,tcheck) s
 table=(opt,rrhf)
 ----------------------------------------------------------------------
 -----
 title
 -----
 Symbolic Z-matrix:
 Charge =  0 Multiplicity = 1

 SCF Done:  E(RHF) =  -247.038380568     A.U. after   13 cycles
 Normal termination of Gaussian 16 at Tue Apr  8 22:27:21 2025.
 Gaussian 16:  ES64L-G16RevC.01  3-Jul-2019

 ----------------------------------------------------------------------
 #t hf aug-cc-pvdz iop(5/13=1,5/36=2,99/5=2) pseudo=read geom=check gue
 ss=(read,tcheck) scf=(maxcycle=1)
 ----------------------------------------------------------------------
 -----
 title
 -----
 Structure from the checkpoint file:  "BBI-024PHE-028ALA-1_mol2.chk"
 Charge =  0 Multiplicity = 1

                         Standard orientation:
 ---------------------------------------------------------------------
 Center     Atomic      Atomic             Coordinates (Angstroms)
 Number     Number       Type             X           Y           Z
 ---------------------------------------------------------------------
      1          6           0       -1.836263   -0.523794    0.022781
      2          6           0        1.939968   -0.100883    0.027501
      3          6           0       -0.452784    0.148707   -0.012904
      4          8           0       -0.365269    1.385253   -0.010782
      5          7           0        0.602738   -0.671825   -0.067002
      6          1           0       -1.768195   -1.544349    0.389331
      7          1           0        0.475539   -1.681096   -0.013731
      8          1           0        2.085001    0.290982    1.034597
      9          1           0       -2.452938    0.068535    0.714776
     10          1           0       -2.307998   -0.508026   -0.970811
     11          1           0        2.688775   -0.886551   -0.151400
     12          1           0        2.077278    0.737076   -0.671758
 ---------------------------------------------------------------------

 SCF Done:  E(RHF) =  -247.296748227     A.U. after    2 cycles

 The electronic state is 1-A.
 Alpha  occ. eigenvalues --  -20.49767 -15.53304 -11.35260 -11.27324 -11.24719
 Alpha  occ. eigenvalues --   -1.43561  -1.24621  -1.01806  -0.94385  -0.82739
 Alpha  occ. eigenvalues --   -0.70347  -0.66617  -0.65041  -0.58940  -0.57687
 Alpha  occ. eigenvalues --   -0.56840  -0.55761  -0.50669  -0.41526  -0.41122
 Alpha virt. eigenvalues --    0.02754   0.04284   0.04995   0.05328   0.06104
 Alpha virt. eigenvalues --    0.06399   0.07392   0.10806   0.12273   0.12771
 Alpha virt. eigenvalues --    0.13576   0.14706   0.15190   0.16174   0.16802

 Mulliken charges:
               1
     1  C   -0.461390
     2  C   -0.435077
     3  C    0.500863
     4  O   -1.326718
     5  N    0.629628
     6  H    0.102932
     7  H    0.106169
     8  H    0.165393
     9  H    0.234240
    10  H    0.264316
    11  H    0.059338
    12  H    0.160305
 Sum of Mulliken charges =   0.00000

 Dipole moment (field-independent basis, Debye):
    X=              0.6242    Y=             -3.9883    Z=              0.1871  Tot=              4.0412

 Test job not archived.
 1\1\GINC-SE334\SP\RHF\Aug-CC-pVDZ\C3H7N1O1\OHZDE\08-Apr-2025\0\\#t hf
 aug-cc-pvdz iop(5/13=1,5/36=2,99/5=2) pseudo=read geom=check guess=(re
 ad,tcheck) scf=(maxcycle=1)\\title\\0,1\C,0,0.43005695,-1.22596079,1.4
 0422318\C,0,0.07105695,1.64003921,-1.06477682\C,0,-0.06594305,-0.39896
 079,0.20522318\O,0,-0.99794305,-0.82096079,-0.49477682\N,0,0.57605695,
 0.75203921,-0.02577682\H,0,0.95505695,-0.60196079,2.12222318\H,0,1.301
 05695,1.07603921,0.61222318\H,0,-0.88894305,2.04603921,-0.74477682\H,0
 ,-0.46529305,-1.65112079,1.88128318\H,0,1.07794695,-2.05094079,1.07308

 Normal termination of Gaussian 16 at Tue Apr  8 22:27:24 2025.
