 Gaussian 16, Revision C.01,

 ----------------------------------------------------------------------
 #t hf aug-cc-pvdz symm=none int=(grid=ultrafine) guess=(read,tcheck) s
 table=(opt,rrhf)
 ----------------------------------------------------------------------
 -----
 title
 -----
 Symbolic Z-matrix:
 Charge =  0 Multiplicity = 1

 SCF Done:  E(RHF) =  -494.078628860     A.U. after   14 cycles
 Normal termination of Gaussian 16 at Tue Apr  8 22:31:22 2025.
 Gaussian 16:  ES64L-G16RevC.01  3-Jul-2019

 ----------------------------------------------------------------------
 #t hf aug-cc-pvdz iop(5/13=1,5/36=2,99/5=2) pseudo=read geom=check gue
 ss=(read,tcheck) scf=(maxcycle=1)
 ----------------------------------------------------------------------
 -----
 title
 -----
 Structure from the checkpoint file:  "BBI-097GLU-100THR-2_mol1.chk"
 Charge =  0 Multiplicity = 1

                         Standard orientation:
 ---------------------------------------------------------------------
 Center     Atomic      Atomic             Coordinates (Angstroms)
 Number     Number       Type             X           Y           Z
 ---------------------------------------------------------------------
      1          6           0       -2.619406   -1.400400    1.179172
      2          6           0       -2.000614    1.736893   -0.934323
      3          6           0       -2.150329   -0.514487    0.012845
      4          8           0       -1.380399   -0.986333   -0.844474
      5          7           0       -2.541974    0.769009    0.017927
      6          1           0       -1.761573   -2.013618    1.464384
      7          1           0       -3.194841    1.100384    0.715975
      8          1           0       -2.218357    1.414609   -1.951373
      9          1           0       -2.930550   -0.839935    2.073075
     10          1           0       -3.427029   -2.079056    0.867440
     11          1           0       -2.435684    2.733243   -0.767007
     12          1           0       -0.909684    1.815163   -0.817113
     13          6           0        2.311314   -1.798441   -0.597600
     14          6           0        1.418800    1.677024    0.708170
     15          6           0        2.226013    0.479108    0.260147
     16          8           0        3.454618    0.546268    0.290376
     17          7           0        1.579207   -0.591338   -0.168220
     18          1           0        0.565960   -0.617678   -0.142566
     19          1           0        3.377526   -1.625015   -0.570400
     20          1           0        1.813895    2.516554    0.129532
     21          1           0        2.114762   -2.651915    0.067946
     22          1           0        2.058965   -2.052683   -1.637639
     23          1           0        0.337434    1.614522    0.516518
     24          1           0        1.640126    1.884077    1.765592
 ---------------------------------------------------------------------

 SCF Done:  E(RHF) =  -494.594410335     A.U. after    2 cycles

 The electronic state is 1-A.
 Alpha  occ. eigenvalues --  -20.52245 -20.47245 -15.55404 -15.50620 -11.37955
 Alpha  occ. eigenvalues --  -11.33101 -11.29032 -11.26599 -11.25181 -11.23708
 Alpha  occ. eigenvalues --   -1.46004  -1.42328  -1.26446  -1.22272  -1.03593
 Alpha  occ. eigenvalues --   -1.00757  -0.96449  -0.93128  -0.84770  -0.80554
 Alpha  occ. eigenvalues --   -0.72470  -0.69048  -0.68653  -0.67497  -0.64965
 Alpha  occ. eigenvalues --   -0.63213  -0.60935  -0.59992  -0.58502  -0.57781
 Alpha  occ. eigenvalues --   -0.57465  -0.55972  -0.55223  -0.53488  -0.52577
 Alpha  occ. eigenvalues --   -0.49684  -0.43899  -0.43648  -0.39563  -0.39082
 Alpha virt. eigenvalues --    0.01892   0.03286   0.03910   0.04132   0.05177
 Alpha virt. eigenvalues --    0.05312   0.05530   0.05987   0.07051   0.07563
 Alpha virt. eigenvalues --    0.08124   0.08863   0.09552   0.10404   0.11799

 Mulliken charges:
               1
     1  C   -0.415288
     2  C   -0.323888
     3  C    0.397183
     4  O   -1.429112
     5  N    0.871362
     6  H    0.170810
     7  H    0.077221
     8  H    0.164942
     9  H    0.123754
    10  H    0.243161
    11  H    0.065538
    12  H    0.018979
    13  C   -0.285986
    14  C   -0.216590
    15  C    0.288311
    16  O   -1.380874
    17  N    0.930730
    18  H   -0.109198
    19  H   -0.017219
    20  H    0.221410
    21  H    0.176739
    22  H    0.161407
    23  H    0.012956
    24  H    0.253652
 Sum of Mulliken charges =  -0.00000

 Dipole moment (field-independent basis, Debye):
    X=             -6.9668    Y=              1.1104    Z=              1.8525  Tot=              7.2939

 Test job not archived.
 1\1\GINC-SE460\SP\RHF\Aug-CC-pVDZ\C6H14N2O2\OHZDE\08-Apr-2025\0\\#t hf
  aug-cc-pvdz iop(5/13=1,5/36=2,99/5=2) pseudo=read geom=check guess=(r
 ead,tcheck) scf=(maxcycle=1)\\title\\0,1\C,0,-0.90885373,-1.18440364,2
 .85767884\C,0,1.59414627,1.51459636,1.78867884\C,0,-0.35485373,0.09659
 636,2.21167884\O,0,-1.06185373,0.73359636,1.40867884\N,0,0.91414627,0.
 42959636,2.49367884\H,0,-1.48685373,-1.69440364,2.08367884\H,0,1.44014
 627,-0.09840364,3.17767884\H,0,1.05314627,2.44759636,1.93867884\H,0,-0
 .13461373,-1.88613264,3.20136884\H,0,-1.59269873,-0.95157464,3.6872288

 Normal termination of Gaussian 16 at Tue Apr  8 22:31:36 2025.
