 Gaussian 16, Revision C.01,

 ----------------------------------------------------------------------
 #t hf aug-cc-pvdz symm=none int=(grid=ultrafine) guess=(read,tcheck) s
 table=(opt,rrhf)
 ----------------------------------------------------------------------
 -----
 title
 -----
 Symbolic Z-matrix:
 Charge =  0 Multiplicity = 1

 SCF Done:  E(RHF) =  -247.039488641     A.U. after   13 cycles
 Normal termination of Gaussian 16 at Tue Apr  8 22:27:22 2025.
 Gaussian 16:  ES64L-G16RevC.01  3-Jul-2019

 ----------------------------------------------------------------------
 #t hf aug-cc-pvdz iop(5/13=1,5/36=2,99/5=2) pseudo=read geom=check gue
 ss=(read,tcheck) scf=(maxcycle=1)
 ----------------------------------------------------------------------
 -----
 title
 -----
 Structure from the checkpoint file:  "BBI-011ILE-014PHE-1_mol2.chk"
 Charge =  0 Multiplicity = 1

                         Standard orientation:
 ---------------------------------------------------------------------
 Center     Atomic      Atomic             Coordinates (Angstroms)
 Number     Number       Type             X           Y           Z
 ---------------------------------------------------------------------
      1          6           0       -1.837330   -0.530606   -0.012111
      2          6           0        1.961831   -0.109812   -0.020938
      3          6           0       -0.468780    0.148030    0.013373
      4          8           0       -0.373060    1.376071    0.006295
      5          7           0        0.597698   -0.647811    0.019395
      6          1           0       -2.540305    0.190938   -0.430481
      7          1           0        0.459652   -1.652266    0.051446
      8          1           0        2.106419    0.540396    0.843750
      9          1           0       -1.806917   -1.412125   -0.669373
     10          1           0       -2.168453   -0.765071    1.010329
     11          1           0        2.696670   -0.925596    0.046231
     12          1           0        2.119205    0.504158   -0.919975
 ---------------------------------------------------------------------

 SCF Done:  E(RHF) =  -247.298044955     A.U. after    2 cycles

 The electronic state is 1-A.
 Alpha  occ. eigenvalues --  -20.49484 -15.52929 -11.34817 -11.27562 -11.24700
 Alpha  occ. eigenvalues --   -1.43943  -1.24343  -1.01966  -0.94653  -0.82343
 Alpha  occ. eigenvalues --   -0.70324  -0.66376  -0.65127  -0.59361  -0.57692
 Alpha  occ. eigenvalues --   -0.56648  -0.55842  -0.50954  -0.41250  -0.41160
 Alpha virt. eigenvalues --    0.02775   0.04316   0.04978   0.05111   0.06088
 Alpha virt. eigenvalues --    0.06560   0.07502   0.10031   0.12203   0.13115
 Alpha virt. eigenvalues --    0.13632   0.14703   0.15321   0.16209   0.17044

 Mulliken charges:
               1
     1  C   -0.475720
     2  C   -0.403856
     3  C    0.468412
     4  O   -1.317049
     5  N    0.631028
     6  H    0.172102
     7  H    0.097323
     8  H    0.148470
     9  H    0.178918
    10  H    0.269953
    11  H    0.060485
    12  H    0.169933
 Sum of Mulliken charges =  -0.00000

 Dipole moment (field-independent basis, Debye):
    X=              0.6440    Y=             -3.9693    Z=              0.0262  Tot=              4.0213

 Test job not archived.
 1\1\GINC-SE105\SP\RHF\Aug-CC-pVDZ\C3H7N1O1\OHZDE\08-Apr-2025\0\\#t hf
 aug-cc-pvdz iop(5/13=1,5/36=2,99/5=2) pseudo=read geom=check guess=(re
 ad,tcheck) scf=(maxcycle=1)\\title\\0,1\C,0,-1.8434289,0.03429523,-0.5
 1773446\C,0,1.7025711,0.66129523,0.76426554\C,0,-0.3694289,-0.20870477
 ,-0.19773446\O,0,0.1545711,-1.29970477,-0.42673446\N,0,0.3005711,0.799
 29523,0.35526554\H,0,-2.3254289,-0.94370477,-0.54973446\H,0,-0.1744289
 ,1.68429523,0.49726554\H,0,2.2965711,0.39129523,-0.11073446\H,0,-2.308
 3119,0.62827023,0.28293554\H,0,-1.9497829,0.49161523,-1.51249446\H,0,2

 Normal termination of Gaussian 16 at Tue Apr  8 22:27:25 2025.
