 Gaussian 16, Revision C.01,

 ----------------------------------------------------------------------
 #t hf aug-cc-pvdz symm=none int=(grid=ultrafine) guess=(read,tcheck) s
 table=(opt,rrhf)
 ----------------------------------------------------------------------
 -----
 title
 -----
 Symbolic Z-matrix:
 Charge =  0 Multiplicity = 1

 SCF Done:  E(RHF) =  -494.087706833     A.U. after   13 cycles
 Normal termination of Gaussian 16 at Tue Apr  8 22:31:03 2025.
 Gaussian 16:  ES64L-G16RevC.01  3-Jul-2019

 ----------------------------------------------------------------------
 #t hf aug-cc-pvdz iop(5/13=1,5/36=2,99/5=2) pseudo=read geom=check gue
 ss=(read,tcheck) scf=(maxcycle=1)
 ----------------------------------------------------------------------
 -----
 title
 -----
 Structure from the checkpoint file:  "BBI-012LEU-085ASP-1_mol1.chk"
 Charge =  0 Multiplicity = 1

                         Standard orientation:
 ---------------------------------------------------------------------
 Center     Atomic      Atomic             Coordinates (Angstroms)
 Number     Number       Type             X           Y           Z
 ---------------------------------------------------------------------
      1          6           0       -2.530921    1.932164   -0.494973
      2          6           0       -2.875717   -1.776652    0.366636
      3          6           0       -2.165952    0.525086   -0.052596
      4          8           0       -1.000812    0.272200    0.255941
      5          7           0       -3.133821   -0.387820    0.001834
      6          1           0       -1.814572    2.181466   -1.278209
      7          1           0       -4.079946   -0.107470   -0.220308
      8          1           0       -1.843009   -2.019361    0.114158
      9          1           0       -3.559071    2.034979   -0.872241
     10          1           0       -2.383830    2.636986    0.336649
     11          1           0       -3.040399   -1.926795    1.443828
     12          1           0       -3.548623   -2.397145   -0.243439
     13          6           0        2.565454    1.778733    0.455665
     14          6           0        1.604386   -1.790788   -0.279464
     15          6           0        2.478755   -0.559260   -0.169566
     16          8           0        3.707020   -0.622886   -0.281555
     17          7           0        1.844156    0.561054    0.139191
     18          1           0        0.834307    0.542486    0.243448
     19          1           0        3.189061    2.061136   -0.393792
     20          1           0        0.564961   -1.481976   -0.200842
     21          1           0        1.835548    2.577207    0.654849
     22          1           0        3.194317    1.625432    1.345064
     23          1           0        1.764417   -2.322431   -1.229068
     24          1           0        1.808800   -2.467367    0.563421
 ---------------------------------------------------------------------

 SCF Done:  E(RHF) =  -494.604845073     A.U. after    2 cycles

 The electronic state is 1-A.
 Alpha  occ. eigenvalues --  -20.52273 -20.46389 -15.55430 -15.48764 -11.37886
 Alpha  occ. eigenvalues --  -11.31633 -11.29233 -11.26760 -11.24786 -11.21702
 Alpha  occ. eigenvalues --   -1.47476  -1.40799  -1.27041  -1.21494  -1.04380
 Alpha  occ. eigenvalues --   -0.99659  -0.96865  -0.91801  -0.85182  -0.79324
 Alpha  occ. eigenvalues --   -0.72604  -0.69918  -0.67635  -0.67561  -0.63782
 Alpha  occ. eigenvalues --   -0.62472  -0.61499  -0.60773  -0.58730  -0.57744
 Alpha  occ. eigenvalues --   -0.56575  -0.54840  -0.53820  -0.53645  -0.52735
 Alpha  occ. eigenvalues --   -0.48047  -0.44593  -0.44036  -0.38308  -0.37896
 Alpha virt. eigenvalues --    0.01700   0.03286   0.03853   0.03965   0.04672
 Alpha virt. eigenvalues --    0.05197   0.05644   0.06080   0.07216   0.07356
 Alpha virt. eigenvalues --    0.08226   0.08469   0.09400   0.10879   0.11579

 Mulliken charges:
               1
     1  C   -0.557170
     2  C   -0.234877
     3  C    0.394126
     4  O   -1.780608
     5  N    0.880381
     6  H    0.254158
     7  H    0.116501
     8  H    0.013934
     9  H    0.110439
    10  H    0.286133
    11  H    0.172320
    12  H    0.123876
    13  C   -0.440547
    14  C   -0.315212
    15  C    0.279762
    16  O   -1.373685
    17  N    1.011418
    18  H    0.130330
    19  H    0.163410
    20  H   -0.011621
    21  H    0.029540
    22  H    0.195609
    23  H    0.274372
    24  H    0.277411
 Sum of Mulliken charges =  -0.00000

 Dipole moment (field-independent basis, Debye):
    X=             -9.5349    Y=              1.1640    Z=             -0.0077  Tot=              9.6057

 Test job not archived.
 1\1\GINC-SE186\SP\RHF\Aug-CC-pVDZ\C6H14N2O2\OHZDE\08-Apr-2025\0\\#t hf
  aug-cc-pvdz iop(5/13=1,5/36=2,99/5=2) pseudo=read geom=check guess=(r
 ead,tcheck) scf=(maxcycle=1)\\title\\0,1\C,0,1.56791592,2.62003439,-1.
 15268062\C,0,1.77491592,-0.80896561,-2.83068062\C,0,1.26091592,1.17103
 439,-1.49168062\O,0,0.37191592,0.58203439,-0.87568062\N,0,1.96091592,0
 .59103439,-2.46468062\H,0,1.70891592,2.63803439,-0.07168062\H,0,2.6469
 1592,1.14103439,-2.96468062\H,0,1.40191592,-1.35196561,-1.96168062\H,0
 ,2.45649592,3.02434839,-1.65958162\H,0,0.70111592,3.25332439,-1.392694

 Normal termination of Gaussian 16 at Tue Apr  8 22:31:17 2025.
