 Gaussian 16, Revision C.01,

 ----------------------------------------------------------------------
 #t hf aug-cc-pvdz symm=none int=(grid=ultrafine) guess=(read,tcheck) s
 table=(opt,rrhf)
 ----------------------------------------------------------------------
 -----
 title
 -----
 Symbolic Z-matrix:
 Charge =  0 Multiplicity = 1

 SCF Done:  E(RHF) =  -494.073896631     A.U. after   13 cycles
 Normal termination of Gaussian 16 at Tue Apr  8 22:30:58 2025.
 Gaussian 16:  ES64L-G16RevC.01  3-Jul-2019

 ----------------------------------------------------------------------
 #t hf aug-cc-pvdz iop(5/13=1,5/36=2,99/5=2) pseudo=read geom=check gue
 ss=(read,tcheck) scf=(maxcycle=1)
 ----------------------------------------------------------------------
 -----
 title
 -----
 Structure from the checkpoint file:  "BBI-112TRP-115ARG-1_mol1.chk"
 Charge =  0 Multiplicity = 1

                         Standard orientation:
 ---------------------------------------------------------------------
 Center     Atomic      Atomic             Coordinates (Angstroms)
 Number     Number       Type             X           Y           Z
 ---------------------------------------------------------------------
      1          6           0       -3.035113   -1.244231    0.934241
      2          6           0       -1.661205    1.868213   -0.829158
      3          6           0       -2.235223   -0.383494   -0.061705
      4          8           0       -1.488873   -0.897167   -0.893263
      5          7           0       -2.369519    0.937656    0.039351
      6          1           0       -2.570182   -2.232531    0.973557
      7          1           0       -3.027025    1.315233    0.714944
      8          1           0       -1.875321    1.617456   -1.869174
      9          1           0       -2.989365   -0.777309    1.929175
     10          1           0       -4.075697   -1.368993    0.600149
     11          1           0       -2.025089    2.886555   -0.627746
     12          1           0       -0.570229    1.816099   -0.698721
     13          6           0        1.966001   -1.983757   -0.363101
     14          6           0        1.786452    1.655565    0.814339
     15          6           0        2.338963    0.362231    0.199538
     16          8           0        3.494333    0.306437   -0.230814
     17          7           0        1.536360   -0.707961    0.208230
     18          1           0        0.625781   -0.653843    0.651043
     19          1           0        3.043209   -2.090415   -0.221141
     20          1           0        2.250747    2.571866    0.451988
     21          1           0        1.455303   -2.830550    0.118669
     22          1           0        1.820848   -2.057266   -1.451000
     23          1           0        0.701211    1.727114    0.649908
     24          1           0        2.064999    1.547400    1.872973
 ---------------------------------------------------------------------

 SCF Done:  E(RHF) =  -494.589085710     A.U. after    2 cycles

 The electronic state is 1-A.
 Alpha  occ. eigenvalues --  -20.51255 -20.48241 -15.54429 -15.51341 -11.36550
 Alpha  occ. eigenvalues --  -11.34029 -11.28607 -11.26306 -11.25458 -11.24371
 Alpha  occ. eigenvalues --   -1.45903  -1.42630  -1.25985  -1.22552  -1.03329
 Alpha  occ. eigenvalues --   -1.00986  -0.96066  -0.93113  -0.83830  -0.80854
 Alpha  occ. eigenvalues --   -0.71845  -0.69313  -0.68063  -0.67045  -0.65113
 Alpha  occ. eigenvalues --   -0.63437  -0.60877  -0.59248  -0.58537  -0.57944
 Alpha  occ. eigenvalues --   -0.57259  -0.56498  -0.55596  -0.54221  -0.52520
 Alpha  occ. eigenvalues --   -0.49430  -0.42948  -0.42851  -0.39928  -0.39489
 Alpha virt. eigenvalues --    0.01906   0.03275   0.03806   0.04142   0.05104
 Alpha virt. eigenvalues --    0.05280   0.05489   0.06225   0.06888   0.07455
 Alpha virt. eigenvalues --    0.07941   0.08548   0.09168   0.09654   0.11688

 Mulliken charges:
               1
     1  C   -0.471190
     2  C   -0.284042
     3  C    0.191878
     4  O   -1.326825
     5  N    0.930947
     6  H    0.173438
     7  H    0.070335
     8  H    0.164911
     9  H    0.186158
    10  H    0.252591
    11  H    0.045956
    12  H    0.063563
    13  C   -0.439577
    14  C   -0.219465
    15  C    0.343585
    16  O   -1.342998
    17  N    0.838817
    18  H    0.083138
    19  H    0.078369
    20  H    0.151559
    21  H    0.093647
    22  H    0.169843
    23  H   -0.052231
    24  H    0.297594
 Sum of Mulliken charges =  -0.00000

 Dipole moment (field-independent basis, Debye):
    X=             -6.4051    Y=              1.6358    Z=              3.2865  Tot=              7.3825

 Test job not archived.
 1\1\GINC-SE071\SP\RHF\Aug-CC-pVDZ\C6H14N2O2\OHZDE\08-Apr-2025\0\\#t hf
  aug-cc-pvdz iop(5/13=1,5/36=2,99/5=2) pseudo=read geom=check guess=(r
 ead,tcheck) scf=(maxcycle=1)\\title\\0,1\C,0,0.51033317,-3.34724131,-0
 .63019171\C,0,-1.17166682,-1.19924131,2.06080829\C,0,-0.38766682,-2.26
 824131,0.00380829\O,0,-1.05866682,-1.50724131,-0.69119171\N,0,-0.38066
 682,-2.18224131,1.33280829\H,0,0.67733318,-3.07424131,-1.67519171\H,0,
 0.15833317,-2.85724131,1.86680829\H,0,-2.21766682,-1.29524131,1.765808
 29\H,0,1.47306318,-3.37034131,-0.09857171\H,0,0.01935318,-4.33134131,-

 Normal termination of Gaussian 16 at Tue Apr  8 22:31:12 2025.
