 Gaussian 16, Revision C.01,

 ----------------------------------------------------------------------
 #t hf aug-cc-pvdz symm=none int=(grid=ultrafine) guess=(read,tcheck) s
 table=(opt,rrhf)
 ----------------------------------------------------------------------
 -----
 title
 -----
 Symbolic Z-matrix:
 Charge =  0 Multiplicity = 1

 SCF Done:  E(RHF) =  -494.076301372     A.U. after   13 cycles
 Normal termination of Gaussian 16 at Tue Apr  8 22:29:51 2025.
 Gaussian 16:  ES64L-G16RevC.01  3-Jul-2019

 ----------------------------------------------------------------------
 #t hf aug-cc-pvdz iop(5/13=1,5/36=2,99/5=2) pseudo=read geom=check gue
 ss=(read,tcheck) scf=(maxcycle=1)
 ----------------------------------------------------------------------
 -----
 title
 -----
 Structure from the checkpoint file:  "BBI-005ASP-008SER-2_mol1.chk"
 Charge =  0 Multiplicity = 1

                         Standard orientation:
 ---------------------------------------------------------------------
 Center     Atomic      Atomic             Coordinates (Angstroms)
 Number     Number       Type             X           Y           Z
 ---------------------------------------------------------------------
      1          6           0       -2.819207   -1.396403    0.872913
      2          6           0       -1.793373    1.892041   -0.740548
      3          6           0       -2.143899   -0.428564   -0.090540
      4          8           0       -1.373503   -0.830778   -0.956353
      5          7           0       -2.418068    0.864329    0.078883
      6          1           0       -2.290990   -2.350072    0.819063
      7          1           0       -3.104682    1.137553    0.774427
      8          1           0       -2.041948    1.693329   -1.784100
      9          1           0       -2.749144   -1.014150    1.901978
     10          1           0       -3.866694   -1.565636    0.582867
     11          1           0       -2.179118    2.885344   -0.467520
     12          1           0       -0.698528    1.852423   -0.641836
     13          6           0        2.039439   -1.951662   -0.348112
     14          6           0        1.664662    1.649228    0.853383
     15          6           0        2.262411    0.401011    0.209249
     16          8           0        3.363978    0.452959   -0.339484
     17          7           0        1.547082   -0.717329    0.263074
     18          1           0        0.651580   -0.723916    0.739664
     19          1           0        3.045300   -2.137959    0.031258
     20          1           0        2.140316    2.499558    0.370866
     21          1           0        1.421102   -2.815476   -0.062664
     22          1           0        2.108365   -1.869795   -1.442891
     23          1           0        0.580290    1.726861    0.685735
     24          1           0        1.897047    1.681570    1.928067
 ---------------------------------------------------------------------

 SCF Done:  E(RHF) =  -494.591969595     A.U. after    2 cycles

 The electronic state is 1-A.
 Alpha  occ. eigenvalues --  -20.51243 -20.48225 -15.54244 -15.51249 -11.36329
 Alpha  occ. eigenvalues --  -11.33623 -11.28411 -11.26078 -11.25649 -11.23904
 Alpha  occ. eigenvalues --   -1.46074  -1.42785  -1.25978  -1.22816  -1.03585
 Alpha  occ. eigenvalues --   -1.00899  -0.95925  -0.93264  -0.83813  -0.80953
 Alpha  occ. eigenvalues --   -0.71826  -0.69283  -0.68084  -0.67152  -0.65169
 Alpha  occ. eigenvalues --   -0.63677  -0.60976  -0.59459  -0.58515  -0.57688
 Alpha  occ. eigenvalues --   -0.57089  -0.56477  -0.55303  -0.54223  -0.52398
 Alpha  occ. eigenvalues --   -0.49570  -0.42949  -0.42889  -0.40086  -0.39587
 Alpha virt. eigenvalues --    0.01917   0.03271   0.03733   0.04192   0.05119
 Alpha virt. eigenvalues --    0.05315   0.05470   0.06334   0.06906   0.07491
 Alpha virt. eigenvalues --    0.08063   0.08451   0.09332   0.09771   0.11561

 Mulliken charges:
               1
     1  C   -0.441815
     2  C   -0.292330
     3  C    0.146734
     4  O   -1.312380
     5  N    0.928052
     6  H    0.157539
     7  H    0.068790
     8  H    0.172414
     9  H    0.195116
    10  H    0.248959
    11  H    0.036154
    12  H    0.078716
    13  C   -0.442028
    14  C   -0.249001
    15  C    0.307956
    16  O   -1.359397
    17  N    0.917381
    18  H    0.082413
    19  H    0.119527
    20  H    0.161986
    21  H    0.052172
    22  H    0.196500
    23  H   -0.033883
    24  H    0.260426
 Sum of Mulliken charges =  -0.00000

 Dipole moment (field-independent basis, Debye):
    X=             -6.3777    Y=              0.9283    Z=              3.6697  Tot=              7.4164

 Test job not archived.
 1\1\GINC-SE454\SP\RHF\Aug-CC-pVDZ\C6H14N2O2\OHZDE\08-Apr-2025\0\\#t hf
  aug-cc-pvdz iop(5/13=1,5/36=2,99/5=2) pseudo=read geom=check guess=(r
 ead,tcheck) scf=(maxcycle=1)\\title\\0,1\C,0,0.56967306,1.77858999,-2.
 71840338\C,0,-2.38532694,-0.16641001,-1.32040338\C,0,-0.48732694,1.303
 58999,-1.72940338\O,0,-0.50532694,1.71658999,-0.57440338\N,0,-1.362326
 94,0.40658999,-2.18240338\H,0,1.37067306,2.25758999,-2.15240338\H,0,-1
 .33632694,0.14058999,-3.16140338\H,0,-3.00132694,0.64758999,-0.9354033
 8\H,0,0.98965306,0.91981299,-3.26257138\H,0,0.14695306,2.51997299,-3.4

 Normal termination of Gaussian 16 at Tue Apr  8 22:30:04 2025.
