 Gaussian 16, Revision C.01,

 ----------------------------------------------------------------------
 #t hf aug-cc-pvdz symm=none int=(grid=ultrafine) guess=(read,tcheck) s
 table=(opt,rrhf)
 ----------------------------------------------------------------------
 -----
 title
 -----
 Symbolic Z-matrix:
 Charge =  0 Multiplicity = 1

 SCF Done:  E(RHF) =  -494.083568026     A.U. after   13 cycles
 Normal termination of Gaussian 16 at Tue Apr  8 22:30:57 2025.
 Gaussian 16:  ES64L-G16RevC.01  3-Jul-2019

 ----------------------------------------------------------------------
 #t hf aug-cc-pvdz iop(5/13=1,5/36=2,99/5=2) pseudo=read geom=check gue
 ss=(read,tcheck) scf=(maxcycle=1)
 ----------------------------------------------------------------------
 -----
 title
 -----
 Structure from the checkpoint file:  "BBI-024PHE-028ALA-1_mol1.chk"
 Charge =  0 Multiplicity = 1

                         Standard orientation:
 ---------------------------------------------------------------------
 Center     Atomic      Atomic             Coordinates (Angstroms)
 Number     Number       Type             X           Y           Z
 ---------------------------------------------------------------------
      1          6           0       -3.018799   -1.545568   -0.911738
      2          6           0       -2.413105    1.700228    0.968885
      3          6           0       -2.278894   -0.387080   -0.220368
      4          8           0       -1.040542   -0.338511   -0.249227
      5          7           0       -3.044415    0.513234    0.407116
      6          1           0       -4.048105   -1.277929   -1.134054
      7          1           0       -4.059979    0.453459    0.355126
      8          1           0       -2.053454    2.327307    0.152638
      9          1           0       -2.484085   -1.739043   -1.853358
     10          1           0       -2.988014   -2.456420   -0.295777
     11          1           0       -3.153983    2.272221    1.546739
     12          1           0       -1.543326    1.444815    1.591973
     13          6           0        2.276947    1.706510   -0.943310
     14          6           0        1.928898   -1.635397    0.930946
     15          6           0        2.554991   -0.452032    0.185356
     16          8           0        3.785125   -0.261461    0.166985
     17          7           0        1.718190    0.463874   -0.340457
     18          1           0        0.712244    0.324507   -0.303275
     19          1           0        2.922730    1.450583   -1.786572
     20          1           0        2.712985   -2.060555    1.562101
     21          1           0        1.451918    2.343993   -1.293949
     22          1           0        2.868952    2.261542   -0.200699
     23          1           0        1.096468   -1.291609    1.562509
     24          1           0        1.592329   -2.412829    0.229294
 ---------------------------------------------------------------------

 SCF Done:  E(RHF) =  -494.598190155     A.U. after    2 cycles

 The electronic state is 1-A.
 Alpha  occ. eigenvalues --  -20.52586 -20.46874 -15.55567 -15.48805 -11.38012
 Alpha  occ. eigenvalues --  -11.32328 -11.29142 -11.26565 -11.25099 -11.22294
 Alpha  occ. eigenvalues --   -1.46794  -1.40468  -1.26910  -1.19593  -1.03842
 Alpha  occ. eigenvalues --   -0.98773  -0.96316  -0.91549  -0.85143  -0.78864
 Alpha  occ. eigenvalues --   -0.72413  -0.69733  -0.67175  -0.66732  -0.63146
 Alpha  occ. eigenvalues --   -0.61600  -0.60788  -0.60404  -0.58828  -0.57645
 Alpha  occ. eigenvalues --   -0.56510  -0.54816  -0.53665  -0.52977  -0.52738
 Alpha  occ. eigenvalues --   -0.48038  -0.44462  -0.44023  -0.38574  -0.37954
 Alpha virt. eigenvalues --    0.01712   0.03273   0.03925   0.04144   0.05022
 Alpha virt. eigenvalues --    0.05262   0.05678   0.06210   0.06692   0.07529
 Alpha virt. eigenvalues --    0.08096   0.08501   0.09152   0.10582   0.10953

 Mulliken charges:
               1
     1  C   -0.476609
     2  C   -0.447905
     3  C    0.418148
     4  O   -1.700024
     5  N    0.766938
     6  H    0.083453
     7  H    0.125038
     8  H    0.178660
     9  H    0.273129
    10  H    0.299480
    11  H    0.046314
    12  H    0.192148
    13  C   -0.363741
    14  C   -0.450815
    15  C    0.368505
    16  O   -1.311116
    17  N    0.905912
    18  H    0.082397
    19  H    0.163158
    20  H    0.135326
    21  H    0.030880
    22  H    0.197812
    23  H    0.208279
    24  H    0.274632
 Sum of Mulliken charges =  -0.00000

 Dipole moment (field-independent basis, Debye):
    X=             -9.4287    Y=              0.8679    Z=              0.1013  Tot=              9.4691

 Test job not archived.
 1\1\GINC-SE094\SP\RHF\Aug-CC-pVDZ\C6H14N2O2\OHZDE\08-Apr-2025\0\\#t hf
  aug-cc-pvdz iop(5/13=1,5/36=2,99/5=2) pseudo=read geom=check guess=(r
 ead,tcheck) scf=(maxcycle=1)\\title\\0,1\C,0,2.17376038,-0.31092777,2.
 78619199\C,0,1.81476038,2.55507223,0.31719199\C,0,1.67776038,0.5160722
 3,1.58719199\O,0,0.74576038,0.09407223,0.88719199\N,0,2.31976038,1.667
 07223,1.35619199\H,0,2.69876038,0.31307223,3.50419199\H,0,3.04476038,1
 .99107223,1.99419199\H,0,0.85476038,2.96107223,0.63719199\H,0,1.278410
 38,-0.73608777,3.26325199\H,0,2.82165038,-1.13590777,2.45505199\H,0,2.

 Normal termination of Gaussian 16 at Tue Apr  8 22:31:11 2025.
