 Gaussian 16, Revision C.01,

 ----------------------------------------------------------------------
 #t hf aug-cc-pvdz symm=none int=(grid=ultrafine) guess=(read,tcheck) s
 table=(opt,rrhf)
 ----------------------------------------------------------------------
 -----
 title
 -----
 Symbolic Z-matrix:
 Charge =  0 Multiplicity = 1

 SCF Done:  E(RHF) =  -247.040485211     A.U. after   13 cycles
 Normal termination of Gaussian 16 at Tue Apr  8 22:26:21 2025.
 Gaussian 16:  ES64L-G16RevC.01  3-Jul-2019

 ----------------------------------------------------------------------
 #t hf aug-cc-pvdz iop(5/13=1,5/36=2,99/5=2) pseudo=read geom=check gue
 ss=(read,tcheck) scf=(maxcycle=1)
 ----------------------------------------------------------------------
 -----
 title
 -----
 Structure from the checkpoint file:  "BBI-005ASP-008SER-2_mol2.chk"
 Charge =  0 Multiplicity = 1

                         Standard orientation:
 ---------------------------------------------------------------------
 Center     Atomic      Atomic             Coordinates (Angstroms)
 Number     Number       Type             X           Y           Z
 ---------------------------------------------------------------------
      1          6           0       -1.827251   -0.532191   -0.013610
      2          6           0        1.953173   -0.110497   -0.018652
      3          6           0       -0.467467    0.154334    0.012196
      4          8           0       -0.375221    1.377606    0.008459
      5          7           0        0.599497   -0.643807    0.013650
      6          1           0       -2.573401    0.207516   -0.309399
      7          1           0        0.466101   -1.648119    0.072270
      8          1           0        2.088037    0.529400    0.854629
      9          1           0       -1.825307   -1.344521   -0.755309
     10          1           0       -2.091662   -0.907954    0.985833
     11          1           0        2.687313   -0.928505    0.024882
     12          1           0        2.103473    0.508103   -0.915728
 ---------------------------------------------------------------------

 SCF Done:  E(RHF) =  -247.299254996     A.U. after    2 cycles

 The electronic state is 1-A.
 Alpha  occ. eigenvalues --  -20.49638 -15.52746 -11.34788 -11.27360 -11.24621
 Alpha  occ. eigenvalues --   -1.44360  -1.24499  -1.02118  -0.94562  -0.82366
 Alpha  occ. eigenvalues --   -0.70431  -0.66521  -0.65320  -0.59266  -0.57973
 Alpha  occ. eigenvalues --   -0.56674  -0.55793  -0.50934  -0.41326  -0.41289
 Alpha virt. eigenvalues --    0.02761   0.04318   0.04959   0.05126   0.06065
 Alpha virt. eigenvalues --    0.06584   0.07517   0.09887   0.12243   0.13166
 Alpha virt. eigenvalues --    0.13576   0.14672   0.15357   0.16379   0.17036

 Mulliken charges:
               1
     1  C   -0.477885
     2  C   -0.423019
     3  C    0.490910
     4  O   -1.303565
     5  N    0.617221
     6  H    0.162182
     7  H    0.099879
     8  H    0.155227
     9  H    0.191555
    10  H    0.258093
    11  H    0.057560
    12  H    0.171844
 Sum of Mulliken charges =   0.00000

 Dipole moment (field-independent basis, Debye):
    X=              0.6104    Y=             -3.9679    Z=              0.0603  Tot=              4.0150

 Test job not archived.
 1\1\GINC-SE368\SP\RHF\Aug-CC-pVDZ\C3H7N1O1\OHZDE\08-Apr-2025\0\\#t hf
 aug-cc-pvdz iop(5/13=1,5/36=2,99/5=2) pseudo=read geom=check guess=(re
 ad,tcheck) scf=(maxcycle=1)\\title\\0,1\C,0,1.41329664,0.77749316,-1.0
 1602898\C,0,-1.54170336,-1.16750684,0.38197102\C,0,0.35629664,0.302493
 16,-0.02702898\O,0,0.33829664,0.71549316,1.12797102\N,0,-0.51870336,-0
 .59450684,-0.48002898\H,0,2.21429664,1.25649316,-0.45002898\H,0,-0.492
 70336,-0.86050684,-1.45902898\H,0,-2.15770336,-0.35350684,0.76697102\H
 ,0,1.83327664,-0.08128384,-1.56019698\H,0,0.99057664,1.51887616,-1.710

 Normal termination of Gaussian 16 at Tue Apr  8 22:26:24 2025.
