 Gaussian 16, Revision C.01,

 ----------------------------------------------------------------------
 #t hf aug-cc-pvdz symm=none int=(grid=ultrafine) guess=(read,tcheck) s
 table=(opt,rrhf)
 ----------------------------------------------------------------------
 -----
 title
 -----
 Symbolic Z-matrix:
 Charge =  0 Multiplicity = 1

 SCF Done:  E(RHF) =  -307.051556045     A.U. after   12 cycles

 1\1\GINC-SE072\Stability\RHF\Aug-CC-pVDZ\C4H10O2\OHZDE\08-Apr-2025\0\\
 #t hf aug-cc-pvdz symm=none int=(grid=ultrafine) guess=(read,tcheck) s
 table=(opt,rrhf)\\title\\0,1\C,0,1.578385,0.14769,0.343809\H,0,1.39475
 ,0.012968,1.413545\O,0,1.359929,-1.086203,-0.359782\C,0,0.653845,1.215
 099,-0.221322\H,0,1.057827,2.180283,0.093924\H,0,0.729693,1.184864,-1.
 311438\C,0,-0.817334,1.152127,0.208156\H,0,-1.303525,2.065738,-0.14582
 8\H,0,-0.883765,1.159762,1.29926\H,0,1.98412,-1.734446,-0.021385\H,0,2
 .616286,0.458948,0.206544\C,0,-1.627725,-0.034052,-0.311301\H,0,-2.684

 Normal termination of Gaussian 16 at Tue Apr  8 22:27:42 2025.
 Gaussian 16:  ES64L-G16RevC.01  3-Jul-2019

 ----------------------------------------------------------------------
 #t hf aug-cc-pvdz iop(5/13=1,5/36=2,99/5=2) pseudo=read geom=check gue
 ss=(read,tcheck) scf=(maxcycle=1)
 ----------------------------------------------------------------------
 -----
 title
 -----
 Structure from the checkpoint file:  "BCONF_B11_mol2.chk"
 Charge =  0 Multiplicity = 1

                         Standard orientation:
 ---------------------------------------------------------------------
 Center     Atomic      Atomic             Coordinates (Angstroms)
 Number     Number       Type             X           Y           Z
 ---------------------------------------------------------------------
      1          6           0        1.578385    0.147689    0.343809
      2          1           0        1.394750    0.012967    1.413545
      3          8           0        1.359929   -1.086203   -0.359782
      4          6           0        0.653845    1.215099   -0.221322
      5          1           0        1.057828    2.180283    0.093924
      6          1           0        0.729693    1.184864   -1.311438
      7          6           0       -0.817334    1.152127    0.208156
      8          1           0       -1.303524    2.065738   -0.145828
      9          1           0       -0.883765    1.159762    1.299260
     10          1           0        1.984119   -1.734447   -0.021385
     11          1           0        2.616286    0.458947    0.206544
     12          6           0       -1.627725   -0.034051   -0.311301
     13          1           0       -2.684229    0.151016   -0.118566
     14          1           0       -1.501868   -0.118145   -1.397506
     15          8           0       -1.324262   -1.260154    0.333377
     16          1           0       -0.417652   -1.475314    0.076637
 ---------------------------------------------------------------------

 SCF Done:  E(RHF) =  -307.376913882     A.U. after    2 cycles

 The electronic state is 1-A.
 Alpha  occ. eigenvalues --  -20.56764 -20.51636 -11.29486 -11.26682 -11.23535
 Alpha  occ. eigenvalues --  -11.22584  -1.46651  -1.42027  -1.07307  -0.97316
 Alpha  occ. eigenvalues --   -0.86905  -0.79168  -0.72608  -0.67657  -0.65834
 Alpha  occ. eigenvalues --   -0.61593  -0.60693  -0.58169  -0.54599  -0.53563
 Alpha  occ. eigenvalues --   -0.50417  -0.48355  -0.46174  -0.45544  -0.41380
 Alpha virt. eigenvalues --    0.03068   0.03671   0.04137   0.04604   0.06076
 Alpha virt. eigenvalues --    0.06473   0.07150   0.07233   0.08334   0.09841
 Alpha virt. eigenvalues --    0.13098   0.13434   0.14576   0.14889   0.15328

 Mulliken charges:
               1
     1  C    0.706105
     2  H    0.115737
     3  O   -1.175755
     4  C   -0.360064
     5  H    0.143495
     6  H    0.148164
     7  C   -0.374631
     8  H    0.158601
     9  H    0.140060
    10  H    0.328627
    11  H    0.028641
    12  C    0.684673
    13  H    0.004033
    14  H    0.156690
    15  O   -1.223518
    16  H    0.519142
 Sum of Mulliken charges =  -0.00000

 Dipole moment (field-independent basis, Debye):
    X=              2.7473    Y=              1.4153    Z=              0.1593  Tot=              3.0945

 Test job not archived.
 1\1\GINC-SE072\SP\RHF\Aug-CC-pVDZ\C4H10O2\OHZDE\08-Apr-2025\0\\#t hf a
 ug-cc-pvdz iop(5/13=1,5/36=2,99/5=2) pseudo=read geom=check guess=(rea
 d,tcheck) scf=(maxcycle=1)\\title\\0,1\C,0,1.578385,0.14769,0.343809\H
 ,0,1.39475,0.012968,1.413545\O,0,1.359929,-1.086203,-0.359782\C,0,0.65
 3845,1.215099,-0.221322\H,0,1.057827,2.180283,0.093924\H,0,0.729693,1.
 184864,-1.311438\C,0,-0.817334,1.152127,0.208156\H,0,-1.303525,2.06573
 8,-0.145828\H,0,-0.883765,1.159762,1.29926\H,0,1.98412,-1.734446,-0.02
 1385\H,0,2.616286,0.458948,0.206544\C,0,-1.627725,-0.034052,-0.311301\

 Normal termination of Gaussian 16 at Tue Apr  8 22:27:47 2025.
