 Gaussian 16, Revision C.01,

 ----------------------------------------------------------------------
 #t hf aug-cc-pvdz symm=none int=(grid=ultrafine) guess=(read,tcheck) s
 table=(opt,rrhf)
 ----------------------------------------------------------------------
 -----
 title
 -----
 Symbolic Z-matrix:
 Charge =  0 Multiplicity = 1

 SCF Done:  E(RHF) =  -307.050566395     A.U. after   12 cycles

 1\1\GINC-SE118\Stability\RHF\Aug-CC-pVDZ\C4H10O2\OHZDE\08-Apr-2025\0\\
 #t hf aug-cc-pvdz symm=none int=(grid=ultrafine) guess=(read,tcheck) s
 table=(opt,rrhf)\\title\\0,1\C,0,2.046373,0.354631,0.32139\H,0,2.04438
 2,0.24001,1.410792\O,0,2.462541,-0.852415,-0.311477\C,0,0.679427,0.834
 504,-0.151869\H,0,0.48614,1.813229,0.29777\H,0,0.71619,0.975438,-1.234
 491\C,0,-0.449077,-0.128363,0.210783\H,0,-0.469658,-0.295035,1.290804\
 H,0,-0.292182,-1.097521,-0.267034\H,0,1.897684,-1.559049,0.010687\H,0,
 2.807259,1.091009,0.068123\C,0,-1.807219,0.388704,-0.223631\H,0,-2.011

 Normal termination of Gaussian 16 at Tue Apr  8 22:28:00 2025.
 Gaussian 16:  ES64L-G16RevC.01  3-Jul-2019

 ----------------------------------------------------------------------
 #t hf aug-cc-pvdz iop(5/13=1,5/36=2,99/5=2) pseudo=read geom=check gue
 ss=(read,tcheck) scf=(maxcycle=1)
 ----------------------------------------------------------------------
 -----
 title
 -----
 Structure from the checkpoint file:  "BCONF_B21_mol1.chk"
 Charge =  0 Multiplicity = 1

                         Standard orientation:
 ---------------------------------------------------------------------
 Center     Atomic      Atomic             Coordinates (Angstroms)
 Number     Number       Type             X           Y           Z
 ---------------------------------------------------------------------
      1          6           0        2.046373    0.354631    0.321390
      2          1           0        2.044382    0.240010    1.410792
      3          8           0        2.462541   -0.852415   -0.311477
      4          6           0        0.679427    0.834504   -0.151869
      5          1           0        0.486140    1.813229    0.297770
      6          1           0        0.716190    0.975438   -1.234491
      7          6           0       -0.449077   -0.128363    0.210783
      8          1           0       -0.469658   -0.295035    1.290804
      9          1           0       -0.292182   -1.097521   -0.267034
     10          1           0        1.897684   -1.559049    0.010687
     11          1           0        2.807259    1.091009    0.068123
     12          6           0       -1.807219    0.388704   -0.223631
     13          1           0       -2.011490    1.347766    0.263948
     14          1           0       -1.809647    0.553967   -1.306023
     15          8           0       -2.780715   -0.585286    0.144620
     16          1           0       -3.640316   -0.265062   -0.139761
 ---------------------------------------------------------------------

 SCF Done:  E(RHF) =  -307.376579205     A.U. after    2 cycles

 The electronic state is 1-A.
 Alpha  occ. eigenvalues --  -20.55012 -20.54484 -11.28660 -11.28224 -11.23256
 Alpha  occ. eigenvalues --  -11.23148  -1.44893  -1.44377  -1.07882  -0.97607
 Alpha  occ. eigenvalues --   -0.86361  -0.80597  -0.69822  -0.69495  -0.66998
 Alpha  occ. eigenvalues --   -0.62988  -0.59902  -0.58286  -0.55476  -0.52228
 Alpha  occ. eigenvalues --   -0.49695  -0.49470  -0.47739  -0.44409  -0.43625
 Alpha virt. eigenvalues --    0.03308   0.03743   0.03993   0.04605   0.05821
 Alpha virt. eigenvalues --    0.06441   0.07172   0.07214   0.09087   0.09812
 Alpha virt. eigenvalues --    0.11858   0.12925   0.14786   0.15010   0.15242

 Mulliken charges:
               1
     1  C    0.636205
     2  H    0.130894
     3  O   -1.103897
     4  C   -0.250140
     5  H    0.175611
     6  H    0.101686
     7  C   -0.489618
     8  H    0.138055
     9  H    0.110235
    10  H    0.322658
    11  H    0.028648
    12  C    0.901737
    13  H    0.098443
    14  H    0.112084
    15  O   -1.244824
    16  H    0.332224
 Sum of Mulliken charges =  -0.00000

 Dipole moment (field-independent basis, Debye):
    X=             -1.6524    Y=              1.7074    Z=              0.2863  Tot=              2.3932

 Test job not archived.
 1\1\GINC-SE118\SP\RHF\Aug-CC-pVDZ\C4H10O2\OHZDE\08-Apr-2025\0\\#t hf a
 ug-cc-pvdz iop(5/13=1,5/36=2,99/5=2) pseudo=read geom=check guess=(rea
 d,tcheck) scf=(maxcycle=1)\\title\\0,1\C,0,2.046373,0.354631,0.32139\H
 ,0,2.044382,0.24001,1.410792\O,0,2.462541,-0.852415,-0.311477\C,0,0.67
 9427,0.834504,-0.151869\H,0,0.48614,1.813229,0.29777\H,0,0.71619,0.975
 438,-1.234491\C,0,-0.449077,-0.128363,0.210783\H,0,-0.469658,-0.295035
 ,1.290804\H,0,-0.292182,-1.097521,-0.267034\H,0,1.897684,-1.559049,0.0
 10687\H,0,2.807259,1.091009,0.068123\C,0,-1.807219,0.388704,-0.223631\

 Normal termination of Gaussian 16 at Tue Apr  8 22:28:05 2025.
