 Gaussian 16, Revision C.01,

 ----------------------------------------------------------------------
 #t hf aug-cc-pvdz symm=none int=(grid=ultrafine) guess=(read,tcheck) s
 table=(opt,rrhf)
 ----------------------------------------------------------------------
 -----
 title
 -----
 Symbolic Z-matrix:
 Charge =  0 Multiplicity = 1

 SCF Done:  E(RHF) =  -307.048229462     A.U. after   12 cycles

 1\1\GINC-SE016\Stability\RHF\Aug-CC-pVDZ\C4H10O2\OHZDE\08-Apr-2025\0\\
 #t hf aug-cc-pvdz symm=none int=(grid=ultrafine) guess=(read,tcheck) s
 table=(opt,rrhf)\\title\\0,1\C,0,1.392977,0.251812,-0.685299\H,0,0.798
 345,1.121323,-0.97958\O,0,2.215852,0.557522,0.44143\C,0,0.492488,-0.95
 6477,-0.460561\H,0,-0.069485,-1.137183,-1.37811\H,0,1.120648,-1.830367
 ,-0.279152\C,0,-0.4873,-0.80134,0.706668\H,0,0.059272,-0.735098,1.6512
 59\H,0,-1.109908,-1.695102,0.770127\H,0,1.642052,0.873627,1.143317\H,0
 ,2.085737,0.043566,-1.498809\C,0,-1.396798,0.41135,0.592379\H,0,-2.104

 Normal termination of Gaussian 16 at Tue Apr  8 22:28:40 2025.
 Gaussian 16:  ES64L-G16RevC.01  3-Jul-2019

 ----------------------------------------------------------------------
 #t hf aug-cc-pvdz iop(5/13=1,5/36=2,99/5=2) pseudo=read geom=check gue
 ss=(read,tcheck) scf=(maxcycle=1)
 ----------------------------------------------------------------------
 -----
 title
 -----
 Structure from the checkpoint file:  "BCONF_B36_mol1.chk"
 Charge =  0 Multiplicity = 1

                         Standard orientation:
 ---------------------------------------------------------------------
 Center     Atomic      Atomic             Coordinates (Angstroms)
 Number     Number       Type             X           Y           Z
 ---------------------------------------------------------------------
      1          6           0       -1.392977   -0.251812   -0.685299
      2          1           0       -0.798345   -1.121323   -0.979580
      3          8           0       -2.215852   -0.557522    0.441430
      4          6           0       -0.492488    0.956477   -0.460561
      5          1           0        0.069485    1.137183   -1.378110
      6          1           0       -1.120648    1.830367   -0.279152
      7          6           0        0.487300    0.801340    0.706668
      8          1           0       -0.059272    0.735098    1.651259
      9          1           0        1.109908    1.695102    0.770127
     10          1           0       -1.642052   -0.873627    1.143317
     11          1           0       -2.085737   -0.043566   -1.498809
     12          6           0        1.396798   -0.411350    0.592379
     13          1           0        2.104441   -0.416674    1.426437
     14          1           0        0.813796   -1.337540    0.647826
     15          8           0        2.082929   -0.329199   -0.654948
     16          1           0        2.680014   -1.079182   -0.714288
 ---------------------------------------------------------------------

 SCF Done:  E(RHF) =  -307.373685335     A.U. after    2 cycles

 The electronic state is 1-A.
 Alpha  occ. eigenvalues --  -20.55413 -20.54262 -11.29051 -11.27540 -11.23250
 Alpha  occ. eigenvalues --  -11.22283  -1.45335  -1.44024  -1.07276  -0.97328
 Alpha  occ. eigenvalues --   -0.87615  -0.78482  -0.71505  -0.69865  -0.65266
 Alpha  occ. eigenvalues --   -0.62354  -0.59837  -0.58550  -0.54887  -0.53019
 Alpha  occ. eigenvalues --   -0.49858  -0.49137  -0.47218  -0.44620  -0.42963
 Alpha virt. eigenvalues --    0.03013   0.03689   0.04158   0.04642   0.06169
 Alpha virt. eigenvalues --    0.06610   0.06891   0.07183   0.08099   0.09641
 Alpha virt. eigenvalues --    0.13204   0.14106   0.14689   0.14762   0.15122

 Mulliken charges:
               1
     1  C    0.709005
     2  H    0.156788
     3  O   -1.165881
     4  C   -0.366124
     5  H    0.217323
     6  H    0.139791
     7  C   -0.381595
     8  H    0.175100
     9  H    0.129082
    10  H    0.320284
    11  H    0.024396
    12  C    0.758468
    13  H    0.065385
    14  H    0.075437
    15  O   -1.152915
    16  H    0.295455
 Sum of Mulliken charges =  -0.00000

 Dipole moment (field-independent basis, Debye):
    X=              2.1565    Y=             -1.0593    Z=              0.8806  Tot=              2.5589

 Test job not archived.
 1\1\GINC-SE016\SP\RHF\Aug-CC-pVDZ\C4H10O2\OHZDE\08-Apr-2025\0\\#t hf a
 ug-cc-pvdz iop(5/13=1,5/36=2,99/5=2) pseudo=read geom=check guess=(rea
 d,tcheck) scf=(maxcycle=1)\\title\\0,1\C,0,1.392977,0.251812,-0.685299
 \H,0,0.798345,1.121323,-0.97958\O,0,2.215852,0.557522,0.44143\C,0,0.49
 2488,-0.956477,-0.460561\H,0,-0.069485,-1.137183,-1.37811\H,0,1.120648
 ,-1.830367,-0.279152\C,0,-0.4873,-0.80134,0.706668\H,0,0.059272,-0.735
 098,1.651259\H,0,-1.109908,-1.695102,0.770127\H,0,1.642052,0.873627,1.
 143317\H,0,2.085737,0.043566,-1.498809\C,0,-1.396798,0.41135,0.592379\

 Normal termination of Gaussian 16 at Tue Apr  8 22:28:45 2025.
