 Gaussian 16, Revision C.01,

 ----------------------------------------------------------------------
 #t hf aug-cc-pvdz symm=none int=(grid=ultrafine) guess=(read,tcheck) s
 table=(opt,rrhf)
 ----------------------------------------------------------------------
 -----
 title
 -----
 Symbolic Z-matrix:
 Charge =  0 Multiplicity = 1

 SCF Done:  E(RHF) =  -307.047408095     A.U. after   12 cycles

 1\1\GINC-SE105\Stability\RHF\Aug-CC-pVDZ\C4H10O2\OHZDE\08-Apr-2025\0\\
 #t hf aug-cc-pvdz symm=none int=(grid=ultrafine) guess=(read,tcheck) s
 table=(opt,rrhf)\\title\\0,1\C,0,-1.38662,-0.06982,0.488134\H,0,-1.543
 127,0.660287,1.282218\O,0,-2.689541,-0.408677,0.021739\C,0,-0.512729,0
 .531521,-0.606158\H,0,-0.32899,-0.219569,-1.381057\H,0,-1.079255,1.332
 365,-1.083365\C,0,0.822127,1.084556,-0.098897\H,0,0.633223,1.875529,0.
 633135\H,0,1.35714,1.540532,-0.933359\H,0,-2.585023,-1.04799,-0.688206
 \H,0,-0.905181,-0.943444,0.940155\C,0,1.737082,0.046753,0.546114\H,0,2

 Normal termination of Gaussian 16 at Tue Apr  8 22:28:41 2025.
 Gaussian 16:  ES64L-G16RevC.01  3-Jul-2019

 ----------------------------------------------------------------------
 #t hf aug-cc-pvdz iop(5/13=1,5/36=2,99/5=2) pseudo=read geom=check gue
 ss=(read,tcheck) scf=(maxcycle=1)
 ----------------------------------------------------------------------
 -----
 title
 -----
 Structure from the checkpoint file:  "BCONF_B62_mol1.chk"
 Charge =  0 Multiplicity = 1

                         Standard orientation:
 ---------------------------------------------------------------------
 Center     Atomic      Atomic             Coordinates (Angstroms)
 Number     Number       Type             X           Y           Z
 ---------------------------------------------------------------------
      1          6           0       -1.386620   -0.069820    0.488134
      2          1           0       -1.543127    0.660287    1.282218
      3          8           0       -2.689541   -0.408678    0.021739
      4          6           0       -0.512729    0.531521   -0.606158
      5          1           0       -0.328990   -0.219569   -1.381057
      6          1           0       -1.079255    1.332365   -1.083365
      7          6           0        0.822127    1.084556   -0.098897
      8          1           0        0.633223    1.875529    0.633135
      9          1           0        1.357140    1.540532   -0.933359
     10          1           0       -2.585023   -1.047991   -0.688206
     11          1           0       -0.905181   -0.943444    0.940155
     12          6           0        1.737082    0.046753    0.546114
     13          1           0        2.678332    0.517613    0.824711
     14          1           0        1.290469   -0.351560    1.461646
     15          8           0        2.090532   -1.010941   -0.342913
     16          1           0        1.315328   -1.564869   -0.461645
 ---------------------------------------------------------------------

 SCF Done:  E(RHF) =  -307.373138439     A.U. after    2 cycles

 The electronic state is 1-A.
 Alpha  occ. eigenvalues --  -20.55186 -20.55126 -11.28886 -11.28653 -11.23745
 Alpha  occ. eigenvalues --  -11.23701  -1.45113  -1.44899  -1.08073  -0.97468
 Alpha  occ. eigenvalues --   -0.88394  -0.80483  -0.71410  -0.68584  -0.65809
 Alpha  occ. eigenvalues --   -0.63131  -0.60965  -0.58404  -0.56671  -0.53149
 Alpha  occ. eigenvalues --   -0.50817  -0.49480  -0.48335  -0.44690  -0.43355
 Alpha virt. eigenvalues --    0.03063   0.03680   0.03912   0.04572   0.06065
 Alpha virt. eigenvalues --    0.06594   0.06728   0.07303   0.07912   0.09781
 Alpha virt. eigenvalues --    0.12905   0.14104   0.14491   0.14596   0.14983

 Mulliken charges:
               1
     1  C    0.880439
     2  H    0.060028
     3  O   -1.204474
     4  C   -0.320760
     5  H    0.100477
     6  H    0.153388
     7  C   -0.381405
     8  H    0.184893
     9  H    0.129491
    10  H    0.281492
    11  H    0.053882
    12  C    0.701662
    13  H    0.027268
    14  H    0.152801
    15  O   -1.136327
    16  H    0.317147
 Sum of Mulliken charges =   0.00000

 Dipole moment (field-independent basis, Debye):
    X=              0.0417    Y=              0.0064    Z=              0.0356  Tot=              0.0552

 Test job not archived.
 1\1\GINC-SE105\SP\RHF\Aug-CC-pVDZ\C4H10O2\OHZDE\08-Apr-2025\0\\#t hf a
 ug-cc-pvdz iop(5/13=1,5/36=2,99/5=2) pseudo=read geom=check guess=(rea
 d,tcheck) scf=(maxcycle=1)\\title\\0,1\C,0,-1.38662,-0.06982,0.488134\
 H,0,-1.543127,0.660287,1.282218\O,0,-2.689541,-0.408677,0.021739\C,0,-
 0.512729,0.531521,-0.606158\H,0,-0.32899,-0.219569,-1.381057\H,0,-1.07
 9255,1.332365,-1.083365\C,0,0.822127,1.084556,-0.098897\H,0,0.633223,1
 .875529,0.633135\H,0,1.35714,1.540532,-0.933359\H,0,-2.585023,-1.04799
 ,-0.688206\H,0,-0.905181,-0.943444,0.940155\C,0,1.737082,0.046753,0.54

 Normal termination of Gaussian 16 at Tue Apr  8 22:28:46 2025.
