 Gaussian 16, Revision C.01,

 ----------------------------------------------------------------------
 #t hf aug-cc-pvdz symm=none int=(grid=ultrafine) guess=(read,tcheck) s
 table=(opt,rrhf)
 ----------------------------------------------------------------------
 -----
 title
 -----
 Symbolic Z-matrix:
 Charge =  0 Multiplicity = 1

 SCF Done:  E(RHF) =  -307.049059156     A.U. after   12 cycles

 1\1\GINC-SE043\Stability\RHF\Aug-CC-pVDZ\C4H10O2\OHZDE\08-Apr-2025\0\\
 #t hf aug-cc-pvdz symm=none int=(grid=ultrafine) guess=(read,tcheck) s
 table=(opt,rrhf)\\title\\0,1\C,0,1.370096,-0.34089,0.653787\H,0,0.7641
 39,-1.225809,0.836661\O,0,2.060268,-0.596642,-0.570087\C,0,0.487183,0.
 899769,0.590614\H,0,-0.066426,0.964789,1.529242\H,0,1.118124,1.791791,
 0.5328\C,0,-0.487183,0.899757,-0.590632\H,0,0.066425,0.964761,-1.52926
 \H,0,-1.118124,1.79178,-0.532834\H,0,2.658041,0.140575,-0.722352\H,0,2
 .076243,-0.251423,1.4844\C,0,-1.370097,-0.340902,-0.653781\H,0,-2.0762

 Normal termination of Gaussian 16 at Tue Apr  8 22:28:02 2025.
 Gaussian 16:  ES64L-G16RevC.01  3-Jul-2019

 ----------------------------------------------------------------------
 #t hf aug-cc-pvdz iop(5/13=1,5/36=2,99/5=2) pseudo=read geom=check gue
 ss=(read,tcheck) scf=(maxcycle=1)
 ----------------------------------------------------------------------
 -----
 title
 -----
 Structure from the checkpoint file:  "BCONF_B15_mol1.chk"
 Charge =  0 Multiplicity = 1

                         Standard orientation:
 ---------------------------------------------------------------------
 Center     Atomic      Atomic             Coordinates (Angstroms)
 Number     Number       Type             X           Y           Z
 ---------------------------------------------------------------------
      1          6           0       -1.370096   -0.340890   -0.653787
      2          1           0       -0.764139   -1.225809   -0.836661
      3          8           0       -2.060268   -0.596642    0.570087
      4          6           0       -0.487183    0.899769   -0.590614
      5          1           0        0.066426    0.964789   -1.529242
      6          1           0       -1.118124    1.791791   -0.532800
      7          6           0        0.487183    0.899757    0.590632
      8          1           0       -0.066425    0.964761    1.529260
      9          1           0        1.118124    1.791780    0.532834
     10          1           0       -2.658041    0.140575    0.722352
     11          1           0       -2.076243   -0.251423   -1.484400
     12          6           0        1.370097   -0.340902    0.653781
     13          1           0        2.076243   -0.251451    1.484397
     14          1           0        0.764141   -1.225825    0.836637
     15          8           0        2.060271   -0.596633   -0.570097
     16          1           0        2.658014    0.140607   -0.722369
 ---------------------------------------------------------------------

 SCF Done:  E(RHF) =  -307.374391387     A.U. after    2 cycles

 The electronic state is 1-A.
 Alpha  occ. eigenvalues --  -20.54537 -20.54536 -11.27777 -11.27773 -11.22956
 Alpha  occ. eigenvalues --  -11.22932  -1.44459  -1.44183  -1.07108  -0.96861
 Alpha  occ. eigenvalues --   -0.87816  -0.79430  -0.69697  -0.66479  -0.65750
 Alpha  occ. eigenvalues --   -0.64223  -0.60641  -0.57947  -0.53838  -0.53264
 Alpha  occ. eigenvalues --   -0.50605  -0.47945  -0.47904  -0.43601  -0.43155
 Alpha virt. eigenvalues --    0.03273   0.03578   0.03842   0.04742   0.06160
 Alpha virt. eigenvalues --    0.06671   0.06898   0.07142   0.08421   0.09923
 Alpha virt. eigenvalues --    0.13207   0.14007   0.14223   0.14626   0.15301

 Mulliken charges:
               1
     1  C    0.682981
     2  H    0.087351
     3  O   -1.122396
     4  C   -0.298148
     5  H    0.166937
     6  H    0.117468
     7  C   -0.298143
     8  H    0.166934
     9  H    0.117469
    10  H    0.283241
    11  H    0.082564
    12  C    0.682980
    13  H    0.082564
    14  H    0.087354
    15  O   -1.122400
    16  H    0.283245
 Sum of Mulliken charges =  -0.00000

 Dipole moment (field-independent basis, Debye):
    X=             -0.0001    Y=              2.7488    Z=             -0.0000  Tot=              2.7488

 Test job not archived.
 1\1\GINC-SE043\SP\RHF\Aug-CC-pVDZ\C4H10O2\OHZDE\08-Apr-2025\0\\#t hf a
 ug-cc-pvdz iop(5/13=1,5/36=2,99/5=2) pseudo=read geom=check guess=(rea
 d,tcheck) scf=(maxcycle=1)\\title\\0,1\C,0,1.370096,-0.34089,0.653787\
 H,0,0.764139,-1.225809,0.836661\O,0,2.060268,-0.596642,-0.570087\C,0,0
 .487183,0.899769,0.590614\H,0,-0.066426,0.964789,1.529242\H,0,1.118124
 ,1.791791,0.5328\C,0,-0.487183,0.899757,-0.590632\H,0,0.066425,0.96476
 1,-1.52926\H,0,-1.118124,1.79178,-0.532834\H,0,2.658041,0.140575,-0.72
 2352\H,0,2.076243,-0.251423,1.4844\C,0,-1.370097,-0.340902,-0.653781\H

 Normal termination of Gaussian 16 at Tue Apr  8 22:28:08 2025.
