 Gaussian 16, Revision C.01,

 ----------------------------------------------------------------------
 #t hf aug-cc-pvdz symm=none int=(grid=ultrafine) guess=(read,tcheck) s
 table=(opt,rrhf)
 ----------------------------------------------------------------------
 -----
 title
 -----
 Symbolic Z-matrix:
 Charge =  0 Multiplicity = 1

 SCF Done:  E(RHF) =  -307.050408118     A.U. after   12 cycles

 1\1\GINC-SE094\Stability\RHF\Aug-CC-pVDZ\C4H10O2\OHZDE\08-Apr-2025\0\\
 #t hf aug-cc-pvdz symm=none int=(grid=ultrafine) guess=(read,tcheck) s
 table=(opt,rrhf)\\title\\0,1\C,0,2.041092,0.351425,-0.324587\H,0,2.813
 519,1.08153,-0.065718\O,0,2.385216,-0.941345,0.170137\C,0,0.680041,0.8
 28725,0.16804\H,0,0.700547,0.891317,1.2614\H,0,0.514623,1.846117,-0.19
 8619\C,0,-0.462451,-0.079619,-0.28027\H,0,-0.246411,-1.10501,0.028744\
 H,0,-0.53006,-0.081175,-1.370459\H,0,2.503171,-0.861875,1.120703\H,0,2
 .030361,0.251489,-1.409683\C,0,-1.80363,0.353671,0.293404\H,0,-1.75716

 Normal termination of Gaussian 16 at Tue Apr  8 22:27:59 2025.
 Gaussian 16:  ES64L-G16RevC.01  3-Jul-2019

 ----------------------------------------------------------------------
 #t hf aug-cc-pvdz iop(5/13=1,5/36=2,99/5=2) pseudo=read geom=check gue
 ss=(read,tcheck) scf=(maxcycle=1)
 ----------------------------------------------------------------------
 -----
 title
 -----
 Structure from the checkpoint file:  "BCONF_B18_mol1.chk"
 Charge =  0 Multiplicity = 1

                         Standard orientation:
 ---------------------------------------------------------------------
 Center     Atomic      Atomic             Coordinates (Angstroms)
 Number     Number       Type             X           Y           Z
 ---------------------------------------------------------------------
      1          6           0        2.041092    0.351425   -0.324587
      2          1           0        2.813519    1.081530   -0.065718
      3          8           0        2.385216   -0.941345    0.170137
      4          6           0        0.680041    0.828725    0.168040
      5          1           0        0.700547    0.891317    1.261400
      6          1           0        0.514623    1.846117   -0.198619
      7          6           0       -0.462451   -0.079619   -0.280270
      8          1           0       -0.246411   -1.105010    0.028744
      9          1           0       -0.530060   -0.081175   -1.370459
     10          1           0        2.503171   -0.861875    1.120703
     11          1           0        2.030361    0.251489   -1.409683
     12          6           0       -1.803630    0.353671    0.293404
     13          1           0       -1.757166    0.355919    1.388316
     14          1           0       -2.039716    1.368996   -0.025013
     15          8           0       -2.887612   -0.448333   -0.165291
     16          1           0       -2.700003   -1.355099    0.092046
 ---------------------------------------------------------------------

 SCF Done:  E(RHF) =  -307.376227473     A.U. after    2 cycles

 The electronic state is 1-A.
 Alpha  occ. eigenvalues --  -20.55070 -20.54477 -11.28697 -11.28114 -11.23803
 Alpha  occ. eigenvalues --  -11.22866  -1.44948  -1.44323  -1.07861  -0.97384
 Alpha  occ. eigenvalues --   -0.86618  -0.81566  -0.69549  -0.68836  -0.65761
 Alpha  occ. eigenvalues --   -0.62753  -0.60435  -0.58668  -0.56020  -0.53020
 Alpha  occ. eigenvalues --   -0.50358  -0.48307  -0.47873  -0.45245  -0.42814
 Alpha virt. eigenvalues --    0.03172   0.03440   0.04259   0.04379   0.05963
 Alpha virt. eigenvalues --    0.06407   0.06944   0.07221   0.09146   0.09547
 Alpha virt. eigenvalues --    0.11451   0.12995   0.14101   0.15117   0.15585

 Mulliken charges:
               1
     1  C    0.756438
     2  H    0.095738
     3  O   -1.118444
     4  C   -0.398152
     5  H    0.097211
     6  H    0.132968
     7  C   -0.298616
     8  H    0.129389
     9  H    0.130235
    10  H    0.298859
    11  H    0.071749
    12  C    0.811824
    13  H    0.109369
    14  H    0.058734
    15  O   -1.171893
    16  H    0.294591
 Sum of Mulliken charges =  -0.00000

 Dipole moment (field-independent basis, Debye):
    X=              1.3575    Y=              0.9228    Z=              1.6527  Tot=              2.3293

 Test job not archived.
 1\1\GINC-SE094\SP\RHF\Aug-CC-pVDZ\C4H10O2\OHZDE\08-Apr-2025\0\\#t hf a
 ug-cc-pvdz iop(5/13=1,5/36=2,99/5=2) pseudo=read geom=check guess=(rea
 d,tcheck) scf=(maxcycle=1)\\title\\0,1\C,0,2.041092,0.351425,-0.324587
 \H,0,2.813519,1.08153,-0.065718\O,0,2.385216,-0.941345,0.170137\C,0,0.
 680041,0.828725,0.16804\H,0,0.700547,0.891317,1.2614\H,0,0.514623,1.84
 6117,-0.198619\C,0,-0.462451,-0.079619,-0.28027\H,0,-0.246411,-1.10501
 ,0.028744\H,0,-0.53006,-0.081175,-1.370459\H,0,2.503171,-0.861875,1.12
 0703\H,0,2.030361,0.251489,-1.409683\C,0,-1.80363,0.353671,0.293404\H,

 Normal termination of Gaussian 16 at Tue Apr  8 22:28:04 2025.
