 Gaussian 16, Revision C.01,

 ----------------------------------------------------------------------
 #t hf aug-cc-pvdz symm=none int=(grid=ultrafine) guess=(read,tcheck) s
 table=opt
 ----------------------------------------------------------------------
 -----
 title
 -----
 Symbolic Z-matrix:
 Charge =  0 Multiplicity = 2

 SCF Done:  E(UHF) =  -845.890515825     A.U. after   18 cycles
 Normal termination of Gaussian 16 at Tue Apr  8 22:52:39 2025.
 Gaussian 16:  ES64L-G16RevC.01  3-Jul-2019

 ----------------------------------------------------------------------
 #t hf aug-cc-pvdz iop(5/13=1,5/36=2,99/5=2) pseudo=read geom=check gue
 ss=(read,tcheck) scf=(maxcycle=1)
 ----------------------------------------------------------------------
 -----
 title
 -----
 Structure from the checkpoint file:  "BDE49_expt_1796_mol2.chk"
 Charge =  0 Multiplicity = 2

                         Standard orientation:
 ---------------------------------------------------------------------
 Center     Atomic      Atomic             Coordinates (Angstroms)
 Number     Number       Type             X           Y           Z
 ---------------------------------------------------------------------
      1          8           0        2.130676   -0.536566   -0.000009
      2          8           0        0.859941   -0.920418   -0.000010
      3          6           0       -0.003074    0.225251    0.000002
      4         17           0       -1.646668   -0.412599   -0.000000
      5          9           0        0.227046    0.962151   -1.079790
      6          9           0        0.227050    0.962133    1.079806
 ---------------------------------------------------------------------

 SCF Done:  E(UHF) =  -846.317746873     A.U. after    2 cycles

 The electronic state is 2-A.
 Alpha  occ. eigenvalues -- -105.62136 -26.54227 -26.54224 -20.71636 -20.70388
 Alpha  occ. eigenvalues --  -11.57645 -10.67045  -7.83994  -7.83541  -7.83540
 Alpha  occ. eigenvalues --   -1.76581  -1.70319  -1.65366  -1.33469  -1.14039
 Alpha  occ. eigenvalues --   -0.94942  -0.84734  -0.84260  -0.80241  -0.77689
 Alpha  occ. eigenvalues --   -0.71922  -0.69567  -0.68579  -0.66501  -0.60598
 Alpha  occ. eigenvalues --   -0.55037  -0.54420  -0.51949  -0.51742
 Alpha virt. eigenvalues --    0.06903   0.09183   0.09680   0.09849   0.10859
 Alpha virt. eigenvalues --    0.14624   0.14742   0.16096   0.19459   0.20491
 Alpha virt. eigenvalues --    0.21568   0.23845   0.24174   0.26742   0.29561

  Beta  occ. eigenvalues -- -105.62142 -26.54223 -26.54220 -20.69810 -20.67481
  Beta  occ. eigenvalues --  -11.57687 -10.67052  -7.84015  -7.83552  -7.83541
  Beta  occ. eigenvalues --   -1.74705  -1.66313  -1.65349  -1.24696  -1.12930
  Beta  occ. eigenvalues --   -0.94469  -0.83516  -0.83303  -0.79898  -0.70931
  Beta  occ. eigenvalues --   -0.70670  -0.67160  -0.66687  -0.60133  -0.59718
  Beta  occ. eigenvalues --   -0.52317  -0.51865  -0.50727
  Beta virt. eigenvalues --    0.06929   0.07007   0.09268   0.09737   0.10358
  Beta virt. eigenvalues --    0.10858   0.14673   0.14851   0.16453   0.19494
  Beta virt. eigenvalues --    0.20594   0.22554   0.24102   0.27853   0.27909

 Mulliken charges and spin densities:
               1          2
     1  O   -0.184643   0.985846
     2  O   -0.668484   0.030358
     3  C    2.110933  -0.016330
     4  Cl  -0.067854  -0.004596
     5  F   -0.594976   0.002361
     6  F   -0.594976   0.002361
 Sum of Mulliken charges =  -0.00000   1.00000

 Dipole moment (field-independent basis, Debye):
    X=             -0.5947    Y=              0.0972    Z=              0.0000  Tot=              0.6026
                          Isotropic Fermi Contact Couplings
        Atom                 a.u.       MegaHertz       Gauss      10(-4) cm-1
     1  O(17)              0.26549    -160.94099     -57.42775     -53.68414
     2  O(17)              0.06029     -36.55001     -13.04195     -12.19177
     3  C(13)             -0.00803      -9.02947      -3.22194      -3.01191
     4  Cl(35)            -0.00299      -1.31062      -0.46766      -0.43718
     5  F(19)             -0.00196      -8.22815      -2.93601      -2.74462
     6  F(19)             -0.00196      -8.22813      -2.93600      -2.74461
 --------------------------------------------------------
       Center         ----  Spin Dipole Couplings  ----

 Normal termination of Gaussian 16 at Tue Apr  8 22:52:41 2025.
