 Gaussian 16, Revision C.01,

 ----------------------------------------------------------------------
 #t hf aug-cc-pvdz symm=none int=(grid=ultrafine) guess=(read,tcheck) s
 table=(opt,rrhf)
 ----------------------------------------------------------------------
 -----
 title
 -----
 Symbolic Z-matrix:
 Charge =  0 Multiplicity = 1

 SCF Done:  E(RHF) =  -916.529023355     A.U. after   13 cycles
 Normal termination of Gaussian 16 at Tue Apr  8 23:53:44 2025.
 Gaussian 16:  ES64L-G16RevC.01  3-Jul-2019

 ----------------------------------------------------------------------
 #t hf aug-cc-pvdz iop(5/13=1,5/36=2,99/5=2) pseudo=read geom=check gue
 ss=(read,tcheck) scf=(maxcycle=1)
 ----------------------------------------------------------------------
 -----
 title
 -----
 Structure from the checkpoint file:  "BDE49_nonexpt_1931_mol1.chk"
 Charge =  0 Multiplicity = 1

                         Standard orientation:
 ---------------------------------------------------------------------
 Center     Atomic      Atomic             Coordinates (Angstroms)
 Number     Number       Type             X           Y           Z
 ---------------------------------------------------------------------
      1         14           0        2.291202    0.031763    0.023033
      2          6           0        0.624827    0.927417   -0.236386
      3          1           0        2.557761   -0.124591    1.465169
      4          1           0        3.321518    0.911493   -0.575614
      5          1           0        2.292971   -1.273387   -0.662934
      6         16           0       -0.769187   -0.181890   -0.006283
      7          8           0       -0.925386   -0.962624   -1.217132
      8          6           0       -2.196584    0.905009    0.128700
      9          1           0       -2.086265    1.537708    1.008388
     10          1           0       -3.058611    0.246802    0.242027
     11          1           0       -2.289762    1.494064   -0.782978
     12          8           0       -0.595546   -0.837027    1.277175
     13          1           0        0.553684    1.340476   -1.244343
     14          1           0        0.536858    1.735645    0.494131
 ---------------------------------------------------------------------

 SCF Done:  E(RHF) =  -916.864052027     A.U. after    2 cycles

 The electronic state is 1-A.
 Alpha  occ. eigenvalues --  -94.19045 -69.54786 -20.53210 -20.53134 -11.28980
 Alpha  occ. eigenvalues --  -11.27839  -8.44378  -6.42503  -6.42273  -6.42207
 Alpha  occ. eigenvalues --   -6.21817  -3.97219  -3.97189  -3.97174  -1.55231
 Alpha  occ. eigenvalues --   -1.43295  -1.08780  -1.01325  -0.83716  -0.74557
 Alpha  occ. eigenvalues --   -0.70045  -0.67454  -0.66654  -0.62599  -0.61153
 Alpha  occ. eigenvalues --   -0.60282  -0.50852  -0.50377  -0.49680  -0.48578
 Alpha  occ. eigenvalues --   -0.48157  -0.45655  -0.43482
 Alpha virt. eigenvalues --    0.02690   0.03568   0.03999   0.04509   0.06149
 Alpha virt. eigenvalues --    0.06218   0.07279   0.08571   0.08775   0.09611
 Alpha virt. eigenvalues --    0.10360   0.11122   0.13277   0.14056   0.14393

 Mulliken charges:
               1
     1  Si   1.003923
     2  C   -1.011718
     3  H   -0.119727
     4  H   -0.186581
     5  H   -0.159505
     6  S    3.137357
     7  O   -1.521614
     8  C   -0.636092
     9  H    0.236941
    10  H    0.256631
    11  H    0.229331
    12  O   -1.545074
    13  H    0.161700
    14  H    0.154428
 Sum of Mulliken charges =   0.00000

 Dipole moment (field-independent basis, Debye):
    X=             -0.1153    Y=              4.8448    Z=             -0.1738  Tot=              4.8493

 Test job not archived.
 1\1\GINC-SE096\SP\RHF\Aug-CC-pVDZ\C2H8O2S1Si1\OHZDE\08-Apr-2025\0\\#t
 hf aug-cc-pvdz iop(5/13=1,5/36=2,99/5=2) pseudo=read geom=check guess=
 (read,tcheck) scf=(maxcycle=1)\\title\\0,1\Si,0,2.291202,0.031763,0.02
 3033\C,0,0.624827,0.927417,-0.236386\H,0,2.557761,-0.124591,1.465169\H
 ,0,3.321518,0.911493,-0.575614\H,0,2.292971,-1.273387,-0.662934\S,0,-0
 .769187,-0.18189,-0.006283\O,0,-0.925386,-0.962624,-1.217132\C,0,-2.19
 6584,0.905009,0.1287\H,0,-2.086265,1.537708,1.008388\H,0,-3.058611,0.2
 46802,0.242027\H,0,-2.289762,1.494064,-0.782978\O,0,-0.595546,-0.83702

 Normal termination of Gaussian 16 at Tue Apr  8 23:53:49 2025.
