 Gaussian 16, Revision C.01,

 ----------------------------------------------------------------------
 #t hf aug-cc-pvdz symm=none int=(grid=ultrafine) guess=(read,tcheck) s
 table=(opt,rrhf)
 ----------------------------------------------------------------------
 -----
 title
 -----
 Symbolic Z-matrix:
 Charge =  0 Multiplicity = 1

 SCF Done:  E(RHF) =  -963.019629237     A.U. after   14 cycles
 Normal termination of Gaussian 16 at Wed Apr  9 00:14:01 2025.
 Gaussian 16:  ES64L-G16RevC.01  3-Jul-2019

 ----------------------------------------------------------------------
 #t hf aug-cc-pvdz iop(5/13=1,5/36=2,99/5=2) pseudo=read geom=check gue
 ss=(read,tcheck) scf=(maxcycle=1)
 ----------------------------------------------------------------------
 -----
 title
 -----
 Structure from the checkpoint file:  "BDE49_nonexpt_2345_mol1.chk"
 Charge =  0 Multiplicity = 1

                         Standard orientation:
 ---------------------------------------------------------------------
 Center     Atomic      Atomic             Coordinates (Angstroms)
 Number     Number       Type             X           Y           Z
 ---------------------------------------------------------------------
      1         14           0       -1.629162    1.268819    0.485276
      2         14           0        0.462195    2.119193   -0.203985
      3          6           0        1.880678   -0.295463    0.345524
      4          8           0        1.217865   -0.285020    1.365913
      5          6           0        1.718488    0.785672   -0.706045
      6          1           0        1.390434    0.302341   -1.633398
      7          1           0        2.693083    1.236151   -0.929159
      8          1           0        1.014841    2.965920    0.881900
      9          1           0        0.257570    2.994478   -1.388839
     10          6           0       -2.212333   -0.246812   -0.537625
     11          1           0       -2.673011    2.307549    0.278279
     12          1           0       -1.631166    0.915600    1.923298
     13          6           0       -1.269284   -1.423957   -0.502513
     14          1           0       -3.201846   -0.515497   -0.156013
     15          1           0       -2.310151    0.087619   -1.573617
     16          8           0       -0.389261   -1.551673   -1.333508
     17          6           0        2.857227   -1.411967    0.052236
     18          1           0        3.009586   -2.019019    0.943993
     19          1           0        3.811873   -1.025699   -0.313781
     20          1           0        2.426035   -2.033373   -0.739535
     21          6           0       -1.426387   -2.411354    0.636096
     22          1           0       -1.086601   -1.938247    1.563292
     23          1           0       -0.811819   -3.290080    0.445207
     24          1           0       -2.470459   -2.703087    0.775015
 ---------------------------------------------------------------------

 SCF Done:  E(RHF) =  -963.481082963     A.U. after    2 cycles

 The electronic state is 1-A.
 Alpha  occ. eigenvalues --  -69.52887 -69.52309 -20.53735 -20.53156 -11.34614
 Alpha  occ. eigenvalues --  -11.34556 -11.24041 -11.24037 -11.23747 -11.23262
 Alpha  occ. eigenvalues --   -6.19929  -6.19408  -3.95280  -3.95264  -3.95241
 Alpha  occ. eigenvalues --   -3.94750  -3.94746  -3.94730  -1.47286  -1.46700
 Alpha  occ. eigenvalues --   -1.04671  -1.04388  -0.96922  -0.96393  -0.77564
 Alpha  occ. eigenvalues --   -0.75315  -0.72776  -0.67988  -0.65668  -0.65089
 Alpha  occ. eigenvalues --   -0.64758  -0.62951  -0.61856  -0.60023  -0.56935
 Alpha  occ. eigenvalues --   -0.56378  -0.55926  -0.54553  -0.51944  -0.49447
 Alpha  occ. eigenvalues --   -0.48658  -0.47517  -0.46287  -0.44880  -0.41575
 Alpha  occ. eigenvalues --   -0.40769  -0.39838
 Alpha virt. eigenvalues --    0.03251   0.03546   0.03820   0.04364   0.04951
 Alpha virt. eigenvalues --    0.05116   0.05800   0.06439   0.07209   0.07369
 Alpha virt. eigenvalues --    0.07576   0.08668   0.09176   0.09899   0.10151

 Mulliken charges:
               1
     1  Si   0.654179
     2  Si   0.533162
     3  C    1.167154
     4  O   -1.394289
     5  C   -0.729485
     6  H    0.360067
     7  H    0.116729
     8  H   -0.069336
     9  H   -0.116389
    10  C   -0.476992
    11  H   -0.188355
    12  H   -0.023426
    13  C    1.435939
    14  H   -0.014109
    15  H    0.110749
    16  O   -1.550267
    17  C   -0.495188
    18  H    0.146022
    19  H    0.204992
    20  H    0.293632
    21  C   -0.572668
    22  H    0.284938
    23  H    0.126262
    24  H    0.196680
 Sum of Mulliken charges =  -0.00000

 Dipole moment (field-independent basis, Debye):
    X=             -0.0937    Y=             -0.5669    Z=             -0.5352  Tot=              0.7853

 Test job not archived.
 1\1\GINC-SE127\SP\RHF\Aug-CC-pVDZ\C6H14O2Si2\OHZDE\09-Apr-2025\0\\#t h
 f aug-cc-pvdz iop(5/13=1,5/36=2,99/5=2) pseudo=read geom=check guess=(
 read,tcheck) scf=(maxcycle=1)\\title\\0,1\Si,0,1.629161,-1.26882,0.485
 276\Si,0,-0.462196,-2.119193,-0.203985\C,0,-1.880678,0.295464,0.345524
 \O,0,-1.217865,0.285021,1.365913\C,0,-1.718488,-0.785671,-0.706045\H,0
 ,-1.390434,-0.30234,-1.633398\H,0,-2.693083,-1.23615,-0.929159\H,0,-1.
 014842,-2.96592,0.8819\H,0,-0.257571,-2.994478,-1.388839\C,0,2.212333,
 0.246811,-0.537625\H,0,2.67301,-2.30755,0.278279\H,0,1.631166,-0.91560

 Normal termination of Gaussian 16 at Wed Apr  9 00:14:20 2025.
