 Gaussian 16, Revision C.01,

 ----------------------------------------------------------------------
 #t hf aug-cc-pvdz symm=none int=(grid=ultrafine) guess=(read,tcheck) s
 table=(opt,rrhf)
 ----------------------------------------------------------------------
 -----
 title
 -----
 Symbolic Z-matrix:
 Charge =  0 Multiplicity = 1

 SCF Done:  E(RHF) =  -1165.03960629     A.U. after   16 cycles
 Normal termination of Gaussian 16 at Wed Apr  9 00:50:52 2025.
 Gaussian 16:  ES64L-G16RevC.01  3-Jul-2019

 ----------------------------------------------------------------------
 #t hf aug-cc-pvdz iop(5/13=1,5/36=2,99/5=2) pseudo=read geom=check gue
 ss=(read,tcheck) scf=(maxcycle=1)
 ----------------------------------------------------------------------
 -----
 title
 -----
 Structure from the checkpoint file:  "BDE49_nonexpt_886_mol1.chk"
 Charge =  0 Multiplicity = 1

                         Standard orientation:
 ---------------------------------------------------------------------
 Center     Atomic      Atomic             Coordinates (Angstroms)
 Number     Number       Type             X           Y           Z
 ---------------------------------------------------------------------
      1         16           0       -2.987368   -1.453092    0.306730
      2         16           0       -2.749467    1.703695   -0.266073
      3          8           0        3.702639   -0.491368   -0.108236
      4          6           0        1.560715   -1.396037   -0.348416
      5          6           0        1.757258    0.940568    0.247973
      6          6           0        0.369142    1.034191    0.260957
      7          6           0        0.183411   -1.283965   -0.322373
      8          6           0       -0.462012   -0.064007   -0.019158
      9          6           0        2.362672   -0.282151   -0.061124
     10          6           0        4.576313    0.597961    0.166225
     11          5           0       -2.007944    0.057659    0.006805
     12          1           0       -0.075721    1.989839    0.516228
     13          1           0       -0.411174   -2.159034   -0.560744
     14          1           0        2.048544   -2.332518   -0.590160
     15          1           0        2.351009    1.814425    0.479778
     16          1           0        5.584403    0.199864    0.066656
     17          1           0        4.435868    1.413583   -0.550913
     18          1           0        4.435169    0.977095    1.183890
     19          1           0       -4.215654   -0.962196    0.074709
     20          1           0       -4.029485    1.412587    0.017395
 ---------------------------------------------------------------------

 SCF Done:  E(RHF) =  -1165.53438267     A.U. after    2 cycles

 The electronic state is 1-A.
 Alpha  occ. eigenvalues --  -93.95251 -93.95233 -20.58336 -11.32180 -11.30352
 Alpha  occ. eigenvalues --  -11.25988 -11.25691 -11.24398 -11.23915 -11.22563
 Alpha  occ. eigenvalues --   -8.23553  -8.23525  -7.65201  -6.21392  -6.21373
 Alpha  occ. eigenvalues --   -6.21232  -6.21209  -6.21077  -6.21060  -1.50823
 Alpha  occ. eigenvalues --   -1.15780  -1.05633  -1.03198  -1.01856  -0.99624
 Alpha  occ. eigenvalues --   -0.95433  -0.84922  -0.82843  -0.74432  -0.70411
 Alpha  occ. eigenvalues --   -0.68653  -0.66511  -0.64108  -0.61137  -0.60520
 Alpha  occ. eigenvalues --   -0.59730  -0.57222  -0.54055  -0.53647  -0.53204
 Alpha  occ. eigenvalues --   -0.49584  -0.49222  -0.48160  -0.43926  -0.42694
 Alpha  occ. eigenvalues --   -0.37661  -0.35707  -0.32393
 Alpha virt. eigenvalues --    0.03126   0.03590   0.03813   0.04547   0.04612
 Alpha virt. eigenvalues --    0.05303   0.05894   0.06956   0.07009   0.07352
 Alpha virt. eigenvalues --    0.07601   0.09427   0.09697   0.09980   0.10738

 Mulliken charges:
               1
     1  S   -0.667207
     2  S   -0.671058
     3  O   -1.859534
     4  C    0.266396
     5  C    0.184580
     6  C    0.064332
     7  C    0.416470
     8  C    0.195532
     9  C    1.778898
    10  C    0.156013
    11  B    0.802406
    12  H   -0.352077
    13  H   -0.373114
    14  H   -0.287918
    15  H   -0.416480
    16  H   -0.036088
    17  H    0.176970
    18  H    0.174997
    19  H    0.221268
    20  H    0.225614
 Sum of Mulliken charges =  -0.00000

 Dipole moment (field-independent basis, Debye):
    X=              1.1689    Y=              1.1756    Z=              0.3085  Tot=              1.6863

 Test job not archived.
 1\1\GINC-SE419\SP\RHF\Aug-CC-pVDZ\C7H9B1O1S2\OHZDE\09-Apr-2025\0\\#t h
 f aug-cc-pvdz iop(5/13=1,5/36=2,99/5=2) pseudo=read geom=check guess=(
 read,tcheck) scf=(maxcycle=1)\\title\\0,1\S,0,-2.987368,-1.453092,0.30
 673\S,0,-2.749467,1.703695,-0.266073\O,0,3.702639,-0.491368,-0.108236\
 C,0,1.560715,-1.396037,-0.348416\C,0,1.757258,0.940568,0.247973\C,0,0.
 369142,1.034191,0.260957\C,0,0.183411,-1.283965,-0.322373\C,0,-0.46201
 2,-0.064007,-0.019158\C,0,2.362672,-0.282151,-0.061124\C,0,4.576313,0.
 597961,0.166225\B,0,-2.007944,0.057659,0.006805\H,0,-0.075721,1.989839

 Normal termination of Gaussian 16 at Wed Apr  9 00:51:05 2025.
