 Gaussian 16, Revision C.01,

 ----------------------------------------------------------------------
 #t hf aug-cc-pvdz symm=none int=(grid=ultrafine) guess=(read,tcheck) s
 table=(opt,rrhf)
 ----------------------------------------------------------------------
 -----
 title
 -----
 Symbolic Z-matrix:
 Charge =  0 Multiplicity = 1

 SCF Done:  E(RHF) =  -555.511280549     A.U. after   14 cycles
 Normal termination of Gaussian 16 at Tue Apr  8 23:21:53 2025.
 Gaussian 16:  ES64L-G16RevC.01  3-Jul-2019

 ----------------------------------------------------------------------
 #t hf aug-cc-pvdz iop(5/13=1,5/36=2,99/5=2) pseudo=read geom=check gue
 ss=(read,tcheck) scf=(maxcycle=1)
 ----------------------------------------------------------------------
 -----
 title
 -----
 Structure from the checkpoint file:  "BDE49_nonexpt_1162_mol1.chk"
 Charge =  0 Multiplicity = 1

                         Standard orientation:
 ---------------------------------------------------------------------
 Center     Atomic      Atomic             Coordinates (Angstroms)
 Number     Number       Type             X           Y           Z
 ---------------------------------------------------------------------
      1          9           0       -1.363700    0.145201    1.846872
      2          8           0       -0.595996   -0.763794    1.034961
      3          6           0        0.016640    0.002359   -0.012938
      4          8           0        0.815788    0.946578    0.573718
      5          8           0       -0.891435    0.601429   -0.837501
      6          8           0        0.703556   -0.983850   -0.714641
      7          6           0        1.321338    1.969903   -0.296074
      8          1           0        2.052532    2.517140    0.296359
      9          1           0        0.520168    2.637789   -0.613344
     10          1           0        1.807362    1.534912   -1.173762
     11          6           0       -1.837428   -0.259337   -1.488135
     12          1           0       -2.487935    0.403302   -2.055679
     13          1           0       -2.423847   -0.810133   -0.750410
     14          1           0       -1.331214   -0.954334   -2.159565
     15          6           0        1.784076   -1.645347   -0.032092
     16          1           0        2.412897   -2.067337   -0.814767
     17          1           0        1.404373   -2.443132    0.608318
     18          1           0        2.355904   -0.933387    0.564147
 ---------------------------------------------------------------------

 SCF Done:  E(RHF) =  -556.062526950     A.U. after    2 cycles

 The electronic state is 1-A.
 Alpha  occ. eigenvalues --  -26.49934 -20.67109 -20.57748 -20.57399 -20.57164
 Alpha  occ. eigenvalues --  -11.47143 -11.29687 -11.29448 -11.29247  -1.66384
 Alpha  occ. eigenvalues --   -1.56759  -1.47233  -1.47069  -1.34904  -1.00237
 Alpha  occ. eigenvalues --   -0.96150  -0.95220  -0.82690  -0.76058  -0.75284
 Alpha  occ. eigenvalues --   -0.74671  -0.68499  -0.66888  -0.64139  -0.63074
 Alpha  occ. eigenvalues --   -0.62368  -0.61808  -0.60752  -0.59933  -0.57110
 Alpha  occ. eigenvalues --   -0.54350  -0.52188  -0.50894  -0.50037  -0.47085
 Alpha  occ. eigenvalues --   -0.46324  -0.45825
 Alpha virt. eigenvalues --    0.03509   0.04100   0.04212   0.04931   0.06132
 Alpha virt. eigenvalues --    0.06281   0.07025   0.07284   0.08746   0.10152
 Alpha virt. eigenvalues --    0.12629   0.13120   0.14020   0.14355   0.14942

 Mulliken charges:
               1
     1  F   -0.487549
     2  O   -0.722481
     3  C    4.500834
     4  O   -1.575983
     5  O   -1.531657
     6  O   -1.602699
     7  C    0.083223
     8  H   -0.001922
     9  H    0.183995
    10  H    0.201261
    11  C    0.042369
    12  H   -0.009435
    13  H    0.195395
    14  H    0.192781
    15  C    0.131927
    16  H    0.043411
    17  H    0.153804
    18  H    0.202726
 Sum of Mulliken charges =  -0.00000

 Dipole moment (field-independent basis, Debye):
    X=              1.5552    Y=             -0.2610    Z=             -2.2248  Tot=              2.7270

 Test job not archived.
 1\1\GINC-SE453\SP\RHF\Aug-CC-pVDZ\C4H9F1O4\OHZDE\08-Apr-2025\0\\#t hf
 aug-cc-pvdz iop(5/13=1,5/36=2,99/5=2) pseudo=read geom=check guess=(re
 ad,tcheck) scf=(maxcycle=1)\\title\\0,1\F,0,-1.3637,0.145201,1.846872\
 O,0,-0.595996,-0.763794,1.034961\C,0,0.01664,0.002359,-0.012938\O,0,0.
 815788,0.946578,0.573718\O,0,-0.891435,0.601429,-0.837501\O,0,0.703556
 ,-0.98385,-0.714641\C,0,1.321339,1.969902,-0.296074\H,0,2.052533,2.517
 139,0.296359\H,0,0.520169,2.637789,-0.613344\H,0,1.807363,1.534911,-1.
 173762\C,0,-1.837428,-0.259336,-1.488135\H,0,-2.487935,0.403303,-2.055

 Normal termination of Gaussian 16 at Tue Apr  8 23:22:01 2025.
