 Gaussian 16, Revision C.01,

 ----------------------------------------------------------------------
 #t hf aug-cc-pvdz symm=none int=(grid=ultrafine) guess=(read,tcheck) s
 table=(opt,rrhf)
 ----------------------------------------------------------------------
 -----
 title
 -----
 Symbolic Z-matrix:
 Charge =  0 Multiplicity = 1

 SCF Done:  E(RHF) =  -673.399870442     A.U. after   15 cycles
 Normal termination of Gaussian 16 at Wed Apr  9 00:04:23 2025.
 Gaussian 16:  ES64L-G16RevC.01  3-Jul-2019

 ----------------------------------------------------------------------
 #t hf aug-cc-pvdz iop(5/13=1,5/36=2,99/5=2) pseudo=read geom=check gue
 ss=(read,tcheck) scf=(maxcycle=1)
 ----------------------------------------------------------------------
 -----
 title
 -----
 Structure from the checkpoint file:  "BDE49_nonexpt_2120_mol1.chk"
 Charge =  0 Multiplicity = 1

                         Standard orientation:
 ---------------------------------------------------------------------
 Center     Atomic      Atomic             Coordinates (Angstroms)
 Number     Number       Type             X           Y           Z
 ---------------------------------------------------------------------
      1          7           0        0.104370   -1.717276   -0.201348
      2          7           0       -0.389509   -0.941770    0.635493
      3         14           0        1.824944   -1.443261   -0.650272
      4          6           0        2.682212   -0.006645    0.202258
      5          6           0        2.175389    1.395603   -0.184104
      6          1           0        3.754276   -0.095018   -0.022293
      7          1           0        2.587430   -0.151109    1.285407
      8          6           0        2.950893    2.523311    0.504873
      9          1           0        1.114945    1.472989    0.073175
     10          1           0        2.241524    1.523915   -1.270850
     11          1           0        2.872926    2.445107    1.593618
     12          1           0        2.568796    3.505801    0.212898
     13          1           0        4.013753    2.487733    0.245591
     14          6           0       -1.790701   -1.248478    0.987364
     15          6           0       -2.671069   -0.003939    0.835225
     16          1           0       -1.764483   -1.547150    2.042054
     17          1           0       -2.148064   -2.091145    0.383909
     18          6           0       -2.885561    0.428112   -0.619817
     19          1           0       -2.219217    0.816713    1.403818
     20          1           0       -3.640582   -0.211873    1.302038
     21          6           0       -3.783497    1.661539   -0.747723
     22          1           0       -3.322749   -0.405830   -1.181622
     23          1           0       -1.915560    0.632165   -1.085418
     24          1           0       -4.774332    1.476746   -0.320747
     25          1           0       -3.921430    1.946628   -1.794051
     26          1           0       -3.353112    2.520419   -0.223394
     27          1           0        1.801655   -1.274473   -2.122926
     28          1           0        2.484989   -2.729656   -0.324871
 ---------------------------------------------------------------------

 SCF Done:  E(RHF) =  -673.847825380     A.U. after    2 cycles

 The electronic state is 1-A.
 Alpha  occ. eigenvalues --  -69.53628 -15.56807 -15.52991 -11.25617 -11.23305
 Alpha  occ. eigenvalues --  -11.23304 -11.22814 -11.22387 -11.22300 -11.22063
 Alpha  occ. eigenvalues --   -6.20596  -3.95963  -3.95907  -3.95888  -1.34342
 Alpha  occ. eigenvalues --   -1.08995  -1.05872  -1.02031  -0.93787  -0.91844
 Alpha  occ. eigenvalues --   -0.84147  -0.81080  -0.79161  -0.73715  -0.66531
 Alpha  occ. eigenvalues --   -0.64634  -0.63221  -0.62750  -0.61858  -0.58548
 Alpha  occ. eigenvalues --   -0.57683  -0.55737  -0.54736  -0.54009  -0.53596
 Alpha  occ. eigenvalues --   -0.51824  -0.49485  -0.48565  -0.47990  -0.47693
 Alpha  occ. eigenvalues --   -0.47514  -0.45578  -0.44201  -0.39268
 Alpha virt. eigenvalues --    0.03386   0.03652   0.03757   0.03950   0.04164
 Alpha virt. eigenvalues --    0.04484   0.04852   0.05574   0.06091   0.07197
 Alpha virt. eigenvalues --    0.07266   0.07675   0.07804   0.08330   0.08597

 Mulliken charges:
               1
     1  N   -0.335453
     2  N    0.033403
     3  Si   1.128712
     4  C   -0.563498
     5  C   -0.294401
     6  H    0.033756
     7  H    0.178348
     8  C   -0.414879
     9  H    0.131394
    10  H    0.089571
    11  H    0.177233
    12  H    0.123924
    13  H    0.150485
    14  C   -0.481314
    15  C   -0.228681
    16  H    0.112282
    17  H    0.112334
    18  C   -0.189271
    19  H    0.129642
    20  H    0.132799
    21  C   -0.433130
    22  H    0.094704
    23  H    0.155163
    24  H    0.158722
    25  H    0.122042
    26  H    0.178812
    27  H   -0.115578
    28  H   -0.187122
 Sum of Mulliken charges =  -0.00000

 Dipole moment (field-independent basis, Debye):
    X=             -0.1311    Y=              0.8687    Z=              0.5180  Tot=              1.0199

 Test job not archived.
 1\1\GINC-SE461\SP\RHF\Aug-CC-pVDZ\C7H18N2Si1\OHZDE\09-Apr-2025\0\\#t h
 f aug-cc-pvdz iop(5/13=1,5/36=2,99/5=2) pseudo=read geom=check guess=(
 read,tcheck) scf=(maxcycle=1)\\title\\0,1\N,0,0.10437,-1.717276,-0.201
 348\N,0,-0.389509,-0.94177,0.635493\Si,0,1.824944,-1.443261,-0.650272\
 C,0,2.682212,-0.006645,0.202258\C,0,2.175389,1.395603,-0.184104\H,0,3.
 754276,-0.095018,-0.022293\H,0,2.58743,-0.151109,1.285407\C,0,2.950893
 ,2.523311,0.504873\H,0,1.114945,1.472989,0.073175\H,0,2.241524,1.52391
 5,-1.27085\H,0,2.872926,2.445107,1.593618\H,0,2.568796,3.505801,0.2128

 Normal termination of Gaussian 16 at Wed Apr  9 00:04:43 2025.
