 Gaussian 16, Revision C.01,

 ----------------------------------------------------------------------
 #t hf aug-cc-pvdz symm=none int=(grid=ultrafine) guess=(read,tcheck) s
 table=(opt,rrhf)
 ----------------------------------------------------------------------
 -----
 title
 -----
 Symbolic Z-matrix:
 Charge =  0 Multiplicity = 1

 SCF Done:  E(RHF) =  -896.803000218     A.U. after   16 cycles
 Normal termination of Gaussian 16 at Tue Apr  8 22:54:08 2025.
 Gaussian 16:  ES64L-G16RevC.01  3-Jul-2019

 ----------------------------------------------------------------------
 #t hf aug-cc-pvdz iop(5/13=1,5/36=2,99/5=2) pseudo=read geom=check gue
 ss=(read,tcheck) scf=(maxcycle=1)
 ----------------------------------------------------------------------
 -----
 title
 -----
 Structure from the checkpoint file:  "BDE49_expt_1585_mol1.chk"
 Charge =  0 Multiplicity = 1

                         Standard orientation:
 ---------------------------------------------------------------------
 Center     Atomic      Atomic             Coordinates (Angstroms)
 Number     Number       Type             X           Y           Z
 ---------------------------------------------------------------------
      1          6           0       -4.138805   -0.266122   -0.137084
      2          6           0       -2.997468   -1.037526    0.042015
      3          6           0       -4.037625    1.110802   -0.337014
      4          6           0       -2.779592    1.704273   -0.350622
      5          6           0       -1.627095    0.940924   -0.165611
      6          6           0       -1.728620   -0.440188    0.028734
      7          1           0       -3.085849   -2.108825    0.186558
      8          1           0       -5.111667   -0.744908   -0.125299
      9          1           0       -4.928777    1.710725   -0.479254
     10          1           0       -2.684658    2.773993   -0.501817
     11          1           0       -0.663467    1.431998   -0.163058
     12         16           0       -0.346694   -1.538941    0.270694
     13          6           0        1.125998   -0.483506    0.002632
     14          6           0        2.332942   -1.370166   -0.171132
     15          6           0        1.437056    0.461437    1.136500
     16          1           0        0.972594    0.083698   -0.922675
     17          6           0        2.361790    1.432847    0.992152
     18          6           0        3.490630   -0.870042   -0.647255
     19          6           0        3.774382    0.529412   -0.857290
     20          6           0        3.268419    1.561703   -0.123691
     21          1           0        2.251863   -2.423344    0.078869
     22          1           0        4.296512   -1.565147   -0.867628
     23          1           0        0.887231    0.347565    2.064579
     24          1           0        2.470272    2.162760    1.790375
     25          1           0        4.562474    0.762996   -1.567755
     26          1           0        3.688499    2.548459   -0.297992
 ---------------------------------------------------------------------

 SCF Done:  E(RHF) =  -897.375524595     A.U. after    2 cycles

 The electronic state is 1-A.
 Alpha  occ. eigenvalues --  -93.95502 -11.28674 -11.28067 -11.26050 -11.25748
 Alpha  occ. eigenvalues --  -11.25494 -11.25390 -11.24831 -11.24818 -11.24715
 Alpha  occ. eigenvalues --  -11.24656 -11.24591 -11.24570 -11.24178  -8.23613
 Alpha  occ. eigenvalues --   -6.21443  -6.21268  -6.21060  -1.17213  -1.15391
 Alpha  occ. eigenvalues --   -1.08736  -1.05348  -1.03853  -1.02121  -0.96801
 Alpha  occ. eigenvalues --   -0.89138  -0.87612  -0.84033  -0.81111  -0.75793
 Alpha  occ. eigenvalues --   -0.72357  -0.71101  -0.69794  -0.65135  -0.64928
 Alpha  occ. eigenvalues --   -0.64265  -0.63974  -0.60592  -0.59642  -0.57667
 Alpha  occ. eigenvalues --   -0.55728  -0.54485  -0.52581  -0.51529  -0.51079
 Alpha  occ. eigenvalues --   -0.49761  -0.46233  -0.45018  -0.41086  -0.36904
 Alpha  occ. eigenvalues --   -0.35142  -0.32506  -0.30876
 Alpha virt. eigenvalues --    0.02919   0.03113   0.03591   0.03859   0.04285
 Alpha virt. eigenvalues --    0.04682   0.05498   0.05898   0.06364   0.06888
 Alpha virt. eigenvalues --    0.07539   0.08066   0.09360   0.09799   0.10548

 Mulliken charges:
               1
     1  C    0.344863
     2  C   -0.199942
     3  C    0.188916
     4  C    0.284139
     5  C    0.381850
     6  C    0.113236
     7  H   -0.268591
     8  H   -0.232601
     9  H   -0.221955
    10  H   -0.265170
    11  H   -0.329072
    12  S    0.770658
    13  C   -1.466741
    14  C    0.643149
    15  C    0.476352
    16  H    0.282705
    17  C    0.363601
    18  C    0.548746
    19  C    0.044966
    20  C   -0.036652
    21  H   -0.237415
    22  H   -0.237111
    23  H   -0.235886
    24  H   -0.242492
    25  H   -0.239446
    26  H   -0.230105
 Sum of Mulliken charges =   0.00000

 Dipole moment (field-independent basis, Debye):
    X=              0.6373    Y=              1.3462    Z=             -0.1689  Tot=              1.4990

 Test job not archived.
 1\1\GINC-SE165\SP\RHF\Aug-CC-pVDZ\C13H12S1\OHZDE\08-Apr-2025\0\\#t hf
 aug-cc-pvdz iop(5/13=1,5/36=2,99/5=2) pseudo=read geom=check guess=(re
 ad,tcheck) scf=(maxcycle=1)\\title\\0,1\C,0,-4.138805,-0.266122,-0.137
 084\C,0,-2.997468,-1.037526,0.042015\C,0,-4.037625,1.110802,-0.337014\
 C,0,-2.779592,1.704273,-0.350622\C,0,-1.627095,0.940924,-0.165611\C,0,
 -1.72862,-0.440188,0.028734\H,0,-3.085849,-2.108825,0.186558\H,0,-5.11
 1667,-0.744908,-0.125299\H,0,-4.928777,1.710725,-0.479254\H,0,-2.68465
 8,2.773993,-0.501817\H,0,-0.663467,1.431998,-0.163058\S,0,-0.346694,-1

 Normal termination of Gaussian 16 at Tue Apr  8 22:54:36 2025.
