 Gaussian 16, Revision C.01,

 ----------------------------------------------------------------------
 #t hf aug-cc-pvdz symm=none int=(grid=ultrafine) guess=(read,tcheck) s
 table=(opt,rrhf)
 ----------------------------------------------------------------------
 -----
 title
 -----
 Symbolic Z-matrix:
 Charge =  0 Multiplicity = 1

 SCF Done:  E(RHF) =  -1038.49249369     A.U. after   12 cycles
 Normal termination of Gaussian 16 at Tue Apr  8 23:41:13 2025.
 Gaussian 16:  ES64L-G16RevC.01  3-Jul-2019

 ----------------------------------------------------------------------
 #t hf aug-cc-pvdz iop(5/13=1,5/36=2,99/5=2) pseudo=read geom=check gue
 ss=(read,tcheck) scf=(maxcycle=1)
 ----------------------------------------------------------------------
 -----
 title
 -----
 Structure from the checkpoint file:  "BDE49_nonexpt_164_mol1.chk"
 Charge =  0 Multiplicity = 1

                         Standard orientation:
 ---------------------------------------------------------------------
 Center     Atomic      Atomic             Coordinates (Angstroms)
 Number     Number       Type             X           Y           Z
 ---------------------------------------------------------------------
      1         17           0       -1.836753   -0.650681    0.000010
      2         17           0        0.183248    1.651500    0.000004
      3          7           0        0.879929   -1.038326   -0.000013
      4          5           0       -0.137999   -0.099711   -0.000028
      5          6           0        2.323457   -0.824027   -0.000002
      6          1           0        0.600788   -2.009891   -0.000006
      7          1           0        2.534012    0.243445   -0.000015
      8          1           0        2.782277   -1.268256   -0.888033
      9          1           0        2.782261   -1.268232    0.888050
 ---------------------------------------------------------------------

 SCF Done:  E(RHF) =  -1038.77167791     A.U. after    2 cycles

 The electronic state is 1-A.
 Alpha  occ. eigenvalues -- -105.56435-105.56195 -15.52313 -11.28328 -10.61448
 Alpha  occ. eigenvalues --  -10.61190  -7.78344  -7.78089  -7.78047  -7.78032
 Alpha  occ. eigenvalues --   -7.77793  -7.77779  -7.70474  -1.22893  -1.08396
 Alpha  occ. eigenvalues --   -1.04681  -0.95276  -0.77499  -0.68703  -0.63517
 Alpha  occ. eigenvalues --   -0.63250  -0.56736  -0.55333  -0.52997  -0.48940
 Alpha  occ. eigenvalues --   -0.46988  -0.45402  -0.44252
 Alpha virt. eigenvalues --    0.03004   0.04833   0.05001   0.05788   0.06792
 Alpha virt. eigenvalues --    0.07064   0.07137   0.08374   0.13092   0.13103
 Alpha virt. eigenvalues --    0.13953   0.14499   0.14784   0.16573   0.16999

 Mulliken charges:
               1
     1  Cl  -0.386300
     2  Cl  -0.344240
     3  N    0.428937
     4  B    0.414705
     5  C   -0.502859
     6  H    0.062975
     7  H    0.070278
     8  H    0.128252
     9  H    0.128252
 Sum of Mulliken charges =   0.00000

 Dipole moment (field-independent basis, Debye):
    X=              2.4310    Y=             -1.8210    Z=             -0.0000  Tot=              3.0374

 Test job not archived.
 1\1\GINC-SE103\SP\RHF\Aug-CC-pVDZ\C1H4B1Cl2N1\OHZDE\08-Apr-2025\0\\#t
 hf aug-cc-pvdz iop(5/13=1,5/36=2,99/5=2) pseudo=read geom=check guess=
 (read,tcheck) scf=(maxcycle=1)\\title\\0,1\Cl,0,-1.836753,-0.65068,0.0
 0001\Cl,0,0.183248,1.6515,0.000004\N,0,0.879929,-1.038326,-0.000013\B,
 0,-0.137999,-0.099711,-0.000028\C,0,2.323457,-0.824027,-0.000002\H,0,0
 .600788,-2.009891,-0.000006\H,0,2.534012,0.243445,-0.000015\H,0,2.7822
 77,-1.268257,-0.888033\H,0,2.782261,-1.268233,0.88805\\Version=ES64L-G
 16RevC.01\State=1-A\HF=-1038.7716779\RMSD=7.204e-03\Dipole=0.9564145,-

 Normal termination of Gaussian 16 at Tue Apr  8 23:41:16 2025.
