 Gaussian 16, Revision C.01,

 ----------------------------------------------------------------------
 #t hf aug-cc-pvdz symm=none int=(grid=ultrafine) guess=(read,tcheck) s
 table=(opt,rrhf)
 ----------------------------------------------------------------------
 -----
 title
 -----
 Symbolic Z-matrix:
 Charge =  0 Multiplicity = 1

 SCF Done:  E(RHF) =  -1428.58280814     A.U. after   12 cycles

 1\1\GINC-SE367\Stability\RHF\Aug-CC-pVDZ\B2Cl3H1\OHZDE\08-Apr-2025\0\\
 #t hf aug-cc-pvdz symm=none int=(grid=ultrafine) guess=(read,tcheck) s
 table=(opt,rrhf)\\title\\0,1\B,0,1.05858,-0.000003,0.842969\B,0,-0.503
 156,0.,0.225836\Cl,0,-1.335809,1.518709,-0.088596\Cl,0,-1.335815,-1.51
 8706,-0.088596\Cl,0,2.43123,-0.000002,-0.255076\H,0,1.309576,-0.000001
 ,2.004533\\Version=ES64L-G16RevC.01\HF=-1428.5828081\RMSD=4.173e-09\Di
 pole=0.0296222,-0.000001,0.3647216\Quadrupole=-1.997886,0.3717035,1.62
 61825,-0.0000039,0.1175973,-0.000004\PG=Unknown\\@

 Normal termination of Gaussian 16 at Tue Apr  8 23:30:59 2025.
 Gaussian 16:  ES64L-G16RevC.01  3-Jul-2019

 ----------------------------------------------------------------------
 #t hf aug-cc-pvdz iop(5/13=1,5/36=2,99/5=2) pseudo=read geom=check gue
 ss=(read,tcheck) scf=(maxcycle=1)
 ----------------------------------------------------------------------
 -----
 title
 -----
 Structure from the checkpoint file:  "BDE49_nonexpt_13_mol1.chk"
 Charge =  0 Multiplicity = 1

                         Standard orientation:
 ---------------------------------------------------------------------
 Center     Atomic      Atomic             Coordinates (Angstroms)
 Number     Number       Type             X           Y           Z
 ---------------------------------------------------------------------
      1          5           0        1.058580   -0.000003    0.842969
      2          5           0       -0.503156   -0.000000    0.225836
      3         17           0       -1.335809    1.518709   -0.088596
      4         17           0       -1.335815   -1.518706   -0.088596
      5         17           0        2.431230   -0.000002   -0.255076
      6          1           0        1.309576   -0.000001    2.004533
 ---------------------------------------------------------------------

 SCF Done:  E(RHF) =  -1428.85773123     A.U. after    2 cycles

 The electronic state is 1-A.
 Alpha  occ. eigenvalues -- -105.58917-105.58917-105.58277 -10.63937 -10.63911
 Alpha  occ. eigenvalues --  -10.63275  -7.80824  -7.80803  -7.80536  -7.80531
 Alpha  occ. eigenvalues --   -7.80491  -7.80483  -7.80162  -7.79901  -7.79833
 Alpha  occ. eigenvalues --   -7.71543  -7.66993  -1.12077  -1.08665  -1.06957
 Alpha  occ. eigenvalues --   -0.76649  -0.67627  -0.59677  -0.59464  -0.57533
 Alpha  occ. eigenvalues --   -0.53141  -0.50721  -0.49769  -0.48880  -0.47743
 Alpha  occ. eigenvalues --   -0.43263
 Alpha virt. eigenvalues --    0.03621   0.03856   0.04539   0.04696   0.06335
 Alpha virt. eigenvalues --    0.06888   0.07187   0.07536   0.07712   0.10535
 Alpha virt. eigenvalues --    0.13223   0.13812   0.14622   0.15200   0.15994

 Mulliken charges:
               1
     1  B    0.154742
     2  B    0.579429
     3  Cl  -0.316991
     4  Cl  -0.316992
     5  Cl  -0.319135
     6  H    0.218947
 Sum of Mulliken charges =  -0.00000

 Dipole moment (field-independent basis, Debye):
    X=              0.0651    Y=             -0.0000    Z=              0.9026  Tot=              0.9049

 Test job not archived.
 1\1\GINC-SE367\SP\RHF\Aug-CC-pVDZ\B2Cl3H1\OHZDE\08-Apr-2025\0\\#t hf a
 ug-cc-pvdz iop(5/13=1,5/36=2,99/5=2) pseudo=read geom=check guess=(rea
 d,tcheck) scf=(maxcycle=1)\\title\\0,1\B,0,1.05858,-0.000003,0.842969\
 B,0,-0.503156,0.,0.225836\Cl,0,-1.335809,1.518709,-0.088596\Cl,0,-1.33
 5815,-1.518706,-0.088596\Cl,0,2.43123,-0.000002,-0.255076\H,0,1.309576
 ,-0.000001,2.004533\\Version=ES64L-G16RevC.01\State=1-A\HF=-1428.85773
 12\RMSD=1.496e-02\Dipole=0.0255998,-0.0000009,0.3551014\Quadrupole=-1.
 9113858,0.3909506,1.5204352,-0.0000037,0.1181367,-0.000004\PG=C01 [X(B

 Normal termination of Gaussian 16 at Tue Apr  8 23:31:02 2025.
