 Gaussian 16, Revision C.01,

 ----------------------------------------------------------------------
 #t hf aug-cc-pvdz symm=none int=(grid=ultrafine) guess=(read,tcheck) s
 table=opt
 ----------------------------------------------------------------------
 -----
 title
 -----
 Symbolic Z-matrix:
 Charge =  0 Multiplicity = 2

 SCF Done:  E(UHF) =  -751.576444579     A.U. after   18 cycles
 Normal termination of Gaussian 16 at Wed Apr  9 00:08:05 2025.
 Gaussian 16:  ES64L-G16RevC.01  3-Jul-2019

 ----------------------------------------------------------------------
 #t hf aug-cc-pvdz iop(5/13=1,5/36=2,99/5=2) pseudo=read geom=check gue
 ss=(read,tcheck) scf=(maxcycle=1)
 ----------------------------------------------------------------------
 -----
 title
 -----
 Structure from the checkpoint file:  "BDE49_nonexpt_226_mol2.chk"
 Charge =  0 Multiplicity = 2

                         Standard orientation:
 ---------------------------------------------------------------------
 Center     Atomic      Atomic             Coordinates (Angstroms)
 Number     Number       Type             X           Y           Z
 ---------------------------------------------------------------------
      1         17           0       -2.614773   -0.008202   -0.012679
      2          5           0       -1.019298   -0.645876   -0.247879
      3          6           0        0.293769   -0.015492    0.399402
      4          8           0        0.695452    0.976128   -0.524058
      5          8           0        1.311144   -0.940115    0.712255
      6          6           0        1.575679    1.957194    0.024598
      7          1           0        1.071503    2.540647    0.805006
      8          1           0        1.856690    2.619304   -0.793832
      9          1           0        2.471654    1.490789    0.444800
     10          6           0        1.823089   -1.673919   -0.399519
     11          1           0        2.530813   -2.394367    0.009026
     12          1           0        2.334212   -1.018149   -1.110168
     13          1           0        1.020142   -2.205696   -0.924469
     14          1           0        0.054631    0.441485    1.372112
 ---------------------------------------------------------------------

 SCF Done:  E(UHF) =  -751.947290516     A.U. after    2 cycles

 The electronic state is 2-A.
 Alpha  occ. eigenvalues -- -105.58059 -20.56304 -20.55590 -11.33724 -11.29039
 Alpha  occ. eigenvalues --  -11.28335 -10.63072  -7.80003  -7.79692  -7.79636
 Alpha  occ. eigenvalues --   -7.68131  -1.50436  -1.44052  -1.09262  -0.99320
 Alpha  occ. eigenvalues --   -0.94506  -0.85937  -0.72582  -0.70380  -0.68744
 Alpha  occ. eigenvalues --   -0.64233  -0.61975  -0.61061  -0.58386  -0.54389
 Alpha  occ. eigenvalues --   -0.53368  -0.51332  -0.50335  -0.47382  -0.44602
 Alpha  occ. eigenvalues --   -0.44117  -0.34921
 Alpha virt. eigenvalues --    0.03623   0.03970   0.04134   0.04430   0.05513
 Alpha virt. eigenvalues --    0.06464   0.06610   0.07061   0.07510   0.08320
 Alpha virt. eigenvalues --    0.09720   0.10803   0.13114   0.14271   0.14983

  Beta  occ. eigenvalues -- -105.57989 -20.56307 -20.55617 -11.33563 -11.29040
  Beta  occ. eigenvalues --  -11.28293 -10.62990  -7.79888  -7.79661  -7.79446
  Beta  occ. eigenvalues --   -7.66123  -1.50405  -1.44076  -1.08282  -0.98962
  Beta  occ. eigenvalues --   -0.94401  -0.85222  -0.70821  -0.70091  -0.68626
  Beta  occ. eigenvalues --   -0.63116  -0.61239  -0.60931  -0.57584  -0.53871
  Beta  occ. eigenvalues --   -0.53160  -0.50368  -0.49149  -0.46740  -0.44430
  Beta  occ. eigenvalues --   -0.43101
  Beta virt. eigenvalues --    0.03283   0.04015   0.04147   0.04264   0.06239
  Beta virt. eigenvalues --    0.06525   0.06661   0.06931   0.07429   0.08436
  Beta virt. eigenvalues --    0.09715   0.09852   0.12048   0.14143   0.14506

 Mulliken charges and spin densities:
               1          2
     1  Cl  -0.222031   0.004743
     2  B    0.097165   1.033298
     3  C    1.722266  -0.017767
     4  O   -1.282741   0.006981
     5  O   -1.368430  -0.011368
     6  C    0.188308  -0.002621
     7  H    0.138830   0.001981
     8  H    0.001125   0.000406
     9  H    0.196590  -0.002002
    10  C    0.154770   0.013329
    11  H   -0.014382  -0.000652
    12  H    0.182340   0.000626
    13  H    0.178027  -0.017350
    14  H    0.028162  -0.009604
 Sum of Mulliken charges =  -0.00000   1.00000

 Dipole moment (field-independent basis, Debye):
    X=              1.3055    Y=              0.5410    Z=              0.1230  Tot=              1.4185
                          Isotropic Fermi Contact Couplings
        Atom                 a.u.       MegaHertz       Gauss      10(-4) cm-1
     1  Cl(35)             0.07087      31.07601      11.08869      10.36584
     2  B(11)              0.32658     468.43288     167.14850     156.25239
     3  C(13)              0.02642      29.70495      10.59947       9.90851
     4  O(17)             -0.00339       2.05333       0.73268       0.68492
     5  O(17)              0.00387      -2.34516      -0.83681      -0.78226
     6  C(13)              0.00039       0.43953       0.15684       0.14661
     7  H(1)               0.00020       0.89847       0.32060       0.29970
     8  H(1)               0.00030       1.31877       0.47057       0.43989

 1\1\GINC-SE338\SP\UHF\Aug-CC-pVDZ\C3H7B1Cl1O2(2)\OHZDE\09-Apr-2025\0\\
 #t hf aug-cc-pvdz iop(5/13=1,5/36=2,99/5=2) pseudo=read geom=check gue
 ss=(read,tcheck) scf=(maxcycle=1)\\title\\0,2\Cl,0,-2.614773,-0.008202
 ,-0.012679\B,0,-1.019298,-0.645876,-0.247879\C,0,0.293769,-0.015492,0.
 399402\O,0,0.695452,0.976128,-0.524058\O,0,1.311144,-0.940115,0.712255
 \C,0,1.575679,1.957194,0.024598\H,0,1.071503,2.540647,0.805006\H,0,1.8
 5669,2.619304,-0.793832\H,0,2.471654,1.490789,0.4448\C,0,1.823089,-1.6
 73919,-0.399519\H,0,2.530813,-2.394367,0.009026\H,0,2.334212,-1.018149

 Normal termination of Gaussian 16 at Wed Apr  9 00:08:10 2025.
