 Gaussian 16, Revision C.01,

 ----------------------------------------------------------------------
 #t hf aug-cc-pvdz symm=none int=(grid=ultrafine) guess=(read,tcheck) s
 table=opt
 ----------------------------------------------------------------------
 -----
 title
 -----
 Symbolic Z-matrix:
 Charge =  0 Multiplicity = 2

 SCF Done:  E(UHF) =  -524.874912074     A.U. after   15 cycles
 Normal termination of Gaussian 16 at Tue Apr  8 23:13:37 2025.
 Gaussian 16:  ES64L-G16RevC.01  3-Jul-2019

 ----------------------------------------------------------------------
 #t hf aug-cc-pvdz iop(5/13=1,5/36=2,99/5=2) pseudo=read geom=check gue
 ss=(read,tcheck) scf=(maxcycle=1)
 ----------------------------------------------------------------------
 -----
 title
 -----
 Structure from the checkpoint file:  "BDE49_expt_801_mol2.chk"
 Charge =  0 Multiplicity = 2

                         Standard orientation:
 ---------------------------------------------------------------------
 Center     Atomic      Atomic             Coordinates (Angstroms)
 Number     Number       Type             X           Y           Z
 ---------------------------------------------------------------------
      1         14           0       -0.566334    0.199147    0.000000
      2          6           0       -0.640967   -0.899585    1.550810
      3          6           0       -0.640967   -0.152216    2.894849
      4          1           0       -0.689315   -0.845914    3.739714
      5          1           0       -1.496894    0.524067    2.974341
      6          1           0        0.262942    0.450761    3.021192
      7          1           0        0.209607   -1.595154    1.510774
      8          1           0       -1.536867   -1.526180    1.472489
      9          6           0       -0.640967   -0.899585   -1.550810
     10          6           0       -0.640967   -0.152216   -2.894849
     11          1           0        0.262942    0.450761   -3.021192
     12          1           0       -1.496894    0.524067   -2.974341
     13          1           0       -0.689315   -0.845914   -3.739714
     14          1           0       -1.536867   -1.526180   -1.472489
     15          1           0        0.209607   -1.595154   -1.510774
     16          6           0        0.989682    1.294834   -0.000000
     17          6           0        2.327072    0.525556   -0.000000
     18          1           0        2.424460   -0.114504   -0.881532
     19          1           0        2.424460   -0.114504    0.881532
     20          1           0        3.180134    1.211888   -0.000000
     21          1           0        0.941681    1.956588    0.871981
     22          1           0        0.941681    1.956588   -0.871981
 ---------------------------------------------------------------------

 SCF Done:  E(UHF) =  -525.171690277     A.U. after    2 cycles

 The electronic state is 2-A'.
 Alpha  occ. eigenvalues --  -69.50971 -11.22953 -11.22654 -11.22654 -11.21605
 Alpha  occ. eigenvalues --  -11.21603 -11.21558  -6.18100  -3.94000  -3.93127
 Alpha  occ. eigenvalues --   -3.93115  -1.03633  -1.01350  -1.01029  -0.86347
 Alpha  occ. eigenvalues --   -0.84032  -0.82767  -0.65990  -0.61735  -0.61582
 Alpha  occ. eigenvalues --   -0.59727  -0.57903  -0.57561  -0.54610  -0.52965
 Alpha  occ. eigenvalues --   -0.51549  -0.50889  -0.50148  -0.49858  -0.48910
 Alpha  occ. eigenvalues --   -0.41505  -0.41419  -0.30038
 Alpha virt. eigenvalues --    0.03483   0.03540   0.03721   0.03829   0.05404
 Alpha virt. eigenvalues --    0.05749   0.06102   0.06150   0.06388   0.08318
 Alpha virt. eigenvalues --    0.08449   0.08853   0.09235   0.09905   0.10084

  Beta  occ. eigenvalues --  -69.50454 -11.22867 -11.22655 -11.22654 -11.21536
  Beta  occ. eigenvalues --  -11.21534 -11.21482  -6.17317  -3.92786  -3.92773
  Beta  occ. eigenvalues --   -3.91951  -1.03130  -1.01211  -1.00777  -0.85658
  Beta  occ. eigenvalues --   -0.83756  -0.82571  -0.63655  -0.61624  -0.60781
  Beta  occ. eigenvalues --   -0.59439  -0.57796  -0.57365  -0.54020  -0.51926
  Beta  occ. eigenvalues --   -0.51128  -0.50813  -0.49837  -0.49762  -0.48738
  Beta  occ. eigenvalues --   -0.40766  -0.40691
  Beta virt. eigenvalues --    0.03168   0.03548   0.03573   0.03732   0.05373
  Beta virt. eigenvalues --    0.05754   0.05834   0.06119   0.06351   0.07963
  Beta virt. eigenvalues --    0.08395   0.08521   0.08864   0.09445   0.09974

 Mulliken charges and spin densities:
               1          2
     1  Si   1.666894   1.119219
     2  C   -0.432689  -0.056323
     3  C   -0.589730   0.030899
     4  H    0.111139  -0.001086
     5  H    0.142132  -0.001171
     6  H    0.109945  -0.005384
     7  H    0.142846  -0.000150
     8  H   -0.017481  -0.015621
     9  C   -0.432689  -0.056323
    10  C   -0.589730   0.030899
    11  H    0.109945  -0.005384
    12  H    0.142132  -0.001171
    13  H    0.111139  -0.001086
    14  H   -0.017481  -0.015621
    15  H    0.142846  -0.000150
    16  C   -0.531181  -0.016717
    17  C   -0.471442   0.018133
    18  H    0.122933  -0.003483
    19  H    0.122933  -0.003483
    20  H    0.084439   0.004173
    21  H    0.036550  -0.010085
    22  H    0.036550  -0.010085
 Sum of Mulliken charges =  -0.00000   1.00000

 Dipole moment (field-independent basis, Debye):
    X=              0.5347    Y=             -0.4556    Z=              0.0000  Tot=              0.7025
                          Isotropic Fermi Contact Couplings
        Atom                 a.u.       MegaHertz       Gauss      10(-4) cm-1
     1  Si(29)             0.52240    -464.27495    -165.66485    -154.86545
     2  C(13)              0.01602      18.01130       6.42688       6.00792
     3  C(13)              0.00102       1.14179       0.40742       0.38086
     4  H(1)              -0.00045      -2.00568      -0.71568      -0.66902
     5  H(1)              -0.00025      -1.13233      -0.40404      -0.37770
     6  H(1)              -0.00007      -0.31667      -0.11300      -0.10563
     7  H(1)               0.00705      31.51085      11.24385      10.51089
     8  H(1)               0.00003       0.12599       0.04496       0.04202

 Normal termination of Gaussian 16 at Tue Apr  8 23:13:45 2025.
