 Gaussian 16, Revision C.01,

 ----------------------------------------------------------------------
 #t hf aug-cc-pvdz symm=none int=(grid=ultrafine) guess=(read,tcheck) s
 table=(opt,rrhf)
 ----------------------------------------------------------------------
 -----
 title
 -----
 Symbolic Z-matrix:
 Charge =  0 Multiplicity = 1

 SCF Done:  E(RHF) =  -228.349394567     A.U. after   12 cycles

 1\1\GINC-SE366\Stability\RHF\Aug-CC-pVDZ\C3H10N2\OHZDE\08-Apr-2025\0\\
 #t hf aug-cc-pvdz symm=none int=(grid=ultrafine) guess=(read,tcheck) s
 table=(opt,rrhf)\\title\\0,1\C,0,-0.735774,-0.750753,0.157052\C,0,0.48
 7419,0.020621,-0.353607\N,0,0.439867,1.38428,0.199739\H,0,-0.312421,1.
 892499,-0.25701\H,0,1.296932,1.879329,-0.028609\N,0,-1.973329,-0.00578
 ,-0.120031\H,0,-0.59099,-0.96365,1.227608\H,0,-0.785967,-1.710263,-0.3
 66911\H,0,-2.11352,0.68851,0.607453\H,0,-2.774685,-0.625869,-0.080358\
 C,0,1.786152,-0.660099,0.071988\H,0,0.432542,0.023191,-1.45461\H,0,1.8

 Normal termination of Gaussian 16 at Tue Apr  8 22:37:35 2025.
 Gaussian 16:  ES64L-G16RevC.01  3-Jul-2019

 ----------------------------------------------------------------------
 #t hf aug-cc-pvdz iop(5/13=1,5/36=2,99/5=2) pseudo=read geom=check gue
 ss=(read,tcheck) scf=(maxcycle=1)
 ----------------------------------------------------------------------
 -----
 title
 -----
 Structure from the checkpoint file:  "BDE49_expt_1198_mol1.chk"
 Charge =  0 Multiplicity = 1

                         Standard orientation:
 ---------------------------------------------------------------------
 Center     Atomic      Atomic             Coordinates (Angstroms)
 Number     Number       Type             X           Y           Z
 ---------------------------------------------------------------------
      1          6           0       -0.735774   -0.750753    0.157052
      2          6           0        0.487419    0.020621   -0.353607
      3          7           0        0.439867    1.384280    0.199739
      4          1           0       -0.312421    1.892499   -0.257010
      5          1           0        1.296932    1.879329   -0.028609
      6          7           0       -1.973329   -0.005780   -0.120031
      7          1           0       -0.590990   -0.963650    1.227608
      8          1           0       -0.785967   -1.710263   -0.366911
      9          1           0       -2.113520    0.688510    0.607453
     10          1           0       -2.774685   -0.625869   -0.080358
     11          6           0        1.786152   -0.660099    0.071988
     12          1           0        0.432542    0.023191   -1.454610
     13          1           0        1.879437   -0.653030    1.161687
     14          1           0        2.655550   -0.142198   -0.344910
     15          1           0        1.820574   -1.696634   -0.274890
 ---------------------------------------------------------------------

 SCF Done:  E(RHF) =  -228.601464904     A.U. after    2 cycles

 The electronic state is 1-A.
 Alpha  occ. eigenvalues --  -15.48224 -15.47779 -11.25356 -11.25019 -11.22189
 Alpha  occ. eigenvalues --   -1.19761  -1.15082  -1.00754  -0.90793  -0.78698
 Alpha  occ. eigenvalues --   -0.70718  -0.68298  -0.64381  -0.63730  -0.58184
 Alpha  occ. eigenvalues --   -0.54029  -0.52300  -0.51353  -0.49356  -0.44265
 Alpha  occ. eigenvalues --   -0.40868
 Alpha virt. eigenvalues --    0.03730   0.04179   0.04523   0.04881   0.06144
 Alpha virt. eigenvalues --    0.06399   0.06774   0.07595   0.08619   0.09597
 Alpha virt. eigenvalues --    0.13218   0.13956   0.14437   0.15156   0.15689

 Mulliken charges:
               1
     1  C   -0.555138
     2  C   -1.510856
     3  N    0.410271
     4  H    0.216111
     5  H    0.137025
     6  N    0.255714
     7  H    0.123447
     8  H    0.068038
     9  H    0.182858
    10  H    0.115903
    11  C   -0.053725
    12  H    0.103262
    13  H    0.233850
    14  H    0.103357
    15  H    0.169883
 Sum of Mulliken charges =   0.00000

 Dipole moment (field-independent basis, Debye):
    X=              0.0912    Y=             -0.6538    Z=             -0.1806  Tot=              0.6844

 Test job not archived.
 1\1\GINC-SE366\SP\RHF\Aug-CC-pVDZ\C3H10N2\OHZDE\08-Apr-2025\0\\#t hf a
 ug-cc-pvdz iop(5/13=1,5/36=2,99/5=2) pseudo=read geom=check guess=(rea
 d,tcheck) scf=(maxcycle=1)\\title\\0,1\C,0,-0.735774,-0.750753,0.15705
 2\C,0,0.487419,0.020621,-0.353607\N,0,0.439867,1.38428,0.199739\H,0,-0
 .312421,1.892499,-0.25701\H,0,1.296932,1.879329,-0.028609\N,0,-1.97332
 9,-0.00578,-0.120031\H,0,-0.59099,-0.96365,1.227608\H,0,-0.785967,-1.7
 10263,-0.366911\H,0,-2.11352,0.68851,0.607453\H,0,-2.774685,-0.625869,
 -0.080358\C,0,1.786152,-0.660099,0.071988\H,0,0.432542,0.023191,-1.454

 Normal termination of Gaussian 16 at Tue Apr  8 22:37:39 2025.
