 Gaussian 16, Revision C.01,

 ----------------------------------------------------------------------
 #t hf aug-cc-pvdz symm=none int=(grid=ultrafine) guess=(read,tcheck) s
 table=(opt,rrhf)
 ----------------------------------------------------------------------
 -----
 title
 -----
 Symbolic Z-matrix:
 Charge =  0 Multiplicity = 1

 SCF Done:  E(RHF) =  -639.437557811     A.U. after   12 cycles
 Normal termination of Gaussian 16 at Wed Apr  9 00:08:30 2025.
 Gaussian 16:  ES64L-G16RevC.01  3-Jul-2019

 ----------------------------------------------------------------------
 #t hf aug-cc-pvdz iop(5/13=1,5/36=2,99/5=2) pseudo=read geom=check gue
 ss=(read,tcheck) scf=(maxcycle=1)
 ----------------------------------------------------------------------
 -----
 title
 -----
 Structure from the checkpoint file:  "BDE49_nonexpt_2219_mol1.chk"
 Charge =  0 Multiplicity = 1

                         Standard orientation:
 ---------------------------------------------------------------------
 Center     Atomic      Atomic             Coordinates (Angstroms)
 Number     Number       Type             X           Y           Z
 ---------------------------------------------------------------------
      1          8           0       -0.731283   -0.221795   -0.622994
      2          6           0       -1.891703    0.345792    0.020116
      3          6           0       -2.997887   -0.715268    0.078942
      4          1           0       -2.690576   -1.566043    0.692122
      5          1           0       -3.222819   -1.078477   -0.926415
      6          6           0       -1.529645    0.838321    1.427557
      7          1           0       -2.391352    1.314309    1.903353
      8          1           0       -0.718909    1.569440    1.379290
      9          1           0       -1.213599    0.008428    2.066062
     10          6           0       -2.315120    1.518609   -0.868090
     11          1           0       -2.529791    1.164038   -1.878369
     12          1           0       -1.511161    2.255531   -0.929334
     13          1           0       -3.208684    2.007551   -0.470537
     14          1           0       -3.912944   -0.299377    0.509826
     15         14           0        0.383180   -1.349133   -0.166328
     16          6           0        1.962362   -0.575261    0.495504
     17          6           0        2.675674    0.384739   -0.474394
     18          1           0        2.634768   -1.402906    0.763897
     19          1           0        1.737131   -0.058032    1.437002
     20          6           0        3.963071    0.983973    0.101353
     21          1           0        1.991193    1.192809   -0.753819
     22          1           0        2.908896   -0.145624   -1.405065
     23          1           0        3.758745    1.553537    1.013476
     24          1           0        4.443664    1.659177   -0.612737
     25          1           0        4.683173    0.200139    0.356406
     26          1           0        0.695457   -2.131155   -1.385697
     27          1           0       -0.167962   -2.266550    0.867152
 ---------------------------------------------------------------------

 SCF Done:  E(RHF) =  -639.853860486     A.U. after    2 cycles

 The electronic state is 1-A.
 Alpha  occ. eigenvalues --  -69.54010 -20.52029 -11.30022 -11.22991 -11.22848
 Alpha  occ. eigenvalues --  -11.22393 -11.22096 -11.22077 -11.21213  -6.20604
 Alpha  occ. eigenvalues --   -3.96096  -3.95950  -3.95916  -1.42562  -1.07434
 Alpha  occ. eigenvalues --   -1.05361  -0.94507  -0.94096  -0.92682  -0.81035
 Alpha  occ. eigenvalues --   -0.78906  -0.69376  -0.64002  -0.63578  -0.62774
 Alpha  occ. eigenvalues --   -0.62138  -0.57923  -0.56916  -0.56522  -0.54762
 Alpha  occ. eigenvalues --   -0.54145  -0.52972  -0.52488  -0.51649  -0.50940
 Alpha  occ. eigenvalues --   -0.48796  -0.47792  -0.47051  -0.45729  -0.42971
 Alpha  occ. eigenvalues --   -0.40371
 Alpha virt. eigenvalues --    0.03500   0.03547   0.03708   0.03852   0.05036
 Alpha virt. eigenvalues --    0.05202   0.05376   0.06360   0.06391   0.07422
 Alpha virt. eigenvalues --    0.07574   0.08136   0.08242   0.09227   0.10015

 Mulliken charges:
               1
     1  O   -2.075640
     2  C   -1.217445
     3  C    0.089084
     4  H    0.188134
     5  H    0.220675
     6  C    0.143198
     7  H    0.174069
     8  H    0.254253
     9  H    0.173139
    10  C    0.208095
    11  H    0.185344
    12  H    0.202576
    13  H    0.237925
    14  H    0.229126
    15  Si   1.651595
    16  C   -0.518944
    17  C   -0.335415
    18  H    0.024041
    19  H    0.101018
    20  C   -0.341512
    21  H    0.075679
    22  H    0.116020
    23  H    0.164023
    24  H    0.122697
    25  H    0.160735
    26  H   -0.098264
    27  H   -0.134207
 Sum of Mulliken charges =  -0.00000

 Dipole moment (field-independent basis, Debye):
    X=             -0.4646    Y=              0.6039    Z=              0.9950  Tot=              1.2532

 Test job not archived.
 1\1\GINC-SE398\SP\RHF\Aug-CC-pVDZ\C7H18O1Si1\OHZDE\09-Apr-2025\0\\#t h
 f aug-cc-pvdz iop(5/13=1,5/36=2,99/5=2) pseudo=read geom=check guess=(
 read,tcheck) scf=(maxcycle=1)\\title\\0,1\O,0,0.731283,0.221795,-0.622
 994\C,0,1.891703,-0.345792,0.020116\C,0,2.997887,0.715268,0.078942\H,0
 ,2.690576,1.566043,0.692122\H,0,3.222819,1.078477,-0.926415\C,0,1.5296
 45,-0.838321,1.427557\H,0,2.391352,-1.314309,1.903353\H,0,0.718909,-1.
 56944,1.37929\H,0,1.213599,-0.008428,2.066062\C,0,2.31512,-1.518609,-0
 .86809\H,0,2.529791,-1.164038,-1.878369\H,0,1.511161,-2.255531,-0.9293

 Normal termination of Gaussian 16 at Wed Apr  9 00:08:47 2025.
