 Gaussian 16, Revision C.01,

 ----------------------------------------------------------------------
 #t hf aug-cc-pvdz symm=none int=(grid=ultrafine) guess=(read,tcheck) s
 table=(opt,rrhf)
 ----------------------------------------------------------------------
 -----
 title
 -----
 Symbolic Z-matrix:
 Charge =  0 Multiplicity = 1

 SCF Done:  E(RHF) =  -514.189847522     A.U. after   15 cycles
 Normal termination of Gaussian 16 at Tue Apr  8 23:21:06 2025.
 Gaussian 16:  ES64L-G16RevC.01  3-Jul-2019

 ----------------------------------------------------------------------
 #t hf aug-cc-pvdz iop(5/13=1,5/36=2,99/5=2) pseudo=read geom=check gue
 ss=(read,tcheck) scf=(maxcycle=1)
 ----------------------------------------------------------------------
 -----
 title
 -----
 Structure from the checkpoint file:  "BDE49_nonexpt_1160_mol1.chk"
 Charge =  0 Multiplicity = 1

                         Standard orientation:
 ---------------------------------------------------------------------
 Center     Atomic      Atomic             Coordinates (Angstroms)
 Number     Number       Type             X           Y           Z
 ---------------------------------------------------------------------
      1          9           0       -2.933382   -0.223411   -0.221931
      2          8           0       -1.626466   -0.772176   -0.335643
      3          6           0       -0.748131    0.111156    0.256259
      4          8           0       -0.984950    1.168464    0.718101
      5          8           0        0.426446   -0.575248    0.216119
      6          6           0        1.612819    0.110985   -0.160491
      7          8           0        1.589392    1.159316   -0.712292
      8          6           0        2.792763   -0.726125    0.225210
      9          1           0        2.694680   -1.726479   -0.200864
     10          1           0        2.822777   -0.833370    1.312038
     11          1           0        3.702891   -0.248393   -0.129945
 ---------------------------------------------------------------------

 SCF Done:  E(RHF) =  -514.679642253     A.U. after    2 cycles

 The electronic state is 1-A.
 Alpha  occ. eigenvalues --  -26.54924 -20.72952 -20.65143 -20.58845 -20.58679
 Alpha  occ. eigenvalues --  -11.49274 -11.44248 -11.28682  -1.72325  -1.61420
 Alpha  occ. eigenvalues --   -1.54231  -1.51034  -1.40759  -1.07507  -0.93545
 Alpha  occ. eigenvalues --   -0.83271  -0.77843  -0.76358  -0.74967  -0.71960
 Alpha  occ. eigenvalues --   -0.69654  -0.68226  -0.64992  -0.63127  -0.61828
 Alpha  occ. eigenvalues --   -0.60630  -0.57946  -0.53754  -0.51504  -0.51090
 Alpha  occ. eigenvalues --   -0.48569
 Alpha virt. eigenvalues --    0.02740   0.04593   0.04890   0.07226   0.09449
 Alpha virt. eigenvalues --    0.09900   0.10607   0.11473   0.12415   0.12616
 Alpha virt. eigenvalues --    0.13361   0.14424   0.14942   0.15685   0.16907

 Mulliken charges:
               1
     1  F   -0.394892
     2  O   -0.362852
     3  C    2.345688
     4  O   -0.876332
     5  O   -1.359600
     6  C    1.611124
     7  O   -1.075871
     8  C   -0.586016
     9  H    0.246657
    10  H    0.251155
    11  H    0.200939
 Sum of Mulliken charges =   0.00000

 Dipole moment (field-independent basis, Debye):
    X=              3.2136    Y=             -2.9656    Z=              0.5744  Tot=              4.4104

 Test job not archived.
 1\1\GINC-SE253\SP\RHF\Aug-CC-pVDZ\C3H3F1O4\OHZDE\08-Apr-2025\0\\#t hf
 aug-cc-pvdz iop(5/13=1,5/36=2,99/5=2) pseudo=read geom=check guess=(re
 ad,tcheck) scf=(maxcycle=1)\\title\\0,1\F,0,-2.933382,-0.223411,-0.221
 931\O,0,-1.626466,-0.772176,-0.335643\C,0,-0.748131,0.111156,0.256259\
 O,0,-0.98495,1.168464,0.718101\O,0,0.426446,-0.575248,0.216119\C,0,1.6
 12819,0.110985,-0.160491\O,0,1.589392,1.159316,-0.712292\C,0,2.792763,
 -0.726125,0.22521\H,0,2.69468,-1.726479,-0.200864\H,0,2.822777,-0.8333
 7,1.312038\H,0,3.702891,-0.248393,-0.129945\\Version=ES64L-G16RevC.01\

 Normal termination of Gaussian 16 at Tue Apr  8 23:21:11 2025.
