 Gaussian 16, Revision C.01,

 ----------------------------------------------------------------------
 #t hf aug-cc-pvdz symm=none int=(grid=ultrafine) guess=(read,tcheck) s
 table=opt
 ----------------------------------------------------------------------
 -----
 title
 -----
 Symbolic Z-matrix:
 Charge =  0 Multiplicity = 2

 SCF Done:  E(UHF) =  -686.144003802     A.U. after   19 cycles
 Normal termination of Gaussian 16 at Tue Apr  8 23:01:44 2025.
 Gaussian 16:  ES64L-G16RevC.01  3-Jul-2019

 ----------------------------------------------------------------------
 #t hf aug-cc-pvdz iop(5/13=1,5/36=2,99/5=2) pseudo=read geom=check gue
 ss=(read,tcheck) scf=(maxcycle=1)
 ----------------------------------------------------------------------
 -----
 title
 -----
 Structure from the checkpoint file:  "BDE49_expt_248_mol2.chk"
 Charge =  0 Multiplicity = 2

                         Standard orientation:
 ---------------------------------------------------------------------
 Center     Atomic      Atomic             Coordinates (Angstroms)
 Number     Number       Type             X           Y           Z
 ---------------------------------------------------------------------
      1          6           0       -1.012414   -0.093438    0.000006
      2          8           0       -0.951874    1.256720    0.000000
      3          8           0       -2.053047   -0.721057    0.000004
      4          1           0       -1.867621    1.569798   -0.000001
      5          6           0        0.275259   -0.756758    0.000001
      6         17           0        1.765889    0.063612   -0.000005
      7          1           0        0.309808   -1.835329    0.000000
 ---------------------------------------------------------------------

 SCF Done:  E(UHF) =  -686.438980021     A.U. after    2 cycles

 The electronic state is 2-A.
 Alpha  occ. eigenvalues -- -105.60321 -20.61330 -20.57133 -11.41021 -11.34784
 Alpha  occ. eigenvalues --  -10.65139  -7.81958  -7.81905  -7.81656  -1.56523
 Alpha  occ. eigenvalues --   -1.48044  -1.17077  -0.99736  -0.83836  -0.73294
 Alpha  occ. eigenvalues --   -0.71442  -0.66994  -0.63964  -0.60791  -0.56486
 Alpha  occ. eigenvalues --   -0.52449  -0.50484  -0.46985  -0.40024
 Alpha virt. eigenvalues --    0.03604   0.04403   0.07611   0.09962   0.10051
 Alpha virt. eigenvalues --    0.12476   0.12671   0.13401   0.14813   0.15637
 Alpha virt. eigenvalues --    0.16078   0.17421   0.18917   0.20007   0.21563

  Beta  occ. eigenvalues -- -105.60260 -20.61427 -20.55773 -11.41704 -11.32378
  Beta  occ. eigenvalues --  -10.65074  -7.82190  -7.81615  -7.81402  -1.56054
  Beta  occ. eigenvalues --   -1.45803  -1.13852  -0.96643  -0.82009  -0.72409
  Beta  occ. eigenvalues --   -0.70422  -0.64202  -0.62833  -0.60063  -0.50822
  Beta  occ. eigenvalues --   -0.49831  -0.46459  -0.45935
  Beta virt. eigenvalues --    0.03002   0.03630   0.04439   0.07799   0.10120
  Beta virt. eigenvalues --    0.10144   0.12588   0.13282   0.13537   0.14870
  Beta virt. eigenvalues --    0.15683   0.16288   0.17496   0.20090   0.21747

 Mulliken charges and spin densities:
               1          2
     1  C    2.205216  -0.376207
     2  O   -1.148847  -0.006130
     3  O   -1.125359   0.317725
     4  H    0.383176  -0.002405
     5  C   -0.217212   1.122179
     6  Cl  -0.086584   0.015890
     7  H   -0.010389  -0.071052
 Sum of Mulliken charges =  -0.00000   1.00000

 Dipole moment (field-independent basis, Debye):
    X=              0.3925    Y=              0.3988    Z=              0.0000  Tot=              0.5596
                          Isotropic Fermi Contact Couplings
        Atom                 a.u.       MegaHertz       Gauss      10(-4) cm-1
     1  C(13)             -0.09060    -101.85657     -36.34496     -33.97570
     2  O(17)             -0.01836      11.13128       3.97192       3.71299
     3  O(17)              0.10292     -62.38977     -22.26222     -20.81099
     4  H(1)              -0.00042      -1.86396      -0.66511      -0.62175
     5  C(13)              0.20980     235.85244      84.15802      78.67191
     6  Cl(35)             0.03540      15.51995       5.53790       5.17690
     7  H(1)              -0.02288    -102.25611     -36.48752     -34.10897
 --------------------------------------------------------

 Normal termination of Gaussian 16 at Tue Apr  8 23:01:47 2025.
