 Gaussian 16, Revision C.01,

 ----------------------------------------------------------------------
 #t hf aug-cc-pvdz symm=none int=(grid=ultrafine) guess=(read,tcheck) s
 table=(opt,rrhf)
 ----------------------------------------------------------------------
 -----
 title
 -----
 Symbolic Z-matrix:
 Charge =  0 Multiplicity = 1

 SCF Done:  E(RHF) =  -1248.86895405     A.U. after   15 cycles
 Normal termination of Gaussian 16 at Wed Apr  9 00:50:20 2025.
 Gaussian 16:  ES64L-G16RevC.01  3-Jul-2019

 ----------------------------------------------------------------------
 #t hf aug-cc-pvdz iop(5/13=1,5/36=2,99/5=2) pseudo=read geom=check gue
 ss=(read,tcheck) scf=(maxcycle=1)
 ----------------------------------------------------------------------
 -----
 title
 -----
 Structure from the checkpoint file:  "BDE49_nonexpt_892_mol1.chk"
 Charge =  0 Multiplicity = 1

                         Standard orientation:
 ---------------------------------------------------------------------
 Center     Atomic      Atomic             Coordinates (Angstroms)
 Number     Number       Type             X           Y           Z
 ---------------------------------------------------------------------
      1          9           0        4.127852   -0.240787    0.076415
      2          9           0        0.162448    2.156133   -0.541593
      3         16           0       -2.680612    1.227067    0.473808
      4          6           0       -0.028865   -0.144670    0.039321
      5          6           0        2.144511    0.976302   -0.239545
      6          1           0        2.702563    1.873069   -0.471671
      7          6           0        0.759338    0.978797   -0.238942
      8          6           0        0.690565   -1.322820    0.333168
      9          1           0        0.138107   -2.224619    0.567551
     10          6           0        2.783114   -0.215094    0.064740
     11          6           0        2.077980   -1.373432    0.357318
     12          1           0        2.612346   -2.284071    0.594288
     13          5           0       -1.592162   -0.154718    0.035593
     14         16           0       -2.397648   -1.727071   -0.420103
     15          1           0       -1.741878    2.150663    0.732426
     16          1           0       -3.670727   -1.373984   -0.169593
 ---------------------------------------------------------------------

 SCF Done:  E(RHF) =  -1249.42304644     A.U. after    2 cycles

 The electronic state is 1-A.
 Alpha  occ. eigenvalues --  -93.95969 -93.95752 -26.49911 -26.49904 -11.36994
 Alpha  occ. eigenvalues --  -11.36861 -11.28597 -11.27149 -11.26671 -11.25762
 Alpha  occ. eigenvalues --   -8.24282  -8.24075  -7.66851  -6.22117  -6.21966
 Alpha  occ. eigenvalues --   -6.21912  -6.21809  -6.21766  -6.21609  -1.62993
 Alpha  occ. eigenvalues --   -1.62849  -1.18958  -1.07301  -1.05344  -1.03513
 Alpha  occ. eigenvalues --   -1.00539  -0.88949  -0.88004  -0.78469  -0.75587
 Alpha  occ. eigenvalues --   -0.73057  -0.70261  -0.70048  -0.68952  -0.66891
 Alpha  occ. eigenvalues --   -0.64989  -0.62972  -0.59765  -0.58995  -0.56080
 Alpha  occ. eigenvalues --   -0.54699  -0.52964  -0.47611  -0.46632  -0.44724
 Alpha  occ. eigenvalues --   -0.37998  -0.37805  -0.36477
 Alpha virt. eigenvalues --    0.03320   0.03711   0.04207   0.04654   0.05241
 Alpha virt. eigenvalues --    0.05750   0.05951   0.07151   0.07983   0.08341
 Alpha virt. eigenvalues --    0.09181   0.10193   0.10751   0.11810   0.12099

 Mulliken charges:
               1
     1  F   -0.972875
     2  F   -1.062138
     3  S   -0.750771
     4  C   -0.256909
     5  C   -0.277787
     6  H   -0.148574
     7  C    1.518533
     8  C    0.559377
     9  H   -0.325747
    10  C    1.345712
    11  C   -0.109571
    12  H   -0.190113
    13  B    0.880257
    14  S   -0.742164
    15  H    0.286992
    16  H    0.245777
 Sum of Mulliken charges =   0.00000

 Dipole moment (field-independent basis, Debye):
    X=              0.5429    Y=             -0.2833    Z=              0.6418  Tot=              0.8871

 Test job not archived.
 1\1\GINC-SE462\SP\RHF\Aug-CC-pVDZ\C6H5B1F2S2\OHZDE\09-Apr-2025\0\\#t h
 f aug-cc-pvdz iop(5/13=1,5/36=2,99/5=2) pseudo=read geom=check guess=(
 read,tcheck) scf=(maxcycle=1)\\title\\0,1\F,0,4.127852,-0.240787,0.076
 415\F,0,0.162448,2.156133,-0.541593\S,0,-2.680612,1.227067,0.473808\C,
 0,-0.028865,-0.14467,0.039321\C,0,2.144511,0.976302,-0.239545\H,0,2.70
 2563,1.873069,-0.471671\C,0,0.759338,0.978797,-0.238942\C,0,0.690565,-
 1.32282,0.333168\H,0,0.138107,-2.224619,0.567551\C,0,2.783114,-0.21509
 4,0.06474\C,0,2.07798,-1.373432,0.357318\H,0,2.612346,-2.284071,0.5942

 Normal termination of Gaussian 16 at Wed Apr  9 00:50:29 2025.
