 Gaussian 16, Revision C.01,

 ----------------------------------------------------------------------
 #t hf aug-cc-pvdz symm=none int=(grid=ultrafine) guess=(read,tcheck) s
 table=opt
 ----------------------------------------------------------------------
 -----
 title
 -----
 Symbolic Z-matrix:
 Charge =  0 Multiplicity = 2

 SCF Done:  E(UHF) =  -857.007865232     A.U. after   15 cycles
 Normal termination of Gaussian 16 at Tue Apr  8 22:57:34 2025.
 Gaussian 16:  ES64L-G16RevC.01  3-Jul-2019

 ----------------------------------------------------------------------
 #t hf aug-cc-pvdz iop(5/13=1,5/36=2,99/5=2) pseudo=read geom=check gue
 ss=(read,tcheck) scf=(maxcycle=1)
 ----------------------------------------------------------------------
 -----
 title
 -----
 Structure from the checkpoint file:  "BDE49_expt_1934_mol2.chk"
 Charge =  0 Multiplicity = 2

                         Standard orientation:
 ---------------------------------------------------------------------
 Center     Atomic      Atomic             Coordinates (Angstroms)
 Number     Number       Type             X           Y           Z
 ---------------------------------------------------------------------
      1         17           0        0.000000    0.000000    0.979767
      2         16           0        0.000000    0.000000   -1.041002
 ---------------------------------------------------------------------

 SCF Done:  E(UHF) =  -857.137263810     A.U. after    2 cycles

 Unable to determine electronic state:  an orbital has unidentified symmetry.
 Alpha  occ. eigenvalues -- -105.60899 -94.03882 -10.65661  -8.31666  -7.82493
 Alpha  occ. eigenvalues --   -7.82364  -7.82063  -6.30702  -6.29122  -6.28584
 Alpha  occ. eigenvalues --   -1.15320  -0.94324  -0.57550  -0.57186  -0.54692
 Alpha  occ. eigenvalues --   -0.44611  -0.39974
 Alpha virt. eigenvalues --    0.03757   0.10785   0.10840   0.11782   0.12312
 Alpha virt. eigenvalues --    0.14638   0.15672   0.16032   0.28354   0.31617
 Alpha virt. eigenvalues --    0.31621   0.33353   0.35495   0.45988   0.48577

  Beta  occ. eigenvalues -- -105.60800 -94.02973 -10.65556  -8.30627  -7.82583
  Beta  occ. eigenvalues --   -7.82004  -7.81829  -6.28602  -6.28046  -6.26662
  Beta  occ. eigenvalues --   -1.12302  -0.86930  -0.55726  -0.54059  -0.50819
  Beta  occ. eigenvalues --   -0.38242
  Beta virt. eigenvalues --   -0.02471   0.04692   0.11064   0.11897   0.12585
  Beta virt. eigenvalues --    0.12934   0.15069   0.16049   0.16170   0.28432
  Beta virt. eigenvalues --    0.34389   0.34457   0.35612   0.37108   0.47125

 Mulliken charges and spin densities:
               1          2
     1  Cl  -0.207419   0.012331
     2  S    0.207419   0.987669
 Sum of Mulliken charges =   0.00000   1.00000

 Dipole moment (field-independent basis, Debye):
    X=              0.0000    Y=              0.0000    Z=             -0.5882  Tot=              0.5882
                          Isotropic Fermi Contact Couplings
        Atom                 a.u.       MegaHertz       Gauss      10(-4) cm-1
     1  Cl(35)             0.05231      22.93690       8.18446       7.65093
     2  S(33)              0.19005      65.27847      23.29298      21.77455
 --------------------------------------------------------
       Center         ----  Spin Dipole Couplings  ----
                      3XX-RR        3YY-RR        3ZZ-RR
 --------------------------------------------------------
     1   Atom        0.273567      0.266910     -0.540476
     2   Atom        1.036537      0.998795     -2.035332

 Normal termination of Gaussian 16 at Tue Apr  8 22:57:35 2025.
