 Gaussian 16, Revision C.01,

 ----------------------------------------------------------------------
 #t hf aug-cc-pvdz symm=none int=(grid=ultrafine) guess=(read,tcheck) s
 table=(opt,rrhf)
 ----------------------------------------------------------------------
 -----
 title
 -----
 Symbolic Z-matrix:
 Charge =  0 Multiplicity = 1

 SCF Done:  E(RHF) =  -591.545899552     A.U. after   12 cycles
 Normal termination of Gaussian 16 at Tue Apr  8 23:37:46 2025.
 Gaussian 16:  ES64L-G16RevC.01  3-Jul-2019

 ----------------------------------------------------------------------
 #t hf aug-cc-pvdz iop(5/13=1,5/36=2,99/5=2) pseudo=read geom=check gue
 ss=(read,tcheck) scf=(maxcycle=1)
 ----------------------------------------------------------------------
 -----
 title
 -----
 Structure from the checkpoint file:  "BDE49_nonexpt_1528_mol1.chk"
 Charge =  0 Multiplicity = 1

                         Standard orientation:
 ---------------------------------------------------------------------
 Center     Atomic      Atomic             Coordinates (Angstroms)
 Number     Number       Type             X           Y           Z
 ---------------------------------------------------------------------
      1          7           0        2.090508    0.162406    1.121019
      2          6           0       -0.045214   -0.052710   -0.649148
      3          6           0       -0.721080    1.188915   -0.041065
      4          6           0       -0.784352   -1.238453    0.019703
      5          6           0       -2.198343   -0.704864    0.394896
      6          1           0       -0.246011   -1.541048    0.922024
      7          1           0       -0.823571   -2.109101   -0.638312
      8          6           0       -2.206441    0.795241    0.006478
      9          1           0       -2.375395   -0.823502    1.467012
     10          1           0       -2.992003   -1.254110   -0.116838
     11          1           0       -2.789437    1.407171    0.699591
     12          1           0       -2.647675    0.925085   -0.987382
     13          1           0       -0.531486    2.099724   -0.615184
     14          1           0       -0.350795    1.349120    0.978179
     15         15           0        1.807837   -0.195762   -0.534259
     16          1           0       -0.248171   -0.063593   -1.729184
     17          1           0        2.080785    1.055022   -1.164394
     18          1           0        1.999346    1.112210    1.454869
     19          1           0        2.905880   -0.286170    1.511183
 ---------------------------------------------------------------------

 SCF Done:  E(RHF) =  -591.865582036     A.U. after    2 cycles

 The electronic state is 1-A.
 Alpha  occ. eigenvalues --  -84.27970 -15.49012 -11.23057 -11.22616 -11.22389
 Alpha  occ. eigenvalues --  -11.22244 -11.22213  -6.74671  -4.27479  -4.27220
 Alpha  occ. eigenvalues --   -4.26547  -1.16205  -1.11655  -0.96922  -0.95993
 Alpha  occ. eigenvalues --   -0.83369  -0.78026  -0.75175  -0.69904  -0.66051
 Alpha  occ. eigenvalues --   -0.63261  -0.58850  -0.57921  -0.56218  -0.49617
 Alpha  occ. eigenvalues --   -0.48627  -0.47804  -0.47729  -0.46588  -0.45601
 Alpha  occ. eigenvalues --   -0.40963  -0.32459
 Alpha virt. eigenvalues --    0.03372   0.03924   0.04061   0.04378   0.05784
 Alpha virt. eigenvalues --    0.06212   0.06409   0.06530   0.06977   0.08602
 Alpha virt. eigenvalues --    0.09067   0.09750   0.10838   0.11786   0.12008

 Mulliken charges:
               1
     1  N   -0.028483
     2  C   -0.353947
     3  C   -0.329953
     4  C   -0.405197
     5  C   -0.214850
     6  H    0.167865
     7  H    0.105452
     8  C   -0.322559
     9  H    0.119496
    10  H    0.148446
    11  H    0.101296
    12  H    0.102933
    13  H    0.100406
    14  H    0.113071
    15  P    0.251201
    16  H    0.118669
    17  H    0.323521
    18  H   -0.017128
    19  H    0.019763
 Sum of Mulliken charges =   0.00000

 Dipole moment (field-independent basis, Debye):
    X=             -0.0698    Y=              1.0400    Z=              0.3791  Tot=              1.1092

 Test job not archived.
 1\1\GINC-SE045\SP\RHF\Aug-CC-pVDZ\C5H12N1P1\OHZDE\08-Apr-2025\0\\#t hf
  aug-cc-pvdz iop(5/13=1,5/36=2,99/5=2) pseudo=read geom=check guess=(r
 ead,tcheck) scf=(maxcycle=1)\\title\\0,1\N,0,2.090508,0.162406,1.12101
 9\C,0,-0.045214,-0.05271,-0.649148\C,0,-0.72108,1.188915,-0.041065\C,0
 ,-0.784352,-1.238453,0.019703\C,0,-2.198343,-0.704864,0.394896\H,0,-0.
 246011,-1.541048,0.922024\H,0,-0.823571,-2.109101,-0.638312\C,0,-2.206
 441,0.795241,0.006478\H,0,-2.375395,-0.823502,1.467012\H,0,-2.992003,-
 1.25411,-0.116838\H,0,-2.789437,1.407171,0.699591\H,0,-2.647675,0.9250

 Normal termination of Gaussian 16 at Tue Apr  8 23:37:56 2025.
