 Gaussian 16, Revision C.01,

 ----------------------------------------------------------------------
 #t hf aug-cc-pvdz symm=none int=(grid=ultrafine) guess=(read,tcheck) s
 table=(opt,rrhf)
 ----------------------------------------------------------------------
 -----
 title
 -----
 Symbolic Z-matrix:
 Charge =  0 Multiplicity = 1

 SCF Done:  E(RHF) =  -764.519833974     A.U. after   17 cycles
 Normal termination of Gaussian 16 at Tue Apr  8 23:11:20 2025.
 Gaussian 16:  ES64L-G16RevC.01  3-Jul-2019

 ----------------------------------------------------------------------
 #t hf aug-cc-pvdz iop(5/13=1,5/36=2,99/5=2) pseudo=read geom=check gue
 ss=(read,tcheck) scf=(maxcycle=1)
 ----------------------------------------------------------------------
 -----
 title
 -----
 Structure from the checkpoint file:  "BDE49_expt_726_mol1.chk"
 Charge =  0 Multiplicity = 1

                         Standard orientation:
 ---------------------------------------------------------------------
 Center     Atomic      Atomic             Coordinates (Angstroms)
 Number     Number       Type             X           Y           Z
 ---------------------------------------------------------------------
      1          6           0       -1.791712   -1.324675    0.000001
      2          6           0       -0.406666   -1.470668    0.000001
      3          6           0        0.415161   -0.350283   -0.000000
      4          6           0       -2.347803   -0.048714    0.000001
      5          6           0       -1.524544    1.072991   -0.000000
      6          6           0       -0.133799    0.939190   -0.000000
      7          1           0       -3.423745    0.079764    0.000001
      8          1           0       -1.957662    2.069128   -0.000001
      9          8           0        0.710591    2.003366   -0.000001
     10          1           0        0.194069    2.815944   -0.000002
     11          1           0       -2.425638   -2.202733    0.000002
     12          1           0        0.048681   -2.452810    0.000001
     13         17           0        2.153867   -0.543722   -0.000000
 ---------------------------------------------------------------------

 SCF Done:  E(RHF) =  -764.904859953     A.U. after    2 cycles

 The electronic state is 1-A.
 Alpha  occ. eigenvalues -- -105.56779 -20.59399 -11.32947 -11.30614 -11.26370
 Alpha  occ. eigenvalues --  -11.26208 -11.25749 -11.25050 -10.61566  -7.78536
 Alpha  occ. eigenvalues --   -7.78129  -7.78115  -1.51061  -1.18102  -1.09876
 Alpha  occ. eigenvalues --   -1.02932  -0.98948  -0.87425  -0.83288  -0.75569
 Alpha  occ. eigenvalues --   -0.70225  -0.67969  -0.63621  -0.61090  -0.60884
 Alpha  occ. eigenvalues --   -0.58796  -0.54795  -0.52173  -0.52019  -0.47666
 Alpha  occ. eigenvalues --   -0.46008  -0.35735  -0.33221
 Alpha virt. eigenvalues --    0.02808   0.03432   0.04169   0.05570   0.06760
 Alpha virt. eigenvalues --    0.08556   0.09588   0.10743   0.11533   0.11796
 Alpha virt. eigenvalues --    0.12585   0.13670   0.13765   0.14069   0.14405

 Mulliken charges:
               1
     1  C    0.350071
     2  C    0.309867
     3  C   -0.138099
     4  C    0.045527
     5  C    0.121881
     6  C    1.875236
     7  H   -0.198247
     8  H   -0.338674
     9  O   -1.776254
    10  H    0.405920
    11  H   -0.208991
    12  H   -0.148955
    13  Cl  -0.299281
 Sum of Mulliken charges =  -0.00000

 Dipole moment (field-independent basis, Debye):
    X=             -3.0166    Y=              1.0407    Z=             -0.0000  Tot=              3.1910

 Test job not archived.
 1\1\GINC-SE364\SP\RHF\Aug-CC-pVDZ\C6H5Cl1O1\OHZDE\08-Apr-2025\0\\#t hf
  aug-cc-pvdz iop(5/13=1,5/36=2,99/5=2) pseudo=read geom=check guess=(r
 ead,tcheck) scf=(maxcycle=1)\\title\\0,1\C,0,-1.791712,-1.324675,0.000
 001\C,0,-0.406666,-1.470668,0.000001\C,0,0.415161,-0.350283,0.\C,0,-2.
 347803,-0.048714,0.000001\C,0,-1.524544,1.072991,0.\C,0,-0.133799,0.93
 919,0.\H,0,-3.423745,0.079764,0.000001\H,0,-1.957662,2.069128,-0.00000
 1\O,0,0.710591,2.003366,-0.000001\H,0,0.194069,2.815944,-0.000002\H,0,
 -2.425638,-2.202733,0.000002\H,0,0.048681,-2.45281,0.000001\Cl,0,2.153

 Normal termination of Gaussian 16 at Tue Apr  8 23:11:25 2025.
