 Gaussian 16, Revision C.01,

 ----------------------------------------------------------------------
 #t hf aug-cc-pvdz symm=none int=(grid=ultrafine) guess=(read,tcheck) s
 table=(opt,rrhf)
 ----------------------------------------------------------------------
 -----
 title
 -----
 Symbolic Z-matrix:
 Charge =  0 Multiplicity = 1

 SCF Done:  E(RHF) =  -253.195023803     A.U. after   13 cycles
 Normal termination of Gaussian 16 at Wed Apr  9 00:29:45 2025.
 Gaussian 16:  ES64L-G16RevC.01  3-Jul-2019

 ----------------------------------------------------------------------
 #t hf aug-cc-pvdz iop(5/13=1,5/36=2,99/5=2) pseudo=read geom=check gue
 ss=(read,tcheck) scf=(maxcycle=1)
 ----------------------------------------------------------------------
 -----
 title
 -----
 Structure from the checkpoint file:  "BDE49_nonexpt_325_mol1.chk"
 Charge =  0 Multiplicity = 1

                         Standard orientation:
 ---------------------------------------------------------------------
 Center     Atomic      Atomic             Coordinates (Angstroms)
 Number     Number       Type             X           Y           Z
 ---------------------------------------------------------------------
      1          6           0        0.911769   -0.661678    0.000021
      2          5           0       -0.518829   -0.028889    0.000005
      3          8           0       -0.771140    1.319441    0.000007
      4          8           0       -1.589927   -0.873657   -0.000014
      5          6           0        2.055640    0.026937   -0.000017
      6          1           0        0.972859   -1.748370    0.000059
      7          1           0        2.081384    1.115771   -0.000062
      8          1           0        3.029957   -0.452350   -0.000008
      9          1           0       -2.424888   -0.393366   -0.000023
     10          1           0        0.018919    1.864937    0.000034
 ---------------------------------------------------------------------

 SCF Done:  E(RHF) =  -253.452565257     A.U. after    2 cycles

 The electronic state is 1-A.
 Alpha  occ. eigenvalues --  -20.55877 -20.55141 -11.25874 -11.22555  -7.63840
 Alpha  occ. eigenvalues --   -1.47959  -1.43661  -1.04573  -0.82207  -0.75890
 Alpha  occ. eigenvalues --   -0.72240  -0.67133  -0.59830  -0.56938  -0.56919
 Alpha  occ. eigenvalues --   -0.55413  -0.49017  -0.48267  -0.39296
 Alpha virt. eigenvalues --    0.03372   0.04263   0.04406   0.05321   0.06305
 Alpha virt. eigenvalues --    0.07314   0.08405   0.08696   0.09761   0.10798
 Alpha virt. eigenvalues --    0.14393   0.15009   0.16546   0.16573   0.17200

 Mulliken charges:
               1
     1  C    0.200397
     2  B    1.606096
     3  O   -1.109800
     4  O   -1.203522
     5  C   -0.167848
     6  H   -0.124553
     7  H   -0.117121
     8  H   -0.078832
     9  H    0.465572
    10  H    0.529612
 Sum of Mulliken charges =  -0.00000

 Dipole moment (field-independent basis, Debye):
    X=              1.1303    Y=              1.2250    Z=              0.0000  Tot=              1.6668

 Test job not archived.
 1\1\GINC-SE097\SP\RHF\Aug-CC-pVDZ\C2H5B1O2\OHZDE\09-Apr-2025\0\\#t hf
 aug-cc-pvdz iop(5/13=1,5/36=2,99/5=2) pseudo=read geom=check guess=(re
 ad,tcheck) scf=(maxcycle=1)\\title\\0,1\C,0,0.911769,-0.661678,0.00002
 1\B,0,-0.518829,-0.028889,0.000005\O,0,-0.77114,1.319441,0.000007\O,0,
 -1.589927,-0.873657,-0.000014\C,0,2.05564,0.026937,-0.000017\H,0,0.972
 859,-1.74837,0.000059\H,0,2.081384,1.115771,-0.000062\H,0,3.029957,-0.
 452351,-0.000008\H,0,-2.424888,-0.393365,-0.000023\H,0,0.01892,1.86493
 7,0.000034\\Version=ES64L-G16RevC.01\State=1-A\HF=-253.4525653\RMSD=1.

 Normal termination of Gaussian 16 at Wed Apr  9 00:29:48 2025.
