 Gaussian 16, Revision C.01,

 ----------------------------------------------------------------------
 #t hf aug-cc-pvdz symm=none int=(grid=ultrafine) guess=(read,tcheck) s
 table=opt
 ----------------------------------------------------------------------
 -----
 title
 -----
 Symbolic Z-matrix:
 Charge =  0 Multiplicity = 2

 SCF Done:  E(UHF) =  -288.102200483     A.U. after   23 cycles
 Normal termination of Gaussian 16 at Tue Apr  8 23:08:44 2025.
 Gaussian 16:  ES64L-G16RevC.01  3-Jul-2019

 ----------------------------------------------------------------------
 #t hf aug-cc-pvdz iop(5/13=1,5/36=2,99/5=2) pseudo=read geom=check gue
 ss=(read,tcheck) scf=(maxcycle=1)
 ----------------------------------------------------------------------
 -----
 title
 -----
 Structure from the checkpoint file:  "BDE49_expt_618_mol2.chk"
 Charge =  0 Multiplicity = 2

                         Standard orientation:
 ---------------------------------------------------------------------
 Center     Atomic      Atomic             Coordinates (Angstroms)
 Number     Number       Type             X           Y           Z
 ---------------------------------------------------------------------
      1          6           0       -0.575691    0.500679    0.284105
      2          8           0        0.676581    0.429784   -0.400836
      3          8           0        1.482697   -0.455365    0.170033
      4          9           0       -1.379827   -0.517940   -0.132749
      5          1           0       -0.393078    0.406923    1.354216
      6          1           0       -1.008553    1.455114   -0.017688
 ---------------------------------------------------------------------

 SCF Done:  E(UHF) =  -288.372540787     A.U. after    2 cycles

 The electronic state is 2-A.
 Alpha  occ. eigenvalues --  -26.48247 -20.68589 -20.66859 -11.40625  -1.71062
 Alpha  occ. eigenvalues --   -1.61059  -1.29507  -0.95480  -0.78401  -0.76744
 Alpha  occ. eigenvalues --   -0.75148  -0.70220  -0.66496  -0.61934  -0.55505
 Alpha  occ. eigenvalues --   -0.51315  -0.50815
 Alpha virt. eigenvalues --    0.03496   0.04903   0.08588   0.09268   0.13966
 Alpha virt. eigenvalues --    0.15506   0.16678   0.20249   0.21331   0.22058
 Alpha virt. eigenvalues --    0.24343   0.26654   0.28302   0.28811   0.29811

  Beta  occ. eigenvalues --  -26.48228 -20.66173 -20.64490 -11.40673  -1.65897
  Beta  occ. eigenvalues --   -1.60115  -1.20048  -0.94418  -0.76296  -0.74302
  Beta  occ. eigenvalues --   -0.73447  -0.65013  -0.61181  -0.56124  -0.54600
  Beta  occ. eigenvalues --   -0.47740
  Beta virt. eigenvalues --    0.03456   0.04856   0.08512   0.09121   0.09598
  Beta virt. eigenvalues --    0.14274   0.15661   0.16696   0.20500   0.21816
  Beta virt. eigenvalues --    0.24155   0.26219   0.27063   0.28709   0.28927

 Mulliken charges and spin densities:
               1          2
     1  C    1.201687  -0.018251
     2  O   -0.587274   0.052027
     3  O   -0.183914   0.965438
     4  F   -0.643192   0.004516
     5  H    0.137436  -0.003314
     6  H    0.075258  -0.000416
 Sum of Mulliken charges =  -0.00000   1.00000

 Dipole moment (field-independent basis, Debye):
    X=             -0.8790    Y=              1.6572    Z=              1.2848  Tot=              2.2737
                          Isotropic Fermi Contact Couplings
        Atom                 a.u.       MegaHertz       Gauss      10(-4) cm-1
     1  C(13)             -0.00773      -8.68851      -3.10028      -2.89818
     2  O(17)              0.07193     -43.60451     -15.55917     -14.54490
     3  O(17)              0.26568    -161.05199     -57.46735     -53.72116
     4  F(19)              0.00066       2.78413       0.99345       0.92869
     5  H(1)               0.00011       0.48699       0.17377       0.16244
     6  H(1)              -0.00087      -3.86977      -1.38083      -1.29082
 --------------------------------------------------------
       Center         ----  Spin Dipole Couplings  ----

 Normal termination of Gaussian 16 at Tue Apr  8 23:08:45 2025.
