 Gaussian 16, Revision C.01,

 ----------------------------------------------------------------------
 #t hf aug-cc-pvdz symm=none int=(grid=ultrafine) guess=(read,tcheck) s
 table=(opt,rrhf)
 ----------------------------------------------------------------------
 -----
 title
 -----
 Symbolic Z-matrix:
 Charge =  0 Multiplicity = 1

 SCF Done:  E(RHF) =  -561.364994224     A.U. after   12 cycles
 Normal termination of Gaussian 16 at Wed Apr  9 00:09:31 2025.
 Gaussian 16:  ES64L-G16RevC.01  3-Jul-2019

 ----------------------------------------------------------------------
 #t hf aug-cc-pvdz iop(5/13=1,5/36=2,99/5=2) pseudo=read geom=check gue
 ss=(read,tcheck) scf=(maxcycle=1)
 ----------------------------------------------------------------------
 -----
 title
 -----
 Structure from the checkpoint file:  "BDE49_nonexpt_2289_mol1.chk"
 Charge =  0 Multiplicity = 1

                         Standard orientation:
 ---------------------------------------------------------------------
 Center     Atomic      Atomic             Coordinates (Angstroms)
 Number     Number       Type             X           Y           Z
 ---------------------------------------------------------------------
      1          6           0        1.223616    0.074048   -0.000721
      2          8           0       -0.178248    0.391296   -0.136269
      3         14           0       -1.548248   -0.515510   -0.000030
      4          6           0       -2.987222    0.672628   -0.019609
      5          6           0        1.557176   -0.061246    1.490268
      6          1           0        2.625604   -0.244912    1.633925
      7          1           0        1.006296   -0.890687    1.940671
      8          1           0        1.289478    0.856032    2.019715
      9          6           0        1.553649   -1.219478   -0.756141
     10          1           0        1.027541   -2.076369   -0.325114
     11          1           0        2.625640   -1.428732   -0.707741
     12          1           0        1.267584   -1.133579   -1.807091
     13          1           0       -2.935363    1.365488    0.824132
     14          1           0       -3.933363    0.126142    0.043899
     15          1           0       -2.994338    1.259103   -0.942061
     16          6           0        1.968678    1.261548   -0.616075
     17          1           0        3.051064    1.128657   -0.536747
     18          1           0        1.690425    2.184153   -0.102176
     19          1           0        1.705076    1.366289   -1.670933
     20          1           0       -1.550018   -1.309702    1.257945
     21          1           0       -1.669557   -1.480111   -1.124183
 ---------------------------------------------------------------------

 SCF Done:  E(RHF) =  -561.694241261     A.U. after    2 cycles

 The electronic state is 1-A.
 Alpha  occ. eigenvalues --  -69.54220 -20.52192 -11.29936 -11.22729 -11.22379
 Alpha  occ. eigenvalues --  -11.22071 -11.21102  -6.20811  -3.96303  -3.96156
 Alpha  occ. eigenvalues --   -3.96137  -1.42676  -1.07368  -0.94880  -0.94356
 Alpha  occ. eigenvalues --   -0.94007  -0.79062  -0.69401  -0.64238  -0.63015
 Alpha  occ. eigenvalues --   -0.62005  -0.57444  -0.56518  -0.55854  -0.55718
 Alpha  occ. eigenvalues --   -0.52652  -0.52412  -0.51374  -0.51226  -0.47837
 Alpha  occ. eigenvalues --   -0.46998  -0.43093  -0.41629
 Alpha virt. eigenvalues --    0.03742   0.03780   0.03960   0.04053   0.05576
 Alpha virt. eigenvalues --    0.05929   0.06021   0.06750   0.06901   0.08337
 Alpha virt. eigenvalues --    0.08822   0.09092   0.09765   0.10148   0.10940

 Mulliken charges:
               1
     1  C   -0.861714
     2  O   -2.101030
     3  Si   1.903039
     4  C   -0.649661
     5  C    0.109867
     6  H    0.221294
     7  H    0.175249
     8  H    0.209650
     9  C    0.100107
    10  H    0.153305
    11  H    0.195844
    12  H    0.233065
    13  H    0.066980
    14  H   -0.059398
    15  H    0.076049
    16  C    0.022295
    17  H    0.227475
    18  H    0.198806
    19  H    0.201180
    20  H   -0.227066
    21  H   -0.195335
 Sum of Mulliken charges =  -0.00000

 Dipole moment (field-independent basis, Debye):
    X=              0.6920    Y=             -0.2023    Z=              0.1481  Tot=              0.7360

 Test job not archived.
 1\1\GINC-SE454\SP\RHF\Aug-CC-pVDZ\C5H14O1Si1\OHZDE\09-Apr-2025\0\\#t h
 f aug-cc-pvdz iop(5/13=1,5/36=2,99/5=2) pseudo=read geom=check guess=(
 read,tcheck) scf=(maxcycle=1)\\title\\0,1\C,0,-1.223616,-0.074048,-0.0
 00721\O,0,0.178248,-0.391296,-0.136269\Si,0,1.548248,0.51551,-0.00003\
 C,0,2.987222,-0.672628,-0.019609\C,0,-1.557176,0.061246,1.490268\H,0,-
 2.625604,0.244912,1.633925\H,0,-1.006296,0.890687,1.940671\H,0,-1.2894
 78,-0.856032,2.019715\C,0,-1.553649,1.219478,-0.756141\H,0,-1.027541,2
 .076369,-0.325114\H,0,-2.62564,1.428732,-0.707741\H,0,-1.267584,1.1335

 Normal termination of Gaussian 16 at Wed Apr  9 00:09:40 2025.
