 Gaussian 16, Revision C.01,

 ----------------------------------------------------------------------
 #t hf aug-cc-pvdz symm=none int=(grid=ultrafine) guess=(read,tcheck) s
 table=opt
 ----------------------------------------------------------------------
 -----
 title
 -----
 Symbolic Z-matrix:
 Charge =  0 Multiplicity = 2

 SCF Done:  E(UHF) =  -1900.53570815     A.U. after   18 cycles

 1\1\GINC-SE166\Stability\UHF\Aug-CC-pVDZ\C1B1Cl4\OHZDE\09-Apr-2025\0\\
 #t hf aug-cc-pvdz symm=none int=(grid=ultrafine) guess=(read,tcheck) s
 table=opt\\title\\0,2\Cl,0,-2.546552,-0.026941,-0.409055\B,0,-0.927544
 ,0.28153,-0.88318\C,0,0.389602,-0.007754,-0.078104\Cl,0,0.679639,1.631
 948,0.65252\Cl,0,0.269969,-1.244012,1.22503\Cl,0,1.732245,-0.441062,-1
 .18117\\Version=ES64L-G16RevC.01\HF=-1900.5357082\S2=0.755484\S2-1=0.\
 S2A=0.750022\RMSD=6.625e-09\Dipole=-0.1903429,0.0061059,-0.1233149\Qua
 drupole=-0.2553227,0.5060429,-0.2507202,0.1641868,-0.2486449,0.6654122

 Normal termination of Gaussian 16 at Wed Apr  9 00:21:15 2025.
 Gaussian 16:  ES64L-G16RevC.01  3-Jul-2019

 ----------------------------------------------------------------------
 #t hf aug-cc-pvdz iop(5/13=1,5/36=2,99/5=2) pseudo=read geom=check gue
 ss=(read,tcheck) scf=(maxcycle=1)
 ----------------------------------------------------------------------
 -----
 title
 -----
 Structure from the checkpoint file:  "BDE49_nonexpt_262_mol2.chk"
 Charge =  0 Multiplicity = 2

                         Standard orientation:
 ---------------------------------------------------------------------
 Center     Atomic      Atomic             Coordinates (Angstroms)
 Number     Number       Type             X           Y           Z
 ---------------------------------------------------------------------
      1         17           0       -2.546552   -0.026941   -0.409055
      2          5           0       -0.927544    0.281530   -0.883180
      3          6           0        0.389602   -0.007754   -0.078104
      4         17           0        0.679639    1.631948    0.652520
      5         17           0        0.269969   -1.244012    1.225030
      6         17           0        1.732245   -0.441062   -1.181170
 ---------------------------------------------------------------------

 SCF Done:  E(UHF) =  -1900.89417481     A.U. after    2 cycles

 The electronic state is 2-A.
 Alpha  occ. eigenvalues -- -105.61053-105.60596-105.60464-105.60307 -11.44483
 Alpha  occ. eigenvalues --  -10.65815 -10.65493 -10.65390 -10.65091  -7.82747
 Alpha  occ. eigenvalues --   -7.82429  -7.82336  -7.82333  -7.82326  -7.82117
 Alpha  occ. eigenvalues --   -7.82094  -7.82038  -7.81908  -7.81901  -7.81595
 Alpha  occ. eigenvalues --   -7.81594  -7.72137  -1.21727  -1.11687  -1.07862
 Alpha  occ. eigenvalues --   -1.07463  -0.88679  -0.72368  -0.65206  -0.64468
 Alpha  occ. eigenvalues --   -0.63702  -0.55065  -0.53625  -0.52036  -0.51339
 Alpha  occ. eigenvalues --   -0.48401  -0.48186  -0.47481  -0.46860  -0.38278
 Alpha virt. eigenvalues --    0.03027   0.04718   0.05430   0.05797   0.06035
 Alpha virt. eigenvalues --    0.08338   0.09211   0.09788   0.12378   0.12796
 Alpha virt. eigenvalues --    0.13977   0.14956   0.16007   0.17087   0.17361

  Beta  occ. eigenvalues -- -105.61055-105.60589-105.60394-105.60251 -11.44399
  Beta  occ. eigenvalues --  -10.65817 -10.65411 -10.65381 -10.65032  -7.82758
  Beta  occ. eigenvalues --   -7.82347  -7.82333  -7.82316  -7.82310  -7.82069
  Beta  occ. eigenvalues --   -7.81906  -7.81898  -7.81880  -7.81849  -7.81562
  Beta  occ. eigenvalues --   -7.81542  -7.69976  -1.21368  -1.10829  -1.07803
  Beta  occ. eigenvalues --   -1.07110  -0.87379  -0.70541  -0.64497  -0.64236
  Beta  occ. eigenvalues --   -0.61912  -0.53854  -0.52548  -0.51894  -0.50797
  Beta  occ. eigenvalues --   -0.48382  -0.47956  -0.46862  -0.46689
  Beta virt. eigenvalues --    0.03048   0.04737   0.05379   0.06035   0.06244
  Beta virt. eigenvalues --    0.06731   0.08769   0.10337   0.10433   0.12674
  Beta virt. eigenvalues --    0.13175   0.14345   0.15087   0.16640   0.17280

 Mulliken charges and spin densities:
               1          2
     1  Cl  -0.170937   0.009624
     2  B    0.616886   1.000011
     3  C   -0.585263  -0.058847
     4  Cl   0.032245   0.000234
     5  Cl   0.058503   0.042922
     6  Cl   0.048567   0.006056
 Sum of Mulliken charges =  -0.00000   1.00000

 Dipole moment (field-independent basis, Debye):
    X=             -0.5192    Y=              0.0053    Z=             -0.2816  Tot=              0.5907
                          Isotropic Fermi Contact Couplings
        Atom                 a.u.       MegaHertz       Gauss      10(-4) cm-1
     1  Cl(35)             0.07259      31.82866      11.35726      10.61690
     2  B(11)              0.37513     538.07736     191.99938     179.48329
     3  C(13)              0.04567      51.34579      18.32145      17.12711
     4  Cl(35)             0.00058       0.25414       0.09068       0.08477
     5  Cl(35)             0.01338       5.86644       2.09329       1.95683
     6  Cl(35)             0.01337       5.86014       2.09104       1.95473
 --------------------------------------------------------
       Center         ----  Spin Dipole Couplings  ----

 Normal termination of Gaussian 16 at Wed Apr  9 00:21:19 2025.
