 Gaussian 16, Revision C.01,

 ----------------------------------------------------------------------
 #t hf aug-cc-pvdz symm=none int=(grid=ultrafine) guess=(read,tcheck) s
 table=(opt,rrhf)
 ----------------------------------------------------------------------
 -----
 title
 -----
 Symbolic Z-matrix:
 Charge =  0 Multiplicity = 1

 SCF Done:  E(RHF) =  -155.075676056     A.U. after   12 cycles
 Normal termination of Gaussian 16 at Wed Apr  9 00:35:46 2025.
 Gaussian 16:  ES64L-G16RevC.01  3-Jul-2019

 ----------------------------------------------------------------------
 #t hf aug-cc-pvdz iop(5/13=1,5/36=2,99/5=2) pseudo=read geom=check gue
 ss=(read,tcheck) scf=(maxcycle=1)
 ----------------------------------------------------------------------
 -----
 title
 -----
 Structure from the checkpoint file:  "BDE49_nonexpt_493_mol1.chk"
 Charge =  0 Multiplicity = 1

                         Standard orientation:
 ---------------------------------------------------------------------
 Center     Atomic      Atomic             Coordinates (Angstroms)
 Number     Number       Type             X           Y           Z
 ---------------------------------------------------------------------
      1          1           0       -1.817334    1.065048    0.000003
      2          1           0       -1.817335   -1.065047    0.000003
      3          5           0       -1.289544    0.000000    0.000002
      4          7           0        0.046304   -0.000001    0.000000
      5          8           0        1.219783    0.000000   -0.000002
 ---------------------------------------------------------------------

 SCF Done:  E(RHF) =  -155.220664841     A.U. after    2 cycles

 The electronic state is 1-A.
 Alpha  occ. eigenvalues --  -20.66413 -15.66609  -7.62172  -1.64833  -1.10749
 Alpha  occ. eigenvalues --   -0.81108  -0.73551  -0.68006  -0.62393  -0.51719
 Alpha  occ. eigenvalues --   -0.41071
 Alpha virt. eigenvalues --    0.03507   0.04601   0.04679   0.05285   0.05380
 Alpha virt. eigenvalues --    0.09874   0.10051   0.13961   0.14939   0.18953
 Alpha virt. eigenvalues --    0.19432   0.19916   0.24022   0.24562   0.26243

 Mulliken charges:
               1
     1  H    0.157046
     2  H    0.157047
     3  B   -0.372575
     4  N    0.882365
     5  O   -0.823884
 Sum of Mulliken charges =  -0.00000

 Dipole moment (field-independent basis, Debye):
    X=             -0.8417    Y=              0.0000    Z=              0.0000  Tot=              0.8417

 Test job not archived.
 1\1\GINC-SE344\SP\RHF\Aug-CC-pVDZ\B1H2N1O1\OHZDE\09-Apr-2025\0\\#t hf
 aug-cc-pvdz iop(5/13=1,5/36=2,99/5=2) pseudo=read geom=check guess=(re
 ad,tcheck) scf=(maxcycle=1)\\title\\0,1\H,0,1.817334,-1.065048,0.00000
 3\H,0,1.817335,1.065047,0.000003\B,0,1.289544,0.,0.000002\N,0,-0.04630
 4,0.000001,0.\O,0,-1.219783,0.,-0.000002\\Version=ES64L-G16RevC.01\Sta
 te=1-A\HF=-155.2206648\RMSD=1.847e-02\Dipole=0.3311456,-0.0000001,0.00
 00004\Quadrupole=-0.2039134,0.4762738,-0.2723604,-0.000001,-0.0000001,
 0.\PG=C01 [X(B1H2N1O1)]\\@

 Normal termination of Gaussian 16 at Wed Apr  9 00:35:48 2025.
