 Gaussian 16, Revision C.01,

 ----------------------------------------------------------------------
 #t hf aug-cc-pvdz symm=none int=(grid=ultrafine) guess=(read,tcheck) s
 table=opt
 ----------------------------------------------------------------------
 -----
 title
 -----
 Symbolic Z-matrix:
 Charge =  0 Multiplicity = 2

 SCF Done:  E(UHF) =  -103.847213031     A.U. after   13 cycles
 Normal termination of Gaussian 16 at Wed Apr  9 00:28:13 2025.
 Gaussian 16:  ES64L-G16RevC.01  3-Jul-2019

 ----------------------------------------------------------------------
 #t hf aug-cc-pvdz iop(5/13=1,5/36=2,99/5=2) pseudo=read geom=check gue
 ss=(read,tcheck) scf=(maxcycle=1)
 ----------------------------------------------------------------------
 -----
 title
 -----
 Structure from the checkpoint file:  "BDE49_nonexpt_2_mol3.chk"
 Charge =  0 Multiplicity = 2

                         Standard orientation:
 ---------------------------------------------------------------------
 Center     Atomic      Atomic             Coordinates (Angstroms)
 Number     Number       Type             X           Y           Z
 ---------------------------------------------------------------------
      1          5           0       -1.452149   -0.475345   -0.000002
      2          6           0       -0.209375    0.437171    0.000002
      3          6           0        1.188899   -0.201733   -0.000000
      4          1           0       -0.327756    1.112881    0.865763
      5          1           0       -0.327739    1.112931   -0.865720
      6          1           0        1.330076   -0.834081    0.880127
      7          1           0        1.978503    0.555164    0.000029
      8          1           0        1.330096   -0.834033   -0.880159
      9          1           0       -2.599581   -0.148763   -0.000039
 ---------------------------------------------------------------------

 SCF Done:  E(UHF) =  -103.960813202     A.U. after    2 cycles

 The electronic state is 2-A.
 Alpha  occ. eigenvalues --  -11.22816 -11.22125  -7.61491  -1.03146  -0.86618
 Alpha  occ. eigenvalues --   -0.66587  -0.60853  -0.58993  -0.52514  -0.50026
 Alpha  occ. eigenvalues --   -0.47980  -0.32278
 Alpha virt. eigenvalues --    0.03489   0.03699   0.04338   0.04608   0.06318
 Alpha virt. eigenvalues --    0.06650   0.07354   0.07658   0.11237   0.11778
 Alpha virt. eigenvalues --    0.13228   0.14134   0.15904   0.16662   0.17352

  Beta  occ. eigenvalues --  -11.22737 -11.22124  -7.59764  -1.02662  -0.85930
  Beta  occ. eigenvalues --   -0.62632  -0.60790  -0.58121  -0.51402  -0.49947
  Beta  occ. eigenvalues --   -0.46932
  Beta virt. eigenvalues --    0.03438   0.03852   0.03988   0.04663   0.06426
  Beta virt. eigenvalues --    0.06986   0.07122   0.07781   0.10155   0.11983
  Beta virt. eigenvalues --    0.12760   0.13522   0.15319   0.16257   0.17080

 Mulliken charges and spin densities:
               1          2
     1  B   -0.259314   1.025194
     2  C   -0.239536  -0.045233
     3  C   -0.417152   0.012547
     4  H    0.093866   0.002959
     5  H    0.093852   0.002966
     6  H    0.143340  -0.001617
     7  H    0.132931  -0.000774
     8  H    0.143341  -0.001617
     9  H    0.308672   0.005575
 Sum of Mulliken charges =  -0.00000   1.00000

 Dipole moment (field-independent basis, Debye):
    X=              0.4072    Y=              0.9612    Z=             -0.0000  Tot=              1.0439
                          Isotropic Fermi Contact Couplings
        Atom                 a.u.       MegaHertz       Gauss      10(-4) cm-1
     1  B(11)              0.23113     331.52036     118.29471     110.58329
     2  C(13)              0.00524       5.89379       2.10305       1.96596
     3  C(13)              0.02419      27.19471       9.70375       9.07118
     4  H(1)               0.00310      13.85955       4.94543       4.62305
     5  H(1)               0.00310      13.86815       4.94850       4.62592
     6  H(1)              -0.00044      -1.97628      -0.70519      -0.65922
     7  H(1)              -0.00042      -1.87998      -0.67082      -0.62709
     8  H(1)              -0.00044      -1.97621      -0.70516      -0.65919

 Normal termination of Gaussian 16 at Wed Apr  9 00:28:15 2025.
