 Gaussian 16, Revision C.01,

 ----------------------------------------------------------------------
 #t hf aug-cc-pvdz symm=none int=(grid=ultrafine) guess=(read,tcheck) s
 table=(opt,rrhf)
 ----------------------------------------------------------------------
 -----
 title
 -----
 Symbolic Z-matrix:
 Charge =  0 Multiplicity = 1

 SCF Done:  E(RHF) =  -2738.96101388     A.U. after   16 cycles
 Normal termination of Gaussian 16 at Tue Apr  8 23:23:48 2025.
 Gaussian 16:  ES64L-G16RevC.01  3-Jul-2019

 ----------------------------------------------------------------------
 #t hf aug-cc-pvdz iop(5/13=1,5/36=2,99/5=2) pseudo=read geom=check gue
 ss=(read,tcheck) scf=(maxcycle=1)
 ----------------------------------------------------------------------
 -----
 title
 -----
 Structure from the checkpoint file:  "BDE49_nonexpt_1237_mol1.chk"
 Charge =  0 Multiplicity = 1

                         Standard orientation:
 ---------------------------------------------------------------------
 Center     Atomic      Atomic             Coordinates (Angstroms)
 Number     Number       Type             X           Y           Z
 ---------------------------------------------------------------------
      1         17           0       -0.000368    2.456130   -1.434259
      2         17           0        2.974799   -1.693649    0.091871
      3         17           0       -2.974262   -1.694449    0.091828
      4         15           0       -0.000267    2.149952    0.653091
      5         15           0        1.650033   -0.353803   -0.732786
      6         15           0       -1.649834   -0.354233   -0.732772
      7          6           0       -1.385800    0.806102    0.771616
      8          6           0        1.385768    0.806594    0.771525
      9          6           0        0.000223   -1.308178   -0.415919
     10          8           0       -2.040312    0.764152    1.767953
     11          8           0        2.039565    0.764101    1.768308
     12          8           0        0.000372   -2.479800   -0.200864
 ---------------------------------------------------------------------

 SCF Done:  E(RHF) =  -2739.63394505     A.U. after    2 cycles

 The electronic state is 1-A.
 Alpha  occ. eigenvalues -- -105.61674-105.59649-105.59649 -84.39540 -84.38380
 Alpha  occ. eigenvalues --  -84.38354 -20.62241 -20.62240 -20.61056 -11.41543
 Alpha  occ. eigenvalues --  -11.41540 -11.41038 -10.66521 -10.64519 -10.64518
 Alpha  occ. eigenvalues --   -7.83422  -7.83061  -7.83054  -7.81441  -7.81439
 Alpha  occ. eigenvalues --   -7.81036  -7.81036  -7.81022  -7.81022  -6.86148
 Alpha  occ. eigenvalues --   -6.85052  -6.85044  -4.38214  -4.38199  -4.37673
 Alpha  occ. eigenvalues --   -4.37298  -4.37242  -4.37072  -4.37039  -4.36636
 Alpha  occ. eigenvalues --   -4.36578  -1.55599  -1.55485  -1.54659  -1.13220
 Alpha  occ. eigenvalues --   -1.11008  -1.10994  -1.00326  -0.93023  -0.92722
 Alpha  occ. eigenvalues --   -0.80238  -0.79827  -0.74341  -0.70164  -0.68663
 Alpha  occ. eigenvalues --   -0.68243  -0.65753  -0.63256  -0.62442  -0.61189
 Alpha  occ. eigenvalues --   -0.59294  -0.59078  -0.54598  -0.53111  -0.51991
 Alpha  occ. eigenvalues --   -0.51676  -0.50438  -0.49859  -0.49448  -0.48506
 Alpha  occ. eigenvalues --   -0.44005  -0.38519  -0.36764  -0.36123
 Alpha virt. eigenvalues --    0.00877   0.03641   0.04333   0.04487   0.04944
 Alpha virt. eigenvalues --    0.05666   0.06028   0.07464   0.08137   0.08816
 Alpha virt. eigenvalues --    0.08923   0.09523   0.09753   0.10080   0.10847

 Mulliken charges:
               1
     1  Cl  -0.446181
     2  Cl  -0.417853
     3  Cl  -0.417856
     4  P    1.360163
     5  P    1.328076
     6  P    1.328088
     7  C    0.248387
     8  C    0.248284
     9  C    0.125342
    10  O   -1.131734
    11  O   -1.131596
    12  O   -1.093120
 Sum of Mulliken charges =  -0.00000

 Dipole moment (field-independent basis, Debye):
    X=             -0.0001    Y=              3.1193    Z=             -2.6859  Tot=              4.1163

 Test job not archived.
 1\1\GINC-SE461\SP\RHF\Aug-CC-pVDZ\C3Cl3O3P3\OHZDE\08-Apr-2025\0\\#t hf
  aug-cc-pvdz iop(5/13=1,5/36=2,99/5=2) pseudo=read geom=check guess=(r
 ead,tcheck) scf=(maxcycle=1)\\title\\0,1\Cl,0,-0.000368,2.45613,-1.434
 259\Cl,0,2.974799,-1.693649,0.091871\Cl,0,-2.974262,-1.694449,0.091828
 \P,0,-0.000267,2.149952,0.653091\P,0,1.650033,-0.353803,-0.732786\P,0,
 -1.649834,-0.354233,-0.732772\C,0,-1.3858,0.806102,0.771616\C,0,1.3857
 68,0.806594,0.771525\C,0,0.000223,-1.308178,-0.415919\O,0,-2.040312,0.
 764152,1.767953\O,0,2.039565,0.764101,1.768308\O,0,0.000372,-2.4798,-0

 Normal termination of Gaussian 16 at Tue Apr  8 23:24:00 2025.
