 Gaussian 16, Revision C.01,

 ----------------------------------------------------------------------
 #t hf aug-cc-pvdz symm=none int=(grid=ultrafine) guess=(read,tcheck) s
 table=(opt,rrhf)
 ----------------------------------------------------------------------
 -----
 title
 -----
 Symbolic Z-matrix:
 Charge =  0 Multiplicity = 1

 SCF Done:  E(RHF) =  -1590.53100920     A.U. after   14 cycles
 Normal termination of Gaussian 16 at Tue Apr  8 23:19:53 2025.
 Gaussian 16:  ES64L-G16RevC.01  3-Jul-2019

 ----------------------------------------------------------------------
 #t hf aug-cc-pvdz iop(5/13=1,5/36=2,99/5=2) pseudo=read geom=check gue
 ss=(read,tcheck) scf=(maxcycle=1)
 ----------------------------------------------------------------------
 -----
 title
 -----
 Structure from the checkpoint file:  "BDE49_nonexpt_1117_mol1.chk"
 Charge =  0 Multiplicity = 1

                         Standard orientation:
 ---------------------------------------------------------------------
 Center     Atomic      Atomic             Coordinates (Angstroms)
 Number     Number       Type             X           Y           Z
 ---------------------------------------------------------------------
      1          9           0        1.983966   -0.988205    0.000000
      2          8           0        1.368920    0.315700    0.000000
      3          6           0       -0.006811    0.121667   -0.000000
      4         17           0       -0.564043    1.812122   -0.000000
      5         17           0       -0.564043   -0.740230    1.462108
      6         17           0       -0.564043   -0.740230   -1.462108
 ---------------------------------------------------------------------

 SCF Done:  E(RHF) =  -1590.95223691     A.U. after    2 cycles

 The electronic state is 1-A'.
 Alpha  occ. eigenvalues -- -105.62360-105.61466-105.61465 -26.55109 -20.73614
 Alpha  occ. eigenvalues --  -11.52492 -10.67209 -10.66327 -10.66314  -7.84163
 Alpha  occ. eigenvalues --   -7.83700  -7.83684  -7.83273  -7.83264  -7.82812
 Alpha  occ. eigenvalues --   -7.82811  -7.82809  -7.82807  -1.71370  -1.44447
 Alpha  occ. eigenvalues --   -1.19808  -1.09918  -1.09272  -0.87734  -0.76183
 Alpha  occ. eigenvalues --   -0.75249  -0.74328  -0.66791  -0.63959  -0.62226
 Alpha  occ. eigenvalues --   -0.55461  -0.53053  -0.52794  -0.52241  -0.49478
 Alpha  occ. eigenvalues --   -0.49125  -0.47880
 Alpha virt. eigenvalues --    0.05659   0.07000   0.08229   0.08528   0.10514
 Alpha virt. eigenvalues --    0.12031   0.12263   0.12601   0.14457   0.14560
 Alpha virt. eigenvalues --    0.14761   0.18325   0.18379   0.18575   0.20798

 Mulliken charges:
               1
     1  F   -0.358000
     2  O   -0.338352
     3  C    0.013810
     4  Cl   0.209198
     5  Cl   0.236672
     6  Cl   0.236672
 Sum of Mulliken charges =  -0.00000

 Dipole moment (field-independent basis, Debye):
    X=             -0.7347    Y=              0.3180    Z=              0.0000  Tot=              0.8006

 Test job not archived.
 1\1\GINC-SE127\SP\RHF\Aug-CC-pVDZ\C1Cl3F1O1\OHZDE\08-Apr-2025\0\\#t hf
  aug-cc-pvdz iop(5/13=1,5/36=2,99/5=2) pseudo=read geom=check guess=(r
 ead,tcheck) scf=(maxcycle=1)\\title\\0,1\F,0,1.983966,-0.988205,0.\O,0
 ,1.36892,0.3157,0.\C,0,-0.006811,0.121667,0.\Cl,0,-0.564043,1.812122,0
 .\Cl,0,-0.564043,-0.74023,1.462108\Cl,0,-0.564043,-0.74023,-1.462108\\
 Version=ES64L-G16RevC.01\State=1-A'\HF=-1590.9522369\RMSD=4.794e-03\Di
 pole=-0.2890659,0.1251301,0.\Quadrupole=-1.5044647,0.9375737,0.566891,
 0.0257967,0.,0.\PG=CS [SG(C1Cl1F1O1),X(Cl2)]\\@

 Normal termination of Gaussian 16 at Tue Apr  8 23:19:56 2025.
