 Gaussian 16, Revision C.01,

 ----------------------------------------------------------------------
 #t hf aug-cc-pvdz symm=none int=(grid=ultrafine) guess=(read,tcheck) s
 table=(opt,rrhf)
 ----------------------------------------------------------------------
 -----
 title
 -----
 Symbolic Z-matrix:
 Charge =  0 Multiplicity = 1

 SCF Done:  E(RHF) =  -1865.02763071     A.U. after   18 cycles
 Normal termination of Gaussian 16 at Tue Apr  8 23:25:27 2025.
 Gaussian 16:  ES64L-G16RevC.01  3-Jul-2019

 ----------------------------------------------------------------------
 #t hf aug-cc-pvdz iop(5/13=1,5/36=2,99/5=2) pseudo=read geom=check gue
 ss=(read,tcheck) scf=(maxcycle=1)
 ----------------------------------------------------------------------
 -----
 title
 -----
 Structure from the checkpoint file:  "BDE49_nonexpt_1261_mol1.chk"
 Charge =  0 Multiplicity = 1

                         Standard orientation:
 ---------------------------------------------------------------------
 Center     Atomic      Atomic             Coordinates (Angstroms)
 Number     Number       Type             X           Y           Z
 ---------------------------------------------------------------------
      1         17           0        2.864038   -0.673082   -0.180353
      2         17           0       -2.713088   -0.424241   -0.889002
      3          8           0        0.065540   -1.984906    1.168110
      4          8           0        1.519517    2.270820    0.241943
      5         15           0       -1.694951    0.133175    0.877969
      6         15           0        0.946059   -0.223328   -0.799674
      7          6           0       -0.130357   -0.976236    0.565674
      8          6           0       -0.825402    1.698981    0.303540
      9          1           0       -1.323275    2.068654   -0.597645
     10          1           0       -0.906465    2.470921    1.073171
     11          6           0        0.658511    1.473906    0.005564
 ---------------------------------------------------------------------

 SCF Done:  E(RHF) =  -1865.52038013     A.U. after    2 cycles

 The electronic state is 1-A.
 Alpha  occ. eigenvalues -- -105.59630-105.59241 -84.37691 -84.36734 -20.60710
 Alpha  occ. eigenvalues --  -20.59172 -11.39850 -11.39541 -11.30433 -10.64473
 Alpha  occ. eigenvalues --  -10.64093  -7.81380  -7.81016  -7.81009  -7.80998
 Alpha  occ. eigenvalues --   -7.80611  -7.80599  -6.84276  -6.83542  -4.36403
 Alpha  occ. eigenvalues --   -4.36273  -4.35865  -4.35681  -4.35622  -4.35101
 Alpha  occ. eigenvalues --   -1.53975  -1.52696  -1.13191  -1.10011  -1.06195
 Alpha  occ. eigenvalues --   -0.94655  -0.88369  -0.77403  -0.75691  -0.69267
 Alpha  occ. eigenvalues --   -0.68122  -0.65288  -0.63869  -0.62005  -0.59282
 Alpha  occ. eigenvalues --   -0.56678  -0.55183  -0.51622  -0.51357  -0.50761
 Alpha  occ. eigenvalues --   -0.49995  -0.47010  -0.42711  -0.38387  -0.35132
 Alpha virt. eigenvalues --    0.01858   0.03148   0.04405   0.05925   0.06561
 Alpha virt. eigenvalues --    0.06740   0.07220   0.07710   0.08581   0.09405
 Alpha virt. eigenvalues --    0.10504   0.11408   0.11707   0.12920   0.13192

 Mulliken charges:
               1
     1  Cl  -0.423161
     2  Cl  -0.464908
     3  O   -1.169324
     4  O   -1.200054
     5  P    1.303081
     6  P    1.235686
     7  C    0.426535
     8  C   -0.827769
     9  H    0.342996
    10  H    0.191350
    11  C    0.585567
 Sum of Mulliken charges =  -0.00000

 Dipole moment (field-independent basis, Debye):
    X=             -2.4020    Y=              1.7613    Z=             -0.4613  Tot=              3.0141

 Test job not archived.
 1\1\GINC-SE220\SP\RHF\Aug-CC-pVDZ\C3H2Cl2O2P2\OHZDE\08-Apr-2025\0\\#t
 hf aug-cc-pvdz iop(5/13=1,5/36=2,99/5=2) pseudo=read geom=check guess=
 (read,tcheck) scf=(maxcycle=1)\\title\\0,1\Cl,0,2.864038,-0.673082,-0.
 180353\Cl,0,-2.713088,-0.424241,-0.889002\O,0,0.06554,-1.984906,1.1681
 1\O,0,1.519517,2.27082,0.241943\P,0,-1.694951,0.133175,0.877969\P,0,0.
 946059,-0.223328,-0.799674\C,0,-0.130357,-0.976236,0.565674\C,0,-0.825
 402,1.698981,0.30354\H,0,-1.323275,2.068654,-0.597645\H,0,-0.906465,2.
 470921,1.073171\C,0,0.658511,1.473906,0.005564\\Version=ES64L-G16RevC.

 Normal termination of Gaussian 16 at Tue Apr  8 23:25:35 2025.
