 Gaussian 16, Revision C.01,

 ----------------------------------------------------------------------
 #t hf aug-cc-pvdz symm=none int=(grid=ultrafine) guess=(read,tcheck) s
 table=(opt,rrhf)
 ----------------------------------------------------------------------
 -----
 title
 -----
 Symbolic Z-matrix:
 Charge =  0 Multiplicity = 1

 SCF Done:  E(RHF) =  -1005.78373759     A.U. after   17 cycles
 Normal termination of Gaussian 16 at Tue Apr  8 23:20:01 2025.
 Gaussian 16:  ES64L-G16RevC.01  3-Jul-2019

 ----------------------------------------------------------------------
 #t hf aug-cc-pvdz iop(5/13=1,5/36=2,99/5=2) pseudo=read geom=check gue
 ss=(read,tcheck) scf=(maxcycle=1)
 ----------------------------------------------------------------------
 -----
 title
 -----
 Structure from the checkpoint file:  "BDE49_expt_418_mol1.chk"
 Charge =  0 Multiplicity = 1

                         Standard orientation:
 ---------------------------------------------------------------------
 Center     Atomic      Atomic             Coordinates (Angstroms)
 Number     Number       Type             X           Y           Z
 ---------------------------------------------------------------------
      1          6           0       -2.471532   -0.534608    1.022673
      2          6           0       -3.086328   -1.732450    0.676249
      3          6           0       -2.840823   -2.314987   -0.565497
      4          6           0       -1.985045   -1.678155   -1.461019
      5          6           0       -1.376173   -0.471161   -1.130439
      6          6           0       -1.611876    0.103736    0.121548
      7          7           0       -1.062706    1.354319    0.513057
      8          6           0       -0.000023    2.051231    0.000001
      9          7           0        1.062674    1.354342   -0.513056
     10          6           0        1.611872    0.103772   -0.121547
     11          6           0        1.376187   -0.471129    1.130442
     12          6           0        1.985090   -1.678109    1.461021
     13          6           0        2.840878   -2.314923    0.565497
     14          6           0        3.086365   -1.732381   -0.676252
     15          6           0        2.471539   -0.534554   -1.022675
     16          1           0       -3.752709   -2.213973    1.382774
     17          1           0       -3.313624   -3.252416   -0.833192
     18          1           0       -2.651833   -0.088098    1.994803
     19          1           0       -1.794585   -2.116205   -2.434153
     20          1           0       -0.730982    0.025014   -1.842214
     21          1           0       -1.704908    1.970338    0.991803
     22          1           0        1.704861    1.970375   -0.991804
     23         16           0       -0.000043    3.725753   -0.000002
     24          1           0        2.651826   -0.088042   -1.994806
     25          1           0        3.313700   -3.252341    0.833191
     26          1           0        3.752753   -2.213891   -1.382779
     27          1           0        0.730989    0.025032    1.842219
     28          1           0        1.794643   -2.116161    2.434157
 ---------------------------------------------------------------------

 SCF Done:  E(RHF) =  -1006.46149615     A.U. after    2 cycles

 The electronic state is 1-A.
 Alpha  occ. eigenvalues --  -93.89282 -15.55768 -15.55655 -11.39202 -11.30516
 Alpha  occ. eigenvalues --  -11.30515 -11.25851 -11.25850 -11.25735 -11.25734
 Alpha  occ. eigenvalues --  -11.25574 -11.25572 -11.25303 -11.25301 -11.25017
 Alpha  occ. eigenvalues --  -11.25017  -8.17565  -6.15440  -6.15105  -6.15016
 Alpha  occ. eigenvalues --   -1.32729  -1.25178  -1.16608  -1.15719  -1.06589
 Alpha  occ. eigenvalues --   -1.03381  -1.03377  -1.02318  -0.98587  -0.89737
 Alpha  occ. eigenvalues --   -0.87090  -0.85795  -0.85476  -0.82035  -0.77006
 Alpha  occ. eigenvalues --   -0.75847  -0.72327  -0.70031  -0.69771  -0.65806
 Alpha  occ. eigenvalues --   -0.65771  -0.63975  -0.63382  -0.62184  -0.61297
 Alpha  occ. eigenvalues --   -0.60303  -0.57993  -0.55184  -0.54222  -0.52523
 Alpha  occ. eigenvalues --   -0.52332  -0.52012  -0.51363  -0.47697  -0.37490
 Alpha  occ. eigenvalues --   -0.36198  -0.35959  -0.34375  -0.34321  -0.31982
 Alpha virt. eigenvalues --    0.02690   0.02872   0.03157   0.03247   0.04212
 Alpha virt. eigenvalues --    0.04649   0.05565   0.05603   0.06449   0.06767
 Alpha virt. eigenvalues --    0.07271   0.07753   0.08291   0.08463   0.09366

 Mulliken charges:
               1
     1  C    0.324036
     2  C    0.345495
     3  C    0.347596
     4  C    0.141626
     5  C    0.467853
     6  C   -0.706339
     7  N    0.945744
     8  C   -1.585481
     9  N    0.945743
    10  C   -0.706330
    11  C    0.467848
    12  C    0.141633
    13  C    0.347591
    14  C    0.345493
    15  C    0.324036
    16  H   -0.234004
    17  H   -0.239486
    18  H   -0.357790
    19  H   -0.273935
    20  H   -0.367568
    21  H    0.321688
    22  H    0.321691
    23  S    0.155647
    24  H   -0.357791
    25  H   -0.239486
    26  H   -0.234004
    27  H   -0.367572
    28  H   -0.273933
 Sum of Mulliken charges =  -0.00000

 Dipole moment (field-independent basis, Debye):
    X=              0.0001    Y=             -5.1855    Z=              0.0000  Tot=              5.1855

 Test job not archived.
 1\1\GINC-SE016\SP\RHF\Aug-CC-pVDZ\C13H12N2S1\OHZDE\08-Apr-2025\0\\#t h
 f aug-cc-pvdz iop(5/13=1,5/36=2,99/5=2) pseudo=read geom=check guess=(
 read,tcheck) scf=(maxcycle=1)\\title\\0,1\C,0,-2.471531,-0.534611,1.02
 2673\C,0,-3.086326,-1.732454,0.676249\C,0,-2.84082,-2.314991,-0.565497
 \C,0,-1.985043,-1.678158,-1.461019\C,0,-1.376172,-0.471163,-1.130439\C
 ,0,-1.611876,0.103734,0.121548\N,0,-1.062708,1.354318,0.513057\C,0,-0.
 000026,2.051231,0.000001\N,0,1.062672,1.354344,-0.513056\C,0,1.611872,
 0.103774,-0.121547\C,0,1.376188,-0.471127,1.130442\C,0,1.985092,-1.678

 Normal termination of Gaussian 16 at Tue Apr  8 23:20:40 2025.
