 Gaussian 16, Revision C.01,

 ----------------------------------------------------------------------
 #t hf aug-cc-pvdz symm=none int=(grid=ultrafine) guess=(read,tcheck) s
 table=(opt,rrhf)
 ----------------------------------------------------------------------
 -----
 title
 -----
 Symbolic Z-matrix:
 Charge =  0 Multiplicity = 1

 SCF Done:  E(RHF) =  -956.614411966     A.U. after   15 cycles
 Normal termination of Gaussian 16 at Wed Apr  9 00:11:10 2025.
 Gaussian 16:  ES64L-G16RevC.01  3-Jul-2019

 ----------------------------------------------------------------------
 #t hf aug-cc-pvdz iop(5/13=1,5/36=2,99/5=2) pseudo=read geom=check gue
 ss=(read,tcheck) scf=(maxcycle=1)
 ----------------------------------------------------------------------
 -----
 title
 -----
 Structure from the checkpoint file:  "BDE49_nonexpt_2354_mol1.chk"
 Charge =  0 Multiplicity = 1

                         Standard orientation:
 ---------------------------------------------------------------------
 Center     Atomic      Atomic             Coordinates (Angstroms)
 Number     Number       Type             X           Y           Z
 ---------------------------------------------------------------------
      1         14           0        1.073727    1.157535    0.517101
      2         14           0       -1.053679    1.115089   -0.504197
      3          6           0        1.908142   -0.499989   -0.040005
      4          8           0        1.236448   -1.503226   -0.158187
      5          1           0        1.015810    1.088998    1.995266
      6          1           0        1.957704    2.286791    0.128257
      7          8           0        3.228709   -0.571776   -0.305372
      8          6           0       -2.091698   -0.426439    0.052529
      9          1           0       -0.829759    1.045153   -1.967699
     10          1           0       -1.821657    2.326853   -0.160657
     11          8           0       -3.277451   -0.269484    0.195670
     12          8           0       -1.512143   -1.618591    0.248604
     13          1           0        3.639577    0.293022   -0.181460
     14          1           0       -0.545512   -1.594378    0.084772
 ---------------------------------------------------------------------

 SCF Done:  E(RHF) =  -957.044060040     A.U. after    2 cycles

 The electronic state is 1-A.
 Alpha  occ. eigenvalues --  -69.58003 -69.56803 -20.63580 -20.58490 -20.57913
 Alpha  occ. eigenvalues --  -20.53744 -11.41946 -11.38277  -6.25223  -6.23959
 Alpha  occ. eigenvalues --   -4.00583  -4.00532  -4.00512  -3.99308  -3.99282
 Alpha  occ. eigenvalues --   -3.99272  -1.57822  -1.53302  -1.48967  -1.44746
 Alpha  occ. eigenvalues --   -0.89864  -0.85795  -0.84167  -0.79318  -0.70737
 Alpha  occ. eigenvalues --   -0.70240  -0.66599  -0.65490  -0.65279  -0.61654
 Alpha  occ. eigenvalues --   -0.60060  -0.54900  -0.53612  -0.52048  -0.51061
 Alpha  occ. eigenvalues --   -0.46941  -0.46107  -0.45159  -0.40635
 Alpha virt. eigenvalues --    0.01695   0.02908   0.03539   0.05085   0.05735
 Alpha virt. eigenvalues --    0.06230   0.06463   0.06889   0.07345   0.08083
 Alpha virt. eigenvalues --    0.08390   0.09700   0.10091   0.10945   0.11146

 Mulliken charges:
               1
     1  Si   0.702437
     2  Si   0.498693
     3  C    1.403755
     4  O   -1.104906
     5  H   -0.140176
     6  H   -0.162895
     7  O   -1.169664
     8  C    1.386888
     9  H   -0.045147
    10  H   -0.075324
    11  O   -1.118359
    12  O   -1.232362
    13  H    0.376345
    14  H    0.680715
 Sum of Mulliken charges =   0.00000

 Dipole moment (field-independent basis, Debye):
    X=              5.5170    Y=              4.9702    Z=             -0.1231  Tot=              7.4267

 Test job not archived.
 1\1\GINC-SE361\SP\RHF\Aug-CC-pVDZ\C2H6O4Si2\OHZDE\09-Apr-2025\0\\#t hf
  aug-cc-pvdz iop(5/13=1,5/36=2,99/5=2) pseudo=read geom=check guess=(r
 ead,tcheck) scf=(maxcycle=1)\\title\\0,1\Si,0,-1.073727,1.157535,-0.51
 7101\Si,0,1.053679,1.115089,0.504197\C,0,-1.908142,-0.499989,0.040005\
 O,0,-1.236448,-1.503226,0.158187\H,0,-1.01581,1.088998,-1.995266\H,0,-
 1.957704,2.286791,-0.128257\O,0,-3.228709,-0.571776,0.305372\C,0,2.091
 698,-0.426439,-0.052529\H,0,0.829759,1.045153,1.967699\H,0,1.821657,2.
 326853,0.160657\O,0,3.277451,-0.269484,-0.19567\O,0,1.512143,-1.618591

 Normal termination of Gaussian 16 at Wed Apr  9 00:11:16 2025.
