 Gaussian 16, Revision C.01,

 ----------------------------------------------------------------------
 #t hf aug-cc-pvdz symm=none int=(grid=ultrafine) guess=(read,tcheck) s
 table=(opt,rrhf)
 ----------------------------------------------------------------------
 -----
 title
 -----
 Symbolic Z-matrix:
 Charge =  0 Multiplicity = 1

 SCF Done:  E(RHF) =  -306.686596170     A.U. after   15 cycles
 Normal termination of Gaussian 16 at Tue Apr  8 23:20:54 2025.
 Gaussian 16:  ES64L-G16RevC.01  3-Jul-2019

 ----------------------------------------------------------------------
 #t hf aug-cc-pvdz iop(5/13=1,5/36=2,99/5=2) pseudo=read geom=check gue
 ss=(read,tcheck) scf=(maxcycle=1)
 ----------------------------------------------------------------------
 -----
 title
 -----
 Structure from the checkpoint file:  "BDE49_nonexpt_1155_mol1.chk"
 Charge =  0 Multiplicity = 1

                         Standard orientation:
 ---------------------------------------------------------------------
 Center     Atomic      Atomic             Coordinates (Angstroms)
 Number     Number       Type             X           Y           Z
 ---------------------------------------------------------------------
      1          9           0        1.829932   -0.707396    0.000001
      2          8           0        1.328543    0.632330   -0.000001
      3          6           0       -0.039869    0.623432   -0.000001
      4          7           0       -0.777387   -0.379413    0.000001
      5          1           0       -0.313269    1.687659   -0.000003
      6          6           0       -2.215861   -0.172094    0.000000
      7          1           0       -2.645168   -0.658520   -0.879508
      8          1           0       -2.518032    0.885163   -0.000002
      9          1           0       -2.645168   -0.658517    0.879510
 ---------------------------------------------------------------------

 SCF Done:  E(RHF) =  -306.987157250     A.U. after    2 cycles

 The electronic state is 1-A.
 Alpha  occ. eigenvalues --  -26.52131 -20.69932 -15.51620 -11.36953 -11.27831
 Alpha  occ. eigenvalues --   -1.68340  -1.40293  -1.25206  -0.98437  -0.85047
 Alpha  occ. eigenvalues --   -0.75748  -0.72298  -0.71600  -0.64626  -0.62649
 Alpha  occ. eigenvalues --   -0.60368  -0.57510  -0.56840  -0.47718  -0.44609
 Alpha virt. eigenvalues --    0.03236   0.04533   0.05659   0.05786   0.08886
 Alpha virt. eigenvalues --    0.09445   0.11218   0.13239   0.14144   0.14689
 Alpha virt. eigenvalues --    0.15087   0.16031   0.16781   0.18445   0.21372

 Mulliken charges:
               1
     1  F   -0.372176
     2  O   -0.507073
     3  C    0.304927
     4  N    0.508105
     5  H    0.067849
     6  C   -0.372989
     7  H    0.130991
     8  H    0.109373
     9  H    0.130992
 Sum of Mulliken charges =  -0.00000

 Dipole moment (field-independent basis, Debye):
    X=             -2.2532    Y=              2.4283    Z=             -0.0000  Tot=              3.3126

 Test job not archived.
 1\1\GINC-SE398\SP\RHF\Aug-CC-pVDZ\C2H4F1N1O1\OHZDE\08-Apr-2025\0\\#t h
 f aug-cc-pvdz iop(5/13=1,5/36=2,99/5=2) pseudo=read geom=check guess=(
 read,tcheck) scf=(maxcycle=1)\\title\\0,1\F,0,1.829932,-0.707396,0.000
 001\O,0,1.328543,0.63233,-0.000001\C,0,-0.039869,0.623432,-0.000001\N,
 0,-0.777387,-0.379413,0.000001\H,0,-0.313269,1.687659,-0.000003\C,0,-2
 .215861,-0.172094,0.\H,0,-2.645168,-0.65852,-0.879508\H,0,-2.518032,0.
 885163,-0.000002\H,0,-2.645168,-0.658517,0.87951\\Version=ES64L-G16Rev
 C.01\State=1-A\HF=-306.9871572\RMSD=1.078e-02\Dipole=-0.8864865,0.9553

 Normal termination of Gaussian 16 at Tue Apr  8 23:20:57 2025.
