 Gaussian 16, Revision C.01,

 ----------------------------------------------------------------------
 #t hf aug-cc-pvdz symm=none int=(grid=ultrafine) guess=(read,tcheck) s
 table=(opt,rrhf)
 ----------------------------------------------------------------------
 -----
 title
 -----
 Symbolic Z-matrix:
 Charge =  0 Multiplicity = 1

 SCF Done:  E(RHF) =  -1498.49396197     A.U. after   15 cycles
 Normal termination of Gaussian 16 at Wed Apr  9 00:17:04 2025.
 Gaussian 16:  ES64L-G16RevC.01  3-Jul-2019

 ----------------------------------------------------------------------
 #t hf aug-cc-pvdz iop(5/13=1,5/36=2,99/5=2) pseudo=read geom=check gue
 ss=(read,tcheck) scf=(maxcycle=1)
 ----------------------------------------------------------------------
 -----
 title
 -----
 Structure from the checkpoint file:  "BDE49_nonexpt_2555_mol1.chk"
 Charge =  0 Multiplicity = 1

                         Standard orientation:
 ---------------------------------------------------------------------
 Center     Atomic      Atomic             Coordinates (Angstroms)
 Number     Number       Type             X           Y           Z
 ---------------------------------------------------------------------
      1         17           0        2.548922    0.631760    0.048277
      2         16           0        1.321249   -1.026648   -0.054167
      3         15           0       -1.337696    0.033363   -0.089670
      4          8           0       -1.873118   -0.875196   -1.098458
      5          8           0       -2.295628    0.427230    1.113786
      6          1           0       -2.881816   -0.295258    1.369287
      7          8           0       -0.820510    1.446150   -0.590953
      8          1           0       -1.134660    1.653889   -1.479132
      9          8           0       -0.059462   -0.519760    0.763233
 ---------------------------------------------------------------------

 SCF Done:  E(RHF) =  -1498.96553593     A.U. after    2 cycles

 The electronic state is 1-A.
 Alpha  occ. eigenvalues -- -105.60341 -94.08677 -84.48316 -20.63261 -20.61573
 Alpha  occ. eigenvalues --  -20.61487 -20.52849 -10.65077  -8.35665  -7.82014
 Alpha  occ. eigenvalues --   -7.81564  -7.81515  -6.93153  -6.33424  -6.33224
 Alpha  occ. eigenvalues --   -6.32819  -4.47332  -4.46652  -4.46387  -1.58471
 Alpha  occ. eigenvalues --   -1.50728  -1.50148  -1.41350  -1.12904  -0.96271
 Alpha  occ. eigenvalues --   -0.86738  -0.75614  -0.73414  -0.68949  -0.65792
 Alpha  occ. eigenvalues --   -0.64758  -0.62566  -0.58633  -0.56946  -0.55243
 Alpha  occ. eigenvalues --   -0.53088  -0.51792  -0.49226  -0.48266  -0.47923
 Alpha  occ. eigenvalues --   -0.39353
 Alpha virt. eigenvalues --    0.03346   0.04175   0.04551   0.06795   0.08296
 Alpha virt. eigenvalues --    0.09225   0.11154   0.11663   0.12419   0.12907
 Alpha virt. eigenvalues --    0.13941   0.14804   0.16629   0.17691   0.18430

 Mulliken charges:
               1
     1  Cl  -0.250080
     2  S    0.752774
     3  P    3.956467
     4  O   -1.320486
     5  O   -1.228297
     6  H    0.349284
     7  O   -1.256366
     8  H    0.371007
     9  O   -1.374305
 Sum of Mulliken charges =   0.00000

 Dipole moment (field-independent basis, Debye):
    X=             -0.8155    Y=              0.6255    Z=              0.4247  Tot=              1.1120

 Test job not archived.
 1\1\GINC-SE054\SP\RHF\Aug-CC-pVDZ\Cl1H2O4P1S1\OHZDE\09-Apr-2025\0\\#t
 hf aug-cc-pvdz iop(5/13=1,5/36=2,99/5=2) pseudo=read geom=check guess=
 (read,tcheck) scf=(maxcycle=1)\\title\\0,1\Cl,0,2.548922,0.63176,0.048
 277\S,0,1.321249,-1.026648,-0.054167\P,0,-1.337696,0.033363,-0.08967\O
 ,0,-1.873118,-0.875196,-1.098458\O,0,-2.295628,0.42723,1.113786\H,0,-2
 .881816,-0.295258,1.369287\O,0,-0.82051,1.44615,-0.590953\H,0,-1.13466
 ,1.653889,-1.479132\O,0,-0.059462,-0.51976,0.763233\\Version=ES64L-G16
 RevC.01\State=1-A\HF=-1498.9655359\RMSD=8.467e-03\Dipole=-0.3208556,0.

 Normal termination of Gaussian 16 at Wed Apr  9 00:17:08 2025.
