 Gaussian 16, Revision C.01,

 ----------------------------------------------------------------------
 #t hf aug-cc-pvdz symm=none int=(grid=ultrafine) guess=(read,tcheck) s
 table=(opt,rrhf)
 ----------------------------------------------------------------------
 -----
 title
 -----
 Symbolic Z-matrix:
 Charge =  0 Multiplicity = 1

 SCF Done:  E(RHF) =  -1078.58958286     A.U. after   13 cycles
 Normal termination of Gaussian 16 at Tue Apr  8 23:43:24 2025.
 Gaussian 16:  ES64L-G16RevC.01  3-Jul-2019

 ----------------------------------------------------------------------
 #t hf aug-cc-pvdz iop(5/13=1,5/36=2,99/5=2) pseudo=read geom=check gue
 ss=(read,tcheck) scf=(maxcycle=1)
 ----------------------------------------------------------------------
 -----
 title
 -----
 Structure from the checkpoint file:  "BDE49_nonexpt_1713_mol1.chk"
 Charge =  0 Multiplicity = 1

                         Standard orientation:
 ---------------------------------------------------------------------
 Center     Atomic      Atomic             Coordinates (Angstroms)
 Number     Number       Type             X           Y           Z
 ---------------------------------------------------------------------
      1         16           0        0.716688   -1.123682   -0.050560
      2         15           0       -0.913193    0.214329   -0.045124
      3          8           0       -0.632189    1.571813   -0.529888
      4          8           0       -1.543148    0.137623    1.419455
      5          8           0        1.908029   -0.144339    0.622036
      6          6           0        2.598855    0.706150   -0.317177
      7          1           0        3.371998    1.202255    0.270714
      8          1           0        1.915236    1.444106   -0.739719
      9          1           0        3.060700    0.113043   -1.111546
     10          1           0       -1.846507    1.005445    1.716347
     11          8           0       -1.979751   -0.654930   -0.876484
     12          1           0       -1.887188   -0.519126   -1.827873
 ---------------------------------------------------------------------

 SCF Done:  E(RHF) =  -1079.03211280     A.U. after    2 cycles

 The electronic state is 1-A.
 Alpha  occ. eigenvalues --  -94.02004 -84.45926 -20.61199 -20.60558 -20.59581
 Alpha  occ. eigenvalues --  -20.52320 -11.29519  -8.29638  -6.91059  -6.27424
 Alpha  occ. eigenvalues --   -6.27222  -6.26966  -4.45124  -4.44432  -4.43325
 Alpha  occ. eigenvalues --   -1.55067  -1.48971  -1.48117  -1.40568  -1.03316
 Alpha  occ. eigenvalues --   -0.92473  -0.85096  -0.73426  -0.70315  -0.67452
 Alpha  occ. eigenvalues --   -0.65512  -0.64254  -0.63151  -0.60282  -0.57298
 Alpha  occ. eigenvalues --   -0.55237  -0.52605  -0.50926  -0.49436  -0.47494
 Alpha  occ. eigenvalues --   -0.42250  -0.39755
 Alpha virt. eigenvalues --    0.03376   0.04371   0.04549   0.05803   0.06941
 Alpha virt. eigenvalues --    0.08256   0.08766   0.10184   0.10880   0.12282
 Alpha virt. eigenvalues --    0.13541   0.14028   0.14834   0.15602   0.16722

 Mulliken charges:
               1
     1  S    0.198807
     2  P    3.622463
     3  O   -1.446833
     4  O   -1.193947
     5  O   -1.249072
     6  C    0.310012
     7  H    0.021897
     8  H    0.146432
     9  H    0.151182
    10  H    0.323133
    11  O   -1.220492
    12  H    0.336419
 Sum of Mulliken charges =  -0.00000

 Dipole moment (field-independent basis, Debye):
    X=             -0.1576    Y=              0.0408    Z=             -1.0765  Tot=              1.0888

 Test job not archived.
 1\1\GINC-SE082\SP\RHF\Aug-CC-pVDZ\C1H5O4P1S1\OHZDE\08-Apr-2025\0\\#t h
 f aug-cc-pvdz iop(5/13=1,5/36=2,99/5=2) pseudo=read geom=check guess=(
 read,tcheck) scf=(maxcycle=1)\\title\\0,1\S,0,0.716688,-1.123682,-0.05
 056\P,0,-0.913193,0.214329,-0.045124\O,0,-0.632189,1.571813,-0.529888\
 O,0,-1.543148,0.137623,1.419455\O,0,1.908029,-0.144339,0.622036\C,0,2.
 598855,0.70615,-0.317177\H,0,3.371998,1.202255,0.270714\H,0,1.915236,1
 .444106,-0.739719\H,0,3.0607,0.113043,-1.111546\H,0,-1.846507,1.005445
 ,1.716347\O,0,-1.979751,-0.65493,-0.876484\H,0,-1.887188,-0.519126,-1.

 Normal termination of Gaussian 16 at Tue Apr  8 23:43:29 2025.
