 Gaussian 16, Revision C.01,

 ----------------------------------------------------------------------
 #t hf aug-cc-pvdz symm=none int=(grid=ultrafine) guess=(read,tcheck) s
 table=(opt,rrhf)
 ----------------------------------------------------------------------
 -----
 title
 -----
 Symbolic Z-matrix:
 Charge =  0 Multiplicity = 1

 SCF Done:  E(RHF) =  -611.929830574     A.U. after   14 cycles
 Normal termination of Gaussian 16 at Wed Apr  9 00:00:32 2025.
 Gaussian 16:  ES64L-G16RevC.01  3-Jul-2019

 ----------------------------------------------------------------------
 #t hf aug-cc-pvdz iop(5/13=1,5/36=2,99/5=2) pseudo=read geom=check gue
 ss=(read,tcheck) scf=(maxcycle=1)
 ----------------------------------------------------------------------
 -----
 title
 -----
 Structure from the checkpoint file:  "BDE49_nonexpt_2103_mol1.chk"
 Charge =  0 Multiplicity = 1

                         Standard orientation:
 ---------------------------------------------------------------------
 Center     Atomic      Atomic             Coordinates (Angstroms)
 Number     Number       Type             X           Y           Z
 ---------------------------------------------------------------------
      1         14           0        0.606473    0.003390    0.000010
      2          7           0       -1.279708    0.042869    0.000023
      3          8           0       -1.875752    1.117321   -0.000016
      4          8           0       -1.837740   -1.055149   -0.000047
      5          6           0        1.036199   -0.930509   -1.555889
      6          1           0        0.707261   -0.393180   -2.449173
      7          1           0        0.560898   -1.913739   -1.552921
      8          6           0        1.036215   -0.930524    1.555896
      9          1           0        2.119004   -1.072586    1.628390
     10          1           0        0.560913   -1.913753    1.552924
     11          1           0        0.707288   -0.393202    2.449189
     12          6           0        1.177395    1.775119    0.000016
     13          1           0        0.815282    2.306230   -0.883091
     14          1           0        2.271500    1.817130    0.000011
     15          1           0        0.815289    2.306223    0.883130
     16          1           0        2.118987   -1.072570   -1.628397
 ---------------------------------------------------------------------

 SCF Done:  E(RHF) =  -612.292056025     A.U. after    2 cycles

 The electronic state is 1-A.
 Alpha  occ. eigenvalues --  -69.57447 -20.57921 -20.57619 -15.73856 -11.23848
 Alpha  occ. eigenvalues --  -11.23846 -11.23702  -6.24324  -3.99723  -3.99551
 Alpha  occ. eigenvalues --   -3.99546  -1.63926  -1.48043  -1.02439  -0.96007
 Alpha  occ. eigenvalues --   -0.95918  -0.95562  -0.79187  -0.72496  -0.70873
 Alpha  occ. eigenvalues --   -0.64280  -0.59822  -0.59519  -0.58877  -0.57729
 Alpha  occ. eigenvalues --   -0.57569  -0.56378  -0.48839  -0.47900  -0.46632
 Alpha  occ. eigenvalues --   -0.45094  -0.43346
 Alpha virt. eigenvalues --    0.02359   0.03818   0.03981   0.04356   0.05774
 Alpha virt. eigenvalues --    0.05913   0.06619   0.07192   0.07542   0.09249
 Alpha virt. eigenvalues --    0.09352   0.10405   0.11005   0.11055   0.13745

 Mulliken charges:
               1
     1  Si   2.397932
     2  N    1.877838
     3  O   -1.192611
     4  O   -1.303173
     5  C   -0.616223
     6  H   -0.041885
     7  H    0.044466
     8  C   -0.616203
     9  H   -0.000760
    10  H    0.044455
    11  H   -0.041880
    12  C   -0.655012
    13  H    0.046701
    14  H    0.010416
    15  H    0.046702
    16  H   -0.000763
 Sum of Mulliken charges =  -0.00000

 Dipole moment (field-independent basis, Debye):
    X=              4.9836    Y=             -0.0299    Z=              0.0001  Tot=              4.9837

 Test job not archived.
 1\1\GINC-SE187\SP\RHF\Aug-CC-pVDZ\C3H9N1O2Si1\OHZDE\09-Apr-2025\0\\#t
 hf aug-cc-pvdz iop(5/13=1,5/36=2,99/5=2) pseudo=read geom=check guess=
 (read,tcheck) scf=(maxcycle=1)\\title\\0,1\Si,0,-0.606473,0.00339,-0.0
 0001\N,0,1.279708,0.042869,-0.000023\O,0,1.875752,1.117321,0.000016\O,
 0,1.83774,-1.055149,0.000047\C,0,-1.036199,-0.930509,1.555889\H,0,-0.7
 07261,-0.39318,2.449173\H,0,-0.560898,-1.913739,1.552921\C,0,-1.036215
 ,-0.930524,-1.555896\H,0,-2.119004,-1.072586,-1.62839\H,0,-0.560913,-1
 .913753,-1.552924\H,0,-0.707288,-0.393202,-2.449189\C,0,-1.177395,1.77

 Normal termination of Gaussian 16 at Wed Apr  9 00:00:38 2025.
