 Gaussian 16, Revision C.01,

 ----------------------------------------------------------------------
 #t hf aug-cc-pvdz symm=none int=(grid=ultrafine) guess=(read,tcheck) s
 table=(opt,rrhf)
 ----------------------------------------------------------------------
 -----
 title
 -----
 Symbolic Z-matrix:
 Charge =  0 Multiplicity = 1

 SCF Done:  E(RHF) =  -522.317481343     A.U. after   12 cycles
 Normal termination of Gaussian 16 at Wed Apr  9 00:06:56 2025.
 Gaussian 16:  ES64L-G16RevC.01  3-Jul-2019

 ----------------------------------------------------------------------
 #t hf aug-cc-pvdz iop(5/13=1,5/36=2,99/5=2) pseudo=read geom=check gue
 ss=(read,tcheck) scf=(maxcycle=1)
 ----------------------------------------------------------------------
 -----
 title
 -----
 Structure from the checkpoint file:  "BDE49_nonexpt_2244_mol1.chk"
 Charge =  0 Multiplicity = 1

                         Standard orientation:
 ---------------------------------------------------------------------
 Center     Atomic      Atomic             Coordinates (Angstroms)
 Number     Number       Type             X           Y           Z
 ---------------------------------------------------------------------
      1          6           0        2.038687   -0.310439    0.202720
      2          8           0        0.690755    0.003678   -0.145279
      3         14           0       -0.621427   -0.971543    0.099179
      4          6           0       -2.134257   -0.025420   -0.464488
      5          6           0        2.930711    0.866048   -0.153399
      6          1           0        2.361948   -1.210253   -0.337471
      7          1           0        2.104875   -0.527639    1.277215
      8          1           0        2.871105    1.078902   -1.223167
      9          1           0        3.972063    0.648532    0.101305
     10          1           0        2.618628    1.759908    0.391521
     11          6           0       -2.372042    1.302048    0.277257
     12          1           0       -2.999947   -0.689737   -0.346425
     13          1           0       -2.038218    0.153738   -1.541633
     14          1           0       -2.510159    1.139988    1.350388
     15          1           0       -3.263843    1.814023   -0.095549
     16          1           0       -1.522356    1.977507    0.153448
     17          1           0       -0.723013   -1.328926    1.541197
     18          1           0       -0.475731   -2.237284   -0.669646
 ---------------------------------------------------------------------

 SCF Done:  E(RHF) =  -522.604386909     A.U. after    2 cycles

 The electronic state is 1-A.
 Alpha  occ. eigenvalues --  -69.54133 -20.52828 -11.29049 -11.22661 -11.22567
 Alpha  occ. eigenvalues --  -11.21709  -6.20816  -3.96296  -3.96141  -3.96128
 Alpha  occ. eigenvalues --   -1.43153  -1.02784  -1.01233  -0.85576  -0.83825
 Alpha  occ. eigenvalues --   -0.72672  -0.65529  -0.62828  -0.60326  -0.59233
 Alpha  occ. eigenvalues --   -0.56684  -0.54194  -0.53620  -0.51988  -0.49790
 Alpha  occ. eigenvalues --   -0.47869  -0.46650  -0.42967  -0.42302
 Alpha virt. eigenvalues --    0.03778   0.03924   0.04104   0.04177   0.05601
 Alpha virt. eigenvalues --    0.05731   0.06234   0.07136   0.07640   0.08329
 Alpha virt. eigenvalues --    0.08862   0.09600   0.10675   0.11416   0.11762

 Mulliken charges:
               1
     1  C    0.618856
     2  O   -1.779267
     3  Si   1.892079
     4  C   -0.573076
     5  C   -0.509193
     6  H    0.089097
     7  H    0.102449
     8  H    0.169644
     9  H    0.152972
    10  H    0.165532
    11  C   -0.407277
    12  H    0.039550
    13  H    0.122717
    14  H    0.141005
    15  H    0.098955
    16  H    0.144634
    17  H   -0.201563
    18  H   -0.267114
 Sum of Mulliken charges =   0.00000

 Dipole moment (field-independent basis, Debye):
    X=              0.3434    Y=             -0.1634    Z=              0.1325  Tot=              0.4027

 Test job not archived.
 1\1\GINC-SE343\SP\RHF\Aug-CC-pVDZ\C4H12O1Si1\OHZDE\09-Apr-2025\0\\#t h
 f aug-cc-pvdz iop(5/13=1,5/36=2,99/5=2) pseudo=read geom=check guess=(
 read,tcheck) scf=(maxcycle=1)\\title\\0,1\C,0,2.038687,-0.310439,0.202
 72\O,0,0.690755,0.003678,-0.145279\Si,0,-0.621427,-0.971543,0.099179\C
 ,0,-2.134257,-0.02542,-0.464488\C,0,2.930711,0.866048,-0.153399\H,0,2.
 361948,-1.210253,-0.337471\H,0,2.104875,-0.527639,1.277215\H,0,2.87110
 5,1.078902,-1.223167\H,0,3.972063,0.648532,0.101305\H,0,2.618628,1.759
 908,0.391521\C,0,-2.372042,1.302048,0.277257\H,0,-2.999947,-0.689737,-

 Normal termination of Gaussian 16 at Wed Apr  9 00:07:02 2025.
