 Gaussian 16, Revision C.01,

 ----------------------------------------------------------------------
 #t hf aug-cc-pvdz symm=none int=(grid=ultrafine) guess=(read,tcheck) s
 table=(opt,rrhf)
 ----------------------------------------------------------------------
 -----
 title
 -----
 Symbolic Z-matrix:
 Charge =  0 Multiplicity = 1

 SCF Done:  E(RHF) =  -950.687452849     A.U. after   16 cycles
 Normal termination of Gaussian 16 at Wed Apr  9 00:47:35 2025.
 Gaussian 16:  ES64L-G16RevC.01  3-Jul-2019

 ----------------------------------------------------------------------
 #t hf aug-cc-pvdz iop(5/13=1,5/36=2,99/5=2) pseudo=read geom=check gue
 ss=(read,tcheck) scf=(maxcycle=1)
 ----------------------------------------------------------------------
 -----
 title
 -----
 Structure from the checkpoint file:  "BDE49_nonexpt_743_mol1.chk"
 Charge =  0 Multiplicity = 1

                         Standard orientation:
 ---------------------------------------------------------------------
 Center     Atomic      Atomic             Coordinates (Angstroms)
 Number     Number       Type             X           Y           Z
 ---------------------------------------------------------------------
      1          6           0       -1.180137    2.283039   -0.613165
      2          6           0        0.112647    2.038453   -0.157128
      3          6           0       -2.158081    1.295783   -0.533729
      4          6           0       -1.804378    0.072873    0.020527
      5          6           0       -0.525140   -0.187101    0.500880
      6          6           0        0.464262    0.800227    0.404645
      7          1           0       -0.329858   -1.147906    0.961084
      8          1           0       -1.426650    3.247865   -1.040497
      9          1           0        0.859647    2.819420   -0.239571
     10          5           0        2.882640   -0.667155   -0.349340
     11          8           0        2.134513   -1.391627   -1.226205
     12          8           0        4.237311   -0.748443   -0.390576
     13          1           0       -3.168456    1.454183   -0.882596
     14          7           0       -2.831535   -0.992382    0.120637
     15          8           0       -3.963688   -0.722138   -0.253299
     16          8           0       -2.480712   -2.076039    0.566899
     17          1           0        4.547876   -1.337291   -1.089304
     18          1           0        1.187592   -1.226769   -1.172194
     19         15           0        2.139152    0.434824    1.090371
     20          1           0        2.775688    1.636924    0.703015
 ---------------------------------------------------------------------

 SCF Done:  E(RHF) =  -951.329570232     A.U. after    2 cycles

 The electronic state is 1-A.
 Alpha  occ. eigenvalues --  -84.27809 -20.59802 -20.59767 -20.57879 -20.57234
 Alpha  occ. eigenvalues --  -15.80068 -11.32714 -11.29147 -11.28966 -11.28931
 Alpha  occ. eigenvalues --  -11.28789 -11.28245  -7.67118  -6.75107  -4.28168
 Alpha  occ. eigenvalues --   -4.27668  -4.27065  -1.67786  -1.51493  -1.50068
 Alpha  occ. eigenvalues --   -1.45905  -1.21397  -1.11797  -1.06901  -0.99142
 Alpha  occ. eigenvalues --   -0.91658  -0.86537  -0.84396  -0.79999  -0.77626
 Alpha  occ. eigenvalues --   -0.75667  -0.75339  -0.74070  -0.72672  -0.68777
 Alpha  occ. eigenvalues --   -0.65538  -0.63149  -0.60305  -0.59090  -0.57651
 Alpha  occ. eigenvalues --   -0.56808  -0.55653  -0.51852  -0.50992  -0.49899
 Alpha  occ. eigenvalues --   -0.49442  -0.46242  -0.45846  -0.41122  -0.39406
 Alpha  occ. eigenvalues --   -0.33235
 Alpha virt. eigenvalues --    0.01427   0.02428   0.03185   0.03799   0.04610
 Alpha virt. eigenvalues --    0.05148   0.05579   0.06884   0.07252   0.07525
 Alpha virt. eigenvalues --    0.07742   0.08405   0.09514   0.10147   0.10347

 Mulliken charges:
               1
     1  C    0.519505
     2  C   -0.195761
     3  C    0.326214
     4  C   -0.357467
     5  C    0.073611
     6  C    0.527314
     7  H   -0.257109
     8  H   -0.221803
     9  H   -0.290697
    10  B    2.058259
    11  O   -1.329396
    12  O   -1.326093
    13  H   -0.198670
    14  N    3.086823
    15  O   -1.521201
    16  O   -1.477488
    17  H    0.543517
    18  H    0.749915
    19  P   -0.833713
    20  H    0.124242
 Sum of Mulliken charges =  -0.00000

 Dipole moment (field-independent basis, Debye):
    X=              2.1555    Y=              3.3469    Z=             -1.5388  Tot=              4.2680

 Test job not archived.
 1\1\GINC-SE126\SP\RHF\Aug-CC-pVDZ\C6H7B1N1O4P1\OHZDE\09-Apr-2025\0\\#t
  hf aug-cc-pvdz iop(5/13=1,5/36=2,99/5=2) pseudo=read geom=check guess
 =(read,tcheck) scf=(maxcycle=1)\\title\\0,1\C,0,-1.180137,2.283039,-0.
 613165\C,0,0.112647,2.038453,-0.157128\C,0,-2.158081,1.295783,-0.53372
 9\C,0,-1.804378,0.072873,0.020527\C,0,-0.52514,-0.187101,0.50088\C,0,0
 .464262,0.800227,0.404645\H,0,-0.329858,-1.147906,0.961084\H,0,-1.4266
 5,3.247865,-1.040497\H,0,0.859647,2.81942,-0.239571\B,0,2.88264,-0.667
 155,-0.34934\O,0,2.134513,-1.391627,-1.226205\O,0,4.237311,-0.748443,-

 Normal termination of Gaussian 16 at Wed Apr  9 00:47:51 2025.
