 Gaussian 16, Revision C.01,

 ----------------------------------------------------------------------
 #t hf aug-cc-pvdz symm=none int=(grid=ultrafine) guess=(read,tcheck) s
 table=(opt,rrhf)
 ----------------------------------------------------------------------
 -----
 title
 -----
 Symbolic Z-matrix:
 Charge =  0 Multiplicity = 1

 SCF Done:  E(RHF) =  -804.276238630     A.U. after   14 cycles
 Normal termination of Gaussian 16 at Wed Apr  9 00:54:53 2025.
 Gaussian 16:  ES64L-G16RevC.01  3-Jul-2019

 ----------------------------------------------------------------------
 #t hf aug-cc-pvdz iop(5/13=1,5/36=2,99/5=2) pseudo=read geom=check gue
 ss=(read,tcheck) scf=(maxcycle=1)
 ----------------------------------------------------------------------
 -----
 title
 -----
 Structure from the checkpoint file:  "BDE49_nonexpt_953_mol1.chk"
 Charge =  0 Multiplicity = 1

                         Standard orientation:
 ---------------------------------------------------------------------
 Center     Atomic      Atomic             Coordinates (Angstroms)
 Number     Number       Type             X           Y           Z
 ---------------------------------------------------------------------
      1          9           0        2.867673    1.636216   -0.361743
      2          9           0        1.274297   -2.095703   -0.138337
      3          9           0        0.485168   -1.206992    1.710301
      4          7           0       -1.606548    0.046369    0.151130
      5          6           0       -3.067710   -0.054770    0.127220
      6          6           0       -1.045453    1.306799    0.093817
      7          8           0       -1.671018    2.341453    0.133738
      8          7           0        0.358470    1.338580    0.012599
      9          6           0        1.209671    0.273485    0.038724
     10          7           0        2.479779    0.288179   -0.131499
     11          6           0        0.554156   -1.052063    0.355314
     12          6           0       -0.862471   -1.118196   -0.228424
     13          8           0       -0.804017   -1.201856   -1.639706
     14          1           0       -3.480133    0.889868    0.470506
     15          1           0       -3.429338   -0.257529   -0.884347
     16          1           0       -3.383816   -0.856944    0.796905
     17          1           0        0.759522    2.259288   -0.100452
     18          1           0       -1.346801   -1.998922    0.209574
     19          1           0       -0.314463   -1.997663   -1.881955
 ---------------------------------------------------------------------

 SCF Done:  E(RHF) =  -805.045534294     A.U. after    2 cycles

 The electronic state is 1-A.
 Alpha  occ. eigenvalues --  -26.52422 -26.52109 -26.48737 -20.60365 -20.54410
 Alpha  occ. eigenvalues --  -15.61824 -15.58849 -15.56783 -11.47855 -11.43149
 Alpha  occ. eigenvalues --  -11.38999 -11.38650 -11.29313  -1.69048  -1.62179
 Alpha  occ. eigenvalues --   -1.60136  -1.51680  -1.50538  -1.34205  -1.28763
 Alpha  occ. eigenvalues --   -1.21526  -1.08511  -1.00739  -0.98085  -0.91912
 Alpha  occ. eigenvalues --   -0.85357  -0.84347  -0.80505  -0.78898  -0.76638
 Alpha  occ. eigenvalues --   -0.76137  -0.73432  -0.70263  -0.69340  -0.68307
 Alpha  occ. eigenvalues --   -0.67946  -0.67094  -0.66419  -0.64941  -0.64035
 Alpha  occ. eigenvalues --   -0.62317  -0.60021  -0.59226  -0.56952  -0.55124
 Alpha  occ. eigenvalues --   -0.54775  -0.50498  -0.48205  -0.46165  -0.45030
 Alpha virt. eigenvalues --    0.02774   0.03724   0.04288   0.05236   0.05735
 Alpha virt. eigenvalues --    0.06589   0.07535   0.08607   0.08780   0.09568
 Alpha virt. eigenvalues --    0.10787   0.12097   0.12435   0.13353   0.13576

 Mulliken charges:
               1
     1  F   -0.701583
     2  F   -0.910434
     3  F   -0.922378
     4  N    0.666121
     5  C   -0.254169
     6  C    0.540369
     7  O   -1.280592
     8  N    0.799702
     9  C   -2.144576
    10  N    1.504695
    11  C    2.638713
    12  C    0.351323
    13  O   -1.489485
    14  H    0.103208
    15  H    0.222561
    16  H    0.194636
    17  H    0.208990
    18  H    0.154827
    19  H    0.318071
 Sum of Mulliken charges =  -0.00000

 Dipole moment (field-independent basis, Debye):
    X=             -3.4476    Y=             -2.9471    Z=             -0.2761  Tot=              4.5440

 Test job not archived.
 1\1\GINC-SE212\SP\RHF\Aug-CC-pVDZ\C5H6F3N3O2\OHZDE\09-Apr-2025\0\\#t h
 f aug-cc-pvdz iop(5/13=1,5/36=2,99/5=2) pseudo=read geom=check guess=(
 read,tcheck) scf=(maxcycle=1)\\title\\0,1\F,0,2.867673,1.636217,-0.361
 743\F,0,1.274298,-2.095703,-0.138337\F,0,0.485168,-1.206992,1.710301\N
 ,0,-1.606548,0.046369,0.15113\C,0,-3.06771,-0.054771,0.12722\C,0,-1.04
 5453,1.306799,0.093817\O,0,-1.671018,2.341453,0.133738\N,0,0.35847,1.3
 3858,0.012599\C,0,1.209671,0.273485,0.038724\N,0,2.479779,0.28818,-0.1
 31499\C,0,0.554156,-1.052063,0.355314\C,0,-0.862471,-1.118196,-0.22842

 Normal termination of Gaussian 16 at Wed Apr  9 00:55:07 2025.
