 Gaussian 16, Revision C.01,

 ----------------------------------------------------------------------
 #t hf aug-cc-pvdz symm=none int=(grid=ultrafine) guess=(read,tcheck) s
 table=(opt,rrhf)
 ----------------------------------------------------------------------
 -----
 title
 -----
 Symbolic Z-matrix:
 Charge =  0 Multiplicity = 1

 SCF Done:  E(RHF) =  -1008.46159311     A.U. after   15 cycles
 Normal termination of Gaussian 16 at Tue Apr  8 22:55:50 2025.
 Gaussian 16:  ES64L-G16RevC.01  3-Jul-2019

 ----------------------------------------------------------------------
 #t hf aug-cc-pvdz iop(5/13=1,5/36=2,99/5=2) pseudo=read geom=check gue
 ss=(read,tcheck) scf=(maxcycle=1)
 ----------------------------------------------------------------------
 -----
 title
 -----
 Structure from the checkpoint file:  "BDE49_expt_1867_mol1.chk"
 Charge =  0 Multiplicity = 1

                         Standard orientation:
 ---------------------------------------------------------------------
 Center     Atomic      Atomic             Coordinates (Angstroms)
 Number     Number       Type             X           Y           Z
 ---------------------------------------------------------------------
      1          8           0        0.999159    0.687728   -0.499078
      2          8           0       -0.107304   -0.105679   -0.981524
      3          6           0        1.997368   -0.152781   -0.067301
      4         16           0       -1.318892   -0.127685    0.139364
      5          9           0       -1.802025    1.380952   -0.034332
      6          8           0       -2.290518   -0.965116   -0.456349
      7          8           0       -0.793319   -0.238620    1.449493
      8          8           0        2.016311   -1.322415   -0.012429
      9          9           0        2.971295    0.675989    0.275784
 ---------------------------------------------------------------------

 SCF Done:  E(RHF) =  -1009.09108352     A.U. after    2 cycles

 The electronic state is 1-A.
 Alpha  occ. eigenvalues --  -94.35563 -26.56798 -26.56356 -20.74656 -20.74533
 Alpha  occ. eigenvalues --  -20.63469 -20.63273 -20.62027 -11.54044  -8.59698
 Alpha  occ. eigenvalues --   -6.57727  -6.57623  -6.57539  -1.76767  -1.73135
 Alpha  occ. eigenvalues --   -1.68328  -1.61778  -1.57188  -1.54910  -1.42640
 Alpha  occ. eigenvalues --   -0.98948  -0.93326  -0.86268  -0.84540  -0.80692
 Alpha  occ. eigenvalues --   -0.80174  -0.77912  -0.77519  -0.72545  -0.71502
 Alpha  occ. eigenvalues --   -0.69679  -0.68325  -0.64530  -0.62232  -0.60678
 Alpha  occ. eigenvalues --   -0.59063  -0.56974  -0.55395  -0.55043  -0.54715
 Alpha virt. eigenvalues --    0.06754   0.07351   0.07961   0.08460   0.10117
 Alpha virt. eigenvalues --    0.10650   0.11054   0.12356   0.14374   0.16099
 Alpha virt. eigenvalues --    0.17749   0.18201   0.19361   0.19809   0.20852

 Mulliken charges:
               1
     1  O   -0.615271
     2  O   -0.914913
     3  C    2.106556
     4  S    4.010249
     5  F   -0.700289
     6  O   -1.217378
     7  O   -1.253837
     8  O   -0.816266
     9  F   -0.598852
 Sum of Mulliken charges =  -0.00000

 Dipole moment (field-independent basis, Debye):
    X=              0.5373    Y=              1.7542    Z=             -0.5878  Tot=              1.9265

 Test job not archived.
 1\1\GINC-SE044\SP\RHF\Aug-CC-pVDZ\C1F2O5S1\OHZDE\08-Apr-2025\0\\#t hf
 aug-cc-pvdz iop(5/13=1,5/36=2,99/5=2) pseudo=read geom=check guess=(re
 ad,tcheck) scf=(maxcycle=1)\\title\\0,1\O,0,0.999159,0.687728,-0.49907
 8\O,0,-0.107304,-0.105679,-0.981524\C,0,1.997368,-0.152781,-0.067301\S
 ,0,-1.318892,-0.127685,0.139364\F,0,-1.802025,1.380952,-0.034332\O,0,-
 2.290518,-0.965116,-0.456349\O,0,-0.793319,-0.23862,1.449493\O,0,2.016
 311,-1.322415,-0.012429\F,0,2.971295,0.675989,0.275784\\Version=ES64L-
 G16RevC.01\State=1-A\HF=-1009.0910835\RMSD=6.014e-03\Dipole=0.2113907,

 Normal termination of Gaussian 16 at Tue Apr  8 22:55:54 2025.
