 Gaussian 16, Revision C.01,

 ----------------------------------------------------------------------
 #t hf aug-cc-pvdz symm=none int=(grid=ultrafine) guess=(read,tcheck) s
 table=opt
 ----------------------------------------------------------------------
 -----
 title
 -----
 Symbolic Z-matrix:
 Charge =  0 Multiplicity = 2

 SCF Done:  E(UHF) =  -537.536270522     A.U. after   16 cycles

 1\1\GINC-SE070\Stability\UHF\Aug-CC-pVDZ\C2H4Cl1\OHZDE\08-Apr-2025\0\\
 #t hf aug-cc-pvdz symm=none int=(grid=ultrafine) guess=(read,tcheck) s
 table=opt\\title\\0,2\C,0,-1.654338,-0.26453,0.007441\H,0,-1.605196,-1
 .07853,-0.722783\H,0,-2.548771,0.329917,-0.196323\H,0,-1.778919,-0.728
 02,0.997616\C,0,-0.450754,0.598485,-0.059506\Cl,0,1.118503,-0.128558,0
 .004966\H,0,-0.451108,1.658382,0.149457\\Version=ES64L-G16RevC.01\HF=-
 537.5362705\S2=0.766767\S2-1=0.\S2A=0.750218\RMSD=5.803e-09\Dipole=-0.
 7201965,0.2085356,0.066183\Quadrupole=0.2832818,0.594313,-0.8775948,-0

 Normal termination of Gaussian 16 at Tue Apr  8 22:30:19 2025.
 Gaussian 16:  ES64L-G16RevC.01  3-Jul-2019

 ----------------------------------------------------------------------
 #t hf aug-cc-pvdz iop(5/13=1,5/36=2,99/5=2) pseudo=read geom=check gue
 ss=(read,tcheck) scf=(maxcycle=1)
 ----------------------------------------------------------------------
 -----
 title
 -----
 Structure from the checkpoint file:  "BDE49_expt_1027_mol2.chk"
 Charge =  0 Multiplicity = 2

                         Standard orientation:
 ---------------------------------------------------------------------
 Center     Atomic      Atomic             Coordinates (Angstroms)
 Number     Number       Type             X           Y           Z
 ---------------------------------------------------------------------
      1          6           0       -1.654338   -0.264530    0.007441
      2          1           0       -1.605196   -1.078530   -0.722783
      3          1           0       -2.548771    0.329917   -0.196323
      4          1           0       -1.778919   -0.728020    0.997616
      5          6           0       -0.450754    0.598485   -0.059506
      6         17           0        1.118503   -0.128558    0.004966
      7          1           0       -0.451108    1.658382    0.149457
 ---------------------------------------------------------------------

 SCF Done:  E(UHF) =  -537.697071510     A.U. after    2 cycles

 The electronic state is 2-A.
 Alpha  occ. eigenvalues -- -105.56914 -11.30698 -11.24963 -10.61737  -7.78559
 Alpha  occ. eigenvalues --   -7.78450  -7.78291  -1.13476  -0.99946  -0.83278
 Alpha  occ. eigenvalues --   -0.64854  -0.61868  -0.59575  -0.53571  -0.51221
 Alpha  occ. eigenvalues --   -0.45547  -0.35419
 Alpha virt. eigenvalues --    0.03598   0.04482   0.05519   0.05954   0.09213
 Alpha virt. eigenvalues --    0.11619   0.12982   0.14498   0.14801   0.15643
 Alpha virt. eigenvalues --    0.16588   0.17470   0.18837   0.18939   0.21222

  Beta  occ. eigenvalues -- -105.56889 -11.27983 -11.25288 -10.61710  -7.78804
  Beta  occ. eigenvalues --   -7.78274  -7.78099  -1.10277  -0.99183  -0.78061
  Beta  occ. eigenvalues --   -0.63687  -0.58430  -0.57605  -0.53123  -0.47404
  Beta  occ. eigenvalues --   -0.45430
  Beta virt. eigenvalues --    0.03632   0.04537   0.05539   0.05970   0.08528
  Beta virt. eigenvalues --    0.09446   0.11930   0.14524   0.14857   0.14910
  Beta virt. eigenvalues --    0.16604   0.17386   0.17626   0.18856   0.19705

 Mulliken charges and spin densities:
               1          2
     1  C   -0.306106  -0.221611
     2  H    0.189546   0.018832
     3  H    0.170497   0.002558
     4  H    0.223458   0.042890
     5  C   -0.140401   1.274682
     6  Cl  -0.152652  -0.022554
     7  H    0.015657  -0.094798
 Sum of Mulliken charges =   0.00000   1.00000

 Dipole moment (field-independent basis, Debye):
    X=             -1.8254    Y=              0.5287    Z=              0.1693  Tot=              1.9079
                          Isotropic Fermi Contact Couplings
        Atom                 a.u.       MegaHertz       Gauss      10(-4) cm-1
     1  C(13)             -0.05566     -62.57674     -22.32894     -20.87335
     2  H(1)               0.01232      55.09106      19.65786      18.37640
     3  H(1)               0.00326      14.55755       5.19449       4.85587
     4  H(1)               0.02453     109.64871      39.12539      36.57487
     5  C(13)              0.26611     299.15290     106.74519      99.78667
     6  Cl(35)             0.02379      10.43226       3.72249       3.47983
     7  H(1)              -0.02419    -108.12406     -38.58135     -36.06630
 --------------------------------------------------------

 Normal termination of Gaussian 16 at Tue Apr  8 22:30:21 2025.
