 Gaussian 16, Revision C.01,

 ----------------------------------------------------------------------
 #t hf aug-cc-pvdz symm=none int=(grid=ultrafine) guess=(read,tcheck) s
 table=(opt,rrhf)
 ----------------------------------------------------------------------
 -----
 title
 -----
 Symbolic Z-matrix:
 Charge =  0 Multiplicity = 1

 SCF Done:  E(RHF) =  -825.008571716     A.U. after   13 cycles
 Normal termination of Gaussian 16 at Tue Apr  8 23:16:48 2025.
 Gaussian 16:  ES64L-G16RevC.01  3-Jul-2019

 ----------------------------------------------------------------------
 #t hf aug-cc-pvdz iop(5/13=1,5/36=2,99/5=2) pseudo=read geom=check gue
 ss=(read,tcheck) scf=(maxcycle=1)
 ----------------------------------------------------------------------
 -----
 title
 -----
 Structure from the checkpoint file:  "BDE49_nonexpt_1027_mol1.chk"
 Charge =  0 Multiplicity = 1

                         Standard orientation:
 ---------------------------------------------------------------------
 Center     Atomic      Atomic             Coordinates (Angstroms)
 Number     Number       Type             X           Y           Z
 ---------------------------------------------------------------------
      1         17           0        1.465080   -0.161918    0.000003
      2          8           0        0.010055    0.767936   -0.000006
      3         14           0       -1.400252   -0.161585   -0.000001
      4          1           0       -1.471334   -1.006573    1.209009
      5          1           0       -2.440605    0.884477   -0.000010
      6          1           0       -1.471331   -1.006591   -1.208998
 ---------------------------------------------------------------------

 SCF Done:  E(RHF) =  -825.189730706     A.U. after    2 cycles

 The electronic state is 1-A.
 Alpha  occ. eigenvalues -- -105.63009 -69.58033 -20.61635 -10.67201  -7.84183
 Alpha  occ. eigenvalues --   -7.83647  -7.83620  -6.24674  -4.00165  -4.00018
 Alpha  occ. eigenvalues --   -3.99975  -1.46232  -1.03025  -0.76898  -0.62036
 Alpha  occ. eigenvalues --   -0.61943  -0.61390  -0.50398  -0.50096  -0.46797
 Alpha  occ. eigenvalues --   -0.44638
 Alpha virt. eigenvalues --    0.03907   0.04750   0.05558   0.05874   0.06672
 Alpha virt. eigenvalues --    0.08989   0.09269   0.13007   0.15026   0.15838
 Alpha virt. eigenvalues --    0.16218   0.17412   0.18937   0.19406   0.21350

 Mulliken charges:
               1
     1  Cl   0.325538
     2  O   -1.230806
     3  Si   1.533303
     4  H   -0.201175
     5  H   -0.225685
     6  H   -0.201174
 Sum of Mulliken charges =  -0.00000

 Dipole moment (field-independent basis, Debye):
    X=             -1.2902    Y=             -0.8016    Z=              0.0000  Tot=              1.5190

 Test job not archived.
 1\1\GINC-SE038\SP\RHF\Aug-CC-pVDZ\Cl1H3O1Si1\OHZDE\08-Apr-2025\0\\#t h
 f aug-cc-pvdz iop(5/13=1,5/36=2,99/5=2) pseudo=read geom=check guess=(
 read,tcheck) scf=(maxcycle=1)\\title\\0,1\Cl,0,1.46508,-0.161918,0.000
 003\O,0,0.010055,0.767936,-0.000006\Si,0,-1.400252,-0.161585,-0.000001
 \H,0,-1.471334,-1.006573,1.209009\H,0,-2.440605,0.884477,-0.00001\H,0,
 -1.471331,-1.006591,-1.208998\\Version=ES64L-G16RevC.01\State=1-A\HF=-
 825.1897307\RMSD=4.215e-03\Dipole=-0.5076221,-0.3153617,0.0000012\Quad
 rupole=1.7444631,-1.0340177,-0.7104454,-0.3039594,0.0000069,0.0000026\

 Normal termination of Gaussian 16 at Tue Apr  8 23:16:50 2025.
