 Gaussian 16, Revision C.01,

 ----------------------------------------------------------------------
 #t hf aug-cc-pvdz symm=none int=(grid=ultrafine) guess=(read,tcheck) s
 table=(opt,rrhf)
 ----------------------------------------------------------------------
 -----
 title
 -----
 Symbolic Z-matrix:
 Charge =  0 Multiplicity = 1

 SCF Done:  E(RHF) =  -476.928500193     A.U. after   13 cycles
 Normal termination of Gaussian 16 at Wed Apr  9 00:37:49 2025.
 Gaussian 16:  ES64L-G16RevC.01  3-Jul-2019

 ----------------------------------------------------------------------
 #t hf aug-cc-pvdz iop(5/13=1,5/36=2,99/5=2) pseudo=read geom=check gue
 ss=(read,tcheck) scf=(maxcycle=1)
 ----------------------------------------------------------------------
 -----
 title
 -----
 Structure from the checkpoint file:  "BDE49_nonexpt_579_mol1.chk"
 Charge =  0 Multiplicity = 1

                         Standard orientation:
 ---------------------------------------------------------------------
 Center     Atomic      Atomic             Coordinates (Angstroms)
 Number     Number       Type             X           Y           Z
 ---------------------------------------------------------------------
      1          7           0        0.402672   -0.656789   -0.000000
      2          5           0        0.018219    0.753976    0.000000
      3          9           0       -0.080828   -1.336694    1.104167
      4          9           0       -0.080828   -1.336694   -1.104167
      5          9           0       -0.080828    1.382674    1.146193
      6          9           0       -0.080828    1.382674   -1.146193
 ---------------------------------------------------------------------

 SCF Done:  E(RHF) =  -477.361690044     A.U. after    2 cycles

 The electronic state is 1-A'.
 Alpha  occ. eigenvalues --  -26.53717 -26.53712 -26.52277 -26.52277 -15.71008
 Alpha  occ. eigenvalues --   -7.78783  -1.69915  -1.67267  -1.64239  -1.61230
 Alpha  occ. eigenvalues --   -1.15483  -0.87224  -0.82913  -0.81699  -0.79131
 Alpha  occ. eigenvalues --   -0.76796  -0.73173  -0.70417  -0.68871  -0.67476
 Alpha  occ. eigenvalues --   -0.66646  -0.64556  -0.64062  -0.52180
 Alpha virt. eigenvalues --    0.04845   0.05225   0.05611   0.05656   0.11300
 Alpha virt. eigenvalues --    0.15192   0.16021   0.17395   0.19681   0.20024
 Alpha virt. eigenvalues --    0.21748   0.22713   0.23589   0.25560   0.26964

 Mulliken charges:
               1
     1  N    1.359067
     2  B    1.162627
     3  F   -0.659122
     4  F   -0.659122
     5  F   -0.601725
     6  F   -0.601725
 Sum of Mulliken charges =  -0.00000

 Dipole moment (field-independent basis, Debye):
    X=             -0.2969    Y=              0.7418    Z=              0.0000  Tot=              0.7990

 Test job not archived.
 1\1\GINC-SE460\SP\RHF\Aug-CC-pVDZ\B1F4N1\OHZDE\09-Apr-2025\0\\#t hf au
 g-cc-pvdz iop(5/13=1,5/36=2,99/5=2) pseudo=read geom=check guess=(read
 ,tcheck) scf=(maxcycle=1)\\title\\0,1\N,0,0.402672,-0.656789,0.\B,0,0.
 018219,0.753976,0.\F,0,-0.080828,-1.336694,1.104167\F,0,-0.080828,-1.3
 36694,-1.104167\F,0,-0.080828,1.382674,1.146193\F,0,-0.080828,1.382674
 ,-1.146193\\Version=ES64L-G16RevC.01\State=1-A'\HF=-477.36169\RMSD=8.4
 77e-03\Dipole=-0.1167979,0.2918526,0.\Quadrupole=1.6170174,-0.7586433,
 -0.8583742,0.4812139,0.,0.\PG=CS [SG(B1N1),X(F4)]\\@

 Normal termination of Gaussian 16 at Wed Apr  9 00:37:50 2025.
