 Gaussian 16, Revision C.01,

 ----------------------------------------------------------------------
 #t hf aug-cc-pvdz symm=none int=(grid=ultrafine) guess=(read,tcheck) s
 table=(opt,rrhf)
 ----------------------------------------------------------------------
 -----
 title
 -----
 Symbolic Z-matrix:
 Charge =  0 Multiplicity = 1

 SCF Done:  E(RHF) =  -1091.61057798     A.U. after   13 cycles
 Normal termination of Gaussian 16 at Wed Apr  9 00:12:39 2025.
 Gaussian 16:  ES64L-G16RevC.01  3-Jul-2019

 ----------------------------------------------------------------------
 #t hf aug-cc-pvdz iop(5/13=1,5/36=2,99/5=2) pseudo=read geom=check gue
 ss=(read,tcheck) scf=(maxcycle=1)
 ----------------------------------------------------------------------
 -----
 title
 -----
 Structure from the checkpoint file:  "BDE49_nonexpt_2435_mol1.chk"
 Charge =  0 Multiplicity = 1

                         Standard orientation:
 ---------------------------------------------------------------------
 Center     Atomic      Atomic             Coordinates (Angstroms)
 Number     Number       Type             X           Y           Z
 ---------------------------------------------------------------------
      1         14           0        2.298299   -0.439719   -0.361309
      2         14           0        0.574367    0.806786    0.653488
      3          6           0       -1.119354    0.304200   -0.067585
      4          1           0        0.761280    2.261425    0.371165
      5          1           0        0.524980    0.618124    2.118199
      6         16           0       -1.671490   -1.214804    0.159203
      7          8           0       -1.833426    1.200767   -0.775894
      8          1           0        2.173729   -1.871076   -0.013164
      9          1           0        3.604451    0.075984    0.115245
     10          1           0       -1.375480    2.052891   -0.785308
     11          1           0        2.221082   -0.270753   -1.831240
 ---------------------------------------------------------------------

 SCF Done:  E(RHF) =  -1091.84784607     A.U. after    2 cycles

 The electronic state is 1-A.
 Alpha  occ. eigenvalues --  -93.92831 -69.55845 -69.54307 -20.62605 -11.37782
 Alpha  occ. eigenvalues --   -8.21125  -6.23014  -6.21496  -6.18953  -6.18723
 Alpha  occ. eigenvalues --   -6.18538  -3.98372  -3.98336  -3.98309  -3.96858
 Alpha  occ. eigenvalues --   -3.96846  -3.96838  -1.53935  -1.06991  -0.84140
 Alpha  occ. eigenvalues --   -0.81202  -0.75038  -0.66335  -0.61154  -0.60500
 Alpha  occ. eigenvalues --   -0.52597  -0.51148  -0.49546  -0.48961  -0.44011
 Alpha  occ. eigenvalues --   -0.38133  -0.35134
 Alpha virt. eigenvalues --    0.02807   0.03317   0.04143   0.04796   0.05680
 Alpha virt. eigenvalues --    0.06540   0.06867   0.07525   0.08272   0.08590
 Alpha virt. eigenvalues --    0.08959   0.09685   0.09885   0.10984   0.12795

 Mulliken charges:
               1
     1  Si   0.362458
     2  Si   0.740602
     3  C    0.194231
     4  H   -0.197549
     5  H   -0.133650
     6  S    0.134495
     7  O   -1.197471
     8  H   -0.091013
     9  H   -0.133021
    10  H    0.411838
    11  H   -0.090919
 Sum of Mulliken charges =  -0.00000

 Dipole moment (field-independent basis, Debye):
    X=              2.5496    Y=              3.0526    Z=              0.0079  Tot=              3.9773

 Test job not archived.
 1\1\GINC-SE458\SP\RHF\Aug-CC-pVDZ\C1H6O1S1Si2\OHZDE\09-Apr-2025\0\\#t
 hf aug-cc-pvdz iop(5/13=1,5/36=2,99/5=2) pseudo=read geom=check guess=
 (read,tcheck) scf=(maxcycle=1)\\title\\0,1\Si,0,2.298299,-0.439719,-0.
 361309\Si,0,0.574367,0.806786,0.653488\C,0,-1.119354,0.3042,-0.067585\
 H,0,0.76128,2.261425,0.371165\H,0,0.52498,0.618124,2.118199\S,0,-1.671
 49,-1.214804,0.159203\O,0,-1.833426,1.200767,-0.775894\H,0,2.173729,-1
 .871076,-0.013164\H,0,3.604451,0.075985,0.115245\H,0,-1.37548,2.052891
 ,-0.785308\H,0,2.221082,-0.270753,-1.83124\\Version=ES64L-G16RevC.01\S

 Normal termination of Gaussian 16 at Wed Apr  9 00:12:43 2025.
