 Gaussian 16, Revision C.01,

 ----------------------------------------------------------------------
 #t hf aug-cc-pvdz symm=none int=(grid=ultrafine) guess=(read,tcheck) s
 table=(opt,rrhf)
 ----------------------------------------------------------------------
 -----
 title
 -----
 Symbolic Z-matrix:
 Charge =  0 Multiplicity = 1

 SCF Done:  E(RHF) =  -528.080366165     A.U. after   12 cycles
 Normal termination of Gaussian 16 at Tue Apr  8 23:49:16 2025.
 Gaussian 16:  ES64L-G16RevC.01  3-Jul-2019

 ----------------------------------------------------------------------
 #t hf aug-cc-pvdz iop(5/13=1,5/36=2,99/5=2) pseudo=read geom=check gue
 ss=(read,tcheck) scf=(maxcycle=1)
 ----------------------------------------------------------------------
 -----
 title
 -----
 Structure from the checkpoint file:  "BDE49_nonexpt_1834_mol1.chk"
 Charge =  0 Multiplicity = 1

                         Standard orientation:
 ---------------------------------------------------------------------
 Center     Atomic      Atomic             Coordinates (Angstroms)
 Number     Number       Type             X           Y           Z
 ---------------------------------------------------------------------
      1          6           0       -0.941884    0.667434   -0.000011
      2         14           0        0.570338   -0.461264    0.000004
      3          9           0        1.892081    0.466442    0.000009
      4          1           0        0.584640   -1.294144   -1.217198
      5          1           0        0.584624   -1.294133    1.217215
      6          9           0       -2.058990   -0.196127   -0.000007
      7          1           0       -1.000251    1.304261   -0.887422
      8          1           0       -1.000257    1.304277    0.887389
 ---------------------------------------------------------------------

 SCF Done:  E(RHF) =  -528.339480920     A.U. after    2 cycles

 The electronic state is 1-A.
 Alpha  occ. eigenvalues --  -69.58993 -26.45834 -26.45824 -11.31996  -6.25635
 Alpha  occ. eigenvalues --   -4.01090  -4.00854  -4.00837  -1.57185  -1.56832
 Alpha  occ. eigenvalues --   -0.95959  -0.77722  -0.69649  -0.68970  -0.66500
 Alpha  occ. eigenvalues --   -0.64961  -0.64254  -0.60142  -0.54259  -0.49522
 Alpha  occ. eigenvalues --   -0.47077
 Alpha virt. eigenvalues --    0.03677   0.04489   0.04629   0.05566   0.07672
 Alpha virt. eigenvalues --    0.08232   0.09894   0.11063   0.13863   0.15699
 Alpha virt. eigenvalues --    0.16001   0.16132   0.16426   0.21175   0.21947

 Mulliken charges:
               1
     1  C    0.112581
     2  Si   1.782338
     3  F   -0.833426
     4  H   -0.239210
     5  H   -0.239211
     6  F   -0.683916
     7  H    0.050421
     8  H    0.050423
 Sum of Mulliken charges =  -0.00000

 Dipole moment (field-independent basis, Debye):
    X=              0.0748    Y=              0.4805    Z=             -0.0000  Tot=              0.4863

 Test job not archived.
 1\1\GINC-SE328\SP\RHF\Aug-CC-pVDZ\C1H4F2Si1\OHZDE\08-Apr-2025\0\\#t hf
  aug-cc-pvdz iop(5/13=1,5/36=2,99/5=2) pseudo=read geom=check guess=(r
 ead,tcheck) scf=(maxcycle=1)\\title\\0,1\C,0,0.941884,0.667434,0.00001
 1\Si,0,-0.570338,-0.461264,-0.000004\F,0,-1.892081,0.466442,-0.000009\
 H,0,-0.58464,-1.294144,1.217198\H,0,-0.584624,-1.294133,-1.217215\F,0,
 2.05899,-0.196127,0.000007\H,0,1.000251,1.304261,0.887422\H,0,1.000257
 ,1.304277,-0.887389\\Version=ES64L-G16RevC.01\State=1-A\HF=-528.339480
 9\RMSD=4.410e-03\Dipole=-0.0294209,0.1890615,0.0000056\Quadrupole=-4.2

 Normal termination of Gaussian 16 at Tue Apr  8 23:49:20 2025.
