 Gaussian 16, Revision C.01,

 ----------------------------------------------------------------------
 #t hf aug-cc-pvdz symm=none int=(grid=ultrafine) guess=(read,tcheck) s
 table=opt
 ----------------------------------------------------------------------
 -----
 title
 -----
 Symbolic Z-matrix:
 Charge =  0 Multiplicity = 2

 SCF Done:  E(UHF) =  -361.470709031     A.U. after   17 cycles
 Normal termination of Gaussian 16 at Wed Apr  9 00:30:44 2025.
 Gaussian 16:  ES64L-G16RevC.01  3-Jul-2019

 ----------------------------------------------------------------------
 #t hf aug-cc-pvdz iop(5/13=1,5/36=2,99/5=2) pseudo=read geom=check gue
 ss=(read,tcheck) scf=(maxcycle=1)
 ----------------------------------------------------------------------
 -----
 title
 -----
 Structure from the checkpoint file:  "BDE49_nonexpt_358_mol2.chk"
 Charge =  0 Multiplicity = 2

                         Standard orientation:
 ---------------------------------------------------------------------
 Center     Atomic      Atomic             Coordinates (Angstroms)
 Number     Number       Type             X           Y           Z
 ---------------------------------------------------------------------
      1          9           0       -2.068045   -0.074731    0.084292
      2          5           0       -0.923161   -0.429417   -0.435529
      3          6           0        0.453442   -0.049841    0.298620
      4          9           0        1.471772   -0.879152   -0.075895
      5          9           0        0.760923    1.230142   -0.120455
      6          1           0        0.413304   -0.040195    1.394455
 ---------------------------------------------------------------------

 SCF Done:  E(UHF) =  -361.798516345     A.U. after    2 cycles

 The electronic state is 2-A.
 Alpha  occ. eigenvalues --  -26.51588 -26.48935 -26.48721 -11.42074  -7.72212
 Alpha  occ. eigenvalues --   -1.65129  -1.64526  -1.58326  -0.97780  -0.82465
 Alpha  occ. eigenvalues --   -0.77735  -0.76395  -0.74677  -0.70956  -0.69310
 Alpha  occ. eigenvalues --   -0.64958  -0.61392  -0.60440  -0.54566  -0.39421
 Alpha virt. eigenvalues --    0.03221   0.03988   0.05015   0.05876   0.08284
 Alpha virt. eigenvalues --    0.09499   0.11589   0.12731   0.15004   0.19246
 Alpha virt. eigenvalues --    0.21514   0.23510   0.25628   0.26089   0.26353

  Beta  occ. eigenvalues --  -26.51288 -26.48941 -26.48765 -11.41741  -7.70187
  Beta  occ. eigenvalues --   -1.64794  -1.64020  -1.58371  -0.96612  -0.80976
  Beta  occ. eigenvalues --   -0.77326  -0.75094  -0.74548  -0.69444  -0.68458
  Beta  occ. eigenvalues --   -0.65009  -0.61370  -0.59887  -0.52029
  Beta virt. eigenvalues --    0.02776   0.04003   0.04606   0.05400   0.08034
  Beta virt. eigenvalues --    0.10266   0.11197   0.12079   0.13938   0.15423
  Beta virt. eigenvalues --    0.19936   0.21939   0.24080   0.26132   0.26636

 Mulliken charges and spin densities:
               1          2
     1  F   -0.362944  -0.051585
     2  B    0.514567   0.991640
     3  C    1.215843   0.058848
     4  F   -0.658723  -0.007733
     5  F   -0.684092   0.006536
     6  H   -0.024651   0.002295
 Sum of Mulliken charges =  -0.00000   1.00000

 Dipole moment (field-independent basis, Debye):
    X=             -0.9696    Y=             -0.5023    Z=              1.1429  Tot=              1.5807
                          Isotropic Fermi Contact Couplings
        Atom                 a.u.       MegaHertz       Gauss      10(-4) cm-1
     1  F(19)              0.06541     275.21900      98.20498      91.80318
     2  B(11)              0.36328     521.07900     185.93394     173.81324
     3  C(13)              0.06338      71.24729      25.42281      23.76554
     4  F(19)             -0.00360     -15.13460      -5.40040      -5.04836
     5  F(19)             -0.00138      -5.79906      -2.06925      -1.93436
     6  H(1)               0.00399      17.81351       6.35630       5.94195
 --------------------------------------------------------
       Center         ----  Spin Dipole Couplings  ----

 Normal termination of Gaussian 16 at Wed Apr  9 00:30:46 2025.
