 Gaussian 16, Revision C.01,

 ----------------------------------------------------------------------
 #t hf aug-cc-pvdz symm=none int=(grid=ultrafine) guess=(read,tcheck) s
 table=(opt,rrhf)
 ----------------------------------------------------------------------
 -----
 title
 -----
 Symbolic Z-matrix:
 Charge =  0 Multiplicity = 1

 SCF Done:  E(RHF) =  -749.959378792     A.U. after   17 cycles
 Normal termination of Gaussian 16 at Wed Apr  9 00:45:27 2025.
 Gaussian 16:  ES64L-G16RevC.01  3-Jul-2019

 ----------------------------------------------------------------------
 #t hf aug-cc-pvdz iop(5/13=1,5/36=2,99/5=2) pseudo=read geom=check gue
 ss=(read,tcheck) scf=(maxcycle=1)
 ----------------------------------------------------------------------
 -----
 title
 -----
 Structure from the checkpoint file:  "BDE49_nonexpt_692_mol1.chk"
 Charge =  0 Multiplicity = 1

                         Standard orientation:
 ---------------------------------------------------------------------
 Center     Atomic      Atomic             Coordinates (Angstroms)
 Number     Number       Type             X           Y           Z
 ---------------------------------------------------------------------
      1          6           0       -2.040429   -1.536394    0.083224
      2          6           0       -3.350459   -1.129320    0.157017
      3          6           0       -3.673896    0.247353    0.136608
      4          6           0       -2.679186    1.190916    0.042988
      5          6           0       -1.317319    0.804258   -0.034231
      6          6           0       -0.989507   -0.587246   -0.015131
      7          1           0       -1.792145   -2.592519    0.098960
      8          1           0       -4.143967   -1.864317    0.231554
      9          1           0       -4.711803    0.554695    0.195641
     10          1           0       -2.924379    2.247774    0.027318
     11          6           0        0.373075   -0.975462   -0.089364
     12          6           0        1.381668   -0.039184   -0.178525
     13          6           0       -0.260673    1.747357   -0.133852
     14          6           0        1.046780    1.343312   -0.211392
     15          1           0       -0.503012    2.804849   -0.153247
     16          1           0        1.834720    2.083444   -0.295344
     17          5           0        4.264720    0.255938    0.868862
     18          1           0        0.606503   -2.035188   -0.065971
     19         15           0        3.126936   -0.534551   -0.344125
     20          1           0        4.081205    1.377367    1.216886
     21          1           0        5.277520   -0.311608    1.126111
     22          1           0        3.107384   -1.919464   -0.108396
 ---------------------------------------------------------------------

 SCF Done:  E(RHF) =  -750.421374648     A.U. after    2 cycles

 The electronic state is 1-A.
 Alpha  occ. eigenvalues --  -84.26489 -11.26460 -11.25617 -11.25424 -11.25255
 Alpha  occ. eigenvalues --  -11.25223 -11.25160 -11.24970 -11.24951 -11.24853
 Alpha  occ. eigenvalues --  -11.24800  -7.60883  -6.74070  -4.27211  -4.26871
 Alpha  occ. eigenvalues --   -4.25843  -1.18522  -1.12090  -1.05890  -1.02241
 Alpha  occ. eigenvalues --   -0.99298  -0.90150  -0.86264  -0.82970  -0.82656
 Alpha  occ. eigenvalues --   -0.72090  -0.71797  -0.69564  -0.66591  -0.63922
 Alpha  occ. eigenvalues --   -0.62303  -0.60809  -0.59910  -0.56370  -0.55024
 Alpha  occ. eigenvalues --   -0.53558  -0.51822  -0.49729  -0.48114  -0.47394
 Alpha  occ. eigenvalues --   -0.45560  -0.40399  -0.36044  -0.31574  -0.28637
 Alpha virt. eigenvalues --    0.03116   0.03207   0.03485   0.03989   0.04119
 Alpha virt. eigenvalues --    0.04532   0.05832   0.05997   0.06514   0.07351
 Alpha virt. eigenvalues --    0.08159   0.08287   0.08708   0.09332   0.09659

 Mulliken charges:
               1
     1  C    0.058659
     2  C   -0.290650
     3  C   -0.270790
     4  C    0.220205
     5  C    1.167681
     6  C    1.830850
     7  H   -0.310156
     8  H   -0.241676
     9  H   -0.240326
    10  H   -0.305561
    11  C   -0.257515
    12  C   -0.102856
    13  C    0.252880
    14  C   -0.665038
    15  H   -0.334912
    16  H   -0.332302
    17  B   -0.414394
    18  H   -0.308102
    19  P   -0.244212
    20  H    0.339754
    21  H    0.303357
    22  H    0.145104
 Sum of Mulliken charges =  -0.00000

 Dipole moment (field-independent basis, Debye):
    X=             -1.2117    Y=             -0.2899    Z=              0.2278  Tot=              1.2665

 Test job not archived.
 1\1\GINC-SE250\SP\RHF\Aug-CC-pVDZ\C10H10B1P1\OHZDE\09-Apr-2025\0\\#t h
 f aug-cc-pvdz iop(5/13=1,5/36=2,99/5=2) pseudo=read geom=check guess=(
 read,tcheck) scf=(maxcycle=1)\\title\\0,1\C,0,-2.040429,-1.536394,0.08
 3224\C,0,-3.350459,-1.12932,0.157017\C,0,-3.673896,0.247353,0.136608\C
 ,0,-2.679186,1.190916,0.042988\C,0,-1.317319,0.804258,-0.034231\C,0,-0
 .989507,-0.587246,-0.015131\H,0,-1.792145,-2.592519,0.09896\H,0,-4.143
 967,-1.864317,0.231554\H,0,-4.711803,0.554695,0.195641\H,0,-2.924379,2
 .247774,0.027318\C,0,0.373075,-0.975462,-0.089364\C,0,1.381668,-0.0391

 Normal termination of Gaussian 16 at Wed Apr  9 00:45:43 2025.
