 Gaussian 16, Revision C.01,

 ----------------------------------------------------------------------
 #t hf aug-cc-pvdz symm=none int=(grid=ultrafine) guess=(read,tcheck) s
 table=opt
 ----------------------------------------------------------------------
 -----
 title
 -----
 Symbolic Z-matrix:
 Charge =  0 Multiplicity = 2

 SCF Done:  E(UHF) =  -2065.14952373     A.U. after   16 cycles
 Normal termination of Gaussian 16 at Wed Apr  9 00:16:11 2025.
 Gaussian 16:  ES64L-G16RevC.01  3-Jul-2019

 ----------------------------------------------------------------------
 #t hf aug-cc-pvdz iop(5/13=1,5/36=2,99/5=2) pseudo=read geom=check gue
 ss=(read,tcheck) scf=(maxcycle=1)
 ----------------------------------------------------------------------
 -----
 title
 -----
 Structure from the checkpoint file:  "BDE49_nonexpt_2531_mol2.chk"
 Charge =  0 Multiplicity = 2

                         Standard orientation:
 ---------------------------------------------------------------------
 Center     Atomic      Atomic             Coordinates (Angstroms)
 Number     Number       Type             X           Y           Z
 ---------------------------------------------------------------------
      1         16           0       -1.558400    0.003861   -1.466133
      2         14           0        0.002076    0.000123   -0.037323
      3         17           0        1.210375    1.652969   -0.181295
      4         17           0       -0.955366   -0.004425    1.781289
      5         17           0        1.210011   -1.652280   -0.189368
 ---------------------------------------------------------------------

 SCF Done:  E(UHF) =  -2065.46480489     A.U. after    2 cycles

 The electronic state is 2-A.
 Alpha  occ. eigenvalues -- -105.59440-105.59184-105.59183 -94.00620 -69.70406
 Alpha  occ. eigenvalues --  -10.64470 -10.64226 -10.64215  -8.28838  -7.81379
 Alpha  occ. eigenvalues --   -7.81113  -7.81109  -7.81049  -7.81005  -7.80778
 Alpha  occ. eigenvalues --   -7.80777  -7.80762  -7.80759  -6.35973  -6.27964
 Alpha  occ. eigenvalues --   -6.26211  -6.25921  -4.11338  -4.11300  -4.11238
 Alpha  occ. eigenvalues --   -1.13445  -1.07571  -1.07153  -1.04176  -0.72575
 Alpha  occ. eigenvalues --   -0.61015  -0.60227  -0.57999  -0.53349  -0.52311
 Alpha  occ. eigenvalues --   -0.50958  -0.49952  -0.48739  -0.48204  -0.47946
 Alpha  occ. eigenvalues --   -0.43460
 Alpha virt. eigenvalues --    0.04711   0.05860   0.05923   0.06142   0.08771
 Alpha virt. eigenvalues --    0.10943   0.11214   0.11544   0.12546   0.12986
 Alpha virt. eigenvalues --    0.14591   0.16159   0.16284   0.17004   0.17202

  Beta  occ. eigenvalues -- -105.59399-105.59182-105.59181 -93.99748 -69.70439
  Beta  occ. eigenvalues --  -10.64426 -10.64224 -10.64213  -8.27839  -7.81303
  Beta  occ. eigenvalues --   -7.81113  -7.81109  -7.80979  -7.80943  -7.80765
  Beta  occ. eigenvalues --   -7.80763  -7.80762  -7.80760  -6.36026  -6.25712
  Beta  occ. eigenvalues --   -6.25391  -6.24056  -4.11369  -4.11329  -4.11328
  Beta  occ. eigenvalues --   -1.12929  -1.07334  -1.07136  -0.95218  -0.71810
  Beta  occ. eigenvalues --   -0.60185  -0.60121  -0.57140  -0.52312  -0.52199
  Beta  occ. eigenvalues --   -0.49827  -0.49776  -0.48161  -0.47611  -0.41290
  Beta virt. eigenvalues --   -0.04820   0.04880   0.05899   0.06158   0.06256
  Beta virt. eigenvalues --    0.09229   0.11019   0.11529   0.11808   0.12932
  Beta virt. eigenvalues --    0.13023   0.15796   0.16252   0.16910   0.17304

 Mulliken charges and spin densities:
               1          2
     1  S   -0.511830   1.078831
     2  Si   1.879165  -0.104017
     3  Cl  -0.452947   0.002814
     4  Cl  -0.461431   0.019563
     5  Cl  -0.452956   0.002808
 Sum of Mulliken charges =  -0.00000   1.00000

 Dipole moment (field-independent basis, Debye):
    X=             -0.3500    Y=              0.0015    Z=             -0.4707  Tot=              0.5866
                          Isotropic Fermi Contact Couplings
        Atom                 a.u.       MegaHertz       Gauss      10(-4) cm-1
     1  S(33)              0.14858      51.03302      18.20985      17.02278
     2  Si(29)            -0.05120      45.50716      16.23809      15.17956
     3  Cl(35)             0.00071       0.31292       0.11166       0.10438
     4  Cl(35)             0.02358      10.33849       3.68903       3.44855
     5  Cl(35)             0.00071       0.30923       0.11034       0.10315
 --------------------------------------------------------
       Center         ----  Spin Dipole Couplings  ----
                      3XX-RR        3YY-RR        3ZZ-RR

 Normal termination of Gaussian 16 at Wed Apr  9 00:16:13 2025.
