 Gaussian 16, Revision C.01,

 ----------------------------------------------------------------------
 #t hf aug-cc-pvdz symm=none int=(grid=ultrafine) guess=(read,tcheck) s
 table=(opt,rrhf)
 ----------------------------------------------------------------------
 -----
 title
 -----
 Symbolic Z-matrix:
 Charge =  0 Multiplicity = 1

 SCF Done:  E(RHF) =  -1121.10757432     A.U. after   15 cycles
 Normal termination of Gaussian 16 at Tue Apr  8 23:18:54 2025.
 Gaussian 16:  ES64L-G16RevC.01  3-Jul-2019

 ----------------------------------------------------------------------
 #t hf aug-cc-pvdz iop(5/13=1,5/36=2,99/5=2) pseudo=read geom=check gue
 ss=(read,tcheck) scf=(maxcycle=1)
 ----------------------------------------------------------------------
 -----
 title
 -----
 Structure from the checkpoint file:  "BDE49_nonexpt_1064_mol1.chk"
 Charge =  0 Multiplicity = 1

                         Standard orientation:
 ---------------------------------------------------------------------
 Center     Atomic      Atomic             Coordinates (Angstroms)
 Number     Number       Type             X           Y           Z
 ---------------------------------------------------------------------
      1         17           0       -2.089143    0.044016    0.011040
      2          8           0       -0.616969   -0.467081   -0.760801
      3         16           0        0.798732   -0.147249    0.089871
      4          8           0        1.748408   -0.856592   -0.714480
      5          6           0        0.971667    1.608519   -0.173670
      6          8           0        0.601007   -0.407428    1.483017
      7          1           0        1.022546    1.788107   -1.245392
      8          1           0        1.899864    1.901212    0.317185
      9          1           0        0.123740    2.116077    0.282710
 ---------------------------------------------------------------------

 SCF Done:  E(RHF) =  -1121.50548972     A.U. after    2 cycles

 The electronic state is 1-A.
 Alpha  occ. eigenvalues -- -105.65689 -94.25576 -20.67379 -20.57539 -20.57176
 Alpha  occ. eigenvalues --  -11.31451 -10.69848  -8.50391  -7.86839  -7.86268
 Alpha  occ. eigenvalues --   -7.86241  -6.48508  -6.48355  -6.48161  -1.62353
 Alpha  occ. eigenvalues --   -1.49750  -1.48065  -1.09639  -1.05772  -0.87461
 Alpha  occ. eigenvalues --   -0.75422  -0.72626  -0.70705  -0.65270  -0.64520
 Alpha  occ. eigenvalues --   -0.62489  -0.61063  -0.55003  -0.51901  -0.51545
 Alpha  occ. eigenvalues --   -0.49444  -0.48248  -0.48013
 Alpha virt. eigenvalues --    0.02878   0.03514   0.04995   0.05570   0.08460
 Alpha virt. eigenvalues --    0.10589   0.11118   0.11988   0.12932   0.13571
 Alpha virt. eigenvalues --    0.15293   0.15684   0.16294   0.16865   0.18743

 Mulliken charges:
               1
     1  Cl   0.365747
     2  O   -1.251674
     3  S    3.738731
     4  O   -1.422559
     5  C   -0.792856
     6  O   -1.422955
     7  H    0.265486
     8  H    0.280301
     9  H    0.239779
 Sum of Mulliken charges =  -0.00000

 Dipole moment (field-independent basis, Debye):
    X=             -0.7381    Y=              4.1686    Z=             -0.6008  Tot=              4.2758

 Test job not archived.
 1\1\GINC-SE092\SP\RHF\Aug-CC-pVDZ\C1H3Cl1O3S1\OHZDE\08-Apr-2025\0\\#t
 hf aug-cc-pvdz iop(5/13=1,5/36=2,99/5=2) pseudo=read geom=check guess=
 (read,tcheck) scf=(maxcycle=1)\\title\\0,1\Cl,0,-2.089143,0.044016,0.0
 1104\O,0,-0.616969,-0.467081,-0.760801\S,0,0.798732,-0.147249,0.089871
 \O,0,1.748408,-0.856592,-0.71448\C,0,0.971667,1.608519,-0.17367\O,0,0.
 601007,-0.407428,1.483017\H,0,1.022546,1.788107,-1.245392\H,0,1.899864
 ,1.901212,0.317185\H,0,0.12374,2.116077,0.28271\\Version=ES64L-G16RevC
 .01\State=1-A\HF=-1121.5054897\RMSD=6.898e-03\Dipole=-0.2903871,1.6400

 Normal termination of Gaussian 16 at Tue Apr  8 23:18:57 2025.
