 Gaussian 16, Revision C.01,

 ----------------------------------------------------------------------
 #t hf aug-cc-pvdz symm=none int=(grid=ultrafine) guess=(read,tcheck) s
 table=(opt,rrhf)
 ----------------------------------------------------------------------
 -----
 title
 -----
 Symbolic Z-matrix:
 Charge =  0 Multiplicity = 1

 SCF Done:  E(RHF) =  -1045.27279701     A.U. after   16 cycles
 Normal termination of Gaussian 16 at Wed Apr  9 00:53:36 2025.
 Gaussian 16:  ES64L-G16RevC.01  3-Jul-2019

 ----------------------------------------------------------------------
 #t hf aug-cc-pvdz iop(5/13=1,5/36=2,99/5=2) pseudo=read geom=check gue
 ss=(read,tcheck) scf=(maxcycle=1)
 ----------------------------------------------------------------------
 -----
 title
 -----
 Structure from the checkpoint file:  "BDE49_nonexpt_933_mol1.chk"
 Charge =  0 Multiplicity = 1

                         Standard orientation:
 ---------------------------------------------------------------------
 Center     Atomic      Atomic             Coordinates (Angstroms)
 Number     Number       Type             X           Y           Z
 ---------------------------------------------------------------------
      1         17           0        1.659569   -1.973369   -0.693646
      2          7           0       -0.005517   -1.596002   -0.163313
      3          6           0       -0.141172   -1.436001    1.285136
      4          6           0       -0.174663   -0.227743    0.409983
      5          6           0        1.022561    0.706327    0.493197
      6          8           0        1.758259    0.783531    1.441439
      7          8           0        1.146425    1.398143   -0.640032
      8          6           0        2.232420    2.345238   -0.681605
      9          6           0       -1.484841    0.462152    0.111410
     10          8           0       -1.648011    1.647392    0.250489
     11          8           0       -2.437957   -0.405214   -0.247181
     12          6           0       -3.737744    0.166313   -0.498909
     13          1           0        0.741900   -1.530316    1.906580
     14          1           0       -1.065439   -1.847728    1.674304
     15          1           0        3.184971    1.832868   -0.542960
     16          1           0        2.104699    3.094721    0.100220
     17          1           0        2.177697    2.802276   -1.666199
     18          1           0       -3.680459    0.889558   -1.312980
     19          1           0       -4.371841   -0.672898   -0.773263
     20          1           0       -4.114673    0.662272    0.396485
 ---------------------------------------------------------------------

 SCF Done:  E(RHF) =  -1045.92663770     A.U. after    2 cycles

 The electronic state is 1-A.
 Alpha  occ. eigenvalues -- -105.59767 -20.60764 -20.60190 -20.55367 -20.55287
 Alpha  occ. eigenvalues --  -15.60726 -11.41344 -11.41160 -11.32945 -11.31028
 Alpha  occ. eigenvalues --  -11.30961 -11.30280 -10.64270  -7.81219  -7.80758
 Alpha  occ. eigenvalues --   -7.80745  -1.56457  -1.55895  -1.47172  -1.46871
 Alpha  occ. eigenvalues --   -1.32824  -1.08635  -1.02454  -1.00093  -0.93295
 Alpha  occ. eigenvalues --   -0.89390  -0.83861  -0.78289  -0.76582  -0.73482
 Alpha  occ. eigenvalues --   -0.69887  -0.69462  -0.68567  -0.67965  -0.66077
 Alpha  occ. eigenvalues --   -0.63178  -0.61155  -0.59281  -0.57842  -0.56314
 Alpha  occ. eigenvalues --   -0.54774  -0.54003  -0.53383  -0.51463  -0.48165
 Alpha  occ. eigenvalues --   -0.47441  -0.46850  -0.46294  -0.45161  -0.42985
 Alpha virt. eigenvalues --    0.03263   0.03961   0.04200   0.05143   0.05274
 Alpha virt. eigenvalues --    0.05645   0.05839   0.07088   0.07866   0.08717
 Alpha virt. eigenvalues --    0.08927   0.11256   0.11419   0.12506   0.13170

 Mulliken charges:
               1
     1  Cl  -0.003318
     2  N    0.521182
     3  C    0.287596
     4  C   -1.140502
     5  C    2.413364
     6  O   -1.333652
     7  O   -1.381745
     8  C    0.165975
     9  C    2.447017
    10  O   -1.373182
    11  O   -1.487291
    12  C    0.251365
    13  H   -0.068638
    14  H   -0.069535
    15  H    0.180431
    16  H    0.183754
    17  H    0.024942
    18  H    0.177511
    19  H    0.021738
    20  H    0.182988
 Sum of Mulliken charges =  -0.00000

 Dipole moment (field-independent basis, Debye):
    X=             -1.5064    Y=              0.0746    Z=             -0.1581  Tot=              1.5165

 Test job not archived.
 1\1\GINC-SE249\SP\RHF\Aug-CC-pVDZ\C6H8Cl1N1O4\OHZDE\09-Apr-2025\0\\#t
 hf aug-cc-pvdz iop(5/13=1,5/36=2,99/5=2) pseudo=read geom=check guess=
 (read,tcheck) scf=(maxcycle=1)\\title\\0,1\Cl,0,1.659569,-1.973369,-0.
 693646\N,0,-0.005517,-1.596002,-0.163313\C,0,-0.141172,-1.436001,1.285
 136\C,0,-0.174663,-0.227743,0.409983\C,0,1.022561,0.706327,0.493197\O,
 0,1.758259,0.783531,1.441439\O,0,1.146425,1.398143,-0.640032\C,0,2.232
 42,2.345238,-0.681605\C,0,-1.484841,0.462152,0.11141\O,0,-1.648011,1.6
 47392,0.250489\O,0,-2.437957,-0.405214,-0.247181\C,0,-3.737744,0.16631

 Normal termination of Gaussian 16 at Wed Apr  9 00:53:51 2025.
