 Gaussian 16, Revision C.01,

 ----------------------------------------------------------------------
 #t hf aug-cc-pvdz symm=none int=(grid=ultrafine) guess=(read,tcheck) s
 table=(opt,rrhf)
 ----------------------------------------------------------------------
 -----
 title
 -----
 Symbolic Z-matrix:
 Charge =  0 Multiplicity = 1

 SCF Done:  E(RHF) =  -843.537882552     A.U. after   17 cycles
 Normal termination of Gaussian 16 at Tue Apr  8 23:34:44 2025.
 Gaussian 16:  ES64L-G16RevC.01  3-Jul-2019

 ----------------------------------------------------------------------
 #t hf aug-cc-pvdz iop(5/13=1,5/36=2,99/5=2) pseudo=read geom=check gue
 ss=(read,tcheck) scf=(maxcycle=1)
 ----------------------------------------------------------------------
 -----
 title
 -----
 Structure from the checkpoint file:  "BDE49_nonexpt_1471_mol1.chk"
 Charge =  0 Multiplicity = 1

                         Standard orientation:
 ---------------------------------------------------------------------
 Center     Atomic      Atomic             Coordinates (Angstroms)
 Number     Number       Type             X           Y           Z
 ---------------------------------------------------------------------
      1          7           0        1.140852   -0.198618    0.898461
      2          6           0        0.311031    0.983500    1.000595
      3         15           0       -1.069534    1.232480   -0.241608
      4          1           0        0.943421    1.870112    0.936010
      5          1           0       -0.145285    0.966432    1.991086
      6          7           0        2.027411   -0.293388   -0.166827
      7          1           0        0.705984   -1.097393    1.073120
      8          7           0       -1.875176   -0.455602   -0.077989
      9          8           0        2.320342    0.748349   -0.738580
     10          8           0        2.460134   -1.407543   -0.401422
     11          8           0       -1.672051   -1.109654    0.938606
     12          8           0       -2.609303   -0.773099   -0.992480
     13          1           0       -0.371901    0.841476   -1.404169
 ---------------------------------------------------------------------

 SCF Done:  E(RHF) =  -844.063768292     A.U. after    2 cycles

 The electronic state is 1-A.
 Alpha  occ. eigenvalues --  -84.37188 -20.61802 -20.61324 -20.60985 -20.60898
 Alpha  occ. eigenvalues --  -15.84404 -15.79582 -15.61320 -11.34191  -6.83986
 Alpha  occ. eigenvalues --   -4.36581  -4.36183  -4.35576  -1.70410  -1.68919
 Alpha  occ. eigenvalues --   -1.53940  -1.53074  -1.32918  -1.09474  -1.03339
 Alpha  occ. eigenvalues --   -0.93813  -0.87440  -0.84629  -0.80314  -0.79387
 Alpha  occ. eigenvalues --   -0.76751  -0.76067  -0.74406  -0.71636  -0.63958
 Alpha  occ. eigenvalues --   -0.60544  -0.54730  -0.51881  -0.50962  -0.50568
 Alpha  occ. eigenvalues --   -0.48248  -0.47530  -0.47286  -0.41598
 Alpha virt. eigenvalues --    0.02688   0.03407   0.03848   0.04401   0.05656
 Alpha virt. eigenvalues --    0.06244   0.06781   0.08152   0.08380   0.11190
 Alpha virt. eigenvalues --    0.11330   0.12045   0.13582   0.14768   0.15285

 Mulliken charges:
               1
     1  N    0.328615
     2  C   -0.674884
     3  P    0.573394
     4  H    0.160195
     5  H    0.109484
     6  N    2.121896
     7  H    0.201610
     8  N    1.919701
     9  O   -1.321056
    10  O   -1.252846
    11  O   -1.251163
    12  O   -1.255391
    13  H    0.340446
 Sum of Mulliken charges =  -0.00000

 Dipole moment (field-independent basis, Debye):
    X=             -0.6484    Y=              3.7692    Z=              1.7822  Tot=              4.2194

 Test job not archived.
 1\1\GINC-SE424\SP\RHF\Aug-CC-pVDZ\C1H4N3O4P1\OHZDE\08-Apr-2025\0\\#t h
 f aug-cc-pvdz iop(5/13=1,5/36=2,99/5=2) pseudo=read geom=check guess=(
 read,tcheck) scf=(maxcycle=1)\\title\\0,1\N,0,1.140852,-0.198618,0.898
 461\C,0,0.311031,0.9835,1.000595\P,0,-1.069534,1.23248,-0.241608\H,0,0
 .943421,1.870112,0.93601\H,0,-0.145285,0.966432,1.991086\N,0,2.027411,
 -0.293388,-0.166827\H,0,0.705984,-1.097393,1.07312\N,0,-1.875176,-0.45
 5602,-0.077989\O,0,2.320342,0.748349,-0.73858\O,0,2.460134,-1.407543,-
 0.401422\O,0,-1.672051,-1.109654,0.938606\O,0,-2.609303,-0.773099,-0.9

 Normal termination of Gaussian 16 at Tue Apr  8 23:34:50 2025.
