 Gaussian 16, Revision C.01,

 ----------------------------------------------------------------------
 #t hf aug-cc-pvdz symm=none int=(grid=ultrafine) guess=(read,tcheck) s
 table=opt
 ----------------------------------------------------------------------
 -----
 title
 -----
 Symbolic Z-matrix:
 Charge =  0 Multiplicity = 2

 SCF Done:  E(UHF) =  -25.7536787671     A.U. after   12 cycles
 Normal termination of Gaussian 16 at Tue Apr  8 23:15:46 2025.
 Gaussian 16:  ES64L-G16RevC.01  3-Jul-2019

 ----------------------------------------------------------------------
 #t hf aug-cc-pvdz iop(5/13=1,5/36=2,99/5=2) pseudo=read geom=check gue
 ss=(read,tcheck) scf=(maxcycle=1)
 ----------------------------------------------------------------------
 -----
 title
 -----
 Structure from the checkpoint file:  "BDE49_nonexpt_101_mol3.chk"
 Charge =  0 Multiplicity = 2

                         Standard orientation:
 ---------------------------------------------------------------------
 Center     Atomic      Atomic             Coordinates (Angstroms)
 Number     Number       Type             X           Y           Z
 ---------------------------------------------------------------------
      1          5           0        0.000000   -0.000000    0.144905
      2          1           0        0.000000    1.073879   -0.362263
      3          1           0       -0.000000   -1.073879   -0.362263
 ---------------------------------------------------------------------

 SCF Done:  E(UHF) =  -25.7777605973     A.U. after    2 cycles

 The electronic state is 2-A1.
 Alpha  occ. eigenvalues --   -7.63914  -0.71441  -0.53186  -0.35184
 Alpha virt. eigenvalues --    0.02268   0.04852   0.05057   0.06090   0.10152
 Alpha virt. eigenvalues --    0.10797   0.13318   0.23883   0.25923   0.26167
 Alpha virt. eigenvalues --    0.26768   0.26878   0.35584   0.35863   0.39985

  Beta  occ. eigenvalues --   -7.62101  -0.66140  -0.51832
  Beta virt. eigenvalues --    0.03282   0.03968   0.05105   0.05246   0.10442
  Beta virt. eigenvalues --    0.10949   0.11927   0.16174   0.24764   0.26224
  Beta virt. eigenvalues --    0.28631   0.28635   0.28911   0.36139   0.39023

 Mulliken charges and spin densities:
               1          2
     1  B   -0.474649   1.045519
     2  H    0.237325  -0.022760
     3  H    0.237325  -0.022760
 Sum of Mulliken charges =  -0.00000   1.00000

 Dipole moment (field-independent basis, Debye):
    X=             -0.0000    Y=             -0.0000    Z=             -0.4943  Tot=              0.4943
                          Isotropic Fermi Contact Couplings
        Atom                 a.u.       MegaHertz       Gauss      10(-4) cm-1
     1  B(11)              0.24411     350.14291     124.93970     116.79510
     2  H(1)               0.00154       6.88817       2.45787       2.29765
     3  H(1)               0.00154       6.88817       2.45787       2.29765
 --------------------------------------------------------
       Center         ----  Spin Dipole Couplings  ----
                      3XX-RR        3YY-RR        3ZZ-RR
 --------------------------------------------------------
     1   Atom       -0.231092     -0.212584      0.443676

 Normal termination of Gaussian 16 at Tue Apr  8 23:15:47 2025.
