 Gaussian 16, Revision C.01,

 ----------------------------------------------------------------------
 #t hf aug-cc-pvdz symm=none int=(grid=ultrafine) guess=(read,tcheck) s
 table=opt
 ----------------------------------------------------------------------
 -----
 title
 -----
 Symbolic Z-matrix:
 Charge =  0 Multiplicity = 2

 SCF Done:  E(UHF) =  -364.329368857     A.U. after   19 cycles

 1\1\GINC-SE071\Stability\UHF\Aug-CC-pVDZ\H1O1Si1\OHZDE\08-Apr-2025\0\\
 #t hf aug-cc-pvdz symm=none int=(grid=ultrafine) guess=(read,tcheck) s
 table=opt\\title\\0,2\Si,0,0.058933,-0.501463,0.\O,0,0.058933,1.028698
 ,0.\H,0,-1.296519,-1.20911,0.\\Version=ES64L-G16RevC.01\HF=-364.329368
 9\S2=0.775565\S2-1=0.\S2A=0.750381\RMSD=8.724e-09\Dipole=-0.079127,-1.
 6177037,0.\Quadrupole=0.1137842,-1.9407489,1.8269647,-0.1380063,0.,0.\
 PG=Unknown\\@
 The archive entry for this job was punched.

 Normal termination of Gaussian 16 at Tue Apr  8 23:55:17 2025.
 Gaussian 16:  ES64L-G16RevC.01  3-Jul-2019

 ----------------------------------------------------------------------
 #t hf aug-cc-pvdz iop(5/13=1,5/36=2,99/5=2) pseudo=read geom=check gue
 ss=(read,tcheck) scf=(maxcycle=1)
 ----------------------------------------------------------------------
 -----
 title
 -----
 Structure from the checkpoint file:  "BDE49_nonexpt_1993_mol2.chk"
 Charge =  0 Multiplicity = 2

                         Standard orientation:
 ---------------------------------------------------------------------
 Center     Atomic      Atomic             Coordinates (Angstroms)
 Number     Number       Type             X           Y           Z
 ---------------------------------------------------------------------
      1         14           0        0.058933   -0.501463    0.000000
      2          8           0        0.058933    1.028698    0.000000
      3          1           0       -1.296519   -1.209110    0.000000
 ---------------------------------------------------------------------

 SCF Done:  E(UHF) =  -364.425498195     A.U. after    2 cycles

 The electronic state is 2-A'.
 Alpha  occ. eigenvalues --  -69.60067 -20.52937  -6.27019  -4.02550  -4.02035
 Alpha  occ. eigenvalues --   -4.01765  -1.36689  -0.70853  -0.56690  -0.50171
 Alpha  occ. eigenvalues --   -0.46925  -0.39548
 Alpha virt. eigenvalues --    0.00536   0.03939   0.05876   0.06131   0.08330
 Alpha virt. eigenvalues --    0.10839   0.15581   0.17921   0.19884   0.23360
 Alpha virt. eigenvalues --    0.26025   0.26286   0.28113   0.30448   0.32556

  Beta  occ. eigenvalues --  -69.59702 -20.51756  -6.26405  -4.01862  -4.01774
  Beta  occ. eigenvalues --   -4.01023  -1.33148  -0.65315  -0.50617  -0.46081
  Beta  occ. eigenvalues --   -0.43634
  Beta virt. eigenvalues --   -0.01365   0.02188   0.04280   0.06127   0.06822
  Beta virt. eigenvalues --    0.09481   0.12306   0.17106   0.20590   0.21072
  Beta virt. eigenvalues --    0.23616   0.26391   0.27300   0.29159   0.30800

 Mulliken charges and spin densities:
               1          2
     1  Si   1.407554   0.454310
     2  O   -1.216839   0.245946
     3  H   -0.190715   0.299744
 Sum of Mulliken charges =  -0.00000   1.00000

 Dipole moment (field-independent basis, Debye):
    X=             -0.2630    Y=             -3.8369    Z=              0.0000  Tot=              3.8459
                          Isotropic Fermi Contact Couplings
        Atom                 a.u.       MegaHertz       Gauss      10(-4) cm-1
     1  Si(29)             0.57057    -507.08251    -180.93965    -169.14452
     2  O(17)              0.07514     -45.54753     -16.25249     -15.19302
     3  H(1)               0.08509     380.34640     135.71705     126.86990
 --------------------------------------------------------
       Center         ----  Spin Dipole Couplings  ----
                      3XX-RR        3YY-RR        3ZZ-RR
 --------------------------------------------------------
     1   Atom        0.295317      0.062677     -0.357994

 Normal termination of Gaussian 16 at Tue Apr  8 23:55:18 2025.
