 Gaussian 16, Revision C.01,

 ----------------------------------------------------------------------
 #t hf aug-cc-pvdz symm=none int=(grid=ultrafine) guess=(read,tcheck) s
 table=(opt,rrhf)
 ----------------------------------------------------------------------
 -----
 title
 -----
 Symbolic Z-matrix:
 Charge =  0 Multiplicity = 1

 SCF Done:  E(RHF) =  -848.764148609     A.U. after   15 cycles
 Normal termination of Gaussian 16 at Tue Apr  8 23:26:44 2025.
 Gaussian 16:  ES64L-G16RevC.01  3-Jul-2019

 ----------------------------------------------------------------------
 #t hf aug-cc-pvdz iop(5/13=1,5/36=2,99/5=2) pseudo=read geom=check gue
 ss=(read,tcheck) scf=(maxcycle=1)
 ----------------------------------------------------------------------
 -----
 title
 -----
 Structure from the checkpoint file:  "BDE49_nonexpt_1283_mol1.chk"
 Charge =  0 Multiplicity = 1

                         Standard orientation:
 ---------------------------------------------------------------------
 Center     Atomic      Atomic             Coordinates (Angstroms)
 Number     Number       Type             X           Y           Z
 ---------------------------------------------------------------------
      1          6           0       -0.507949    0.539778   -0.553476
      2         15           0        1.067024   -0.125274    0.166961
      3          7           0       -1.666340   -0.336267   -0.071998
      4          8           0        1.140515    0.017676    1.622979
      5          8           0        2.166285    0.694542   -0.657476
      6          8           0       -2.652499    0.200621    0.377319
      7          8           0       -1.526917   -1.554573   -0.197631
      8          1           0       -0.475096    0.357919   -1.630601
      9          6           0       -0.736039    2.004788   -0.223435
     10          1           0       -0.755854    2.159108    0.855403
     11          1           0       -1.675703    2.357264   -0.647731
     12          1           0        0.082259    2.588111   -0.649054
     13          1           0        2.763680    1.172400   -0.069388
     14          8           0        1.222468   -1.560371   -0.492148
     15          1           0        0.384847   -2.052364   -0.421920
 ---------------------------------------------------------------------

 SCF Done:  E(RHF) =  -849.308974422     A.U. after    2 cycles

 The electronic state is 1-A.
 Alpha  occ. eigenvalues --  -84.45482 -20.62765 -20.61613 -20.61284 -20.60217
 Alpha  occ. eigenvalues --  -20.52305 -15.81544 -11.34696 -11.27381  -6.90723
 Alpha  occ. eigenvalues --   -4.44921  -4.44279  -4.43590  -1.70025  -1.55618
 Alpha  occ. eigenvalues --   -1.53654  -1.49236  -1.40867  -1.16469  -1.00632
 Alpha  occ. eigenvalues --   -0.91028  -0.86733  -0.79682  -0.78193  -0.77576
 Alpha  occ. eigenvalues --   -0.72992  -0.70435  -0.66124  -0.65279  -0.61667
 Alpha  occ. eigenvalues --   -0.60164  -0.58194  -0.57226  -0.56475  -0.52735
 Alpha  occ. eigenvalues --   -0.51190  -0.50723  -0.47879  -0.47432  -0.46594
 Alpha virt. eigenvalues --    0.02673   0.03200   0.04346   0.04665   0.05444
 Alpha virt. eigenvalues --    0.06298   0.06921   0.09269   0.10002   0.11370
 Alpha virt. eigenvalues --    0.12684   0.13033   0.13689   0.14431   0.14713

 Mulliken charges:
               1
     1  C   -1.524262
     2  P    4.625886
     3  N    2.694969
     4  O   -1.503367
     5  O   -1.396923
     6  O   -1.300412
     7  O   -1.492876
     8  H    0.050723
     9  C   -0.121971
    10  H    0.224898
    11  H    0.194047
    12  H    0.196402
    13  H    0.367293
    14  O   -1.523972
    15  H    0.509565
 Sum of Mulliken charges =  -0.00000

 Dipole moment (field-independent basis, Debye):
    X=              1.0224    Y=              2.8780    Z=             -3.1453  Tot=              4.3842

 Test job not archived.
 1\1\GINC-SE333\SP\RHF\Aug-CC-pVDZ\C2H6N1O5P1\OHZDE\08-Apr-2025\0\\#t h
 f aug-cc-pvdz iop(5/13=1,5/36=2,99/5=2) pseudo=read geom=check guess=(
 read,tcheck) scf=(maxcycle=1)\\title\\0,1\C,0,-0.507949,0.539778,-0.55
 3476\P,0,1.067024,-0.125274,0.166961\N,0,-1.66634,-0.336267,-0.071998\
 O,0,1.140515,0.017676,1.622979\O,0,2.166285,0.694542,-0.657476\O,0,-2.
 652499,0.200621,0.377319\O,0,-1.526917,-1.554573,-0.197631\H,0,-0.4750
 96,0.357919,-1.630601\C,0,-0.736039,2.004788,-0.223435\H,0,-0.755854,2
 .159108,0.855403\H,0,-1.675703,2.357264,-0.647731\H,0,0.082259,2.58811

 Normal termination of Gaussian 16 at Tue Apr  8 23:26:52 2025.
