 Gaussian 16, Revision C.01,

 ----------------------------------------------------------------------
 #t hf aug-cc-pvdz symm=none int=(grid=ultrafine) guess=(read,tcheck) s
 table=(opt,rrhf)
 ----------------------------------------------------------------------
 -----
 title
 -----
 Symbolic Z-matrix:
 Charge =  0 Multiplicity = 1

 SCF Done:  E(RHF) =  -634.973380272     A.U. after   14 cycles
 Normal termination of Gaussian 16 at Wed Apr  9 00:06:45 2025.
 Gaussian 16:  ES64L-G16RevC.01  3-Jul-2019

 ----------------------------------------------------------------------
 #t hf aug-cc-pvdz iop(5/13=1,5/36=2,99/5=2) pseudo=read geom=check gue
 ss=(read,tcheck) scf=(maxcycle=1)
 ----------------------------------------------------------------------
 -----
 title
 -----
 Structure from the checkpoint file:  "BDE49_nonexpt_2222_mol1.chk"
 Charge =  0 Multiplicity = 1

                         Standard orientation:
 ---------------------------------------------------------------------
 Center     Atomic      Atomic             Coordinates (Angstroms)
 Number     Number       Type             X           Y           Z
 ---------------------------------------------------------------------
      1         14           0       -0.682229   -0.351417    0.694448
      2          8           0       -1.673215   -0.535861   -0.668682
      3          8           0       -2.808327    0.382367   -0.510071
      4          1           0       -2.786027    0.814313   -1.374140
      5          6           0        0.714781   -1.560118    0.377815
      6          6           0        1.738359   -0.998687   -0.637251
      7          1           0        0.325732   -2.526941    0.043899
      8          1           0        1.211691   -1.744534    1.339903
      9          6           0        0.100057    1.350304    0.762874
     10          6           0        1.202754    1.513730   -0.309213
     11          1           0        0.536483    1.476332    1.763195
     12          1           0       -0.661182    2.130519    0.664197
     13          6           0        2.268156    0.402598   -0.282221
     14          1           0        1.695387    2.484142   -0.183027
     15          1           0        0.743516    1.535100   -1.305286
     16          1           0        3.066868    0.663910   -0.984484
     17          1           0        2.734480    0.373019    0.711977
     18          1           0        1.277819   -0.961230   -1.631425
     19          1           0        2.584883   -1.689169   -0.720146
     20          1           0       -1.470756   -0.654632    1.911065
 ---------------------------------------------------------------------

 SCF Done:  E(RHF) =  -635.367323282     A.U. after    2 cycles

 The electronic state is 1-A.
 Alpha  occ. eigenvalues --  -69.54060 -20.61729 -20.58952 -11.23499 -11.23371
 Alpha  occ. eigenvalues --  -11.22989 -11.21547 -11.21532  -6.20863  -3.96301
 Alpha  occ. eigenvalues --   -3.96161  -3.96124  -1.55948  -1.26566  -1.09066
 Alpha  occ. eigenvalues --   -1.00590  -0.93849  -0.83347  -0.78609  -0.71392
 Alpha  occ. eigenvalues --   -0.69819  -0.64243  -0.62038  -0.61691  -0.59717
 Alpha  occ. eigenvalues --   -0.58583  -0.54725  -0.54462  -0.51084  -0.50787
 Alpha  occ. eigenvalues --   -0.49118  -0.48779  -0.46758  -0.45637  -0.42793
 Alpha  occ. eigenvalues --   -0.40678
 Alpha virt. eigenvalues --    0.03338   0.03528   0.03785   0.03944   0.05725
 Alpha virt. eigenvalues --    0.05926   0.06158   0.06474   0.06601   0.08869
 Alpha virt. eigenvalues --    0.09078   0.09350   0.09843   0.10925   0.11632

 Mulliken charges:
               1
     1  Si   2.403752
     2  O   -0.967746
     3  O   -0.639487
     4  H    0.461703
     5  C   -0.476661
     6  C   -0.337918
     7  H    0.046152
     8  H    0.080098
     9  C   -0.547204
    10  C   -0.325174
    11  H    0.043399
    12  H    0.042043
    13  C   -0.258091
    14  H    0.107131
    15  H    0.123321
    16  H    0.114689
    17  H    0.161721
    18  H    0.155838
    19  H    0.100847
    20  H   -0.288411
 Sum of Mulliken charges =  -0.00000

 Dipole moment (field-independent basis, Debye):
    X=              1.5306    Y=              1.1059    Z=             -0.4289  Tot=              1.9364

 Test job not archived.
 1\1\GINC-SE334\SP\RHF\Aug-CC-pVDZ\C5H12O2Si1\OHZDE\09-Apr-2025\0\\#t h
 f aug-cc-pvdz iop(5/13=1,5/36=2,99/5=2) pseudo=read geom=check guess=(
 read,tcheck) scf=(maxcycle=1)\\title\\0,1\Si,0,-0.682229,-0.351417,0.6
 94448\O,0,-1.673215,-0.535861,-0.668682\O,0,-2.808327,0.382367,-0.5100
 71\H,0,-2.786027,0.814313,-1.37414\C,0,0.714781,-1.560118,0.377815\C,0
 ,1.738359,-0.998687,-0.637251\H,0,0.325732,-2.526941,0.043899\H,0,1.21
 1691,-1.744534,1.339903\C,0,0.100057,1.350304,0.762874\C,0,1.202754,1.
 51373,-0.309213\H,0,0.536483,1.476332,1.763195\H,0,-0.661182,2.130519,

 Normal termination of Gaussian 16 at Wed Apr  9 00:06:54 2025.
