 Gaussian 16, Revision C.01,

 ----------------------------------------------------------------------
 #t hf aug-cc-pvdz symm=none int=(grid=ultrafine) guess=(read,tcheck) s
 table=opt
 ----------------------------------------------------------------------
 -----
 title
 -----
 Symbolic Z-matrix:
 Charge =  0 Multiplicity = 2

 SCF Done:  E(UHF) =  -625.897684706     A.U. after   25 cycles
 Normal termination of Gaussian 16 at Wed Apr  9 00:19:48 2025.
 Gaussian 16:  ES64L-G16RevC.01  3-Jul-2019

 ----------------------------------------------------------------------
 #t hf aug-cc-pvdz iop(5/13=1,5/36=2,99/5=2) pseudo=read geom=check gue
 ss=(read,tcheck) scf=(maxcycle=1)
 ----------------------------------------------------------------------
 -----
 title
 -----
 Structure from the checkpoint file:  "BDE49_nonexpt_2588_mol2.chk"
 Charge =  0 Multiplicity = 2

                         Standard orientation:
 ---------------------------------------------------------------------
 Center     Atomic      Atomic             Coordinates (Angstroms)
 Number     Number       Type             X           Y           Z
 ---------------------------------------------------------------------
      1         16           0        1.679036   -0.514352   -0.003638
      2          6           0        0.049241    0.251713    0.329043
      3          8           0       -0.862336   -0.515643   -0.396663
      4          8           0        0.063519    1.598573   -0.033556
      5          6           0       -2.207645   -0.427632    0.085223
      6          1           0       -2.287547   -0.828483    1.102309
      7          1           0       -2.813981   -1.030623   -0.588433
      8          1           0       -2.560416    0.607582    0.069615
      9          1           0        0.312516    1.635807   -0.967689
     10          1           0       -0.174192    0.237430    1.398560
 ---------------------------------------------------------------------

 SCF Done:  E(UHF) =  -626.182288308     A.U. after    2 cycles

 The electronic state is 2-A.
 Alpha  occ. eigenvalues --  -93.97347 -20.57700 -20.57473 -11.38735 -11.29998
 Alpha  occ. eigenvalues --   -8.25482  -6.24666  -6.22873  -6.22559  -1.52642
 Alpha  occ. eigenvalues --   -1.45665  -1.05997  -0.95173  -0.87473  -0.72665
 Alpha  occ. eigenvalues --   -0.70075  -0.66305  -0.61861  -0.60716  -0.56612
 Alpha  occ. eigenvalues --   -0.50022  -0.47705  -0.45816  -0.44347  -0.39468
 Alpha virt. eigenvalues --    0.03587   0.04430   0.04985   0.05867   0.07078
 Alpha virt. eigenvalues --    0.08037   0.10641   0.12851   0.13413   0.13964
 Alpha virt. eigenvalues --    0.14307   0.15072   0.16058   0.16784   0.17226

  Beta  occ. eigenvalues --  -93.96431 -20.57626 -20.57354 -11.38874 -11.29988
  Beta  occ. eigenvalues --   -8.24430  -6.22332  -6.22005  -6.20612  -1.52432
  Beta  occ. eigenvalues --   -1.45417  -1.01756  -0.92787  -0.85027  -0.72223
  Beta  occ. eigenvalues --   -0.69952  -0.65212  -0.61093  -0.60510  -0.56239
  Beta  occ. eigenvalues --   -0.49816  -0.46136  -0.44785  -0.37170
  Beta virt. eigenvalues --    0.00354   0.03593   0.04447   0.05104   0.05911
  Beta virt. eigenvalues --    0.07104   0.08190   0.11410   0.12899   0.13850
  Beta virt. eigenvalues --    0.14387   0.14695   0.15730   0.16109   0.16843

 Mulliken charges and spin densities:
               1          2
     1  S    0.269384   1.095512
     2  C    1.053604  -0.090338
     3  O   -1.192739  -0.015254
     4  O   -1.075964   0.013626
     5  C    0.164481  -0.001933
     6  H    0.156535  -0.000320
     7  H   -0.003754  -0.000798
     8  H    0.191148   0.000391
     9  H    0.288222  -0.005689
    10  H    0.149083   0.004803
 Sum of Mulliken charges =  -0.00000   1.00000

 Dipole moment (field-independent basis, Debye):
    X=             -1.8969    Y=              0.1096    Z=              0.2200  Tot=              1.9128
                          Isotropic Fermi Contact Couplings
        Atom                 a.u.       MegaHertz       Gauss      10(-4) cm-1
     1  S(33)              0.19016      65.31564      23.30625      21.78695
     2  C(13)             -0.02268     -25.49815      -9.09838      -8.50527
     3  O(17)              0.03730     -22.60854      -8.06729      -7.54140
     4  O(17)              0.00737      -4.47067      -1.59525      -1.49126
     5  C(13)              0.00127       1.42559       0.50869       0.47553
     6  H(1)              -0.00012      -0.52502      -0.18734      -0.17513
     7  H(1)              -0.00004      -0.16980      -0.06059      -0.05664
     8  H(1)               0.00008       0.35069       0.12513       0.11698

 Normal termination of Gaussian 16 at Wed Apr  9 00:19:52 2025.
