 Gaussian 16, Revision C.01,

 ----------------------------------------------------------------------
 #t hf aug-cc-pvdz symm=none int=(grid=ultrafine) guess=(read,tcheck) s
 table=(opt,rrhf)
 ----------------------------------------------------------------------
 -----
 title
 -----
 Symbolic Z-matrix:
 Charge =  0 Multiplicity = 1

 SCF Done:  E(RHF) =  -636.134061506     A.U. after   14 cycles
 Normal termination of Gaussian 16 at Wed Apr  9 00:08:48 2025.
 Gaussian 16:  ES64L-G16RevC.01  3-Jul-2019

 ----------------------------------------------------------------------
 #t hf aug-cc-pvdz iop(5/13=1,5/36=2,99/5=2) pseudo=read geom=check gue
 ss=(read,tcheck) scf=(maxcycle=1)
 ----------------------------------------------------------------------
 -----
 title
 -----
 Structure from the checkpoint file:  "BDE49_nonexpt_2251_mol1.chk"
 Charge =  0 Multiplicity = 1

                         Standard orientation:
 ---------------------------------------------------------------------
 Center     Atomic      Atomic             Coordinates (Angstroms)
 Number     Number       Type             X           Y           Z
 ---------------------------------------------------------------------
      1         14           0       -0.161540   -0.160113    0.499162
      2          8           0       -0.896776   -1.366109   -0.443004
      3          8           0       -2.224681   -1.618535    0.127994
      4          1           0       -2.145085   -2.564355    0.310321
      5          6           0        1.515748    0.050574   -0.342112
      6          6           0        2.354885    1.131138    0.369007
      7          6           0       -1.219526    1.388218    0.537536
      8          1           0        1.857177    2.105097    0.377075
      9          1           0        3.320831    1.261106   -0.130805
     10          1           0        2.563250    0.856000    1.408471
     11          6           0        2.283481   -1.281756   -0.434758
     12          1           0        1.310188    0.395520   -1.363664
     13          1           0        2.500235   -1.684538    0.560399
     14          1           0        3.242462   -1.142718   -0.946214
     15          1           0        1.715839   -2.037089   -0.982526
     16          6           0       -1.514730    2.016551   -0.836453
     17          1           0       -0.731429    2.117000    1.197171
     18          1           0       -2.157858    1.119812    1.035328
     19          1           0       -0.598680    2.337930   -1.340557
     20          1           0       -2.159785    2.894742   -0.741448
     21          1           0       -2.019486    1.304953   -1.494346
     22          1           0        0.016405   -0.673076    1.883296
 ---------------------------------------------------------------------

 SCF Done:  E(RHF) =  -636.533763350     A.U. after    2 cycles

 The electronic state is 1-A.
 Alpha  occ. eigenvalues --  -69.53998 -20.61751 -20.58921 -11.23167 -11.22770
 Alpha  occ. eigenvalues --  -11.22618 -11.22313 -11.21681  -6.20784  -3.96222
 Alpha  occ. eigenvalues --   -3.96068  -3.96031  -1.56018  -1.26515  -1.05988
 Alpha  occ. eigenvalues --   -1.02107  -0.93178  -0.85264  -0.80707  -0.70858
 Alpha  occ. eigenvalues --   -0.70326  -0.63037  -0.62186  -0.60780  -0.59241
 Alpha  occ. eigenvalues --   -0.58918  -0.56086  -0.55573  -0.54304  -0.51688
 Alpha  occ. eigenvalues --   -0.50317  -0.49696  -0.49076  -0.48354  -0.45592
 Alpha  occ. eigenvalues --   -0.42958  -0.40990
 Alpha virt. eigenvalues --    0.03522   0.03636   0.03848   0.04056   0.05585
 Alpha virt. eigenvalues --    0.05903   0.06226   0.06504   0.06984   0.08489
 Alpha virt. eigenvalues --    0.08680   0.09007   0.09176   0.10288   0.10878

 Mulliken charges:
               1
     1  Si   2.679188
     2  O   -1.083626
     3  O   -0.704747
     4  H    0.489462
     5  C   -0.841800
     6  C   -0.240563
     7  C   -0.678720
     8  H    0.107511
     9  H    0.134044
    10  H    0.189898
    11  C   -0.397305
    12  H    0.171282
    13  H    0.173034
    14  H    0.136424
    15  H    0.099621
    16  C   -0.369319
    17  H    0.071984
    18  H   -0.045713
    19  H    0.109236
    20  H    0.101854
    21  H    0.130793
    22  H   -0.232537
 Sum of Mulliken charges =  -0.00000

 Dipole moment (field-independent basis, Debye):
    X=              0.6997    Y=              0.0513    Z=              0.6658  Tot=              0.9673

 Test job not archived.
 1\1\GINC-SE106\SP\RHF\Aug-CC-pVDZ\C5H14O2Si1\OHZDE\09-Apr-2025\0\\#t h
 f aug-cc-pvdz iop(5/13=1,5/36=2,99/5=2) pseudo=read geom=check guess=(
 read,tcheck) scf=(maxcycle=1)\\title\\0,1\Si,0,-0.16154,-0.160113,0.49
 9162\O,0,-0.896776,-1.366109,-0.443004\O,0,-2.224681,-1.618535,0.12799
 4\H,0,-2.145085,-2.564355,0.310321\C,0,1.515748,0.050574,-0.342112\C,0
 ,2.354885,1.131138,0.369007\C,0,-1.219526,1.388218,0.537536\H,0,1.8571
 77,2.105097,0.377075\H,0,3.320831,1.261106,-0.130805\H,0,2.56325,0.856
 ,1.408471\C,0,2.283481,-1.281756,-0.434758\H,0,1.310188,0.39552,-1.363

 Normal termination of Gaussian 16 at Wed Apr  9 00:09:01 2025.
