 Gaussian 16, Revision C.01,

 ----------------------------------------------------------------------
 #t hf aug-cc-pvdz symm=none int=(grid=ultrafine) guess=(read,tcheck) s
 table=opt
 ----------------------------------------------------------------------
 -----
 title
 -----
 Symbolic Z-matrix:
 Charge =  0 Multiplicity = 2

 SCF Done:  E(UHF) =  -870.471008135     A.U. after   25 cycles
 Normal termination of Gaussian 16 at Tue Apr  8 23:17:48 2025.
 Gaussian 16:  ES64L-G16RevC.01  3-Jul-2019

 ----------------------------------------------------------------------
 #t hf aug-cc-pvdz iop(5/13=1,5/36=2,99/5=2) pseudo=read geom=check gue
 ss=(read,tcheck) scf=(maxcycle=1)
 ----------------------------------------------------------------------
 -----
 title
 -----
 Structure from the checkpoint file:  "BDE49_nonexpt_1056_mol2.chk"
 Charge =  0 Multiplicity = 2

                         Standard orientation:
 ---------------------------------------------------------------------
 Center     Atomic      Atomic             Coordinates (Angstroms)
 Number     Number       Type             X           Y           Z
 ---------------------------------------------------------------------
      1          8           0       -1.573341    0.691489   -0.070160
      2         16           0       -0.678249   -0.497200    0.048947
      3         16           0        1.381379    0.096262   -0.077323
      4          1           0        1.336655    0.883099    1.015283
 ---------------------------------------------------------------------

 SCF Done:  E(UHF) =  -870.658525607     A.U. after    2 cycles

 The electronic state is 2-A.
 Alpha  occ. eigenvalues --  -94.08596 -93.99658 -20.62941  -8.35830  -8.27735
 Alpha  occ. eigenvalues --   -6.33901  -6.33490  -6.33164  -6.25478  -6.25364
 Alpha  occ. eigenvalues --   -6.25149  -1.54650  -1.08348  -0.91728  -0.68933
 Alpha  occ. eigenvalues --   -0.65893  -0.63113  -0.56935  -0.44965  -0.44113
 Alpha  occ. eigenvalues --   -0.39180
 Alpha virt. eigenvalues --    0.03795   0.04974   0.08557   0.09795   0.10172
 Alpha virt. eigenvalues --    0.12022   0.12865   0.13266   0.17705   0.18304
 Alpha virt. eigenvalues --    0.19984   0.22697   0.23859   0.25314   0.27551

  Beta  occ. eigenvalues --  -94.08184 -93.99707 -20.59810  -8.35362  -8.27790
  Beta  occ. eigenvalues --   -6.33346  -6.32958  -6.31982  -6.25662  -6.25457
  Beta  occ. eigenvalues --   -6.25152  -1.46772  -1.06505  -0.87122  -0.63782
  Beta  occ. eigenvalues --   -0.60366  -0.56615  -0.48324  -0.42901  -0.41047
  Beta virt. eigenvalues --    0.03136   0.04054   0.05448   0.08774   0.09978
  Beta virt. eigenvalues --    0.10455   0.12207   0.13350   0.13552   0.17843
  Beta virt. eigenvalues --    0.19016   0.20885   0.23777   0.24207   0.26178

 Mulliken charges and spin densities:
               1          2
     1  O   -0.935631   0.654879
     2  S    0.909465   0.412324
     3  S   -0.397757  -0.081051
     4  H    0.423923   0.013848
 Sum of Mulliken charges =   0.00000   1.00000

 Dipole moment (field-independent basis, Debye):
    X=              1.0365    Y=             -0.4648    Z=              0.8502  Tot=              1.4188
                          Isotropic Fermi Contact Couplings
        Atom                 a.u.       MegaHertz       Gauss      10(-4) cm-1
     1  O(17)              0.21491    -130.27453     -46.48519     -43.45491
     2  S(33)              0.10708      36.78034      13.12414      12.26860
     3  S(33)              0.00006       0.02023       0.00722       0.00675
     4  H(1)               0.00710      31.71679      11.31734      10.57958
 --------------------------------------------------------
       Center         ----  Spin Dipole Couplings  ----
                      3XX-RR        3YY-RR        3ZZ-RR
 --------------------------------------------------------

 Normal termination of Gaussian 16 at Tue Apr  8 23:17:50 2025.
