 Gaussian 16, Revision C.01,

 ----------------------------------------------------------------------
 #t hf aug-cc-pvdz symm=none int=(grid=ultrafine) guess=(read,tcheck) s
 table=(opt,rrhf)
 ----------------------------------------------------------------------
 -----
 title
 -----
 Symbolic Z-matrix:
 Charge =  0 Multiplicity = 1

 SCF Done:  E(RHF) =  -436.647887863     A.U. after   14 cycles
 Normal termination of Gaussian 16 at Wed Apr  9 00:53:12 2025.
 Gaussian 16:  ES64L-G16RevC.01  3-Jul-2019

 ----------------------------------------------------------------------
 #t hf aug-cc-pvdz iop(5/13=1,5/36=2,99/5=2) pseudo=read geom=check gue
 ss=(read,tcheck) scf=(maxcycle=1)
 ----------------------------------------------------------------------
 -----
 title
 -----
 Structure from the checkpoint file:  "BDE49_nonexpt_973_mol1.chk"
 Charge =  0 Multiplicity = 1

                         Standard orientation:
 ---------------------------------------------------------------------
 Center     Atomic      Atomic             Coordinates (Angstroms)
 Number     Number       Type             X           Y           Z
 ---------------------------------------------------------------------
      1          9           0       -0.138065    1.630579   -0.042930
      2          8           0        1.150975   -1.619857    0.026469
      3          8           0       -1.153540   -0.347741   -0.474014
      4          7           0       -0.232323    0.196032    0.354153
      5          7           0        2.086220    0.470901   -0.020205
      6          6           0        1.077684   -0.420009    0.055943
      7          6           0       -2.459414   -0.295327    0.129910
      8          1           0        1.893812    1.454961   -0.098098
      9          1           0        3.015542    0.111441   -0.157833
     10          1           0       -3.110081   -0.820839   -0.566875
     11          1           0       -2.442972   -0.798709    1.097415
     12          1           0       -2.780089    0.742197    0.239368
 ---------------------------------------------------------------------

 SCF Done:  E(RHF) =  -437.074305580     A.U. after    2 cycles

 The electronic state is 1-A.
 Alpha  occ. eigenvalues --  -26.47850 -20.62412 -20.53859 -15.68716 -15.54959
 Alpha  occ. eigenvalues --  -11.41668 -11.30617  -1.61244  -1.52742  -1.49364
 Alpha  occ. eigenvalues --   -1.25804  -1.14039  -0.95213  -0.86762  -0.81911
 Alpha  occ. eigenvalues --   -0.76213  -0.73541  -0.72524  -0.66464  -0.63895
 Alpha  occ. eigenvalues --   -0.62809  -0.61669  -0.60275  -0.57640  -0.50716
 Alpha  occ. eigenvalues --   -0.48414  -0.46393  -0.45507
 Alpha virt. eigenvalues --    0.03194   0.04292   0.05591   0.05867   0.06111
 Alpha virt. eigenvalues --    0.09576   0.10755   0.11491   0.12865   0.13184
 Alpha virt. eigenvalues --    0.14461   0.15099   0.15835   0.16411   0.16976

 Mulliken charges:
               1
     1  F   -0.666202
     2  O   -1.103946
     3  O   -1.396379
     4  N    1.534363
     5  N    0.490766
     6  C    0.302374
     7  C    0.222421
     8  H    0.123485
     9  H    0.132374
    10  H    0.057454
    11  H    0.151951
    12  H    0.151339
 Sum of Mulliken charges =  -0.00000

 Dipole moment (field-independent basis, Debye):
    X=             -0.2157    Y=              1.8855    Z=             -0.0374  Tot=              1.8982

 Test job not archived.
 1\1\GINC-SE116\SP\RHF\Aug-CC-pVDZ\C2H5F1N2O2\OHZDE\09-Apr-2025\0\\#t h
 f aug-cc-pvdz iop(5/13=1,5/36=2,99/5=2) pseudo=read geom=check guess=(
 read,tcheck) scf=(maxcycle=1)\\title\\0,1\F,0,-0.138065,1.630579,-0.04
 293\O,0,1.150975,-1.619857,0.026469\O,0,-1.15354,-0.347741,-0.474014\N
 ,0,-0.232323,0.196032,0.354153\N,0,2.08622,0.470901,-0.020205\C,0,1.07
 7684,-0.420009,0.055943\C,0,-2.459414,-0.295327,0.12991\H,0,1.893812,1
 .454961,-0.098098\H,0,3.015542,0.111441,-0.157833\H,0,-3.110081,-0.820
 839,-0.566875\H,0,-2.442972,-0.798709,1.097415\H,0,-2.780089,0.742197,

 Normal termination of Gaussian 16 at Wed Apr  9 00:53:17 2025.
