 Gaussian 16, Revision C.01,

 ----------------------------------------------------------------------
 #t hf aug-cc-pvdz symm=none int=(grid=ultrafine) guess=(read,tcheck) s
 table=(opt,rrhf)
 ----------------------------------------------------------------------
 -----
 title
 -----
 Symbolic Z-matrix:
 Charge =  0 Multiplicity = 1

 SCF Done:  E(RHF) =  -421.775422927     A.U. after   15 cycles
 Normal termination of Gaussian 16 at Tue Apr  8 23:21:24 2025.
 Gaussian 16:  ES64L-G16RevC.01  3-Jul-2019

 ----------------------------------------------------------------------
 #t hf aug-cc-pvdz iop(5/13=1,5/36=2,99/5=2) pseudo=read geom=check gue
 ss=(read,tcheck) scf=(maxcycle=1)
 ----------------------------------------------------------------------
 -----
 title
 -----
 Structure from the checkpoint file:  "BDE49_nonexpt_1141_mol1.chk"
 Charge =  0 Multiplicity = 1

                         Standard orientation:
 ---------------------------------------------------------------------
 Center     Atomic      Atomic             Coordinates (Angstroms)
 Number     Number       Type             X           Y           Z
 ---------------------------------------------------------------------
      1          9           0        2.378701   -0.585341    0.329998
      2          8           0        0.920709   -0.553335    0.625236
      3          6           0        0.292528    0.044685   -0.531304
      4          8           0        0.769723    1.332619   -0.732685
      5          7           0       -1.077869    0.056753   -0.218513
      6          6           0       -1.551765    0.951829    0.833570
      7          1           0       -0.902271    1.823027    0.875886
      8          1           0       -1.573811    0.470215    1.819445
      9          1           0       -2.564542    1.283694    0.586962
     10          6           0       -1.821811   -1.181068   -0.387150
     11          1           0       -1.432397   -1.730514   -1.246396
     12          1           0       -2.871612   -0.944382   -0.582786
     13          1           0       -1.774760   -1.836419    0.492961
     14          1           0        0.490345   -0.611552   -1.386917
     15          1           0        1.728655    1.289786   -0.630645
 ---------------------------------------------------------------------

 SCF Done:  E(RHF) =  -422.196478498     A.U. after    2 cycles

 The electronic state is 1-A.
 Alpha  occ. eigenvalues --  -26.49537 -20.67735 -20.57550 -15.51294 -11.39807
 Alpha  occ. eigenvalues --  -11.27394 -11.26410  -1.63556  -1.49729  -1.37206
 Alpha  occ. eigenvalues --   -1.23668  -0.98420  -0.97345  -0.83409  -0.76231
 Alpha  occ. eigenvalues --   -0.74181  -0.71784  -0.67517  -0.65128  -0.62702
 Alpha  occ. eigenvalues --   -0.61933  -0.59762  -0.57333  -0.56631  -0.55930
 Alpha  occ. eigenvalues --   -0.54484  -0.50594  -0.48542  -0.41233
 Alpha virt. eigenvalues --    0.03592   0.04607   0.04736   0.05239   0.05670
 Alpha virt. eigenvalues --    0.06262   0.07151   0.09321   0.10291   0.11349
 Alpha virt. eigenvalues --    0.13578   0.14589   0.14794   0.15800   0.16237

 Mulliken charges:
               1
     1  F   -0.444803
     2  O   -0.610123
     3  C    1.487077
     4  O   -1.322414
     5  N    0.454578
     6  C   -0.388098
     7  H    0.082661
     8  H    0.220461
     9  H    0.105417
    10  C   -0.388119
    11  H    0.100923
    12  H    0.131900
    13  H    0.206050
    14  H    0.059003
    15  H    0.305487
 Sum of Mulliken charges =  -0.00000

 Dipole moment (field-independent basis, Debye):
    X=             -1.5115    Y=             -0.4391    Z=             -0.5475  Tot=              1.6665

 Test job not archived.
 1\1\GINC-SE179\SP\RHF\Aug-CC-pVDZ\C3H8F1N1O2\OHZDE\08-Apr-2025\0\\#t h
 f aug-cc-pvdz iop(5/13=1,5/36=2,99/5=2) pseudo=read geom=check guess=(
 read,tcheck) scf=(maxcycle=1)\\title\\0,1\F,0,2.378701,-0.585341,0.329
 998\O,0,0.920709,-0.553335,0.625236\C,0,0.292528,0.044685,-0.531304\O,
 0,0.769723,1.332619,-0.732685\N,0,-1.077869,0.056753,-0.218513\C,0,-1.
 551765,0.951829,0.83357\H,0,-0.902271,1.823027,0.875886\H,0,-1.573811,
 0.470215,1.819445\H,0,-2.564542,1.283694,0.586962\C,0,-1.821811,-1.181
 068,-0.38715\H,0,-1.432397,-1.730514,-1.246396\H,0,-2.871612,-0.944382

 Normal termination of Gaussian 16 at Tue Apr  8 23:21:28 2025.
