 Gaussian 16, Revision C.01,

 ----------------------------------------------------------------------
 #t hf aug-cc-pvdz symm=none int=(grid=ultrafine) guess=(read,tcheck) s
 table=(opt,rrhf)
 ----------------------------------------------------------------------
 -----
 title
 -----
 Symbolic Z-matrix:
 Charge =  0 Multiplicity = 1

 SCF Done:  E(RHF) =  -887.804913596     A.U. after   15 cycles
 Normal termination of Gaussian 16 at Tue Apr  8 23:27:17 2025.
 Gaussian 16:  ES64L-G16RevC.01  3-Jul-2019

 ----------------------------------------------------------------------
 #t hf aug-cc-pvdz iop(5/13=1,5/36=2,99/5=2) pseudo=read geom=check gue
 ss=(read,tcheck) scf=(maxcycle=1)
 ----------------------------------------------------------------------
 -----
 title
 -----
 Structure from the checkpoint file:  "BDE49_nonexpt_1284_mol1.chk"
 Charge =  0 Multiplicity = 1

                         Standard orientation:
 ---------------------------------------------------------------------
 Center     Atomic      Atomic             Coordinates (Angstroms)
 Number     Number       Type             X           Y           Z
 ---------------------------------------------------------------------
      1          6           0        0.457760    0.245507   -0.434156
      2          7           0        1.080419   -1.081666   -0.035392
      3         15           0       -1.350550    0.261435   -0.080369
      4          8           0        0.868535   -1.485704    1.110225
      5          8           0        1.776794   -1.646930   -0.850444
      6          8           0       -2.025826    1.480040   -0.524383
      7          8           0       -1.469287   -0.019293    1.478975
      8          1           0        0.587759    0.297487   -1.514574
      9          6           0        1.185277    1.398774    0.276167
     10          6           0        2.664890    1.516326   -0.096470
     11          1           0        1.066121    1.278379    1.355572
     12          1           0        0.647313    2.309465   -0.000408
     13          1           0        3.235018    0.635685    0.209188
     14          1           0        3.106028    2.383670    0.399155
     15          1           0        2.795175    1.642962   -1.174439
     16          8           0       -1.785155   -1.091501   -0.826463
     17          1           0       -2.689535   -1.064756   -1.162960
     18          1           0       -0.820618   -0.689285    1.765225
 ---------------------------------------------------------------------

 SCF Done:  E(RHF) =  -888.391955446     A.U. after    2 cycles

 The electronic state is 1-A.
 Alpha  occ. eigenvalues --  -84.45238 -20.62677 -20.61462 -20.61187 -20.60111
 Alpha  occ. eigenvalues --  -20.52240 -15.81484 -11.34024 -11.28199 -11.25538
 Alpha  occ. eigenvalues --   -6.90503  -4.44689  -4.44080  -4.43367  -1.69883
 Alpha  occ. eigenvalues --   -1.55123  -1.53509  -1.49126  -1.40751  -1.17189
 Alpha  occ. eigenvalues --   -1.05060  -0.94332  -0.88060  -0.86107  -0.79295
 Alpha  occ. eigenvalues --   -0.78115  -0.76756  -0.75487  -0.69474  -0.66330
 Alpha  occ. eigenvalues --   -0.64466  -0.64216  -0.61248  -0.58465  -0.56753
 Alpha  occ. eigenvalues --   -0.55350  -0.54135  -0.53260  -0.52292  -0.51574
 Alpha  occ. eigenvalues --   -0.50927  -0.47888  -0.47643  -0.46524
 Alpha virt. eigenvalues --    0.03132   0.03371   0.03833   0.04226   0.05302
 Alpha virt. eigenvalues --    0.05461   0.06310   0.07658   0.08567   0.09251
 Alpha virt. eigenvalues --    0.10601   0.11816   0.13099   0.13740   0.13772

 Mulliken charges:
               1
     1  C   -1.173709
     2  N    2.710436
     3  P    4.633815
     4  O   -1.481235
     5  O   -1.359307
     6  O   -1.504494
     7  O   -1.465068
     8  H    0.009203
     9  C   -0.215666
    10  C   -0.354745
    11  H    0.128428
    12  H    0.142060
    13  H    0.182955
    14  H    0.140257
    15  H    0.181898
    16  O   -1.420037
    17  H    0.392590
    18  H    0.452617
 Sum of Mulliken charges =  -0.00000

 Dipole moment (field-independent basis, Debye):
    X=              1.0609    Y=              0.1572    Z=             -0.4702  Tot=              1.1710

 Test job not archived.
 1\1\GINC-SE403\SP\RHF\Aug-CC-pVDZ\C3H8N1O5P1\OHZDE\08-Apr-2025\0\\#t h
 f aug-cc-pvdz iop(5/13=1,5/36=2,99/5=2) pseudo=read geom=check guess=(
 read,tcheck) scf=(maxcycle=1)\\title\\0,1\C,0,0.45776,0.245507,-0.4341
 56\N,0,1.080419,-1.081666,-0.035392\P,0,-1.35055,0.261435,-0.080369\O,
 0,0.868535,-1.485704,1.110225\O,0,1.776794,-1.64693,-0.850444\O,0,-2.0
 25826,1.48004,-0.524383\O,0,-1.469287,-0.019293,1.478975\H,0,0.587759,
 0.297487,-1.514574\C,0,1.185277,1.398774,0.276167\C,0,2.66489,1.516326
 ,-0.09647\H,0,1.066121,1.278379,1.355572\H,0,0.647313,2.309465,-0.0004

 Normal termination of Gaussian 16 at Tue Apr  8 23:27:27 2025.
