 Gaussian 16, Revision C.01,

 ----------------------------------------------------------------------
 #t hf aug-cc-pvdz symm=none int=(grid=ultrafine) guess=(read,tcheck) s
 table=(opt,rrhf)
 ----------------------------------------------------------------------
 -----
 title
 -----
 Symbolic Z-matrix:
 Charge =  0 Multiplicity = 1

 SCF Done:  E(RHF) =  -1452.10959798     A.U. after   15 cycles
 Normal termination of Gaussian 16 at Wed Apr  9 00:12:45 2025.
 Gaussian 16:  ES64L-G16RevC.01  3-Jul-2019

 ----------------------------------------------------------------------
 #t hf aug-cc-pvdz iop(5/13=1,5/36=2,99/5=2) pseudo=read geom=check gue
 ss=(read,tcheck) scf=(maxcycle=1)
 ----------------------------------------------------------------------
 -----
 title
 -----
 Structure from the checkpoint file:  "BDE49_nonexpt_2431_mol1.chk"
 Charge =  0 Multiplicity = 1

                         Standard orientation:
 ---------------------------------------------------------------------
 Center     Atomic      Atomic             Coordinates (Angstroms)
 Number     Number       Type             X           Y           Z
 ---------------------------------------------------------------------
      1         14           0        1.084456    1.361678   -0.535425
      2         14           0       -0.698603    0.910855    0.951136
      3          6           0       -1.633308   -0.633454    0.396881
      4          1           0       -1.623473    2.065306    0.935858
      5          1           0       -0.150666    0.711629    2.315077
      6         16           0       -2.910281   -0.604072   -0.607574
      7          1           0       -1.268200   -1.599055    0.755502
      8          6           0        2.367282   -0.032658   -0.487567
      9          1           0        1.773351    2.634981   -0.197525
     10          1           0        0.607089    1.470711   -1.937516
     11         16           0        2.130837   -1.473727    0.222365
     12          1           0        3.327208    0.142429   -0.983875
 ---------------------------------------------------------------------

 SCF Done:  E(RHF) =  -1452.36763049     A.U. after    2 cycles

 The electronic state is 1-A.
 Alpha  occ. eigenvalues --  -93.96335 -93.95110 -69.55335 -69.54862 -11.32596
 Alpha  occ. eigenvalues --  -11.31567  -8.24468  -8.23236  -6.22502  -6.22254
 Alpha  occ. eigenvalues --   -6.22134  -6.22029  -6.21844  -6.21023  -6.20903
 Alpha  occ. eigenvalues --   -6.20610  -3.97860  -3.97822  -3.97814  -3.97386
 Alpha  occ. eigenvalues --   -3.97357  -3.97348  -1.09645  -1.08384  -0.84931
 Alpha  occ. eigenvalues --   -0.83112  -0.75259  -0.69741  -0.60000  -0.58744
 Alpha  occ. eigenvalues --   -0.53349  -0.52754  -0.51226  -0.49594  -0.45890
 Alpha  occ. eigenvalues --   -0.43070  -0.40369  -0.35953  -0.34626
 Alpha virt. eigenvalues --    0.01411   0.01963   0.03145   0.03651   0.04431
 Alpha virt. eigenvalues --    0.05277   0.05932   0.06642   0.07340   0.07443
 Alpha virt. eigenvalues --    0.08045   0.09085   0.09636   0.10024   0.10381

 Mulliken charges:
               1
     1  Si   0.919214
     2  Si   0.698723
     3  C   -0.745680
     4  H   -0.135010
     5  H   -0.086313
     6  S    0.140459
     7  H    0.084940
     8  C   -0.748822
     9  H   -0.150504
    10  H   -0.147331
    11  S    0.183712
    12  H   -0.013388
 Sum of Mulliken charges =  -0.00000

 Dipole moment (field-independent basis, Debye):
    X=              2.0820    Y=              1.7251    Z=              0.4445  Tot=              2.7401

 Test job not archived.
 1\1\GINC-SE072\SP\RHF\Aug-CC-pVDZ\C2H6S2Si2\OHZDE\09-Apr-2025\0\\#t hf
  aug-cc-pvdz iop(5/13=1,5/36=2,99/5=2) pseudo=read geom=check guess=(r
 ead,tcheck) scf=(maxcycle=1)\\title\\0,1\Si,0,1.084456,1.361678,-0.535
 425\Si,0,-0.698603,0.910855,0.951136\C,0,-1.633308,-0.633454,0.396881\
 H,0,-1.623473,2.065306,0.935858\H,0,-0.150666,0.711629,2.315077\S,0,-2
 .910281,-0.604072,-0.607574\H,0,-1.2682,-1.599055,0.755502\C,0,2.36728
 2,-0.032658,-0.487567\H,0,1.773351,2.634981,-0.197525\H,0,0.607089,1.4
 70711,-1.937516\S,0,2.130837,-1.473727,0.222365\H,0,3.327208,0.142429,

 Normal termination of Gaussian 16 at Wed Apr  9 00:12:50 2025.
