 Gaussian 16, Revision C.01,

 ----------------------------------------------------------------------
 #t hf aug-cc-pvdz symm=none int=(grid=ultrafine) guess=(read,tcheck) s
 table=opt
 ----------------------------------------------------------------------
 -----
 title
 -----
 Symbolic Z-matrix:
 Charge =  0 Multiplicity = 2

 SCF Done:  E(UHF) =  -1544.75457352     A.U. after   16 cycles
 Normal termination of Gaussian 16 at Tue Apr  8 23:47:18 2025.
 Gaussian 16:  ES64L-G16RevC.01  3-Jul-2019

 ----------------------------------------------------------------------
 #t hf aug-cc-pvdz iop(5/13=1,5/36=2,99/5=2) pseudo=read geom=check gue
 ss=(read,tcheck) scf=(maxcycle=1)
 ----------------------------------------------------------------------
 -----
 title
 -----
 Structure from the checkpoint file:  "BDE49_nonexpt_1801_mol2.chk"
 Charge =  0 Multiplicity = 2

                         Standard orientation:
 ---------------------------------------------------------------------
 Center     Atomic      Atomic             Coordinates (Angstroms)
 Number     Number       Type             X           Y           Z
 ---------------------------------------------------------------------
      1         14           0        0.019398   -0.053358    0.556229
      2         16           0        0.148693    1.989588   -0.130620
      3         17           0        1.649757   -1.169888   -0.171981
      4          1           0        1.492485    2.019098   -0.068214
      5         16           0       -1.890511   -0.713737   -0.205991
      6          1           0       -1.940849   -1.797611    0.590460
 ---------------------------------------------------------------------

 SCF Done:  E(UHF) =  -1544.98227436     A.U. after    2 cycles

 The electronic state is 2-A.
 Alpha  occ. eigenvalues -- -105.57457 -93.97406 -93.97391 -69.64411 -10.62406
 Alpha  occ. eigenvalues --   -8.25657  -8.25650  -7.79431  -7.78969  -7.78933
 Alpha  occ. eigenvalues --   -6.30644  -6.23567  -6.23546  -6.23375  -6.23364
 Alpha  occ. eigenvalues --   -6.23136  -6.23101  -4.06157  -4.05554  -4.05515
 Alpha  occ. eigenvalues --   -1.08156  -1.03602  -1.01918  -0.71272  -0.60572
 Alpha  occ. eigenvalues --   -0.56193  -0.52545  -0.52329  -0.51195  -0.46684
 Alpha  occ. eigenvalues --   -0.43165  -0.40774  -0.34863
 Alpha virt. eigenvalues --    0.03645   0.04437   0.05414   0.05790   0.08532
 Alpha virt. eigenvalues --    0.08780   0.10087   0.10566   0.12032   0.12258
 Alpha virt. eigenvalues --    0.13393   0.13762   0.14204   0.15598   0.16244

  Beta  occ. eigenvalues -- -105.57317 -93.97295 -93.97270 -69.63844 -10.62251
  Beta  occ. eigenvalues --   -8.25527  -8.25512  -7.79044  -7.78855  -7.78735
  Beta  occ. eigenvalues --   -6.29699  -6.23343  -6.23327  -6.23187  -6.23133
  Beta  occ. eigenvalues --   -6.22941  -6.22872  -4.05225  -4.05171  -4.04319
  Beta  occ. eigenvalues --   -1.06915  -1.02551  -1.00997  -0.67944  -0.59287
  Beta  occ. eigenvalues --   -0.55607  -0.51786  -0.49771  -0.49515  -0.45288
  Beta  occ. eigenvalues --   -0.41877  -0.39985
  Beta virt. eigenvalues --   -0.00157   0.04225   0.04610   0.05572   0.05987
  Beta virt. eigenvalues --    0.08937   0.09205   0.10439   0.11312   0.12230
  Beta virt. eigenvalues --    0.12860   0.13830   0.15214   0.15609   0.15904

 Mulliken charges and spin densities:
               1          2
     1  Si   1.482603   0.759274
     2  S   -0.800560   0.099930
     3  Cl  -0.522966   0.059697
     4  H    0.329239  -0.010133
     5  S   -0.814313   0.096300
     6  H    0.325998  -0.005068
 Sum of Mulliken charges =   0.00000   1.00000

 Dipole moment (field-independent basis, Debye):
    X=              0.1130    Y=             -0.2199    Z=              1.1929  Tot=              1.2182
                          Isotropic Fermi Contact Couplings
        Atom                 a.u.       MegaHertz       Gauss      10(-4) cm-1
     1  Si(29)             0.98195    -872.68997    -311.39748    -291.09804
     2  S(33)              0.03904      13.41043       4.78517       4.47324
     3  Cl(35)             0.09011      39.51205      14.09888      13.17980
     4  H(1)              -0.00136      -6.08638      -2.17177      -2.03020
     5  S(33)              0.01752       6.01658       2.14686       2.00691
     6  H(1)               0.00202       9.01403       3.21643       3.00676
 --------------------------------------------------------
       Center         ----  Spin Dipole Couplings  ----

 Normal termination of Gaussian 16 at Tue Apr  8 23:47:20 2025.
