 Gaussian 16, Revision C.01,

 ----------------------------------------------------------------------
 #t hf aug-cc-pvdz symm=none int=(grid=ultrafine) guess=(read,tcheck) s
 table=(opt,rrhf)
 ----------------------------------------------------------------------
 -----
 title
 -----
 Symbolic Z-matrix:
 Charge =  0 Multiplicity = 1

 SCF Done:  E(RHF) =  -1211.19232914     A.U. after   13 cycles
 Normal termination of Gaussian 16 at Wed Apr  9 00:08:09 2025.
 Gaussian 16:  ES64L-G16RevC.01  3-Jul-2019

 ----------------------------------------------------------------------
 #t hf aug-cc-pvdz iop(5/13=1,5/36=2,99/5=2) pseudo=read geom=check gue
 ss=(read,tcheck) scf=(maxcycle=1)
 ----------------------------------------------------------------------
 -----
 title
 -----
 Structure from the checkpoint file:  "BDE49_nonexpt_226_mol1.chk"
 Charge =  0 Multiplicity = 1

                         Standard orientation:
 ---------------------------------------------------------------------
 Center     Atomic      Atomic             Coordinates (Angstroms)
 Number     Number       Type             X           Y           Z
 ---------------------------------------------------------------------
      1         17           0       -1.266545    1.664092    0.607013
      2          5           0       -0.829670    0.169182   -0.189330
      3         17           0       -2.101038   -0.949472   -0.666604
      4          6           0        0.683407   -0.231467   -0.520351
      5          8           0        1.078565   -1.439627    0.118055
      6          8           0        1.533856    0.845568   -0.229236
      7          6           0        1.010609   -1.406335    1.542658
      8          1           0        1.558358   -0.551398    1.949038
      9          1           0        1.464177   -2.332109    1.894572
     10          1           0       -0.028405   -1.369355    1.897964
     11          6           0        2.841810    0.709085   -0.779426
     12          1           0        3.400281    1.595826   -0.482022
     13          1           0        2.799306    0.659299   -1.875592
     14          1           0        3.343198   -0.186548   -0.401739
     15          1           0        0.746003   -0.485386   -1.590364
 ---------------------------------------------------------------------

 SCF Done:  E(RHF) =  -1211.64220202     A.U. after    2 cycles

 The electronic state is 1-A.
 Alpha  occ. eigenvalues -- -105.57892-105.57836 -20.56187 -20.56133 -11.34098
 Alpha  occ. eigenvalues --  -11.29063 -11.28974 -10.62899 -10.62840  -7.79798
 Alpha  occ. eigenvalues --   -7.79744  -7.79517  -7.79467  -7.79466  -7.79403
 Alpha  occ. eigenvalues --   -7.71733  -1.50757  -1.44299  -1.11419  -1.06085
 Alpha  occ. eigenvalues --   -0.99459  -0.94691  -0.86210  -0.72804  -0.70730
 Alpha  occ. eigenvalues --   -0.69091  -0.65619  -0.62576  -0.61310  -0.59764
 Alpha  occ. eigenvalues --   -0.57370  -0.55458  -0.53742  -0.52489  -0.49748
 Alpha  occ. eigenvalues --   -0.48011  -0.46766  -0.46074  -0.44359  -0.43272
 Alpha virt. eigenvalues --    0.03463   0.04019   0.04275   0.04355   0.06156
 Alpha virt. eigenvalues --    0.06369   0.06832   0.07029   0.07172   0.08226
 Alpha virt. eigenvalues --    0.09263   0.10624   0.12144   0.13605   0.13946

 Mulliken charges:
               1
     1  Cl  -0.332062
     2  B    0.770384
     3  Cl  -0.402871
     4  C    1.702454
     5  O   -1.385884
     6  O   -1.380719
     7  C    0.114511
     8  H    0.208981
     9  H   -0.028328
    10  H    0.158517
    11  C    0.148584
    12  H   -0.007904
    13  H    0.155203
    14  H    0.200556
    15  H    0.078579
 Sum of Mulliken charges =  -0.00000

 Dipole moment (field-independent basis, Debye):
    X=              1.6687    Y=             -0.1372    Z=             -0.0171  Tot=              1.6744

 Test job not archived.
 1\1\GINC-SE363\SP\RHF\Aug-CC-pVDZ\C3H7B1Cl2O2\OHZDE\09-Apr-2025\0\\#t
 hf aug-cc-pvdz iop(5/13=1,5/36=2,99/5=2) pseudo=read geom=check guess=
 (read,tcheck) scf=(maxcycle=1)\\title\\0,1\Cl,0,-1.266545,1.664092,0.6
 07013\B,0,-0.82967,0.169182,-0.18933\Cl,0,-2.101038,-0.949472,-0.66660
 4\C,0,0.683407,-0.231467,-0.520351\O,0,1.078565,-1.439627,0.118055\O,0
 ,1.533856,0.845568,-0.229236\C,0,1.010609,-1.406335,1.542658\H,0,1.558
 358,-0.551398,1.949038\H,0,1.464177,-2.332109,1.894572\H,0,-0.028405,-
 1.369355,1.897964\C,0,2.84181,0.709085,-0.779426\H,0,3.400281,1.595826

 Normal termination of Gaussian 16 at Wed Apr  9 00:08:16 2025.
