 Gaussian 16, Revision C.01,

 ----------------------------------------------------------------------
 #t hf aug-cc-pvdz symm=none int=(grid=ultrafine) guess=(read,tcheck) s
 table=(opt,rrhf)
 ----------------------------------------------------------------------
 -----
 title
 -----
 Symbolic Z-matrix:
 Charge =  0 Multiplicity = 1

 SCF Done:  E(RHF) =  -554.841689283     A.U. after   12 cycles

 1\1\GINC-SE460\Stability\RHF\Aug-CC-pVDZ\C4H10S1\OHZDE\08-Apr-2025\0\\
 #t hf aug-cc-pvdz symm=none int=(grid=ultrafine) guess=(read,tcheck) s
 table=(opt,rrhf)\\title\\0,1\S,0,-1.053298,-0.687025,-0.244747\C,0,-1.
 930681,0.908756,-0.178573\H,0,-2.257062,1.131541,0.839306\H,0,-2.81031
 5,0.805171,-0.815102\H,0,-1.318504,1.726249,-0.561509\C,0,0.312091,-0.
 374867,0.939556\C,0,1.421245,0.566985,0.456989\H,0,0.722064,-1.367737,
 1.146837\H,0,-0.131275,-0.010318,1.870424\C,0,2.235894,0.025558,-0.719
 431\H,0,2.087704,0.754505,1.308216\H,0,0.989903,1.539001,0.195061\H,0,

 Normal termination of Gaussian 16 at Tue Apr  8 22:45:44 2025.
 Gaussian 16:  ES64L-G16RevC.01  3-Jul-2019

 ----------------------------------------------------------------------
 #t hf aug-cc-pvdz iop(5/13=1,5/36=2,99/5=2) pseudo=read geom=check gue
 ss=(read,tcheck) scf=(maxcycle=1)
 ----------------------------------------------------------------------
 -----
 title
 -----
 Structure from the checkpoint file:  "BDE49_expt_1564_mol1.chk"
 Charge =  0 Multiplicity = 1

                         Standard orientation:
 ---------------------------------------------------------------------
 Center     Atomic      Atomic             Coordinates (Angstroms)
 Number     Number       Type             X           Y           Z
 ---------------------------------------------------------------------
      1         16           0       -1.053298   -0.687025   -0.244747
      2          6           0       -1.930681    0.908756   -0.178573
      3          1           0       -2.257062    1.131541    0.839306
      4          1           0       -2.810315    0.805171   -0.815102
      5          1           0       -1.318504    1.726249   -0.561509
      6          6           0        0.312091   -0.374867    0.939556
      7          6           0        1.421245    0.566985    0.456989
      8          1           0        0.722064   -1.367737    1.146837
      9          1           0       -0.131275   -0.010318    1.870424
     10          6           0        2.235894    0.025558   -0.719431
     11          1           0        2.087704    0.754505    1.308216
     12          1           0        0.989903    1.539001    0.195061
     13          1           0        2.728355   -0.915832   -0.455340
     14          1           0        3.012397    0.734812   -1.017466
     15          1           0        1.598201   -0.163587   -1.585728
 ---------------------------------------------------------------------

 SCF Done:  E(RHF) =  -555.081080429     A.U. after    2 cycles

 The electronic state is 1-A.
 Alpha  occ. eigenvalues --  -93.93436 -11.26337 -11.26074 -11.23699 -11.22220
 Alpha  occ. eigenvalues --   -8.21499  -6.19329  -6.19167  -6.18955  -1.09776
 Alpha  occ. eigenvalues --   -1.02905  -0.94085  -0.85931  -0.78123  -0.63706
 Alpha  occ. eigenvalues --   -0.62823  -0.58749  -0.58415  -0.57913  -0.51502
 Alpha  occ. eigenvalues --   -0.50593  -0.50299  -0.47523  -0.42736  -0.34124
 Alpha virt. eigenvalues --    0.03547   0.03784   0.04044   0.04546   0.06232
 Alpha virt. eigenvalues --    0.06361   0.06862   0.07624   0.08389   0.09563
 Alpha virt. eigenvalues --    0.11259   0.12916   0.14069   0.14441   0.15069

 Mulliken charges:
               1
     1  S    0.401532
     2  C   -0.717751
     3  H    0.171279
     4  H    0.138864
     5  H    0.183688
     6  C   -0.464284
     7  C   -0.402552
     8  H    0.186798
     9  H    0.156246
    10  C   -0.406973
    11  H    0.160044
    12  H    0.125940
    13  H    0.154321
    14  H    0.114256
    15  H    0.198594
 Sum of Mulliken charges =   0.00000

 Dipole moment (field-independent basis, Debye):
    X=              0.5155    Y=              1.5356    Z=              0.9337  Tot=              1.8697

 Test job not archived.
 1\1\GINC-SE460\SP\RHF\Aug-CC-pVDZ\C4H10S1\OHZDE\08-Apr-2025\0\\#t hf a
 ug-cc-pvdz iop(5/13=1,5/36=2,99/5=2) pseudo=read geom=check guess=(rea
 d,tcheck) scf=(maxcycle=1)\\title\\0,1\S,0,-1.053298,-0.687025,-0.2447
 47\C,0,-1.930681,0.908756,-0.178573\H,0,-2.257062,1.131541,0.839306\H,
 0,-2.810315,0.805171,-0.815102\H,0,-1.318504,1.726249,-0.561509\C,0,0.
 312091,-0.374867,0.939556\C,0,1.421245,0.566985,0.456989\H,0,0.722064,
 -1.367737,1.146837\H,0,-0.131275,-0.010318,1.870424\C,0,2.235894,0.025
 558,-0.719431\H,0,2.087704,0.754505,1.308216\H,0,0.989903,1.539001,0.1

 Normal termination of Gaussian 16 at Tue Apr  8 22:45:48 2025.
