 Gaussian 16, Revision C.01,

 ----------------------------------------------------------------------
 #t hf aug-cc-pvdz symm=none int=(grid=ultrafine) guess=(read,tcheck) s
 table=opt
 ----------------------------------------------------------------------
 -----
 title
 -----
 Symbolic Z-matrix:
 Charge =  0 Multiplicity = 2

 SCF Done:  E(UHF) =  -536.546239533     A.U. after   16 cycles
 Normal termination of Gaussian 16 at Tue Apr  8 23:59:51 2025.
 Gaussian 16:  ES64L-G16RevC.01  3-Jul-2019

 ----------------------------------------------------------------------
 #t hf aug-cc-pvdz iop(5/13=1,5/36=2,99/5=2) pseudo=read geom=check gue
 ss=(read,tcheck) scf=(maxcycle=1)
 ----------------------------------------------------------------------
 -----
 title
 -----
 Structure from the checkpoint file:  "BDE49_nonexpt_2091_mol2.chk"
 Charge =  0 Multiplicity = 2

                         Standard orientation:
 ---------------------------------------------------------------------
 Center     Atomic      Atomic             Coordinates (Angstroms)
 Number     Number       Type             X           Y           Z
 ---------------------------------------------------------------------
      1          8           0        0.532449   -1.322648   -0.032217
      2          7           0        0.366205    1.343641    0.081993
      3          6           0       -1.586482   -0.125002   -0.354680
      4          6           0       -1.092823    1.233503    0.154882
      5          6           0       -0.859488   -1.304458    0.290288
      6         14           0        1.467381    0.038694   -0.172823
      7          1           0       -0.975811   -1.270930    1.382442
      8          1           0       -1.281447   -2.249286   -0.061490
      9          1           0       -1.452418   -0.184470   -1.440536
     10          1           0       -2.659542   -0.210000   -0.153978
     11          1           0        0.714112    2.288151    0.163594
     12          1           0       -1.429630    1.365966    1.194562
     13          1           0       -1.564107    2.027671   -0.435485
     14          1           0        2.515240    0.042615    0.911265
 ---------------------------------------------------------------------

 SCF Done:  E(UHF) =  -536.831101243     A.U. after    2 cycles

 The electronic state is 2-A.
 Alpha  occ. eigenvalues --  -69.56295 -20.52971 -15.48065 -11.29147 -11.27193
 Alpha  occ. eigenvalues --  -11.23929  -6.22728  -3.98413  -3.97922  -3.97688
 Alpha  occ. eigenvalues --   -1.43514  -1.18221  -1.04375  -0.91225  -0.83469
 Alpha  occ. eigenvalues --   -0.73509  -0.69522  -0.64374  -0.63287  -0.61281
 Alpha  occ. eigenvalues --   -0.59773  -0.56049  -0.52931  -0.51011  -0.46074
 Alpha  occ. eigenvalues --   -0.45229  -0.43397  -0.31026
 Alpha virt. eigenvalues --    0.03364   0.04061   0.04458   0.04698   0.05899
 Alpha virt. eigenvalues --    0.05977   0.06461   0.06705   0.07755   0.09330
 Alpha virt. eigenvalues --    0.10547   0.13313   0.13633   0.14575   0.14761

  Beta  occ. eigenvalues --  -69.55806 -20.52705 -15.47549 -11.29132 -11.27219
  Beta  occ. eigenvalues --  -11.23924  -6.21926  -3.97609  -3.97466  -3.96662
  Beta  occ. eigenvalues --   -1.42840  -1.17176  -1.04076  -0.90964  -0.82725
  Beta  occ. eigenvalues --   -0.72839  -0.68857  -0.63139  -0.62571  -0.60969
  Beta  occ. eigenvalues --   -0.59214  -0.54160  -0.52605  -0.49492  -0.45193
  Beta  occ. eigenvalues --   -0.43551  -0.40676
  Beta virt. eigenvalues --    0.03356   0.03779   0.04236   0.04596   0.05563
  Beta virt. eigenvalues --    0.06060   0.06294   0.06531   0.07033   0.09094
  Beta virt. eigenvalues --    0.09939   0.10955   0.13370   0.13777   0.14898

 Mulliken charges and spin densities:
               1          2
     1  O   -1.502964  -0.040469
     2  N    0.267388   0.059584
     3  C   -0.413364  -0.016436
     4  C   -0.639087  -0.013520
     5  C    0.641685   0.013308
     6  Si   1.003818   0.821225
     7  H    0.147210   0.002188
     8  H    0.017990   0.000805
     9  H    0.134646   0.000025
    10  H    0.185941  -0.000623
    11  H   -0.019474  -0.007184
    12  H    0.112654   0.007781
    13  H    0.099928   0.000851
    14  H   -0.036371   0.172463
 Sum of Mulliken charges =  -0.00000   1.00000

 Dipole moment (field-independent basis, Debye):
    X=             -1.9481    Y=              1.4414    Z=              0.3141  Tot=              2.4436
                          Isotropic Fermi Contact Couplings
        Atom                 a.u.       MegaHertz       Gauss      10(-4) cm-1
     1  O(17)              0.06455     -39.12737     -13.96162     -13.05149
     2  N(14)              0.09338      30.17237      10.76625      10.06442
     3  C(13)              0.00156       1.75023       0.62452       0.58381
     4  C(13)             -0.00453      -5.09556      -1.81822      -1.69970
     5  C(13)              0.00397       4.46176       1.59207       1.48828
     6  Si(29)             0.75547    -671.40523    -239.57408    -223.95668
     7  H(1)               0.00088       3.94917       1.40916       1.31730
     8  H(1)              -0.00024      -1.07611      -0.38398      -0.35895

 1\1\GINC-SE368\SP\UHF\Aug-CC-pVDZ\C3H8N1O1Si1(2)\OHZDE\08-Apr-2025\0\\
 #t hf aug-cc-pvdz iop(5/13=1,5/36=2,99/5=2) pseudo=read geom=check gue
 ss=(read,tcheck) scf=(maxcycle=1)\\title\\0,2\O,0,0.532448,-1.322648,-
 0.032217\N,0,0.366206,1.343641,0.081993\C,0,-1.586482,-0.125001,-0.354
 68\C,0,-1.092822,1.233504,0.154882\C,0,-0.859489,-1.304458,0.290288\Si
 ,0,1.467381,0.038693,-0.172823\H,0,-0.975812,-1.27093,1.382442\H,0,-1.
 281448,-2.249285,-0.06149\H,0,-1.452418,-0.184469,-1.440536\H,0,-2.659
 542,-0.209999,-0.153978\H,0,0.714113,2.28815,0.163594\H,0,-1.429629,1.

 Normal termination of Gaussian 16 at Tue Apr  8 23:59:55 2025.
