 Gaussian 16, Revision C.01,

 ----------------------------------------------------------------------
 #t hf aug-cc-pvdz symm=none int=(grid=ultrafine) guess=(read,tcheck) s
 table=opt
 ----------------------------------------------------------------------
 -----
 title
 -----
 Symbolic Z-matrix:
 Charge =  0 Multiplicity = 2

 SCF Done:  E(UHF) =  -1146.11477478     A.U. after   19 cycles
 Normal termination of Gaussian 16 at Tue Apr  8 23:10:02 2025.
 Gaussian 16:  ES64L-G16RevC.01  3-Jul-2019

 ----------------------------------------------------------------------
 #t hf aug-cc-pvdz iop(5/13=1,5/36=2,99/5=2) pseudo=read geom=check gue
 ss=(read,tcheck) scf=(maxcycle=1)
 ----------------------------------------------------------------------
 -----
 title
 -----
 Structure from the checkpoint file:  "BDE49_expt_624_mol2.chk"
 Charge =  0 Multiplicity = 2

                         Standard orientation:
 ---------------------------------------------------------------------
 Center     Atomic      Atomic             Coordinates (Angstroms)
 Number     Number       Type             X           Y           Z
 ---------------------------------------------------------------------
      1          6           0       -0.000000   -0.191393    0.326460
      2          8           0       -0.000000    1.157194    0.862372
      3          8           0       -0.000001    2.105976   -0.048380
      4          6           0       -0.000000   -1.102588    1.530977
      5          1           0        0.891288   -0.907664    2.128714
      6          1           0        0.000001   -2.141379    1.206039
      7          1           0       -0.891288   -0.907665    2.128713
      8         17           0       -1.467803   -0.423082   -0.680001
      9         17           0        1.467804   -0.423081   -0.680001
 ---------------------------------------------------------------------

 SCF Done:  E(UHF) =  -1146.48607834     A.U. after    2 cycles

 The electronic state is 2-A.
 Alpha  occ. eigenvalues -- -105.59203-105.59203 -20.69249 -20.68283 -11.45471
 Alpha  occ. eigenvalues --  -11.27663 -10.64058 -10.64052  -7.81018  -7.81010
 Alpha  occ. eigenvalues --   -7.80581  -7.80579  -7.80578  -7.80578  -1.72261
 Alpha  occ. eigenvalues --   -1.31905  -1.15552  -1.06872  -1.02030  -0.84377
 Alpha  occ. eigenvalues --   -0.77812  -0.72741  -0.71830  -0.66306  -0.60935
 Alpha  occ. eigenvalues --   -0.59995  -0.57448  -0.53491  -0.50939  -0.49244
 Alpha  occ. eigenvalues --   -0.48356  -0.48281  -0.46471
 Alpha virt. eigenvalues --    0.03663   0.05339   0.05430   0.07380   0.09170
 Alpha virt. eigenvalues --    0.10124   0.12272   0.13111   0.13501   0.14013
 Alpha virt. eigenvalues --    0.15983   0.16057   0.16912   0.18034   0.18301

  Beta  occ. eigenvalues -- -105.59198-105.59197 -20.67619 -20.65155 -11.45544
  Beta  occ. eigenvalues --  -11.27668 -10.64053 -10.64047  -7.80988  -7.80980
  Beta  occ. eigenvalues --   -7.80583  -7.80583  -7.80575  -7.80572  -1.66369
  Beta  occ. eigenvalues --   -1.24561  -1.13152  -1.06781  -1.01714  -0.83292
  Beta  occ. eigenvalues --   -0.71850  -0.70238  -0.68657  -0.60335  -0.60065
  Beta  occ. eigenvalues --   -0.59587  -0.53667  -0.51882  -0.48239  -0.48123
  Beta  occ. eigenvalues --   -0.47357  -0.46476
  Beta virt. eigenvalues --    0.03666   0.05340   0.05406   0.07401   0.08220
  Beta virt. eigenvalues --    0.09196   0.10150   0.12408   0.13178   0.13831
  Beta virt. eigenvalues --    0.14026   0.16188   0.16938   0.17118   0.18080

 Mulliken charges and spin densities:
               1          2
     1  C    0.134156  -0.012401
     2  O   -0.614465   0.038355
     3  O   -0.246687   0.970455
     4  C    0.031897  -0.000172
     5  H    0.196892   0.000359
     6  H    0.210945  -0.001332
     7  H    0.196891   0.000359
     8  Cl   0.045186   0.002189
     9  Cl   0.045186   0.002189
 Sum of Mulliken charges =  -0.00000   1.00000

 Dipole moment (field-independent basis, Debye):
    X=             -0.0000    Y=             -1.6648    Z=              1.6273  Tot=              2.3280
                          Isotropic Fermi Contact Couplings
        Atom                 a.u.       MegaHertz       Gauss      10(-4) cm-1
     1  C(13)             -0.01251     -14.05846      -5.01641      -4.68940
     2  O(17)              0.06653     -40.32799     -14.39003     -13.45197
     3  O(17)              0.26775    -162.30787     -57.91548     -54.14008
     4  C(13)             -0.00149      -1.67807      -0.59878      -0.55974
     5  H(1)              -0.00002      -0.07092      -0.02530      -0.02366
     6  H(1)              -0.00056      -2.49632      -0.89075      -0.83268
     7  H(1)              -0.00002      -0.07091      -0.02530      -0.02365
     8  Cl(35)            -0.00449      -1.96769      -0.70212      -0.65635

 Normal termination of Gaussian 16 at Tue Apr  8 23:10:06 2025.
