 Gaussian 16, Revision C.01,

 ----------------------------------------------------------------------
 #t hf aug-cc-pvdz symm=none int=(grid=ultrafine) guess=(read,tcheck) s
 table=(opt,rrhf)
 ----------------------------------------------------------------------
 -----
 title
 -----
 Symbolic Z-matrix:
 Charge =  0 Multiplicity = 1

 SCF Done:  E(RHF) =  -700.417877510     A.U. after   16 cycles
 Normal termination of Gaussian 16 at Wed Apr  9 00:30:05 2025.
 Gaussian 16:  ES64L-G16RevC.01  3-Jul-2019

 ----------------------------------------------------------------------
 #t hf aug-cc-pvdz iop(5/13=1,5/36=2,99/5=2) pseudo=read geom=check gue
 ss=(read,tcheck) scf=(maxcycle=1)
 ----------------------------------------------------------------------
 -----
 title
 -----
 Structure from the checkpoint file:  "BDE49_nonexpt_291_mol1.chk"
 Charge =  0 Multiplicity = 1

                         Standard orientation:
 ---------------------------------------------------------------------
 Center     Atomic      Atomic             Coordinates (Angstroms)
 Number     Number       Type             X           Y           Z
 ---------------------------------------------------------------------
      1          6           0       -0.065105   -0.034347    0.185334
      2          5           0        0.647215    1.329924   -0.333862
      3          7           0        0.190862   -1.271205   -0.691072
      4          7           0       -1.585612    0.194585    0.047249
      5          6           0        0.309375   -0.405189    1.624173
      6          8           0       -1.969180    0.390797   -1.094259
      7          8           0        1.192238   -1.274205   -1.402593
      8          8           0        1.627792    1.380394   -1.251844
      9          8           0       -0.574748   -2.200664   -0.568119
     10          8           0        0.191862    2.433763    0.306624
     11          8           0       -2.266125    0.198317    1.049189
     12          6           0        1.795901   -0.732847    1.807066
     13          1           0       -0.315510   -1.245271    1.933953
     14          1           0        0.029537    0.450948    2.239767
     15          1           0        2.096606   -1.613389    1.234865
     16          1           0        1.992892   -0.941559    2.860070
     17          1           0        2.439881    0.098371    1.508015
     18          1           0        0.606716    3.246193   -0.004024
     19          1           0        1.821318    0.498504   -1.607993
 ---------------------------------------------------------------------

 SCF Done:  E(RHF) =  -701.098069892     A.U. after    2 cycles

 The electronic state is 1-A.
 Alpha  occ. eigenvalues --  -20.63417 -20.62798 -20.61998 -20.61137 -20.59391
 Alpha  occ. eigenvalues --  -20.58638 -15.82763 -15.81486 -11.38642 -11.28943
 Alpha  occ. eigenvalues --  -11.26673  -7.69537  -1.71362  -1.69545  -1.55003
 Alpha  occ. eigenvalues --   -1.53744  -1.51736  -1.47865  -1.20857  -1.06766
 Alpha  occ. eigenvalues --   -1.02368  -0.92261  -0.87316  -0.85543  -0.82966
 Alpha  occ. eigenvalues --   -0.78560  -0.78399  -0.78146  -0.76716  -0.74576
 Alpha  occ. eigenvalues --   -0.72061  -0.65906  -0.65248  -0.60519  -0.60146
 Alpha  occ. eigenvalues --   -0.59318  -0.58524  -0.55514  -0.53597  -0.52822
 Alpha  occ. eigenvalues --   -0.52593  -0.51316  -0.50704  -0.50386  -0.48645
 Alpha  occ. eigenvalues --   -0.46825
 Alpha virt. eigenvalues --    0.02301   0.02621   0.03293   0.03837   0.04403
 Alpha virt. eigenvalues --    0.04528   0.05796   0.06309   0.06955   0.07794
 Alpha virt. eigenvalues --    0.09053   0.09218   0.11151   0.12199   0.12970

 Mulliken charges:
               1
     1  C   -0.994649
     2  B    1.901011
     3  N    2.982127
     4  N    3.063125
     5  C   -0.120539
     6  O   -1.518778
     7  O   -1.516718
     8  O   -1.384037
     9  O   -1.490615
    10  O   -1.412802
    11  O   -1.454862
    12  C   -0.169858
    13  H    0.249456
    14  H    0.265930
    15  H    0.221721
    16  H    0.101690
    17  H    0.131285
    18  H    0.453144
    19  H    0.693367
 Sum of Mulliken charges =  -0.00000

 Dipole moment (field-independent basis, Debye):
    X=              3.6166    Y=              1.3915    Z=              2.3383  Tot=              4.5259

 Test job not archived.
 1\1\GINC-SE336\SP\RHF\Aug-CC-pVDZ\C3H7B1N2O6\OHZDE\09-Apr-2025\0\\#t h
 f aug-cc-pvdz iop(5/13=1,5/36=2,99/5=2) pseudo=read geom=check guess=(
 read,tcheck) scf=(maxcycle=1)\\title\\0,1\C,0,-0.065105,-0.034347,0.18
 5334\B,0,0.647216,1.329924,-0.333862\N,0,0.190861,-1.271205,-0.691072\
 N,0,-1.585612,0.194586,0.047249\C,0,0.309375,-0.405189,1.624173\O,0,-1
 .96918,0.390799,-1.094259\O,0,1.192237,-1.274206,-1.402593\O,0,1.62779
 3,1.380393,-1.251844\O,0,-0.57475,-2.200663,-0.568119\O,0,0.191864,2.4
 33763,0.306624\O,0,-2.266125,0.198319,1.049189\C,0,1.7959,-0.732848,1.

 Normal termination of Gaussian 16 at Wed Apr  9 00:30:19 2025.
