 Gaussian 16, Revision C.01,

 ----------------------------------------------------------------------
 #t hf aug-cc-pvdz symm=none int=(grid=ultrafine) guess=(read,tcheck) s
 table=(opt,rrhf)
 ----------------------------------------------------------------------
 -----
 title
 -----
 Symbolic Z-matrix:
 Charge =  0 Multiplicity = 1

 SCF Done:  E(RHF) =  -567.776170271     A.U. after   15 cycles
 Normal termination of Gaussian 16 at Wed Apr  9 00:35:11 2025.
 Gaussian 16:  ES64L-G16RevC.01  3-Jul-2019

 ----------------------------------------------------------------------
 #t hf aug-cc-pvdz iop(5/13=1,5/36=2,99/5=2) pseudo=read geom=check gue
 ss=(read,tcheck) scf=(maxcycle=1)
 ----------------------------------------------------------------------
 -----
 title
 -----
 Structure from the checkpoint file:  "BDE49_nonexpt_433_mol1.chk"
 Charge =  0 Multiplicity = 1

                         Standard orientation:
 ---------------------------------------------------------------------
 Center     Atomic      Atomic             Coordinates (Angstroms)
 Number     Number       Type             X           Y           Z
 ---------------------------------------------------------------------
      1          9           0        3.221916   -1.315568    0.000026
      2          9           0        3.435975    0.934515    0.000029
      3          5           0        2.623791   -0.123171   -0.000022
      4          6           0        1.097222    0.021999   -0.000015
      5          6           0        0.483109    1.290539   -0.000011
      6          6           0       -0.891985    1.423486   -0.000006
      7          6           0       -1.706553    0.280428   -0.000005
      8          6           0        0.263851   -1.105419   -0.000014
      9          1           0        0.709297   -2.094124   -0.000017
     10          6           0       -1.121973   -0.992094   -0.000009
     11          1           0       -1.731560   -1.885214   -0.000008
     12          1           0        1.102553    2.180465   -0.000012
     13          8           0       -3.042374    0.513778    0.000000
     14          6           0       -3.934933   -0.596412    0.000001
     15          1           0       -3.803450   -1.213542   -0.894665
     16          1           0       -4.935649   -0.168870    0.000005
     17          1           0       -3.803444   -1.213544    0.894665
     18          1           0       -1.371142    2.394780   -0.000003
 ---------------------------------------------------------------------

 SCF Done:  E(RHF) =  -568.331206654     A.U. after    2 cycles

 The electronic state is 1-A.
 Alpha  occ. eigenvalues --  -26.46585 -26.46576 -20.58938 -11.33017 -11.30823
 Alpha  occ. eigenvalues --  -11.26809 -11.26465 -11.24977 -11.24477 -11.22712
 Alpha  occ. eigenvalues --   -7.70673  -1.61617  -1.57578  -1.51422  -1.16389
 Alpha  occ. eigenvalues --   -1.04101  -1.03228  -0.96211  -0.85816  -0.84004
 Alpha  occ. eigenvalues --   -0.79031  -0.75053  -0.73110  -0.71354  -0.68459
 Alpha  occ. eigenvalues --   -0.68024  -0.67026  -0.65175  -0.62522  -0.62078
 Alpha  occ. eigenvalues --   -0.61699  -0.60750  -0.59566  -0.54693  -0.53940
 Alpha  occ. eigenvalues --   -0.51651  -0.49927  -0.48428  -0.36420  -0.33747
 Alpha virt. eigenvalues --    0.02892   0.03516   0.03906   0.04531   0.05269
 Alpha virt. eigenvalues --    0.05385   0.05740   0.07292   0.07789   0.07817
 Alpha virt. eigenvalues --    0.08475   0.09677   0.10072   0.10753   0.12534

 Mulliken charges:
               1
     1  F   -0.779952
     2  F   -0.792198
     3  B    1.106634
     4  C    0.634424
     5  C    0.494114
     6  C    0.015316
     7  C    1.738291
     8  C    0.164894
     9  H   -0.298512
    10  C    0.074235
    11  H   -0.411180
    12  H   -0.310903
    13  O   -1.849813
    14  C    0.159419
    15  H    0.177977
    16  H   -0.033097
    17  H    0.177978
    18  H   -0.267628
 Sum of Mulliken charges =   0.00000

 Dipole moment (field-independent basis, Debye):
    X=             -3.6260    Y=             -1.0045    Z=             -0.0001  Tot=              3.7626

 Test job not archived.
 1\1\GINC-SE461\SP\RHF\Aug-CC-pVDZ\C7H7B1F2O1\OHZDE\09-Apr-2025\0\\#t h
 f aug-cc-pvdz iop(5/13=1,5/36=2,99/5=2) pseudo=read geom=check guess=(
 read,tcheck) scf=(maxcycle=1)\\title\\0,1\F,0,-3.221916,-1.315568,-0.0
 00026\F,0,-3.435975,0.934515,-0.000029\B,0,-2.623791,-0.123171,0.00002
 2\C,0,-1.097222,0.021999,0.000015\C,0,-0.483109,1.290539,0.000011\C,0,
 0.891985,1.423486,0.000006\C,0,1.706553,0.280428,0.000005\C,0,-0.26385
 1,-1.105419,0.000014\H,0,-0.709297,-2.094124,0.000017\C,0,1.121973,-0.
 992094,0.000009\H,0,1.73156,-1.885214,0.000008\H,0,-1.102553,2.180465,

 Normal termination of Gaussian 16 at Wed Apr  9 00:35:20 2025.
