 Gaussian 16, Revision C.01,

 ----------------------------------------------------------------------
 #t hf aug-cc-pvdz symm=none int=(grid=ultrafine) guess=(read,tcheck) s
 table=(opt,rrhf)
 ----------------------------------------------------------------------
 -----
 title
 -----
 Symbolic Z-matrix:
 Charge =  0 Multiplicity = 1

 SCF Done:  E(RHF) =  -532.571595856     A.U. after   13 cycles

 1\1\GINC-SE071\Stability\RHF\Aug-CC-pVDZ\C6H10O4\OHZDE\08-Apr-2025\0\\
 #t hf aug-cc-pvdz symm=none int=(grid=ultrafine) guess=(read,tcheck) s
 table=(opt,rrhf)\\title\\0,1\O,0,-1.733786,0.252042,-0.000025\C,0,-0.6
 13332,-0.469815,-0.000049\O,0,-0.547286,-1.669567,0.000009\C,0,0.61333
 2,0.469815,0.00002\O,0,0.547286,1.669567,-0.000047\O,0,1.733786,-0.252
 042,0.000025\C,0,-2.974029,-0.501959,-0.000002\C,0,2.974029,0.501959,0
 .000012\C,0,4.110975,-0.497571,0.000023\H,0,2.986855,1.146037,-0.88243
 2\H,0,2.986859,1.14606,0.882439\H,0,4.068282,-1.134818,-0.885499\H,0,4

 Normal termination of Gaussian 16 at Tue Apr  8 23:02:59 2025.
 Gaussian 16:  ES64L-G16RevC.01  3-Jul-2019

 ----------------------------------------------------------------------
 #t hf aug-cc-pvdz iop(5/13=1,5/36=2,99/5=2) pseudo=read geom=check gue
 ss=(read,tcheck) scf=(maxcycle=1)
 ----------------------------------------------------------------------
 -----
 title
 -----
 Structure from the checkpoint file:  "BDE49_expt_269_mol1.chk"
 Charge =  0 Multiplicity = 1

                         Standard orientation:
 ---------------------------------------------------------------------
 Center     Atomic      Atomic             Coordinates (Angstroms)
 Number     Number       Type             X           Y           Z
 ---------------------------------------------------------------------
      1          8           0       -1.733786    0.252042   -0.000025
      2          6           0       -0.613332   -0.469815   -0.000049
      3          8           0       -0.547286   -1.669567    0.000009
      4          6           0        0.613332    0.469815    0.000020
      5          8           0        0.547286    1.669567   -0.000047
      6          8           0        1.733786   -0.252042    0.000025
      7          6           0       -2.974029   -0.501959   -0.000002
      8          6           0        2.974029    0.501959    0.000012
      9          6           0        4.110975   -0.497571    0.000023
     10          1           0        2.986855    1.146037   -0.882432
     11          1           0        2.986859    1.146060    0.882439
     12          1           0        4.068282   -1.134818   -0.885499
     13          1           0        4.068285   -1.134794    0.885563
     14          1           0        5.067440    0.031646    0.000014
     15          6           0       -4.110975    0.497571    0.000021
     16          1           0       -2.986840   -1.146050    0.882432
     17          1           0       -2.986873   -1.146047   -0.882438
     18          1           0       -4.068267    1.134805    0.885552
     19          1           0       -5.067440   -0.031646    0.000038
     20          1           0       -4.068300    1.134807   -0.885510
 ---------------------------------------------------------------------

 SCF Done:  E(RHF) =  -533.108062542     A.U. after    2 cycles

 The electronic state is 1-A.
 Alpha  occ. eigenvalues --  -20.60164 -20.60161 -20.55730 -20.55723 -11.41085
 Alpha  occ. eigenvalues --  -11.41067 -11.30804 -11.30803 -11.24082 -11.24081
 Alpha  occ. eigenvalues --   -1.57017  -1.54796  -1.47838  -1.46196  -1.06710
 Alpha  occ. eigenvalues --   -1.05050  -0.95057  -0.88103  -0.83639  -0.79293
 Alpha  occ. eigenvalues --   -0.75457  -0.71019  -0.70605  -0.68679  -0.68502
 Alpha  occ. eigenvalues --   -0.61530  -0.61330  -0.58233  -0.57835  -0.56741
 Alpha  occ. eigenvalues --   -0.55715  -0.52946  -0.52872  -0.52328  -0.51770
 Alpha  occ. eigenvalues --   -0.51114  -0.46892  -0.45770  -0.43475
 Alpha virt. eigenvalues --    0.03670   0.03716   0.04349   0.04673   0.05190
 Alpha virt. eigenvalues --    0.05255   0.05328   0.06926   0.07374   0.08457
 Alpha virt. eigenvalues --    0.08961   0.10552   0.11080   0.12249   0.12524

 Mulliken charges:
               1
     1  O   -1.310740
     2  C    1.999431
     3  O   -1.306177
     4  C    1.999431
     5  O   -1.306177
     6  O   -1.310740
     7  C    0.315500
     8  C    0.315498
     9  C   -0.524764
    10  H    0.148127
    11  H    0.148139
    12  H    0.183234
    13  H    0.183233
    14  H    0.164020
    15  C   -0.524765
    16  H    0.148124
    17  H    0.148139
    18  H    0.183235
    19  H    0.164020
    20  H    0.183232
 Sum of Mulliken charges =  -0.00000

 Dipole moment (field-independent basis, Debye):
    X=             -0.0000    Y=             -0.0000    Z=              0.0000  Tot=              0.0000

 Test job not archived.
 1\1\GINC-SE071\SP\RHF\Aug-CC-pVDZ\C6H10O4\OHZDE\08-Apr-2025\0\\#t hf a
 ug-cc-pvdz iop(5/13=1,5/36=2,99/5=2) pseudo=read geom=check guess=(rea
 d,tcheck) scf=(maxcycle=1)\\title\\0,1\O,0,-1.733786,0.252042,-0.00002
 5\C,0,-0.613332,-0.469815,-0.000049\O,0,-0.547286,-1.669567,0.000009\C
 ,0,0.613332,0.469815,0.00002\O,0,0.547286,1.669567,-0.000047\O,0,1.733
 786,-0.252042,0.000025\C,0,-2.974029,-0.501959,-0.000002\C,0,2.974029,
 0.501959,0.000012\C,0,4.110975,-0.497571,0.000023\H,0,2.986855,1.14603
 7,-0.882432\H,0,2.986859,1.14606,0.882439\H,0,4.068282,-1.134818,-0.88

 Normal termination of Gaussian 16 at Tue Apr  8 23:03:09 2025.
