 Gaussian 16, Revision C.01,

 ----------------------------------------------------------------------
 #t hf aug-cc-pvdz symm=none int=(grid=ultrafine) guess=(read,tcheck) s
 table=opt
 ----------------------------------------------------------------------
 -----
 title
 -----
 Symbolic Z-matrix:
 Charge =  0 Multiplicity = 2

 SCF Done:  E(UHF) =  -808.016321229     A.U. after   16 cycles
 Normal termination of Gaussian 16 at Tue Apr  8 23:27:30 2025.
 Gaussian 16:  ES64L-G16RevC.01  3-Jul-2019

 ----------------------------------------------------------------------
 #t hf aug-cc-pvdz iop(5/13=1,5/36=2,99/5=2) pseudo=read geom=check gue
 ss=(read,tcheck) scf=(maxcycle=1)
 ----------------------------------------------------------------------
 -----
 title
 -----
 Structure from the checkpoint file:  "BDE49_expt_823_mol2.chk"
 Charge =  0 Multiplicity = 2

                         Standard orientation:
 ---------------------------------------------------------------------
 Center     Atomic      Atomic             Coordinates (Angstroms)
 Number     Number       Type             X           Y           Z
 ---------------------------------------------------------------------
      1         15           0        0.000002   -1.403658   -0.000556
      2          6           0        1.435967   -0.208821    0.184604
      3          6           0        2.612577   -0.892303    0.910074
      4          6           0       -1.435962   -0.208669   -0.184752
      5          6           0       -1.897312    0.353369    1.179864
      6          6           0        3.822428    0.044372    1.053721
      7          1           0        2.911189   -1.785615    0.345784
      8          1           0        2.290950   -1.244583    1.895137
      9          6           0        4.268315    0.609141   -0.301560
     10          1           0        4.649683   -0.488466    1.534041
     11          1           0        3.557557    0.874461    1.721519
     12          6           0        3.104804    1.294769   -1.029929
     13          1           0        4.651279   -0.209089   -0.925120
     14          1           0        5.097255    1.311348   -0.166052
     15          6           0        1.897285    0.354354   -1.179554
     16          1           0        3.426413    1.643404   -2.017026
     17          1           0        2.799966    2.186738   -0.467502
     18          1           0        1.074499    0.881061   -1.672856
     19          1           0        2.169586   -0.481659   -1.836114
     20          1           0        1.091303    0.632096    0.801789
     21          6           0       -3.104828    1.293906    1.030993
     22          1           0       -1.074538    0.879666    1.673624
     23          1           0       -2.169628   -0.483191    1.835721
     24          6           0       -2.612553   -0.891548   -0.910818
     25          1           0       -1.091285    0.632762   -0.801229
     26          6           0       -3.822402    0.045244   -1.053715
     27          1           0       -2.911179   -1.785330   -0.347279
     28          1           0       -2.290902   -1.243008   -1.896166
     29          6           0       -4.268321    0.608884    0.302025
     30          1           0       -4.649645   -0.487194   -1.534499
     31          1           0       -3.557514    0.875890   -1.720815
     32          1           0       -5.097259    1.311203    0.167082
     33          1           0       -4.651300   -0.209866    0.924893
     34          1           0       -2.799978    2.186344    0.469316
     35          1           0       -3.426462    1.641718    2.018372
 ---------------------------------------------------------------------

 SCF Done:  E(UHF) =  -808.569463282     A.U. after    2 cycles

 The electronic state is 2-A.
 Alpha  occ. eigenvalues --  -84.25545 -11.23516 -11.23512 -11.23050 -11.23042
 Alpha  occ. eigenvalues --  -11.22706 -11.22704 -11.22632 -11.22631 -11.22495
 Alpha  occ. eigenvalues --  -11.22495 -11.22447 -11.22446  -6.72707  -4.25849
 Alpha  occ. eigenvalues --   -4.25364  -4.24560  -1.12430  -1.11556  -1.02365
 Alpha  occ. eigenvalues --   -1.00439  -1.00352  -0.99851  -0.87078  -0.83820
 Alpha  occ. eigenvalues --   -0.83600  -0.82270  -0.76769  -0.75544  -0.73524
 Alpha  occ. eigenvalues --   -0.64967  -0.64913  -0.61333  -0.61231  -0.60570
 Alpha  occ. eigenvalues --   -0.60538  -0.60304  -0.57709  -0.54107  -0.53680
 Alpha  occ. eigenvalues --   -0.53521  -0.53410  -0.50484  -0.50088  -0.49580
 Alpha  occ. eigenvalues --   -0.49144  -0.49001  -0.46962  -0.46069  -0.45318
 Alpha  occ. eigenvalues --   -0.44235  -0.44132  -0.39080  -0.34304  -0.29575
 Alpha virt. eigenvalues --    0.02731   0.02882   0.03412   0.03937   0.04176
 Alpha virt. eigenvalues --    0.04366   0.04417   0.05647   0.05955   0.06320
 Alpha virt. eigenvalues --    0.06827   0.06858   0.07338   0.07719   0.08982

  Beta  occ. eigenvalues --  -84.24861 -11.23656 -11.23651 -11.22946 -11.22938
  Beta  occ. eigenvalues --  -11.22685 -11.22683 -11.22613 -11.22612 -11.22497
  Beta  occ. eigenvalues --  -11.22497 -11.22448 -11.22446  -6.71837  -4.24840
  Beta  occ. eigenvalues --   -4.24172  -4.22520  -1.12178  -1.11492  -1.01748
  Beta  occ. eigenvalues --   -1.00363  -1.00264  -0.99778  -0.85596  -0.83636
  Beta  occ. eigenvalues --   -0.83451  -0.82278  -0.76282  -0.75482  -0.70390
  Beta  occ. eigenvalues --   -0.64869  -0.64497  -0.61179  -0.61166  -0.60517
  Beta  occ. eigenvalues --   -0.60502  -0.60114  -0.57063  -0.53693  -0.53597
  Beta  occ. eigenvalues --   -0.53244  -0.53226  -0.50402  -0.49812  -0.49443
  Beta  occ. eigenvalues --   -0.49100  -0.48945  -0.46619  -0.46015  -0.45158
  Beta  occ. eigenvalues --   -0.44050  -0.43981  -0.38845  -0.32564
  Beta virt. eigenvalues --    0.02738   0.02752   0.03415   0.03940   0.04198
  Beta virt. eigenvalues --    0.04377   0.04389   0.05184   0.05981   0.06258
  Beta virt. eigenvalues --    0.06455   0.06898   0.07346   0.07715   0.08858

 Mulliken charges and spin densities:
               1          2
     1  P    0.662927   1.337697
     2  C   -0.156831  -0.282306
     3  C   -0.210333   0.082653
     4  C   -0.156832  -0.282310
     5  C   -0.358767   0.063100
     6  C   -0.343105  -0.004400
     7  H    0.173085  -0.004250
     8  H    0.067845  -0.012962
     9  C   -0.218614   0.000099
    10  H    0.119622   0.000079
    11  H    0.154391   0.000725
    12  C   -0.406530   0.027396
    13  H    0.151661   0.001473
    14  H    0.113649  -0.000345
    15  C   -0.358778   0.063099
    16  H    0.108700   0.000052
    17  H    0.157381   0.001488
    18  H    0.059197  -0.022992
    19  H    0.171091  -0.027938
    20  H    0.086090   0.009283
    21  C   -0.406530   0.027395
    22  H    0.059202  -0.022993
    23  H    0.171092  -0.027937
    24  C   -0.210327   0.082653
    25  H    0.086099   0.009283
    26  C   -0.343112  -0.004400
    27  H    0.173086  -0.004250
    28  H    0.067846  -0.012964
    29  C   -0.218614   0.000099
    30  H    0.119621   0.000079
    31  H    0.154395   0.000725
    32  H    0.113650  -0.000345
    33  H    0.151661   0.001473
    34  H    0.157383   0.001488
    35  H    0.108700   0.000052
 Sum of Mulliken charges =  -0.00000   1.00000

 Dipole moment (field-independent basis, Debye):
    X=              0.0000    Y=              1.3622    Z=              0.0005  Tot=              1.3622
                          Isotropic Fermi Contact Couplings
        Atom                 a.u.       MegaHertz       Gauss      10(-4) cm-1
     1  P(31)              0.20870     377.98125     134.87311     126.08097
     2  C(13)             -0.02587     -29.07882     -10.37605      -9.69965
     3  C(13)              0.00513       5.77208       2.05962       1.92536
     4  C(13)             -0.02587     -29.07885     -10.37606      -9.69966
     5  C(13)              0.02951      33.17668      11.83826      11.06655
     6  C(13)             -0.00011      -0.11860      -0.04232      -0.03956
     7  H(1)              -0.00035      -1.54931      -0.55283      -0.51679
     8  H(1)              -0.00023      -1.04559      -0.37309      -0.34877

 Normal termination of Gaussian 16 at Tue Apr  8 23:28:22 2025.
