 Gaussian 16, Revision C.01,

 ----------------------------------------------------------------------
 #t hf aug-cc-pvdz symm=none int=(grid=ultrafine) guess=(read,tcheck) s
 table=(opt,rrhf)
 ----------------------------------------------------------------------
 -----
 title
 -----
 Symbolic Z-matrix:
 Charge =  0 Multiplicity = 1

 SCF Done:  E(RHF) =  -158.378974088     A.U. after   13 cycles
 Normal termination of Gaussian 16 at Wed Apr  9 00:36:51 2025.
 Gaussian 16:  ES64L-G16RevC.01  3-Jul-2019

 ----------------------------------------------------------------------
 #t hf aug-cc-pvdz iop(5/13=1,5/36=2,99/5=2) pseudo=read geom=check gue
 ss=(read,tcheck) scf=(maxcycle=1)
 ----------------------------------------------------------------------
 -----
 title
 -----
 Structure from the checkpoint file:  "BDE49_nonexpt_541_mol1.chk"
 Charge =  0 Multiplicity = 1

                         Standard orientation:
 ---------------------------------------------------------------------
 Center     Atomic      Atomic             Coordinates (Angstroms)
 Number     Number       Type             X           Y           Z
 ---------------------------------------------------------------------
      1          5           0       -1.985093   -0.244579    0.000077
      2          1           0       -2.537619   -0.422204   -1.043713
      3          1           0       -2.538077   -0.420000    1.043998
      4          7           0       -0.691930    0.167474   -0.000075
      5          6           0        0.497693    0.546288   -0.000204
      6          6           0        1.689589   -0.372031    0.000146
      7          1           0        2.312402   -0.179223   -0.879816
      8          1           0        1.377661   -1.416347    0.000473
      9          1           0        2.312321   -0.178647    0.880038
     10          1           0        0.718594    1.621455   -0.000493
 ---------------------------------------------------------------------

 SCF Done:  E(RHF) =  -158.544902666     A.U. after    2 cycles

 The electronic state is 1-A.
 Alpha  occ. eigenvalues --  -15.50060 -11.31330 -11.25002  -7.58214  -1.23053
 Alpha  occ. eigenvalues --   -1.01191  -0.88480  -0.73556  -0.63942  -0.60661
 Alpha  occ. eigenvalues --   -0.58611  -0.56064  -0.54470  -0.42703  -0.42078
 Alpha virt. eigenvalues --    0.03337   0.04401   0.04584   0.05334   0.05956
 Alpha virt. eigenvalues --    0.06349   0.06390   0.07569   0.10053   0.12223
 Alpha virt. eigenvalues --    0.12420   0.13417   0.14610   0.14808   0.15143

 Mulliken charges:
               1
     1  B   -0.610549
     2  H    0.184730
     3  H    0.184767
     4  N    0.956439
     5  C   -0.764561
     6  C   -0.446425
     7  H    0.218327
     8  H    0.098738
     9  H    0.218331
    10  H   -0.039798
 Sum of Mulliken charges =  -0.00000

 Dipole moment (field-independent basis, Debye):
    X=              2.7403    Y=              0.5113    Z=             -0.0001  Tot=              2.7876

 Test job not archived.
 1\1\GINC-SE322\SP\RHF\Aug-CC-pVDZ\C2H6B1N1\OHZDE\09-Apr-2025\0\\#t hf
 aug-cc-pvdz iop(5/13=1,5/36=2,99/5=2) pseudo=read geom=check guess=(re
 ad,tcheck) scf=(maxcycle=1)\\title\\0,1\B,0,-1.985093,-0.244579,0.0000
 77\H,0,-2.537619,-0.422204,-1.043713\H,0,-2.538077,-0.42,1.043998\N,0,
 -0.69193,0.167474,-0.000075\C,0,0.497693,0.546288,-0.000204\C,0,1.6895
 89,-0.372031,0.000146\H,0,2.312402,-0.179223,-0.879816\H,0,1.377661,-1
 .416347,0.000473\H,0,2.312321,-0.178647,0.880038\H,0,0.718594,1.621455
 ,-0.000493\\Version=ES64L-G16RevC.01\State=1-A\HF=-158.5449027\RMSD=1.

 Normal termination of Gaussian 16 at Wed Apr  9 00:36:54 2025.
