 Gaussian 16, Revision C.01,

 ----------------------------------------------------------------------
 #t hf aug-cc-pvdz symm=none int=(grid=ultrafine) guess=(read,tcheck) s
 table=(opt,rrhf)
 ----------------------------------------------------------------------
 -----
 title
 -----
 Symbolic Z-matrix:
 Charge =  0 Multiplicity = 1

 SCF Done:  E(RHF) =  -1442.33220145     A.U. after   12 cycles
 Normal termination of Gaussian 16 at Tue Apr  8 23:42:17 2025.
 Gaussian 16:  ES64L-G16RevC.01  3-Jul-2019

 ----------------------------------------------------------------------
 #t hf aug-cc-pvdz iop(5/13=1,5/36=2,99/5=2) pseudo=read geom=check gue
 ss=(read,tcheck) scf=(maxcycle=1)
 ----------------------------------------------------------------------
 -----
 title
 -----
 Structure from the checkpoint file:  "BDE49_nonexpt_167_mol1.chk"
 Charge =  0 Multiplicity = 1

                         Standard orientation:
 ---------------------------------------------------------------------
 Center     Atomic      Atomic             Coordinates (Angstroms)
 Number     Number       Type             X           Y           Z
 ---------------------------------------------------------------------
      1         17           0       -2.120563   -0.808631    0.000027
      2         17           0       -0.395813    1.679635   -0.000035
      3          5           0       -0.520786   -0.061158   -0.000038
      4          6           0        0.704930   -1.042171    0.000012
      5         17           0        2.344134   -0.285921    0.000011
      6          1           0        0.651247   -1.693834   -0.875663
      7          1           0        0.651221   -1.693776    0.875730
 ---------------------------------------------------------------------

 SCF Done:  E(RHF) =  -1442.62657024     A.U. after    2 cycles

 The electronic state is 1-A.
 Alpha  occ. eigenvalues -- -105.58952-105.58784-105.56921 -11.31166 -10.63972
 Alpha  occ. eigenvalues --  -10.63818 -10.61691  -7.80864  -7.80715  -7.80576
 Alpha  occ. eigenvalues --   -7.80537  -7.80428  -7.80371  -7.78639  -7.78249
 Alpha  occ. eigenvalues --   -7.78248  -7.73214  -1.13657  -1.09655  -1.07193
 Alpha  occ. eigenvalues --   -0.92917  -0.70860  -0.64774  -0.62696  -0.60884
 Alpha  occ. eigenvalues --   -0.55554  -0.53412  -0.49544  -0.49051  -0.47661
 Alpha  occ. eigenvalues --   -0.45587  -0.44960
 Alpha virt. eigenvalues --    0.03400   0.04392   0.05138   0.05467   0.06385
 Alpha virt. eigenvalues --    0.08214   0.08278   0.09738   0.12282   0.14106
 Alpha virt. eigenvalues --    0.14339   0.14721   0.16243   0.16842   0.17467

 Mulliken charges:
               1
     1  Cl  -0.317864
     2  Cl  -0.270062
     3  B    0.772554
     4  C   -0.585481
     5  Cl  -0.162743
     6  H    0.281801
     7  H    0.281795
 Sum of Mulliken charges =  -0.00000

 Dipole moment (field-independent basis, Debye):
    X=             -0.7765    Y=             -1.3814    Z=             -0.0001  Tot=              1.5847

 Test job not archived.
 1\1\GINC-SE423\SP\RHF\Aug-CC-pVDZ\C1H2B1Cl3\OHZDE\08-Apr-2025\0\\#t hf
  aug-cc-pvdz iop(5/13=1,5/36=2,99/5=2) pseudo=read geom=check guess=(r
 ead,tcheck) scf=(maxcycle=1)\\title\\0,1\Cl,0,-2.120563,-0.808631,0.00
 0027\Cl,0,-0.395813,1.679635,-0.000035\B,0,-0.520786,-0.061158,-0.0000
 38\C,0,0.70493,-1.042171,0.000012\Cl,0,2.344134,-0.28592,0.000011\H,0,
 0.651247,-1.693834,-0.875663\H,0,0.651221,-1.693776,0.87573\\Version=E
 S64L-G16RevC.01\State=1-A\HF=-1442.6265702\RMSD=4.225e-03\Dipole=-0.30
 55053,-0.5434755,-0.0000197\Quadrupole=-3.7686221,1.9157861,1.852836,-

 Normal termination of Gaussian 16 at Tue Apr  8 23:42:20 2025.
