 Gaussian 16, Revision C.01,

 ----------------------------------------------------------------------
 #t hf aug-cc-pvdz symm=none int=(grid=ultrafine) guess=(read,tcheck) s
 table=(opt,rrhf)
 ----------------------------------------------------------------------
 -----
 title
 -----
 Symbolic Z-matrix:
 Charge =  0 Multiplicity = 1

 SCF Done:  E(RHF) =  -1025.79441756     A.U. after   15 cycles
 Normal termination of Gaussian 16 at Tue Apr  8 23:00:21 2025.
 Gaussian 16:  ES64L-G16RevC.01  3-Jul-2019

 ----------------------------------------------------------------------
 #t hf aug-cc-pvdz iop(5/13=1,5/36=2,99/5=2) pseudo=read geom=check gue
 ss=(read,tcheck) scf=(maxcycle=1)
 ----------------------------------------------------------------------
 -----
 title
 -----
 Structure from the checkpoint file:  "BDE49_expt_1955_mol1.chk"
 Charge =  0 Multiplicity = 1

                         Standard orientation:
 ---------------------------------------------------------------------
 Center     Atomic      Atomic             Coordinates (Angstroms)
 Number     Number       Type             X           Y           Z
 ---------------------------------------------------------------------
      1          6           0        2.923397    0.119681   -0.388091
      2          6           0        2.202048    1.264728   -0.051149
      3          6           0        0.867885    1.163034    0.330910
      4          6           0        2.308677   -1.129886   -0.343824
      5          6           0        0.971145   -1.237042    0.030132
      6          6           0        0.246625   -0.089338    0.365213
      7          1           0        3.963826    0.201747   -0.681342
      8          1           0        2.680685    2.237003   -0.079974
      9          1           0        0.303950    2.047039    0.602494
     10          1           0        2.868441   -2.021684   -0.601947
     11          1           0        0.485791   -2.205068    0.065325
     12         16           0       -1.451689   -0.248473    0.920389
     13         16           0       -2.597298    0.257880   -0.770927
     14          1           0       -2.637576   -0.956608   -1.355091
 ---------------------------------------------------------------------

 SCF Done:  E(RHF) =  -1026.15203124     A.U. after    2 cycles

 The electronic state is 1-A.
 Alpha  occ. eigenvalues --  -93.98284 -93.97965 -11.28099 -11.26031 -11.25932
 Alpha  occ. eigenvalues --  -11.25867 -11.25543 -11.25511  -8.26119  -8.25879
 Alpha  occ. eigenvalues --   -6.23921  -6.23726  -6.23695  -6.23530  -6.23493
 Alpha  occ. eigenvalues --   -6.23283  -1.17617  -1.09820  -1.03183  -1.02354
 Alpha  occ. eigenvalues --   -0.91689  -0.85067  -0.81720  -0.72009  -0.66039
 Alpha  occ. eigenvalues --   -0.65082  -0.61464  -0.59947  -0.56476  -0.53697
 Alpha  occ. eigenvalues --   -0.52188  -0.50976  -0.47633  -0.38709  -0.37812
 Alpha  occ. eigenvalues --   -0.35893  -0.35305
 Alpha virt. eigenvalues --    0.03238   0.03522   0.04025   0.04717   0.05453
 Alpha virt. eigenvalues --    0.06267   0.06973   0.08856   0.09368   0.10211
 Alpha virt. eigenvalues --    0.10935   0.11146   0.12342   0.13373   0.13593

 Mulliken charges:
               1
     1  C   -0.115199
     2  C    0.502599
     3  C   -0.597487
     4  C    0.545743
     5  C   -0.401798
     6  C    1.111293
     7  H   -0.204568
     8  H   -0.205397
     9  H   -0.188670
    10  H   -0.204059
    11  H   -0.195052
    12  S   -0.153026
    13  S   -0.284361
    14  H    0.389983
 Sum of Mulliken charges =  -0.00000

 Dipole moment (field-independent basis, Debye):
    X=              2.0331    Y=             -0.6287    Z=             -1.0230  Tot=              2.3612

 Test job not archived.
 1\1\GINC-SE041\SP\RHF\Aug-CC-pVDZ\C6H6S2\OHZDE\08-Apr-2025\0\\#t hf au
 g-cc-pvdz iop(5/13=1,5/36=2,99/5=2) pseudo=read geom=check guess=(read
 ,tcheck) scf=(maxcycle=1)\\title\\0,1\C,0,-2.923397,-0.119681,-0.38809
 1\C,0,-2.202048,-1.264728,-0.051149\C,0,-0.867885,-1.163034,0.33091\C,
 0,-2.308677,1.129886,-0.343824\C,0,-0.971145,1.237042,0.030132\C,0,-0.
 246625,0.089338,0.365213\H,0,-3.963826,-0.201747,-0.681342\H,0,-2.6806
 85,-2.237003,-0.079974\H,0,-0.30395,-2.047039,0.602494\H,0,-2.868441,2
 .021684,-0.601947\H,0,-0.485791,2.205068,0.065325\S,0,1.451689,0.24847

 Normal termination of Gaussian 16 at Tue Apr  8 23:00:28 2025.
