 Gaussian 16, Revision C.01,

 ----------------------------------------------------------------------
 #t hf aug-cc-pvdz symm=none int=(grid=ultrafine) guess=(read,tcheck) s
 table=(opt,rrhf)
 ----------------------------------------------------------------------
 -----
 title
 -----
 Symbolic Z-matrix:
 Charge =  0 Multiplicity = 1

 SCF Done:  E(RHF) =  -593.880430528     A.U. after   13 cycles

 1\1\GINC-SE103\Stability\RHF\Aug-CC-pVDZ\C5H12S1\OHZDE\08-Apr-2025\0\\
 #t hf aug-cc-pvdz symm=none int=(grid=ultrafine) guess=(read,tcheck) s
 table=(opt,rrhf)\\title\\0,1\S,0,0.932098,-0.856358,0.000007\C,0,-0.68
 097,0.083919,0.000001\C,0,-1.75509,-1.015027,-0.000011\H,0,-2.749638,-
 0.55803,-0.000016\H,0,-1.67274,-1.649664,0.885889\H,0,-1.672727,-1.649
 658,-0.885913\C,0,-0.810503,0.945158,1.263014\H,0,-0.049522,1.728446,1
 .300034\H,0,-0.718427,0.335556,2.164309\H,0,-1.788615,1.438952,1.27897
 2\C,0,2.198615,0.452743,-0.00001\H,0,2.143805,1.074671,0.894427\H,0,2.

 Normal termination of Gaussian 16 at Tue Apr  8 22:46:19 2025.
 Gaussian 16:  ES64L-G16RevC.01  3-Jul-2019

 ----------------------------------------------------------------------
 #t hf aug-cc-pvdz iop(5/13=1,5/36=2,99/5=2) pseudo=read geom=check gue
 ss=(read,tcheck) scf=(maxcycle=1)
 ----------------------------------------------------------------------
 -----
 title
 -----
 Structure from the checkpoint file:  "BDE49_expt_1568_mol1.chk"
 Charge =  0 Multiplicity = 1

                         Standard orientation:
 ---------------------------------------------------------------------
 Center     Atomic      Atomic             Coordinates (Angstroms)
 Number     Number       Type             X           Y           Z
 ---------------------------------------------------------------------
      1         16           0        0.932098   -0.856358    0.000007
      2          6           0       -0.680970    0.083919    0.000001
      3          6           0       -1.755090   -1.015027   -0.000011
      4          1           0       -2.749638   -0.558029   -0.000016
      5          1           0       -1.672740   -1.649664    0.885889
      6          1           0       -1.672727   -1.649658   -0.885913
      7          6           0       -0.810503    0.945158    1.263014
      8          1           0       -0.049522    1.728446    1.300034
      9          1           0       -0.718427    0.335556    2.164309
     10          1           0       -1.788615    1.438952    1.278972
     11          6           0        2.198615    0.452742   -0.000010
     12          1           0        2.143805    1.074670    0.894427
     13          1           0        2.143795    1.074657   -0.894455
     14          1           0        3.157601   -0.067968   -0.000011
     15          6           0       -0.810486    0.945169   -1.263006
     16          1           0       -0.718399    0.335574   -2.164304
     17          1           0       -0.049504    1.728456   -1.300009
     18          1           0       -1.788598    1.438965   -1.278972
 ---------------------------------------------------------------------

 SCF Done:  E(RHF) =  -594.162326565     A.U. after    2 cycles

 The electronic state is 1-A.
 Alpha  occ. eigenvalues --  -93.92960 -11.27649 -11.25844 -11.22970 -11.22970
 Alpha  occ. eigenvalues --  -11.22940  -8.21018  -6.18845  -6.18673  -6.18472
 Alpha  occ. eigenvalues --   -1.12149  -1.02299  -0.94214  -0.94177  -0.87209
 Alpha  occ. eigenvalues --   -0.73593  -0.63406  -0.61585  -0.61546  -0.59501
 Alpha  occ. eigenvalues --   -0.57150  -0.55501  -0.54606  -0.52627  -0.49917
 Alpha  occ. eigenvalues --   -0.48915  -0.46599  -0.41623  -0.33999
 Alpha virt. eigenvalues --    0.03633   0.03684   0.04130   0.04331   0.05946
 Alpha virt. eigenvalues --    0.06379   0.06412   0.06874   0.07184   0.09743
 Alpha virt. eigenvalues --    0.09778   0.09997   0.11088   0.13178   0.13465

 Mulliken charges:
               1
     1  S    0.335068
     2  C   -1.856207
     3  C    0.255215
     4  H    0.221781
     5  H    0.189457
     6  H    0.189454
     7  C   -0.061382
     8  H    0.114739
     9  H    0.184505
    10  H    0.207052
    11  C   -0.739418
    12  H    0.192498
    13  H    0.192497
    14  H    0.129824
    15  C   -0.061378
    16  H    0.184505
    17  H    0.114737
    18  H    0.207053
 Sum of Mulliken charges =  -0.00000

 Dipole moment (field-independent basis, Debye):
    X=             -0.4742    Y=              1.7581    Z=             -0.0000  Tot=              1.8210

 Test job not archived.
 1\1\GINC-SE103\SP\RHF\Aug-CC-pVDZ\C5H12S1\OHZDE\08-Apr-2025\0\\#t hf a
 ug-cc-pvdz iop(5/13=1,5/36=2,99/5=2) pseudo=read geom=check guess=(rea
 d,tcheck) scf=(maxcycle=1)\\title\\0,1\S,0,0.932098,-0.856358,0.000007
 \C,0,-0.68097,0.083919,0.000001\C,0,-1.75509,-1.015027,-0.000011\H,0,-
 2.749638,-0.55803,-0.000016\H,0,-1.67274,-1.649664,0.885889\H,0,-1.672
 727,-1.649658,-0.885913\C,0,-0.810503,0.945158,1.263014\H,0,-0.049522,
 1.728446,1.300034\H,0,-0.718427,0.335556,2.164309\H,0,-1.788615,1.4389
 52,1.278972\C,0,2.198615,0.452743,-0.00001\H,0,2.143805,1.074671,0.894

 Normal termination of Gaussian 16 at Tue Apr  8 22:46:27 2025.
