 Gaussian 16, Revision C.01,

 ----------------------------------------------------------------------
 #t hf aug-cc-pvdz symm=none int=(grid=ultrafine) guess=(read,tcheck) s
 table=(opt,rrhf)
 ----------------------------------------------------------------------
 -----
 title
 -----
 Symbolic Z-matrix:
 Charge =  0 Multiplicity = 1

 SCF Done:  E(RHF) =  -633.530777206     A.U. after   13 cycles
 Normal termination of Gaussian 16 at Wed Apr  9 00:44:21 2025.
 Gaussian 16:  ES64L-G16RevC.01  3-Jul-2019

 ----------------------------------------------------------------------
 #t hf aug-cc-pvdz iop(5/13=1,5/36=2,99/5=2) pseudo=read geom=check gue
 ss=(read,tcheck) scf=(maxcycle=1)
 ----------------------------------------------------------------------
 -----
 title
 -----
 Structure from the checkpoint file:  "BDE49_nonexpt_758_mol1.chk"
 Charge =  0 Multiplicity = 1

                         Standard orientation:
 ---------------------------------------------------------------------
 Center     Atomic      Atomic             Coordinates (Angstroms)
 Number     Number       Type             X           Y           Z
 ---------------------------------------------------------------------
      1          5           0        1.590580    0.142122   -0.001042
      2          8           0        1.460525    1.503596    0.037051
      3          8           0        2.833200   -0.405698    0.070047
      4          6           0       -1.265768   -0.015454    0.511730
      5          6           0       -2.710231   -0.279099    0.153129
      6          6           0       -2.035594    0.951757   -0.381106
      7          1           0       -3.450448   -0.157671    0.934910
      8          1           0       -2.917572   -1.082081   -0.544153
      9          1           0       -1.793560    0.972196   -1.438060
     10          1           0       -2.318052    1.912466    0.034218
     11          1           0        3.520338    0.267999    0.142766
     12          1           0        0.543673    1.793485    0.000514
     13         15           0        0.062767   -1.036369   -0.267638
     14          1           0       -1.094484    0.325694    1.527856
     15          1           0        0.335455   -1.923564    0.802433
 ---------------------------------------------------------------------

 SCF Done:  E(RHF) =  -633.876987027     A.U. after    2 cycles

 The electronic state is 1-A.
 Alpha  occ. eigenvalues --  -84.25283 -20.56490 -20.55854 -11.25538 -11.25196
 Alpha  occ. eigenvalues --  -11.24766  -7.65216  -6.72587  -4.25278  -4.25091
 Alpha  occ. eigenvalues --   -4.24423  -1.48616  -1.44410  -1.15432  -0.90009
 Alpha  occ. eigenvalues --   -0.83811  -0.79108  -0.75987  -0.72618  -0.68208
 Alpha  occ. eigenvalues --   -0.62393  -0.61699  -0.57466  -0.56241  -0.53502
 Alpha  occ. eigenvalues --   -0.50371  -0.49655  -0.47520  -0.42815  -0.41470
 Alpha  occ. eigenvalues --   -0.32727
 Alpha virt. eigenvalues --    0.03269   0.03877   0.04053   0.04420   0.05819
 Alpha virt. eigenvalues --    0.06326   0.06556   0.07217   0.08055   0.09356
 Alpha virt. eigenvalues --    0.10072   0.10589   0.11710   0.12452   0.13144

 Mulliken charges:
               1
     1  B    1.954253
     2  O   -1.314708
     3  O   -1.273897
     4  C    0.080767
     5  C    0.226495
     6  C    0.061280
     7  H   -0.119214
     8  H   -0.093623
     9  H   -0.103173
    10  H   -0.112466
    11  H    0.540728
    12  H    0.759086
    13  P   -0.664498
    14  H   -0.251824
    15  H    0.310794
 Sum of Mulliken charges =  -0.00000

 Dipole moment (field-independent basis, Debye):
    X=             -1.2472    Y=              1.5409    Z=              0.7549  Tot=              2.1213

 Test job not archived.
 1\1\GINC-SE461\SP\RHF\Aug-CC-pVDZ\C3H8B1O2P1\OHZDE\09-Apr-2025\0\\#t h
 f aug-cc-pvdz iop(5/13=1,5/36=2,99/5=2) pseudo=read geom=check guess=(
 read,tcheck) scf=(maxcycle=1)\\title\\0,1\B,0,1.59058,0.142122,-0.0010
 42\O,0,1.460525,1.503596,0.037051\O,0,2.8332,-0.405698,0.070047\C,0,-1
 .265768,-0.015454,0.51173\C,0,-2.710231,-0.279099,0.153129\C,0,-2.0355
 94,0.951757,-0.381106\H,0,-3.450448,-0.157671,0.93491\H,0,-2.917572,-1
 .082081,-0.544153\H,0,-1.79356,0.972196,-1.43806\H,0,-2.318052,1.91246
 6,0.034218\H,0,3.520338,0.267999,0.142766\H,0,0.543673,1.793485,0.0005

 Normal termination of Gaussian 16 at Wed Apr  9 00:44:27 2025.
