 Gaussian 16, Revision C.01,

 ----------------------------------------------------------------------
 #t hf aug-cc-pvdz symm=none int=(grid=ultrafine) guess=(read,tcheck) s
 table=opt
 ----------------------------------------------------------------------
 -----
 title
 -----
 Symbolic Z-matrix:
 Charge =  0 Multiplicity = 2

 SCF Done:  E(UHF) =  -406.546025961     A.U. after   14 cycles

 1\1\GINC-SE070\Stability\UHF\Aug-CC-pVDZ\C3H7Si1\OHZDE\09-Apr-2025\0\\
 #t hf aug-cc-pvdz symm=none int=(grid=ultrafine) guess=(read,tcheck) s
 table=opt\\title\\0,2\C,0,0.589507,0.054312,0.\C,0,0.589507,-1.268597,
 -0.749839\C,0,0.589507,-1.268597,0.749839\H,0,-0.317997,-1.569781,1.26
 1332\H,0,1.500868,-1.551992,1.263189\H,0,1.500868,-1.551992,-1.263189\
 H,0,-0.317997,-1.569781,-1.261332\Si,0,-0.900576,1.178238,0.\H,0,1.546
 14,0.574348,0.\H,0,-0.957478,2.035581,-1.213803\H,0,-0.957478,2.035581
 ,1.213803\\Version=ES64L-G16RevC.01\HF=-406.546026\S2=0.754207\S2-1=0.

 Normal termination of Gaussian 16 at Wed Apr  9 00:46:01 2025.
 Gaussian 16:  ES64L-G16RevC.01  3-Jul-2019

 ----------------------------------------------------------------------
 #t hf aug-cc-pvdz iop(5/13=1,5/36=2,99/5=2) pseudo=read geom=check gue
 ss=(read,tcheck) scf=(maxcycle=1)
 ----------------------------------------------------------------------
 -----
 title
 -----
 Structure from the checkpoint file:  "BDE49_nonexpt_809_mol2.chk"
 Charge =  0 Multiplicity = 2

                         Standard orientation:
 ---------------------------------------------------------------------
 Center     Atomic      Atomic             Coordinates (Angstroms)
 Number     Number       Type             X           Y           Z
 ---------------------------------------------------------------------
      1          6           0       -0.589507    0.054312    0.000000
      2          6           0       -0.589507   -1.268597    0.749839
      3          6           0       -0.589507   -1.268597   -0.749839
      4          1           0        0.317997   -1.569781   -1.261332
      5          1           0       -1.500868   -1.551992   -1.263189
      6          1           0       -1.500868   -1.551992    1.263189
      7          1           0        0.317997   -1.569781    1.261332
      8         14           0        0.900576    1.178238    0.000000
      9          1           0       -1.546140    0.574348    0.000000
     10          1           0        0.957478    2.035581    1.213803
     11          1           0        0.957478    2.035581   -1.213803
 ---------------------------------------------------------------------

 SCF Done:  E(UHF) =  -406.704613545     A.U. after    2 cycles

 The electronic state is 2-A'.
 Alpha  occ. eigenvalues --  -69.53128 -11.24414 -11.24352 -11.23360  -6.20257
 Alpha  occ. eigenvalues --   -3.96237  -3.95311  -3.95306  -1.14127  -0.83824
 Alpha  occ. eigenvalues --   -0.82873  -0.72504  -0.66991  -0.61523  -0.52744
 Alpha  occ. eigenvalues --   -0.49949  -0.48839  -0.42550  -0.42483  -0.32809
 Alpha virt. eigenvalues --    0.03721   0.03987   0.04424   0.04650   0.06264
 Alpha virt. eigenvalues --    0.06591   0.07868   0.08041   0.08631   0.11206
 Alpha virt. eigenvalues --    0.13003   0.13080   0.13530   0.14472   0.15981

  Beta  occ. eigenvalues --  -69.52572 -11.24408 -11.24346 -11.23341  -6.19417
  Beta  occ. eigenvalues --   -3.94928  -3.94921  -3.94084  -1.14014  -0.82857
  Beta  occ. eigenvalues --   -0.82841  -0.69671  -0.66519  -0.60466  -0.52725
  Beta  occ. eigenvalues --   -0.49180  -0.48075  -0.42342  -0.42257
  Beta virt. eigenvalues --    0.02617   0.03778   0.04458   0.04505   0.05574
  Beta virt. eigenvalues --    0.06431   0.06641   0.08081   0.08382   0.09651
  Beta virt. eigenvalues --    0.11522   0.13120   0.13184   0.14020   0.15011

 Mulliken charges and spin densities:
               1          2
     1  C   -0.106657  -0.067823
     2  C    0.214037   0.033493
     3  C    0.214037   0.033493
     4  H   -0.109456  -0.000155
     5  H   -0.098285  -0.000749
     6  H   -0.098285  -0.000749
     7  H   -0.109456  -0.000155
     8  Si   0.536719   0.985438
     9  H   -0.124360   0.001735
    10  H   -0.159147   0.007735
    11  H   -0.159147   0.007735
 Sum of Mulliken charges =  -0.00000   1.00000

 Dipole moment (field-independent basis, Debye):
    X=             -0.8059    Y=             -0.5835    Z=              0.0000  Tot=              0.9949
                          Isotropic Fermi Contact Couplings
        Atom                 a.u.       MegaHertz       Gauss      10(-4) cm-1
     1  C(13)              0.00217       2.44022       0.87073       0.81397
     2  C(13)              0.00276       3.09731       1.10520       1.03315
     3  C(13)              0.00276       3.09731       1.10520       1.03315
     4  H(1)              -0.00030      -1.34093      -0.47848      -0.44729
     5  H(1)              -0.00028      -1.25763      -0.44875      -0.41950
     6  H(1)              -0.00028      -1.25763      -0.44875      -0.41950
     7  H(1)              -0.00030      -1.34093      -0.47848      -0.44729
     8  Si(29)             0.55959    -497.32165    -177.45673    -165.88865

 Normal termination of Gaussian 16 at Wed Apr  9 00:46:04 2025.
