 Gaussian 16, Revision C.01,

 ----------------------------------------------------------------------
 #t hf aug-cc-pvdz symm=none int=(grid=ultrafine) guess=(read,tcheck) s
 table=(opt,rrhf)
 ----------------------------------------------------------------------
 -----
 title
 -----
 Symbolic Z-matrix:
 Charge =  0 Multiplicity = 1

 SCF Done:  E(RHF) =  -464.881879484     A.U. after   13 cycles
 Normal termination of Gaussian 16 at Tue Apr  8 23:19:49 2025.
 Gaussian 16:  ES64L-G16RevC.01  3-Jul-2019

 ----------------------------------------------------------------------
 #t hf aug-cc-pvdz iop(5/13=1,5/36=2,99/5=2) pseudo=read geom=check gue
 ss=(read,tcheck) scf=(maxcycle=1)
 ----------------------------------------------------------------------
 -----
 title
 -----
 Structure from the checkpoint file:  "BDE49_nonexpt_1113_mol1.chk"
 Charge =  0 Multiplicity = 1

                         Standard orientation:
 ---------------------------------------------------------------------
 Center     Atomic      Atomic             Coordinates (Angstroms)
 Number     Number       Type             X           Y           Z
 ---------------------------------------------------------------------
      1          9           0       -1.506917   -0.348368    0.000056
      2          8           0       -0.513775    0.713300   -0.000036
      3         14           0        0.969456   -0.121830   -0.000013
      4          1           0        1.102463   -0.946836   -1.214393
      5          1           0        1.895094    1.028047   -0.000111
      6          1           0        1.102518   -0.946674    1.214470
 ---------------------------------------------------------------------

 SCF Done:  E(RHF) =  -465.077050089     A.U. after    2 cycles

 The electronic state is 1-A.
 Alpha  occ. eigenvalues --  -69.59042 -26.51117 -20.66123  -6.25730  -4.01225
 Alpha  occ. eigenvalues --   -4.01061  -4.01008  -1.64862  -1.33935  -0.79319
 Alpha  occ. eigenvalues --   -0.69858  -0.68304  -0.65671  -0.55385  -0.55269
 Alpha  occ. eigenvalues --   -0.51837  -0.48970
 Alpha virt. eigenvalues --    0.03697   0.05058   0.05619   0.05806   0.08480
 Alpha virt. eigenvalues --    0.08920   0.11749   0.14031   0.15745   0.17909
 Alpha virt. eigenvalues --    0.18357   0.20538   0.24001   0.24374   0.26900

 Mulliken charges:
               1
     1  F   -0.392031
     2  O   -0.481440
     3  Si   1.503830
     4  H   -0.223768
     5  H   -0.182822
     6  H   -0.223768
 Sum of Mulliken charges =   0.00000

 Dipole moment (field-independent basis, Debye):
    X=              2.2756    Y=             -0.5242    Z=             -0.0000  Tot=              2.3352

 Test job not archived.
 1\1\GINC-SE100\SP\RHF\Aug-CC-pVDZ\F1H3O1Si1\OHZDE\08-Apr-2025\0\\#t hf
  aug-cc-pvdz iop(5/13=1,5/36=2,99/5=2) pseudo=read geom=check guess=(r
 ead,tcheck) scf=(maxcycle=1)\\title\\0,1\F,0,-1.506917,-0.348368,0.000
 056\O,0,-0.513775,0.7133,-0.000036\Si,0,0.969456,-0.12183,-0.000013\H,
 0,1.102463,-0.946836,-1.214393\H,0,1.895094,1.028047,-0.000111\H,0,1.1
 02518,-0.946674,1.21447\\Version=ES64L-G16RevC.01\State=1-A\HF=-465.07
 70501\RMSD=4.379e-03\Dipole=0.8953081,-0.2062296,-0.0000048\Quadrupole
 =0.0130342,-0.1201777,0.1071434,0.0618682,-0.0000001,0.0000127\PG=C01

 Normal termination of Gaussian 16 at Tue Apr  8 23:19:50 2025.
