 Gaussian 16, Revision C.01,

 ----------------------------------------------------------------------
 #t hf aug-cc-pvdz symm=none int=(grid=ultrafine) guess=(read,tcheck) s
 table=(opt,rrhf)
 ----------------------------------------------------------------------
 -----
 title
 -----
 Symbolic Z-matrix:
 Charge =  0 Multiplicity = 1

 SCF Done:  E(RHF) =  -684.197628340     A.U. after   19 cycles
 Normal termination of Gaussian 16 at Tue Apr  8 23:05:25 2025.
 Gaussian 16:  ES64L-G16RevC.01  3-Jul-2019

 ----------------------------------------------------------------------
 #t hf aug-cc-pvdz iop(5/13=1,5/36=2,99/5=2) pseudo=read geom=check gue
 ss=(read,tcheck) scf=(maxcycle=1)
 ----------------------------------------------------------------------
 -----
 title
 -----
 Structure from the checkpoint file:  "BDE49_expt_1767_mol1.chk"
 Charge =  0 Multiplicity = 1

                         Standard orientation:
 ---------------------------------------------------------------------
 Center     Atomic      Atomic             Coordinates (Angstroms)
 Number     Number       Type             X           Y           Z
 ---------------------------------------------------------------------
      1          6           0        3.644517   -0.808882   -0.203717
      2          6           0        3.018746   -2.055245   -0.097149
      3          6           0        1.638526   -2.153042    0.062055
      4          6           0        2.912446    0.377647   -0.153223
      5          6           0        1.534505    0.265880    0.008506
      6          6           0        0.881202   -0.982155    0.115181
      7          1           0        4.719985   -0.758415   -0.327200
      8          1           0        3.617780   -2.957823   -0.139020
      9          1           0        1.164809   -3.124508    0.144377
     10          1           0        3.389829    1.340676   -0.234074
     11          6           0       -0.546270   -0.738956    0.268532
     12          6           0       -0.740644    0.607351    0.255766
     13          7           0        0.521058    1.242670    0.096146
     14          7           0        0.613202    2.597746    0.034603
     15          8           0        1.736033    3.032079   -0.102102
     16          6           0       -1.596267   -1.800105    0.445185
     17          6           0       -2.845054   -1.651307   -0.441809
     18          1           0       -1.910593   -1.833374    1.497706
     19          1           0       -1.142824   -2.774286    0.242289
     20          6           0       -3.745182   -0.447951   -0.124204
     21          1           0       -3.442347   -2.563038   -0.332148
     22          1           0       -2.535104   -1.608294   -1.492477
     23          6           0       -3.169594    0.934278   -0.465555
     24          1           0       -4.018889   -0.472274    0.939372
     25          1           0       -4.682315   -0.570042   -0.678083
     26          6           0       -1.998737    1.407073    0.414074
     27          1           0       -3.971128    1.673865   -0.366448
     28          1           0       -2.859216    0.953027   -1.516549
     29          1           0       -1.778551    2.451329    0.194117
     30          1           0       -2.308672    1.376098    1.467860
 ---------------------------------------------------------------------

 SCF Done:  E(RHF) =  -684.892873575     A.U. after    2 cycles

 The electronic state is 1-A.
 Alpha  occ. eigenvalues --  -20.59594 -15.68712 -15.59346 -11.28949 -11.28482
 Alpha  occ. eigenvalues --  -11.25111 -11.25074 -11.24890 -11.24856 -11.24612
 Alpha  occ. eigenvalues --  -11.24520 -11.24439 -11.24308 -11.24149 -11.23813
 Alpha  occ. eigenvalues --  -11.23695  -1.59919  -1.33504  -1.17440  -1.13194
 Alpha  occ. eigenvalues --   -1.09281  -1.05264  -1.04342  -1.00572  -0.96568
 Alpha  occ. eigenvalues --   -0.91781  -0.88973  -0.84028  -0.82076  -0.79275
 Alpha  occ. eigenvalues --   -0.78337  -0.75667  -0.71715  -0.69817  -0.66976
 Alpha  occ. eigenvalues --   -0.65993  -0.65449  -0.63234  -0.62793  -0.62008
 Alpha  occ. eigenvalues --   -0.60860  -0.59254  -0.59005  -0.55728  -0.55230
 Alpha  occ. eigenvalues --   -0.53843  -0.52724  -0.51712  -0.50588  -0.48809
 Alpha  occ. eigenvalues --   -0.47975  -0.47377  -0.47260  -0.44149  -0.39482
 Alpha  occ. eigenvalues --   -0.33595  -0.30500
 Alpha virt. eigenvalues --    0.02732   0.03099   0.03325   0.03466   0.04177
 Alpha virt. eigenvalues --    0.04551   0.04741   0.05713   0.05831   0.06741
 Alpha virt. eigenvalues --    0.06971   0.07270   0.08882   0.08940   0.09545

 Mulliken charges:
               1
     1  C   -0.077838
     2  C   -0.119713
     3  C    1.197848
     4  C    0.455233
     5  C   -0.848247
     6  C    0.345585
     7  H   -0.258041
     8  H   -0.277562
     9  H   -0.283653
    10  H   -0.231861
    11  C    1.139331
    12  C   -1.815100
    13  N    0.520507
    14  N    1.517611
    15  O   -1.142791
    16  C   -0.565164
    17  C   -0.245512
    18  H    0.224268
    19  H    0.105280
    20  C   -0.269310
    21  H    0.112978
    22  H    0.122077
    23  C   -0.201283
    24  H    0.183653
    25  H    0.112149
    26  C   -0.309537
    27  H    0.124312
    28  H    0.159560
    29  H    0.083670
    30  H    0.241548
 Sum of Mulliken charges =  -0.00000

 Dipole moment (field-independent basis, Debye):
    X=             -1.8374    Y=             -2.4748    Z=              0.1640  Tot=              3.0867

 Test job not archived.
 1\1\GINC-SE252\SP\RHF\Aug-CC-pVDZ\C13H14N2O1\OHZDE\08-Apr-2025\0\\#t h
 f aug-cc-pvdz iop(5/13=1,5/36=2,99/5=2) pseudo=read geom=check guess=(
 read,tcheck) scf=(maxcycle=1)\\title\\0,1\C,0,3.644517,-0.808882,-0.20
 3717\C,0,3.018746,-2.055245,-0.097149\C,0,1.638526,-2.153042,0.062055\
 C,0,2.912446,0.377647,-0.153223\C,0,1.534505,0.26588,0.008506\C,0,0.88
 1202,-0.982155,0.115181\H,0,4.719985,-0.758415,-0.3272\H,0,3.61778,-2.
 957823,-0.13902\H,0,1.164809,-3.124508,0.144377\H,0,3.389829,1.340676,
 -0.234074\C,0,-0.54627,-0.738956,0.268532\C,0,-0.740644,0.607351,0.255

 Normal termination of Gaussian 16 at Tue Apr  8 23:06:04 2025.
