 Gaussian 16, Revision C.01,

 ----------------------------------------------------------------------
 #t hf aug-cc-pvdz symm=none int=(grid=ultrafine) guess=(read,tcheck) s
 table=(opt,rrhf)
 ----------------------------------------------------------------------
 -----
 title
 -----
 Symbolic Z-matrix:
 Charge =  0 Multiplicity = 1

 SCF Done:  E(RHF) =  -654.114636390     A.U. after   12 cycles

 1\1\GINC-SE039\Stability\RHF\Aug-CC-pVDZ\C5H9Cl1\OHZDE\08-Apr-2025\0\\
 #t hf aug-cc-pvdz symm=none int=(grid=ultrafine) guess=(read,tcheck) s
 table=(opt,rrhf)\\title\\0,1\C,0,0.216654,-0.88151,0.\C,0,0.781708,-0.
 127925,1.202477\C,0,0.781708,-0.127925,-1.202477\C,0,0.781708,1.359568
 ,0.77907\H,0,1.808149,-0.482969,1.353621\H,0,0.229496,-0.322639,2.1220
 65\C,0,0.781708,1.359568,-0.77907\H,0,1.643618,1.887564,1.191705\H,0,-
 0.110928,1.860226,1.157853\H,0,0.229496,-0.322639,-2.122065\H,0,1.8081
 49,-0.482969,-1.353621\H,0,-0.110928,1.860226,-1.157853\H,0,1.643618,1

 Normal termination of Gaussian 16 at Tue Apr  8 22:48:56 2025.
 Gaussian 16:  ES64L-G16RevC.01  3-Jul-2019

 ----------------------------------------------------------------------
 #t hf aug-cc-pvdz iop(5/13=1,5/36=2,99/5=2) pseudo=read geom=check gue
 ss=(read,tcheck) scf=(maxcycle=1)
 ----------------------------------------------------------------------
 -----
 title
 -----
 Structure from the checkpoint file:  "BDE49_expt_1669_mol1.chk"
 Charge =  0 Multiplicity = 1

                         Standard orientation:
 ---------------------------------------------------------------------
 Center     Atomic      Atomic             Coordinates (Angstroms)
 Number     Number       Type             X           Y           Z
 ---------------------------------------------------------------------
      1          6           0        0.216654   -0.881510    0.000000
      2          6           0        0.781708   -0.127925    1.202477
      3          6           0        0.781708   -0.127925   -1.202477
      4          6           0        0.781708    1.359568    0.779070
      5          1           0        1.808149   -0.482969    1.353621
      6          1           0        0.229496   -0.322639    2.122065
      7          6           0        0.781708    1.359568   -0.779070
      8          1           0        1.643618    1.887564    1.191705
      9          1           0       -0.110928    1.860226    1.157853
     10          1           0        0.229496   -0.322639   -2.122065
     11          1           0        1.808149   -0.482969   -1.353621
     12          1           0       -0.110928    1.860226   -1.157853
     13          1           0        1.643618    1.887564   -1.191705
     14         17           0       -1.625276   -0.789800    0.000000
     15          1           0        0.428114   -1.948419    0.000000
 ---------------------------------------------------------------------

 SCF Done:  E(RHF) =  -654.405852429     A.U. after    2 cycles

 The electronic state is 1-A'.
 Alpha  occ. eigenvalues -- -105.54236 -11.30366 -11.24192 -11.24161 -11.23324
 Alpha  occ. eigenvalues --  -11.23316 -10.59043  -7.75966  -7.75624  -7.75624
 Alpha  occ. eigenvalues --   -1.15405  -1.03987  -0.97913  -0.94484  -0.79265
 Alpha  occ. eigenvalues --   -0.77610  -0.68716  -0.66380  -0.60244  -0.57905
 Alpha  occ. eigenvalues --   -0.52828  -0.52073  -0.49856  -0.49089  -0.48340
 Alpha  occ. eigenvalues --   -0.47356  -0.43428  -0.42920
 Alpha virt. eigenvalues --    0.03289   0.03860   0.04126   0.04621   0.06190
 Alpha virt. eigenvalues --    0.06319   0.06631   0.06768   0.09550   0.09678
 Alpha virt. eigenvalues --    0.12734   0.13831   0.14177   0.14839   0.15086

 Mulliken charges:
               1
     1  C   -0.429406
     2  C   -0.102990
     3  C   -0.102990
     4  C   -0.181542
     5  H    0.165924
     6  H    0.103527
     7  C   -0.181542
     8  H    0.117563
     9  H    0.135230
    10  H    0.103527
    11  H    0.165924
    12  H    0.135230
    13  H    0.117563
    14  Cl  -0.143751
    15  H    0.097733
 Sum of Mulliken charges =  -0.00000

 Dipole moment (field-independent basis, Debye):
    X=              2.5900    Y=              0.2727    Z=             -0.0000  Tot=              2.6043

 Test job not archived.
 1\1\GINC-SE039\SP\RHF\Aug-CC-pVDZ\C5H9Cl1\OHZDE\08-Apr-2025\0\\#t hf a
 ug-cc-pvdz iop(5/13=1,5/36=2,99/5=2) pseudo=read geom=check guess=(rea
 d,tcheck) scf=(maxcycle=1)\\title\\0,1\C,0,0.216654,-0.88151,0.\C,0,0.
 781708,-0.127925,1.202477\C,0,0.781708,-0.127925,-1.202477\C,0,0.78170
 8,1.359568,0.77907\H,0,1.808149,-0.482969,1.353621\H,0,0.229496,-0.322
 639,2.122065\C,0,0.781708,1.359568,-0.77907\H,0,1.643618,1.887564,1.19
 1705\H,0,-0.110928,1.860226,1.157853\H,0,0.229496,-0.322639,-2.122065\
 H,0,1.808149,-0.482969,-1.353621\H,0,-0.110928,1.860226,-1.157853\H,0,

 Normal termination of Gaussian 16 at Tue Apr  8 22:49:04 2025.
