 Gaussian 16, Revision C.01,

 ----------------------------------------------------------------------
 #t hf aug-cc-pvdz symm=none int=(grid=ultrafine) guess=(read,tcheck) s
 table=(opt,rrhf)
 ----------------------------------------------------------------------
 -----
 title
 -----
 Symbolic Z-matrix:
 Charge =  0 Multiplicity = 1

 SCF Done:  E(RHF) =  -776.819422554     A.U. after   13 cycles
 Normal termination of Gaussian 16 at Wed Apr  9 00:51:06 2025.
 Gaussian 16:  ES64L-G16RevC.01  3-Jul-2019

 ----------------------------------------------------------------------
 #t hf aug-cc-pvdz iop(5/13=1,5/36=2,99/5=2) pseudo=read geom=check gue
 ss=(read,tcheck) scf=(maxcycle=1)
 ----------------------------------------------------------------------
 -----
 title
 -----
 Structure from the checkpoint file:  "BDE49_nonexpt_918_mol1.chk"
 Charge =  0 Multiplicity = 1

                         Standard orientation:
 ---------------------------------------------------------------------
 Center     Atomic      Atomic             Coordinates (Angstroms)
 Number     Number       Type             X           Y           Z
 ---------------------------------------------------------------------
      1          5           0       -1.723294    0.183234   -0.111093
      2         16           0       -0.606503   -1.186370    0.237447
      3          9           0       -1.467439    1.436189    0.251160
      4          9           0       -2.867969   -0.059437   -0.735656
      5          6           0        0.827352   -0.291061    1.025024
      6          6           0        1.805944    0.266320    0.026338
      7          6           0        1.933425    1.584570   -0.131979
      8          6           0        2.624240   -0.733577   -0.747297
      9          1           0        2.644512    2.002356   -0.836188
     10          1           0        1.329930    2.286767    0.431667
     11          1           0        3.297261   -0.239221   -1.449087
     12          1           0        3.226693   -1.351231   -0.071213
     13          1           0        1.979957   -1.415066   -1.311906
     14          1           0        1.294924   -1.052392    1.653624
     15          1           0        0.420141    0.486259    1.667361
 ---------------------------------------------------------------------

 SCF Done:  E(RHF) =  -777.249309428     A.U. after    2 cycles

 The electronic state is 1-A.
 Alpha  occ. eigenvalues --  -93.95930 -26.48593 -26.48192 -11.29082 -11.26206
 Alpha  occ. eigenvalues --  -11.24098 -11.23809  -8.24255  -7.74551  -6.22047
 Alpha  occ. eigenvalues --   -6.21896  -6.21745  -1.63539  -1.59623  -1.12731
 Alpha  occ. eigenvalues --   -1.04527  -0.95092  -0.91508  -0.80492  -0.75089
 Alpha  occ. eigenvalues --   -0.74383  -0.70975  -0.69957  -0.65142  -0.64834
 Alpha  occ. eigenvalues --   -0.63837  -0.62956  -0.59459  -0.57053  -0.54363
 Alpha  occ. eigenvalues --   -0.53425  -0.51563  -0.46934  -0.39782  -0.36926
 Alpha virt. eigenvalues --    0.03365   0.03702   0.04047   0.04843   0.05777
 Alpha virt. eigenvalues --    0.05954   0.06503   0.06955   0.07981   0.09354
 Alpha virt. eigenvalues --    0.10261   0.10997   0.11966   0.12918   0.13449

 Mulliken charges:
               1
     1  B    1.667633
     2  S   -0.148098
     3  F   -0.516612
     4  F   -0.766518
     5  C   -0.562511
     6  C    0.498115
     7  C    0.194801
     8  C   -0.818529
     9  H   -0.139952
    10  H   -0.157396
    11  H    0.088154
    12  H    0.236582
    13  H    0.253779
    14  H    0.159801
    15  H    0.010752
 Sum of Mulliken charges =  -0.00000

 Dipole moment (field-independent basis, Debye):
    X=              2.1592    Y=              0.0917    Z=              0.7438  Tot=              2.2855

 Test job not archived.
 1\1\GINC-SE015\SP\RHF\Aug-CC-pVDZ\C4H7B1F2S1\OHZDE\09-Apr-2025\0\\#t h
 f aug-cc-pvdz iop(5/13=1,5/36=2,99/5=2) pseudo=read geom=check guess=(
 read,tcheck) scf=(maxcycle=1)\\title\\0,1\B,0,-1.723294,0.183234,-0.11
 1093\S,0,-0.606503,-1.18637,0.237447\F,0,-1.467439,1.436189,0.25116\F,
 0,-2.867969,-0.059437,-0.735656\C,0,0.827352,-0.291061,1.025024\C,0,1.
 805944,0.26632,0.026338\C,0,1.933425,1.58457,-0.131979\C,0,2.62424,-0.
 733577,-0.747297\H,0,2.644512,2.002356,-0.836188\H,0,1.32993,2.286767,
 0.431667\H,0,3.297261,-0.239221,-1.449087\H,0,3.226693,-1.351231,-0.07

 Normal termination of Gaussian 16 at Wed Apr  9 00:51:13 2025.
