 Gaussian 16, Revision C.01,

 ----------------------------------------------------------------------
 #t hf aug-cc-pvdz symm=none int=(grid=ultrafine) guess=(read,tcheck) s
 table=(opt,rrhf)
 ----------------------------------------------------------------------
 -----
 title
 -----
 Symbolic Z-matrix:
 Charge =  0 Multiplicity = 1

 SCF Done:  E(RHF) =  -780.046836201     A.U. after   17 cycles
 Normal termination of Gaussian 16 at Tue Apr  8 23:13:27 2025.
 Gaussian 16:  ES64L-G16RevC.01  3-Jul-2019

 ----------------------------------------------------------------------
 #t hf aug-cc-pvdz iop(5/13=1,5/36=2,99/5=2) pseudo=read geom=check gue
 ss=(read,tcheck) scf=(maxcycle=1)
 ----------------------------------------------------------------------
 -----
 title
 -----
 Structure from the checkpoint file:  "BDE49_expt_795_mol1.chk"
 Charge =  0 Multiplicity = 1

                         Standard orientation:
 ---------------------------------------------------------------------
 Center     Atomic      Atomic             Coordinates (Angstroms)
 Number     Number       Type             X           Y           Z
 ---------------------------------------------------------------------
      1          6           0       -1.212550    1.095760   -0.036465
      2          6           0       -2.206746    0.113737    0.015978
      3          6           0       -1.856092   -1.237726    0.038091
      4          6           0       -0.516614   -1.614673    0.015948
      5          6           0        0.470885   -0.634159   -0.035420
      6          6           0        0.126212    0.721150   -0.064612
      7          6           0        1.318464    1.642028   -0.190237
      8          6           0        2.530769    0.862155    0.341709
      9          1           0        1.184296    2.580493    0.354842
     10          1           0        1.470985    1.892998   -1.247590
     11         16           0        2.231260   -0.906817   -0.092087
     12          1           0        2.602065    0.940537    1.428470
     13          1           0        3.473070    1.179244   -0.103713
     14          1           0       -1.487137    2.147448   -0.055541
     15          1           0       -2.644122   -1.979158    0.085086
     16          1           0       -0.252697   -2.665172    0.046594
     17          8           0       -3.540589    0.418543    0.053299
     18          1           0       -3.647879    1.374693    0.028888
 ---------------------------------------------------------------------

 SCF Done:  E(RHF) =  -780.497116665     A.U. after    2 cycles

 The electronic state is 1-A.
 Alpha  occ. eigenvalues --  -93.94773 -20.58252 -11.31168 -11.27639 -11.26350
 Alpha  occ. eigenvalues --  -11.25811 -11.25694 -11.25319 -11.24748 -11.23993
 Alpha  occ. eigenvalues --   -8.22865  -6.20666  -6.20559  -6.20307  -1.49489
 Alpha  occ. eigenvalues --   -1.18399  -1.10572  -1.04333  -0.99407  -0.96479
 Alpha  occ. eigenvalues --   -0.87017  -0.81804  -0.80560  -0.73611  -0.69818
 Alpha  occ. eigenvalues --   -0.65778  -0.64682  -0.61193  -0.60101  -0.59142
 Alpha  occ. eigenvalues --   -0.58212  -0.54740  -0.53886  -0.51169  -0.50293
 Alpha  occ. eigenvalues --   -0.49250  -0.45400  -0.39146  -0.35311  -0.29116
 Alpha virt. eigenvalues --    0.02810   0.03403   0.04191   0.04349   0.05016
 Alpha virt. eigenvalues --    0.05643   0.06440   0.07956   0.09353   0.09681
 Alpha virt. eigenvalues --    0.10278   0.10969   0.12172   0.12592   0.12892

 Mulliken charges:
               1
     1  C    0.419627
     2  C    1.321347
     3  C    0.359112
     4  C    0.274049
     5  C   -0.235159
     6  C    0.271301
     7  C   -0.844330
     8  C   -0.497116
     9  H    0.186000
    10  H    0.261035
    11  S    0.306188
    12  H    0.174740
    13  H    0.167297
    14  H   -0.323351
    15  H   -0.244890
    16  H   -0.199099
    17  O   -1.802092
    18  H    0.405341
 Sum of Mulliken charges =  -0.00000

 Dipole moment (field-independent basis, Debye):
    X=             -0.0125    Y=              3.0098    Z=              0.2526  Tot=              3.0204

 Test job not archived.
 1\1\GINC-SE120\SP\RHF\Aug-CC-pVDZ\C8H8O1S1\OHZDE\08-Apr-2025\0\\#t hf
 aug-cc-pvdz iop(5/13=1,5/36=2,99/5=2) pseudo=read geom=check guess=(re
 ad,tcheck) scf=(maxcycle=1)\\title\\0,1\C,0,-1.21255,1.09576,-0.036465
 \C,0,-2.206746,0.113737,0.015978\C,0,-1.856092,-1.237726,0.038091\C,0,
 -0.516614,-1.614673,0.015948\C,0,0.470885,-0.634159,-0.03542\C,0,0.126
 212,0.72115,-0.064612\C,0,1.318464,1.642028,-0.190237\C,0,2.530769,0.8
 62155,0.341709\H,0,1.184296,2.580493,0.354842\H,0,1.470985,1.892998,-1
 .24759\S,0,2.23126,-0.906817,-0.092087\H,0,2.602065,0.940537,1.42847\H

 Normal termination of Gaussian 16 at Tue Apr  8 23:13:38 2025.
