 Gaussian 16, Revision C.01,

 ----------------------------------------------------------------------
 #t hf aug-cc-pvdz symm=none int=(grid=ultrafine) guess=(read,tcheck) s
 table=(opt,rrhf)
 ----------------------------------------------------------------------
 -----
 title
 -----
 Symbolic Z-matrix:
 Charge =  0 Multiplicity = 1

 SCF Done:  E(RHF) =  -750.687144632     A.U. after   13 cycles
 Normal termination of Gaussian 16 at Wed Apr  9 00:46:51 2025.
 Gaussian 16:  ES64L-G16RevC.01  3-Jul-2019

 ----------------------------------------------------------------------
 #t hf aug-cc-pvdz iop(5/13=1,5/36=2,99/5=2) pseudo=read geom=check gue
 ss=(read,tcheck) scf=(maxcycle=1)
 ----------------------------------------------------------------------
 -----
 title
 -----
 Structure from the checkpoint file:  "BDE49_nonexpt_757_mol1.chk"
 Charge =  0 Multiplicity = 1

                         Standard orientation:
 ---------------------------------------------------------------------
 Center     Atomic      Atomic             Coordinates (Angstroms)
 Number     Number       Type             X           Y           Z
 ---------------------------------------------------------------------
      1          6           0       -2.921859   -0.674372    0.534558
      2          6           0       -1.583128   -1.336815    0.172939
      3          6           0       -3.191955    0.566401   -0.326812
      4          1           0       -2.903443   -0.382695    1.592639
      5          1           0       -3.735739   -1.398769    0.425727
      6          6           0       -2.029477    1.564113   -0.242672
      7          1           0       -4.126956    1.045681   -0.018990
      8          1           0       -3.328753    0.257719   -1.371532
      9          6           0       -0.686311    0.907286   -0.603244
     10          1           0       -1.970095    1.965363    0.777165
     11          1           0       -2.212367    2.418911   -0.902394
     12          6           0       -0.409173   -0.340241    0.254460
     13          1           0        0.124589    1.629519   -0.480579
     14          1           0       -0.698854    0.616068   -1.661761
     15          1           0       -1.644903   -1.736942   -0.848027
     16          1           0       -1.394434   -2.191716    0.829136
     17          5           0        2.528741    0.192133    0.121680
     18          8           0        2.323916    1.110258    1.107951
     19          8           0        3.704827    0.252881   -0.579108
     20          1           0        3.790096   -0.416683   -1.262503
     21          1           0        3.073208    1.711695    1.199872
     22         15           0        1.213542   -1.219943   -0.108247
     23          1           0       -0.300580   -0.021151    1.299271
     24          1           0        1.182870   -1.181861   -1.528837
 ---------------------------------------------------------------------

 SCF Done:  E(RHF) =  -751.162373272     A.U. after    2 cycles

 The electronic state is 1-A.
 Alpha  occ. eigenvalues --  -84.24576 -20.56662 -20.55967 -11.24019 -11.22724
 Alpha  occ. eigenvalues --  -11.22630 -11.22419 -11.22387 -11.22341  -7.65270
 Alpha  occ. eigenvalues --   -6.71899  -4.24700  -4.24474  -4.23903  -1.48773
 Alpha  occ. eigenvalues --   -1.44422  -1.11834  -1.01180  -1.00256  -0.87188
 Alpha  occ. eigenvalues --   -0.83552  -0.79965  -0.76732  -0.75354  -0.72732
 Alpha  occ. eigenvalues --   -0.65093  -0.61689  -0.61139  -0.60554  -0.58229
 Alpha  occ. eigenvalues --   -0.57657  -0.56321  -0.53531  -0.53364  -0.51180
 Alpha  occ. eigenvalues --   -0.49843  -0.49001  -0.48553  -0.45846  -0.45045
 Alpha  occ. eigenvalues --   -0.44091  -0.40160  -0.31905
 Alpha virt. eigenvalues --    0.03179   0.03465   0.03642   0.03900   0.04973
 Alpha virt. eigenvalues --    0.05312   0.05734   0.06168   0.06439   0.07740
 Alpha virt. eigenvalues --    0.08086   0.08365   0.09326   0.09397   0.09716

 Mulliken charges:
               1
     1  C   -0.316351
     2  C   -0.244906
     3  C   -0.257621
     4  H    0.151584
     5  H    0.110561
     6  C   -0.305352
     7  H    0.109488
     8  H    0.150336
     9  C   -0.325177
    10  H    0.157290
    11  H    0.099909
    12  C   -0.349998
    13  H    0.058108
    14  H    0.152574
    15  H    0.188754
    16  H    0.090914
    17  B    2.222444
    18  O   -1.296303
    19  O   -1.335322
    20  H    0.524691
    21  H    0.570880
    22  P   -0.487686
    23  H    0.153481
    24  H    0.177702
 Sum of Mulliken charges =   0.00000

 Dipole moment (field-independent basis, Debye):
    X=              0.0867    Y=              0.4876    Z=             -0.8894  Tot=              1.0180

 Test job not archived.
 1\1\GINC-SE457\SP\RHF\Aug-CC-pVDZ\C6H14B1O2P1\OHZDE\09-Apr-2025\0\\#t
 hf aug-cc-pvdz iop(5/13=1,5/36=2,99/5=2) pseudo=read geom=check guess=
 (read,tcheck) scf=(maxcycle=1)\\title\\0,1\C,0,-2.921859,-0.674372,0.5
 34558\C,0,-1.583128,-1.336815,0.172939\C,0,-3.191955,0.566401,-0.32681
 2\H,0,-2.903443,-0.382695,1.592639\H,0,-3.735739,-1.398769,0.425727\C,
 0,-2.029477,1.564113,-0.242672\H,0,-4.126956,1.045681,-0.01899\H,0,-3.
 328753,0.257719,-1.371532\C,0,-0.686311,0.907286,-0.603244\H,0,-1.9700
 95,1.965363,0.777165\H,0,-2.212367,2.418911,-0.902394\C,0,-0.409173,-0

 Normal termination of Gaussian 16 at Wed Apr  9 00:47:07 2025.
