 Gaussian 16, Revision C.01,

 ----------------------------------------------------------------------
 #t hf aug-cc-pvdz symm=none int=(grid=ultrafine) guess=(read,tcheck) s
 table=(opt,rrhf)
 ----------------------------------------------------------------------
 -----
 title
 -----
 Symbolic Z-matrix:
 Charge =  0 Multiplicity = 1

 SCF Done:  E(RHF) =  -867.353966514     A.U. after   12 cycles
 Normal termination of Gaussian 16 at Tue Apr  8 23:44:27 2025.
 Gaussian 16:  ES64L-G16RevC.01  3-Jul-2019

 ----------------------------------------------------------------------
 #t hf aug-cc-pvdz iop(5/13=1,5/36=2,99/5=2) pseudo=read geom=check gue
 ss=(read,tcheck) scf=(maxcycle=1)
 ----------------------------------------------------------------------
 -----
 title
 -----
 Structure from the checkpoint file:  "BDE49_nonexpt_1729_mol1.chk"
 Charge =  0 Multiplicity = 1

                         Standard orientation:
 ---------------------------------------------------------------------
 Center     Atomic      Atomic             Coordinates (Angstroms)
 Number     Number       Type             X           Y           Z
 ---------------------------------------------------------------------
      1         14           0       -0.918808    0.922580    0.137009
      2          6           0        0.854799    0.684071   -0.412365
      3          6           0        1.672677   -0.340214    0.395646
      4         17           0       -1.994915   -0.859141   -0.084462
      5          6           0        3.118918   -0.468060   -0.093700
      6          1           0        3.647354    0.487535   -0.020945
      7          1           0        3.153520   -0.787492   -1.139686
      8          1           0        3.673325   -1.202056    0.497526
      9          1           0        1.331027    1.673526   -0.357755
     10          1           0        0.848734    0.411788   -1.474836
     11          1           0        1.183837   -1.318331    0.343106
     12          1           0        1.671699   -0.056040    1.454143
     13          1           0       -1.605563    1.937811   -0.687866
     14          1           0       -1.005435    1.287763    1.566553
 ---------------------------------------------------------------------

 SCF Done:  E(RHF) =  -867.600183849     A.U. after    2 cycles

 The electronic state is 1-A.
 Alpha  occ. eigenvalues -- -105.55008 -69.57123 -11.24295 -11.23409 -11.23007
 Alpha  occ. eigenvalues --  -10.60003  -7.76888  -7.76591  -7.76585  -6.23831
 Alpha  occ. eigenvalues --   -3.99265  -3.99102  -3.99088  -1.07190  -1.04182
 Alpha  occ. eigenvalues --   -0.94092  -0.82184  -0.71986  -0.64667  -0.59358
 Alpha  occ. eigenvalues --   -0.56964  -0.56276  -0.52554  -0.51862  -0.49447
 Alpha  occ. eigenvalues --   -0.48856  -0.48458  -0.44778  -0.43476
 Alpha virt. eigenvalues --    0.03460   0.03810   0.03961   0.04377   0.06145
 Alpha virt. eigenvalues --    0.06450   0.06691   0.07311   0.08880   0.09704
 Alpha virt. eigenvalues --    0.10064   0.10215   0.12494   0.13910   0.14860

 Mulliken charges:
               1
     1  Si   1.242401
     2  C   -0.569233
     3  C   -0.392053
     4  Cl  -0.593441
     5  C   -0.354834
     6  H    0.161826
     7  H    0.162750
     8  H    0.123025
     9  H    0.110470
    10  H    0.145254
    11  H    0.136019
    12  H    0.118797
    13  H   -0.156609
    14  H   -0.134372
 Sum of Mulliken charges =  -0.00000

 Dipole moment (field-independent basis, Debye):
    X=              1.8709    Y=              1.3264    Z=             -0.0043  Tot=              2.2934

 Test job not archived.
 1\1\GINC-SE250\SP\RHF\Aug-CC-pVDZ\C3H9Cl1Si1\OHZDE\08-Apr-2025\0\\#t h
 f aug-cc-pvdz iop(5/13=1,5/36=2,99/5=2) pseudo=read geom=check guess=(
 read,tcheck) scf=(maxcycle=1)\\title\\0,1\Si,0,-0.918808,0.92258,0.137
 009\C,0,0.854799,0.684071,-0.412365\C,0,1.672677,-0.340214,0.395646\Cl
 ,0,-1.994915,-0.859141,-0.084462\C,0,3.118918,-0.46806,-0.0937\H,0,3.6
 47354,0.487535,-0.020945\H,0,3.15352,-0.787492,-1.139686\H,0,3.673325,
 -1.202056,0.497526\H,0,1.331027,1.673526,-0.357755\H,0,0.848734,0.4117
 88,-1.474836\H,0,1.183837,-1.318331,0.343106\H,0,1.671699,-0.05604,1.4

 Normal termination of Gaussian 16 at Tue Apr  8 23:44:31 2025.
