 Gaussian 16, Revision C.01,

 ----------------------------------------------------------------------
 #t hf aug-cc-pvdz symm=none int=(grid=ultrafine) guess=(read,tcheck) s
 table=(opt,rrhf)
 ----------------------------------------------------------------------
 -----
 title
 -----
 Symbolic Z-matrix:
 Charge =  0 Multiplicity = 1

 SCF Done:  E(RHF) =  -1346.86158424     A.U. after   15 cycles
 Normal termination of Gaussian 16 at Wed Apr  9 00:17:35 2025.
 Gaussian 16:  ES64L-G16RevC.01  3-Jul-2019

 ----------------------------------------------------------------------
 #t hf aug-cc-pvdz iop(5/13=1,5/36=2,99/5=2) pseudo=read geom=check gue
 ss=(read,tcheck) scf=(maxcycle=1)
 ----------------------------------------------------------------------
 -----
 title
 -----
 Structure from the checkpoint file:  "BDE49_nonexpt_2563_mol1.chk"
 Charge =  0 Multiplicity = 1

                         Standard orientation:
 ---------------------------------------------------------------------
 Center     Atomic      Atomic             Coordinates (Angstroms)
 Number     Number       Type             X           Y           Z
 ---------------------------------------------------------------------
      1         17           0        1.988376    0.721934   -0.264477
      2         16           0        0.728588   -0.664900    0.661103
      3          6           0       -1.950819    0.435259    0.021141
      4          7           0       -2.686645    1.265578    0.352146
      5         16           0       -0.934273   -0.819066   -0.542087
 ---------------------------------------------------------------------

 SCF Done:  E(RHF) =  -1347.14186770     A.U. after    2 cycles

 The electronic state is 1-A.
 Alpha  occ. eigenvalues -- -105.61551 -94.07655 -94.06901 -15.55128 -11.32621
 Alpha  occ. eigenvalues --  -10.66232  -8.35199  -8.34737  -7.83170  -7.82705
 Alpha  occ. eigenvalues --   -7.82669  -6.32923  -6.32723  -6.32517  -6.32374
 Alpha  occ. eigenvalues --   -6.32313  -6.32052  -1.26652  -1.19050  -1.09742
 Alpha  occ. eigenvalues --   -0.94560  -0.72287  -0.63481  -0.61355  -0.59845
 Alpha  occ. eigenvalues --   -0.55736  -0.54393  -0.53072  -0.47835  -0.44099
 Alpha  occ. eigenvalues --   -0.42244
 Alpha virt. eigenvalues --    0.00675   0.03214   0.05419   0.07515   0.08431
 Alpha virt. eigenvalues --    0.09251   0.10901   0.11365   0.12589   0.12898
 Alpha virt. eigenvalues --    0.13372   0.14919   0.15422   0.15656   0.16437

 Mulliken charges:
               1
     1  Cl  -0.207173
     2  S    0.260806
     3  C   -1.000848
     4  N    0.502784
     5  S    0.444430
 Sum of Mulliken charges =  -0.00000

 Dipole moment (field-independent basis, Debye):
    X=              2.0346    Y=             -2.8886    Z=             -0.6654  Tot=              3.5953

 Test job not archived.
 1\1\GINC-SE458\SP\RHF\Aug-CC-pVDZ\C1Cl1N1S2\OHZDE\09-Apr-2025\0\\#t hf
  aug-cc-pvdz iop(5/13=1,5/36=2,99/5=2) pseudo=read geom=check guess=(r
 ead,tcheck) scf=(maxcycle=1)\\title\\0,1\Cl,0,1.988376,0.721934,-0.264
 477\S,0,0.728588,-0.6649,0.661103\C,0,-1.950819,0.435259,0.021141\N,0,
 -2.686645,1.265578,0.352146\S,0,-0.934273,-0.819066,-0.542087\\Version
 =ES64L-G16RevC.01\State=1-A\HF=-1347.1418677\RMSD=9.560e-03\Dipole=0.8
 00491,-1.1364617,-0.2617826\Quadrupole=-3.6359164,0.7223416,2.9135748,
 5.0635658,2.4356959,-1.0875261\PG=C01 [X(C1Cl1N1S2)]\\@

 Normal termination of Gaussian 16 at Wed Apr  9 00:17:37 2025.
