 Gaussian 16, Revision C.01,

 ----------------------------------------------------------------------
 #t hf aug-cc-pvdz symm=none int=(grid=ultrafine) guess=(read,tcheck) s
 table=(opt,rrhf)
 ----------------------------------------------------------------------
 -----
 title
 -----
 Symbolic Z-matrix:
 Charge =  0 Multiplicity = 1

 SCF Done:  E(RHF) =  -683.117661228     A.U. after   13 cycles
 Normal termination of Gaussian 16 at Tue Apr  8 23:26:25 2025.
 Gaussian 16:  ES64L-G16RevC.01  3-Jul-2019

 ----------------------------------------------------------------------
 #t hf aug-cc-pvdz iop(5/13=1,5/36=2,99/5=2) pseudo=read geom=check gue
 ss=(read,tcheck) scf=(maxcycle=1)
 ----------------------------------------------------------------------
 -----
 title
 -----
 Structure from the checkpoint file:  "BDE49_nonexpt_1279_mol1.chk"
 Charge =  0 Multiplicity = 1

                         Standard orientation:
 ---------------------------------------------------------------------
 Center     Atomic      Atomic             Coordinates (Angstroms)
 Number     Number       Type             X           Y           Z
 ---------------------------------------------------------------------
      1          6           0        0.718198   -0.952838   -0.164214
      2         15           0       -0.775001    0.034336    0.108817
      3          8           0       -1.064489    0.446900    1.489474
      4          6           0        1.929684   -0.296241    0.437857
      5          6           0        2.937683    0.211217   -0.264552
      6          1           0        0.829559   -1.100680   -1.241117
      7          1           0        0.528193   -1.928229    0.295609
      8          1           0        1.940462   -0.234065    1.522533
      9          1           0        2.954299    0.174057   -1.349425
     10          1           0        3.785578    0.678302    0.222925
     11          8           0       -1.863641   -0.897811   -0.612643
     12          1           0       -2.769162   -0.614115   -0.435630
     13          8           0       -0.651724    1.279936   -0.910902
     14          1           0       -0.518478    2.104662   -0.429138
 ---------------------------------------------------------------------

 SCF Done:  E(RHF) =  -683.512012668     A.U. after    2 cycles

 The electronic state is 1-A.
 Alpha  occ. eigenvalues --  -84.42606 -20.59335 -20.58831 -20.50162 -11.26268
 Alpha  occ. eigenvalues --  -11.26048 -11.24662  -6.87915  -4.42018  -4.41368
 Alpha  occ. eigenvalues --   -4.40638  -1.53099  -1.47242  -1.38557  -1.09551
 Alpha  occ. eigenvalues --   -0.97996  -0.84372  -0.77741  -0.73306  -0.67917
 Alpha  occ. eigenvalues --   -0.66411  -0.64434  -0.61930  -0.60835  -0.57715
 Alpha  occ. eigenvalues --   -0.54872  -0.53793  -0.51950  -0.50702  -0.45476
 Alpha  occ. eigenvalues --   -0.45161  -0.38113
 Alpha virt. eigenvalues --    0.03480   0.03926   0.04666   0.04695   0.05617
 Alpha virt. eigenvalues --    0.06995   0.07371   0.09570   0.10488   0.11325
 Alpha virt. eigenvalues --    0.11961   0.13704   0.14361   0.15230   0.15672

 Mulliken charges:
               1
     1  C   -1.031930
     2  P    4.145166
     3  O   -1.484982
     4  C    0.733714
     5  C   -0.209705
     6  H    0.039012
     7  H    0.165976
     8  H   -0.176259
     9  H   -0.078648
    10  H   -0.079197
    11  O   -1.357532
    12  H    0.367008
    13  O   -1.356412
    14  H    0.323788
 Sum of Mulliken charges =  -0.00000

 Dipole moment (field-independent basis, Debye):
    X=              0.5991    Y=             -0.0151    Z=             -1.8859  Tot=              1.9788

 Test job not archived.
 1\1\GINC-SE336\SP\RHF\Aug-CC-pVDZ\C3H7O3P1\OHZDE\08-Apr-2025\0\\#t hf
 aug-cc-pvdz iop(5/13=1,5/36=2,99/5=2) pseudo=read geom=check guess=(re
 ad,tcheck) scf=(maxcycle=1)\\title\\0,1\C,0,0.718198,-0.952838,-0.1642
 14\P,0,-0.775001,0.034336,0.108817\O,0,-1.064489,0.4469,1.489474\C,0,1
 .929684,-0.296241,0.437857\C,0,2.937683,0.211217,-0.264552\H,0,0.82955
 9,-1.10068,-1.241117\H,0,0.528193,-1.928229,0.295609\H,0,1.940462,-0.2
 34065,1.522533\H,0,2.954299,0.174057,-1.349425\H,0,3.785578,0.678302,0
 .222925\O,0,-1.863641,-0.897811,-0.612643\H,0,-2.769162,-0.614115,-0.4

 Normal termination of Gaussian 16 at Tue Apr  8 23:26:30 2025.
