 Gaussian 16, Revision C.01,

 ----------------------------------------------------------------------
 #t hf aug-cc-pvdz symm=none int=(grid=ultrafine) guess=(read,tcheck) s
 table=(opt,rrhf)
 ----------------------------------------------------------------------
 -----
 title
 -----
 Symbolic Z-matrix:
 Charge =  0 Multiplicity = 1

 SCF Done:  E(RHF) =  -1752.58168343     A.U. after   12 cycles

 1\1\GINC-SE016\Stability\RHF\Aug-CC-pVDZ\C2Cl3F3\OHZDE\08-Apr-2025\0\\
 #t hf aug-cc-pvdz symm=none int=(grid=ultrafine) guess=(read,tcheck) s
 table=(opt,rrhf)\\title\\0,1\C,0,-0.729561,-0.52738,-0.230781\C,0,0.57
 7137,0.14621,0.311548\Cl,0,-2.181669,0.394076,0.235123\F,0,-0.821203,-
 1.761388,0.285439\F,0,-0.66924,-0.628399,-1.563221\Cl,0,0.79777,1.7663
 6,-0.388992\Cl,0,1.977352,-0.892958,-0.0711\F,0,0.471091,0.249775,1.64
 8877\\Version=ES64L-G16RevC.01\HF=-1752.5816834\RMSD=9.570e-09\Dipole=
 0.0498533,0.2003598,-0.0797167\Quadrupole=1.3099477,0.388686,-1.698633

 Normal termination of Gaussian 16 at Tue Apr  8 22:29:27 2025.
 Gaussian 16:  ES64L-G16RevC.01  3-Jul-2019

 ----------------------------------------------------------------------
 #t hf aug-cc-pvdz iop(5/13=1,5/36=2,99/5=2) pseudo=read geom=check gue
 ss=(read,tcheck) scf=(maxcycle=1)
 ----------------------------------------------------------------------
 -----
 title
 -----
 Structure from the checkpoint file:  "BDE49_expt_1005_mol1.chk"
 Charge =  0 Multiplicity = 1

                         Standard orientation:
 ---------------------------------------------------------------------
 Center     Atomic      Atomic             Coordinates (Angstroms)
 Number     Number       Type             X           Y           Z
 ---------------------------------------------------------------------
      1          6           0       -0.729561   -0.527380   -0.230781
      2          6           0        0.577137    0.146210    0.311548
      3         17           0       -2.181669    0.394077    0.235123
      4          9           0       -0.821203   -1.761388    0.285439
      5          9           0       -0.669240   -0.628399   -1.563221
      6         17           0        0.797771    1.766360   -0.388992
      7         17           0        1.977352   -0.892959   -0.071100
      8          9           0        0.471091    0.249775    1.648877
 ---------------------------------------------------------------------

 SCF Done:  E(RHF) =  -1753.14703889     A.U. after    2 cycles

 The electronic state is 1-A.
 Alpha  occ. eigenvalues -- -105.61688-105.61504-105.61353 -26.53770 -26.53634
 Alpha  occ. eigenvalues --  -26.53547 -11.53851 -11.51062 -10.66549 -10.66357
 Alpha  occ. eigenvalues --  -10.66238  -7.83499  -7.83305  -7.83186  -7.83052
 Alpha  occ. eigenvalues --   -7.83044  -7.82861  -7.82850  -7.82747  -7.82737
 Alpha  occ. eigenvalues --   -1.71814  -1.67731  -1.64275  -1.20394  -1.14214
 Alpha  occ. eigenvalues --   -1.09486  -0.99842  -0.89597  -0.83068  -0.81701
 Alpha  occ. eigenvalues --   -0.78728  -0.75127  -0.74003  -0.70045  -0.69328
 Alpha  occ. eigenvalues --   -0.65943  -0.63715  -0.59349  -0.57779  -0.52983
 Alpha  occ. eigenvalues --   -0.52212  -0.51643  -0.50524  -0.50036  -0.48226
 Alpha virt. eigenvalues --    0.06263   0.06953   0.08016   0.09129   0.09936
 Alpha virt. eigenvalues --    0.10812   0.11369   0.12132   0.12687   0.13602
 Alpha virt. eigenvalues --    0.14468   0.16128   0.16833   0.17810   0.18070

 Mulliken charges:
               1
     1  C    1.651699
     2  C    0.379459
     3  Cl  -0.040499
     4  F   -0.670866
     5  F   -0.680488
     6  Cl   0.029677
     7  Cl   0.047132
     8  F   -0.716113
 Sum of Mulliken charges =  -0.00000

 Dipole moment (field-independent basis, Debye):
    X=              0.1132    Y=              0.3393    Z=             -0.1300  Tot=              0.3806

 Test job not archived.
 1\1\GINC-SE016\SP\RHF\Aug-CC-pVDZ\C2Cl3F3\OHZDE\08-Apr-2025\0\\#t hf a
 ug-cc-pvdz iop(5/13=1,5/36=2,99/5=2) pseudo=read geom=check guess=(rea
 d,tcheck) scf=(maxcycle=1)\\title\\0,1\C,0,-0.729561,-0.52738,-0.23078
 1\C,0,0.577137,0.14621,0.311548\Cl,0,-2.181669,0.394076,0.235123\F,0,-
 0.821203,-1.761388,0.285439\F,0,-0.66924,-0.628399,-1.563221\Cl,0,0.79
 777,1.76636,-0.388992\Cl,0,1.977352,-0.892958,-0.0711\F,0,0.471091,0.2
 49775,1.648877\\Version=ES64L-G16RevC.01\State=1-A\HF=-1753.1470389\RM
 SD=4.972e-03\Dipole=0.0445523,0.13348,-0.051144\Quadrupole=1.0444848,0

 Normal termination of Gaussian 16 at Tue Apr  8 22:29:31 2025.
