 Gaussian 16, Revision C.01,

 ----------------------------------------------------------------------
 #t hf aug-cc-pvdz symm=none int=(grid=ultrafine) guess=(read,tcheck) s
 table=(opt,rrhf)
 ----------------------------------------------------------------------
 -----
 title
 -----
 Symbolic Z-matrix:
 Charge =  0 Multiplicity = 1

 SCF Done:  E(RHF) =  -463.439505729     A.U. after   12 cycles
 Normal termination of Gaussian 16 at Tue Apr  8 23:59:42 2025.
 Gaussian 16:  ES64L-G16RevC.01  3-Jul-2019

 ----------------------------------------------------------------------
 #t hf aug-cc-pvdz iop(5/13=1,5/36=2,99/5=2) pseudo=read geom=check gue
 ss=(read,tcheck) scf=(maxcycle=1)
 ----------------------------------------------------------------------
 -----
 title
 -----
 Structure from the checkpoint file:  "BDE49_nonexpt_2098_mol1.chk"
 Charge =  0 Multiplicity = 1

                         Standard orientation:
 ---------------------------------------------------------------------
 Center     Atomic      Atomic             Coordinates (Angstroms)
 Number     Number       Type             X           Y           Z
 ---------------------------------------------------------------------
      1          7           0        2.130404    0.989671   -0.179336
      2         14           0        1.355088   -0.516241    0.151894
      3          1           0        2.306530    1.299585   -1.123467
      4          1           0        2.034960    1.771109    0.451392
      5          6           0       -2.863903    0.224903   -0.098431
      6          6           0       -0.461733   -0.654974   -0.339686
      7          6           0       -1.400354    0.360170    0.335588
      8          1           0       -0.788676   -1.678844   -0.109100
      9          1           0       -0.535536   -0.560302   -1.431763
     10          1           0       -1.052722    1.376880    0.117082
     11          1           0       -1.335860    0.247239    1.424524
     12          1           0       -3.254170   -0.769520    0.139350
     13          1           0       -2.968612    0.370577   -1.178142
     14          1           0       -3.500110    0.961616    0.401163
     15          1           0        1.466501   -0.717660    1.618276
     16          1           0        2.099571   -1.581597   -0.565315
 ---------------------------------------------------------------------

 SCF Done:  E(RHF) =  -463.667457759     A.U. after    2 cycles

 The electronic state is 1-A.
 Alpha  occ. eigenvalues --  -69.52782 -15.47241 -11.23182 -11.22204 -11.21077
 Alpha  occ. eigenvalues --   -6.19591  -3.95007  -3.94968  -3.94897  -1.13448
 Alpha  occ. eigenvalues --   -1.05429  -0.92657  -0.80878  -0.72862  -0.68813
 Alpha  occ. eigenvalues --   -0.63352  -0.59357  -0.56223  -0.55170  -0.53486
 Alpha  occ. eigenvalues --   -0.48945  -0.47680  -0.47532  -0.46164  -0.40392
 Alpha virt. eigenvalues --    0.03223   0.03992   0.04103   0.04237   0.06146
 Alpha virt. eigenvalues --    0.06547   0.06760   0.06936   0.07317   0.08832
 Alpha virt. eigenvalues --    0.09485   0.10176   0.10277   0.12551   0.13441

 Mulliken charges:
               1
     1  N   -0.009894
     2  Si   0.773639
     3  H   -0.011454
     4  H   -0.020569
     5  C   -0.413598
     6  C   -0.563092
     7  C   -0.313476
     8  H    0.025224
     9  H    0.141506
    10  H    0.129552
    11  H    0.090214
    12  H    0.166787
    13  H    0.161429
    14  H    0.120139
    15  H   -0.120870
    16  H   -0.155535
 Sum of Mulliken charges =  -0.00000

 Dipole moment (field-independent basis, Debye):
    X=             -0.8223    Y=              0.9291    Z=             -0.5000  Tot=              1.3377

 Test job not archived.
 1\1\GINC-SE435\SP\RHF\Aug-CC-pVDZ\C3H11N1Si1\OHZDE\08-Apr-2025\0\\#t h
 f aug-cc-pvdz iop(5/13=1,5/36=2,99/5=2) pseudo=read geom=check guess=(
 read,tcheck) scf=(maxcycle=1)\\title\\0,1\N,0,2.130404,0.989671,-0.179
 336\Si,0,1.355088,-0.516241,0.151894\H,0,2.30653,1.299585,-1.123467\H,
 0,2.03496,1.771109,0.451392\C,0,-2.863903,0.224903,-0.098431\C,0,-0.46
 1733,-0.654974,-0.339686\C,0,-1.400354,0.36017,0.335588\H,0,-0.788676,
 -1.678844,-0.1091\H,0,-0.535536,-0.560302,-1.431763\H,0,-1.052722,1.37
 688,0.117082\H,0,-1.33586,0.247239,1.424524\H,0,-3.25417,-0.76952,0.13

 Normal termination of Gaussian 16 at Tue Apr  8 23:59:46 2025.
