 Gaussian 16, Revision C.01,

 ----------------------------------------------------------------------
 #t hf aug-cc-pvdz symm=none int=(grid=ultrafine) guess=(read,tcheck) s
 table=opt
 ----------------------------------------------------------------------
 -----
 title
 -----
 Symbolic Z-matrix:
 Charge =  0 Multiplicity = 2

 SCF Done:  E(UHF) =  -406.560133120     A.U. after   21 cycles

 1\1\GINC-SE253\Stability\UHF\Aug-CC-pVDZ\C3H7Si1\OHZDE\08-Apr-2025\0\\
 #t hf aug-cc-pvdz symm=none int=(grid=ultrafine) guess=(read,tcheck) s
 table=opt\\title\\0,2\Si,0,1.584001,-0.238842,-0.030227\C,0,0.034624,0
 .852529,-0.255782\C,0,-1.132656,0.217671,0.439682\C,0,-2.119255,-0.451
 719,-0.158185\H,0,-2.919803,-0.907136,0.412837\H,0,-2.160953,-0.564135
 ,-1.237362\H,0,-0.155885,0.96799,-1.326465\H,0,0.248501,1.844615,0.153
 491\H,0,-1.135303,0.296424,1.525064\H,0,1.380207,-1.563314,-0.674759\H
 ,0,1.870939,-0.441542,1.416085\\Version=ES64L-G16RevC.01\HF=-406.56013

 Normal termination of Gaussian 16 at Tue Apr  8 23:45:23 2025.
 Gaussian 16:  ES64L-G16RevC.01  3-Jul-2019

 ----------------------------------------------------------------------
 #t hf aug-cc-pvdz iop(5/13=1,5/36=2,99/5=2) pseudo=read geom=check gue
 ss=(read,tcheck) scf=(maxcycle=1)
 ----------------------------------------------------------------------
 -----
 title
 -----
 Structure from the checkpoint file:  "BDE49_nonexpt_1754_mol2.chk"
 Charge =  0 Multiplicity = 2

                         Standard orientation:
 ---------------------------------------------------------------------
 Center     Atomic      Atomic             Coordinates (Angstroms)
 Number     Number       Type             X           Y           Z
 ---------------------------------------------------------------------
      1         14           0        1.584001   -0.238842   -0.030227
      2          6           0        0.034624    0.852529   -0.255782
      3          6           0       -1.132656    0.217671    0.439682
      4          6           0       -2.119255   -0.451719   -0.158185
      5          1           0       -2.919803   -0.907136    0.412837
      6          1           0       -2.160953   -0.564135   -1.237362
      7          1           0       -0.155885    0.967990   -1.326465
      8          1           0        0.248501    1.844615    0.153491
      9          1           0       -1.135303    0.296424    1.525064
     10          1           0        1.380207   -1.563314   -0.674759
     11          1           0        1.870939   -0.441542    1.416085
 ---------------------------------------------------------------------

 SCF Done:  E(UHF) =  -406.717305607     A.U. after    2 cycles

 The electronic state is 2-A.
 Alpha  occ. eigenvalues --  -69.53579 -11.24804 -11.23734 -11.23477  -6.20674
 Alpha  occ. eigenvalues --   -3.96632  -3.95719  -3.95698  -1.07323  -0.94698
 Alpha  occ. eigenvalues --   -0.77055  -0.71890  -0.65398  -0.60714  -0.55577
 Alpha  occ. eigenvalues --   -0.51168  -0.48575  -0.48209  -0.38213  -0.32423
 Alpha virt. eigenvalues --    0.03587   0.04157   0.04167   0.04565   0.06322
 Alpha virt. eigenvalues --    0.06704   0.07649   0.08272   0.08559   0.10711
 Alpha virt. eigenvalues --    0.11850   0.13175   0.14168   0.14706   0.15896

  Beta  occ. eigenvalues --  -69.53045 -11.25318 -11.23601 -11.22828  -6.19870
  Beta  occ. eigenvalues --   -3.95372  -3.95357  -3.94504  -1.07464  -0.93481
  Beta  occ. eigenvalues --   -0.76849  -0.68184  -0.65191  -0.60333  -0.55304
  Beta  occ. eigenvalues --   -0.50946  -0.48351  -0.47361  -0.35891
  Beta virt. eigenvalues --    0.02430   0.03816   0.04193   0.04623   0.05161
  Beta virt. eigenvalues --    0.06499   0.07227   0.08084   0.08321   0.08982
  Beta virt. eigenvalues --    0.11014   0.12222   0.13342   0.14440   0.15014

 Mulliken charges and spin densities:
               1          2
     1  Si   0.795991   0.943445
     2  C   -0.880797   0.053421
     3  C    0.715678  -0.411510
     4  C   -0.148854   0.412573
     5  H   -0.085081  -0.021513
     6  H   -0.070284  -0.020028
     7  H    0.038286  -0.000070
     8  H    0.139272  -0.001430
     9  H   -0.169093   0.011474
    10  H   -0.165482   0.019754
    11  H   -0.169636   0.013884
 Sum of Mulliken charges =   0.00000   1.00000

 Dipole moment (field-independent basis, Debye):
    X=             -0.2984    Y=              0.5136    Z=             -0.0645  Tot=              0.5975
                          Isotropic Fermi Contact Couplings
        Atom                 a.u.       MegaHertz       Gauss      10(-4) cm-1
     1  Si(29)             0.53101    -471.92054    -168.39298    -157.41575
     2  C(13)              0.02812      31.61034      11.27936      10.54408
     3  C(13)             -0.03193     -35.89509     -12.80826     -11.97331
     4  C(13)              0.05683      63.89266      22.79849      21.31230
     5  H(1)              -0.00597     -26.67544      -9.51846      -8.89797
     6  H(1)              -0.00614     -27.44787      -9.79408      -9.15562
     7  H(1)              -0.00113      -5.04391      -1.79979      -1.68247
     8  H(1)              -0.00301     -13.46395      -4.80427      -4.49109

 Normal termination of Gaussian 16 at Tue Apr  8 23:45:26 2025.
