 Gaussian 16, Revision C.01,

 ----------------------------------------------------------------------
 #t hf aug-cc-pvdz symm=none int=(grid=ultrafine) guess=(read,tcheck) s
 table=(opt,rrhf)
 ----------------------------------------------------------------------
 -----
 title
 -----
 Symbolic Z-matrix:
 Charge =  0 Multiplicity = 1

 SCF Done:  E(RHF) =  -1003.46940202     A.U. after   12 cycles
 Normal termination of Gaussian 16 at Wed Apr  9 00:45:28 2025.
 Gaussian 16:  ES64L-G16RevC.01  3-Jul-2019

 ----------------------------------------------------------------------
 #t hf aug-cc-pvdz iop(5/13=1,5/36=2,99/5=2) pseudo=read geom=check gue
 ss=(read,tcheck) scf=(maxcycle=1)
 ----------------------------------------------------------------------
 -----
 title
 -----
 Structure from the checkpoint file:  "BDE49_nonexpt_778_mol1.chk"
 Charge =  0 Multiplicity = 1

                         Standard orientation:
 ---------------------------------------------------------------------
 Center     Atomic      Atomic             Coordinates (Angstroms)
 Number     Number       Type             X           Y           Z
 ---------------------------------------------------------------------
      1         14           0       -0.394471   -0.433134    0.000008
      2          5           0        1.544052    0.182561   -0.000014
      3          8           0        1.901765    1.498413   -0.000032
      4          6           0       -0.882356   -1.376873    1.544088
      5          1           0       -0.683449   -0.794346    2.446670
      6          1           0       -0.300764   -2.302639    1.604393
      7          6           0       -0.882379   -1.376911   -1.544041
      8         17           0       -1.510530    1.387463   -0.000006
      9          1           0       -0.300784   -2.302677   -1.604333
     10          1           0       -0.683488   -0.794405   -2.446640
     11          1           0       -1.943982   -1.637978   -1.531441
     12          1           0       -1.943961   -1.637936    1.531512
     13          1           0        1.141921    2.091611   -0.000034
     14          8           0        2.520445   -0.767535   -0.000009
     15          1           0        3.406582   -0.381740   -0.000020
 ---------------------------------------------------------------------

 SCF Done:  E(RHF) =  -1003.84288630     A.U. after    2 cycles

 The electronic state is 1-A.
 Alpha  occ. eigenvalues -- -105.54563 -69.55470 -20.56613 -20.56559 -11.22548
 Alpha  occ. eigenvalues --  -11.22544 -10.59491  -7.76369  -7.76117  -7.76104
 Alpha  occ. eigenvalues --   -7.64596  -6.22295  -3.97697  -3.97519  -3.97483
 Alpha  occ. eigenvalues --   -1.48910  -1.44668  -1.04161  -0.96944  -0.94306
 Alpha  occ. eigenvalues --   -0.78363  -0.74371  -0.68171  -0.61436  -0.58481
 Alpha  occ. eigenvalues --   -0.58100  -0.57902  -0.56748  -0.56534  -0.56018
 Alpha  occ. eigenvalues --   -0.50016  -0.49874  -0.49029  -0.47686  -0.43838
 Alpha  occ. eigenvalues --   -0.41266
 Alpha virt. eigenvalues --    0.03158   0.03824   0.04047   0.04806   0.06095
 Alpha virt. eigenvalues --    0.06392   0.06716   0.07301   0.07557   0.09433
 Alpha virt. eigenvalues --    0.09922   0.10009   0.10386   0.11238   0.11845

 Mulliken charges:
               1
     1  Si   1.841269
     2  B    1.637475
     3  O   -1.419371
     4  C   -0.618735
     5  H   -0.054434
     6  H    0.088284
     7  C   -0.618736
     8  Cl  -0.740303
     9  H    0.088287
    10  H   -0.054434
    11  H    0.004673
    12  H    0.004675
    13  H    0.590908
    14  O   -1.272138
    15  H    0.522580
 Sum of Mulliken charges =  -0.00000

 Dipole moment (field-independent basis, Debye):
    X=              0.8235    Y=             -1.2268    Z=              0.0000  Tot=              1.4776

 Test job not archived.
 1\1\GINC-SE273\SP\RHF\Aug-CC-pVDZ\C2H8B1Cl1O2Si1\OHZDE\09-Apr-2025\0\\
 #t hf aug-cc-pvdz iop(5/13=1,5/36=2,99/5=2) pseudo=read geom=check gue
 ss=(read,tcheck) scf=(maxcycle=1)\\title\\0,1\Si,0,-0.394471,-0.433134
 ,0.000008\B,0,1.544052,0.182561,-0.000014\O,0,1.901765,1.498413,-0.000
 032\C,0,-0.882356,-1.376873,1.544088\H,0,-0.683449,-0.794346,2.44667\H
 ,0,-0.300764,-2.302639,1.604393\C,0,-0.882379,-1.376911,-1.544041\Cl,0
 ,-1.51053,1.387463,-0.000006\H,0,-0.300784,-2.302677,-1.604333\H,0,-0.
 683488,-0.794405,-2.44664\H,0,-1.943982,-1.637978,-1.531441\H,0,-1.943

 Normal termination of Gaussian 16 at Wed Apr  9 00:45:35 2025.
