 Gaussian 16, Revision C.01,

 ----------------------------------------------------------------------
 #t hf aug-cc-pvdz symm=none int=(grid=ultrafine) guess=(read,tcheck) s
 table=(opt,rrhf)
 ----------------------------------------------------------------------
 -----
 title
 -----
 Symbolic Z-matrix:
 Charge =  0 Multiplicity = 1

 SCF Done:  E(RHF) =  -780.140181740     A.U. after   14 cycles
 Normal termination of Gaussian 16 at Tue Apr  8 23:30:13 2025.
 Gaussian 16:  ES64L-G16RevC.01  3-Jul-2019

 ----------------------------------------------------------------------
 #t hf aug-cc-pvdz iop(5/13=1,5/36=2,99/5=2) pseudo=read geom=check gue
 ss=(read,tcheck) scf=(maxcycle=1)
 ----------------------------------------------------------------------
 -----
 title
 -----
 Structure from the checkpoint file:  "BDE49_nonexpt_1357_mol1.chk"
 Charge =  0 Multiplicity = 1

                         Standard orientation:
 ---------------------------------------------------------------------
 Center     Atomic      Atomic             Coordinates (Angstroms)
 Number     Number       Type             X           Y           Z
 ---------------------------------------------------------------------
      1          9           0        2.679324   -1.123003    0.252085
      2          8           0       -2.458892   -1.831733   -0.193982
      3         15           0        1.903628    0.139827   -0.478386
      4          7           0       -0.432655   -1.032619    0.573439
      5          7           0       -0.512686    1.129172   -0.201755
      6          6           0        0.335919    0.188020    0.547483
      7          6           0       -1.666995   -0.937050   -0.011361
      8          6           0       -1.845324    0.541405   -0.353148
      9          6           0       -0.484405    2.500753    0.284214
     10          1           0       -0.025938   -1.925238    0.810341
     11          1           0       -2.237888    0.651515   -1.366355
     12          1           0       -2.579568    0.971250    0.346782
     13          1           0       -1.006249    3.148850   -0.422554
     14          1           0       -0.958725    2.608974    1.274593
     15          1           0        0.547833    2.849699    0.352317
     16          1           0        1.285302   -0.612060   -1.509382
     17          1           0        0.560260    0.535863    1.568222
 ---------------------------------------------------------------------

 SCF Done:  E(RHF) =  -780.619865864     A.U. after    2 cycles

 The electronic state is 1-A.
 Alpha  occ. eigenvalues --  -84.34810 -26.46215 -20.52238 -15.54342 -15.53008
 Alpha  occ. eigenvalues --  -11.37130 -11.33384 -11.29082 -11.28390  -6.81177
 Alpha  occ. eigenvalues --   -4.34072  -4.33358  -4.32778  -1.56922  -1.47158
 Alpha  occ. eigenvalues --   -1.31670  -1.21011  -1.04036  -0.99498  -0.88332
 Alpha  occ. eigenvalues --   -0.85456  -0.84116  -0.74195  -0.71694  -0.66848
 Alpha  occ. eigenvalues --   -0.65931  -0.65497  -0.64713  -0.63812  -0.62542
 Alpha  occ. eigenvalues --   -0.61026  -0.59650  -0.57003  -0.55462  -0.51086
 Alpha  occ. eigenvalues --   -0.44634  -0.43163  -0.41941  -0.36014
 Alpha virt. eigenvalues --    0.03080   0.03906   0.04439   0.04539   0.05279
 Alpha virt. eigenvalues --    0.05675   0.06306   0.07247   0.07413   0.09587
 Alpha virt. eigenvalues --    0.10773   0.11998   0.12338   0.13139   0.13951

 Mulliken charges:
               1
     1  F   -0.815249
     2  O   -1.319418
     3  P    1.208983
     4  N    0.814399
     5  N    0.784602
     6  C   -1.407515
     7  C    0.753351
     8  C   -0.350813
     9  C   -0.468670
    10  H    0.024615
    11  H    0.088401
    12  H    0.228582
    13  H    0.084087
    14  H    0.214825
    15  H    0.094053
    16  H    0.152602
    17  H   -0.086835
 Sum of Mulliken charges =  -0.00000

 Dipole moment (field-independent basis, Debye):
    X=              0.8711    Y=              3.6136    Z=              0.8155  Tot=              3.8055

 Test job not archived.
 1\1\GINC-SE080\SP\RHF\Aug-CC-pVDZ\C4H8F1N2O1P1\OHZDE\08-Apr-2025\0\\#t
  hf aug-cc-pvdz iop(5/13=1,5/36=2,99/5=2) pseudo=read geom=check guess
 =(read,tcheck) scf=(maxcycle=1)\\title\\0,1\F,0,2.679324,-1.123003,0.2
 52085\O,0,-2.458892,-1.831733,-0.193982\P,0,1.903628,0.139827,-0.47838
 6\N,0,-0.432655,-1.032619,0.573439\N,0,-0.512686,1.129172,-0.201755\C,
 0,0.335919,0.18802,0.547483\C,0,-1.666995,-0.93705,-0.011361\C,0,-1.84
 5324,0.541405,-0.353148\C,0,-0.484405,2.500753,0.284214\H,0,-0.025938,
 -1.925238,0.810341\H,0,-2.237888,0.651515,-1.366355\H,0,-2.579568,0.97

 Normal termination of Gaussian 16 at Tue Apr  8 23:30:21 2025.
