 Gaussian 16, Revision C.01,

 ----------------------------------------------------------------------
 #t hf aug-cc-pvdz symm=none int=(grid=ultrafine) guess=(read,tcheck) s
 table=(opt,rrhf)
 ----------------------------------------------------------------------
 -----
 title
 -----
 Symbolic Z-matrix:
 Charge =  0 Multiplicity = 1

 SCF Done:  E(RHF) =  -190.785459765     A.U. after   14 cycles
 Normal termination of Gaussian 16 at Tue Apr  8 22:36:22 2025.
 Gaussian 16:  ES64L-G16RevC.01  3-Jul-2019

 ----------------------------------------------------------------------
 #t hf aug-cc-pvdz iop(5/13=1,5/36=2,99/5=2) pseudo=read geom=check gue
 ss=(read,tcheck) scf=(maxcycle=1)
 ----------------------------------------------------------------------
 -----
 title
 -----
 Structure from the checkpoint file:  "BDE49_expt_1141_mol1.chk"
 Charge =  0 Multiplicity = 1

                         Standard orientation:
 ---------------------------------------------------------------------
 Center     Atomic      Atomic             Coordinates (Angstroms)
 Number     Number       Type             X           Y           Z
 ---------------------------------------------------------------------
      1          6           0        1.684125   -0.330044    0.000001
      2          6           0        0.466981    0.568830    0.000002
      3          1           0        1.400925   -1.383963   -0.000001
      4          1           0        2.303432   -0.152437    0.884267
      5          1           0        2.303432   -0.152435   -0.884266
      6          6           0       -0.766260    0.126605   -0.000000
      7          8           0       -1.862478   -0.268761   -0.000002
      8          1           0        0.582957    1.646569    0.000002
 ---------------------------------------------------------------------

 SCF Done:  E(RHF) =  -190.978084343     A.U. after    2 cycles

 The electronic state is 1-A.
 Alpha  occ. eigenvalues --  -20.60768 -11.38143 -11.25679 -11.24990  -1.54537
 Alpha  occ. eigenvalues --   -1.08718  -0.93938  -0.74888  -0.68997  -0.63844
 Alpha  occ. eigenvalues --   -0.62506  -0.58255  -0.56151  -0.53691  -0.35087
 Alpha virt. eigenvalues --    0.03304   0.04289   0.05178   0.05449   0.08690
 Alpha virt. eigenvalues --    0.10637   0.11673   0.11949   0.13128   0.13422
 Alpha virt. eigenvalues --    0.15590   0.15733   0.17190   0.17627   0.17718

 Mulliken charges:
               1
     1  C   -0.577702
     2  C    0.732982
     3  H    0.113697
     4  H    0.200826
     5  H    0.200829
     6  C    0.235297
     7  O   -0.848507
     8  H   -0.057422
 Sum of Mulliken charges =  -0.00000

 Dipole moment (field-independent basis, Debye):
    X=              2.0006    Y=              0.4694    Z=              0.0000  Tot=              2.0549

 Test job not archived.
 1\1\GINC-SE402\SP\RHF\Aug-CC-pVDZ\C3H4O1\OHZDE\08-Apr-2025\0\\#t hf au
 g-cc-pvdz iop(5/13=1,5/36=2,99/5=2) pseudo=read geom=check guess=(read
 ,tcheck) scf=(maxcycle=1)\\title\\0,1\C,0,1.684125,-0.330044,0.000001\
 C,0,0.466981,0.56883,0.000002\H,0,1.400925,-1.383963,-0.000001\H,0,2.3
 03432,-0.152437,0.884267\H,0,2.303432,-0.152435,-0.884266\C,0,-0.76626
 ,0.126605,0.\O,0,-1.862478,-0.268761,-0.000002\H,0,0.582957,1.646569,0
 .000002\\Version=ES64L-G16RevC.01\State=1-A\HF=-190.9780843\RMSD=1.218
 e-02\Dipole=0.7871009,0.184678,0.0000001\Quadrupole=-1.3862628,1.86186

 Normal termination of Gaussian 16 at Tue Apr  8 22:36:24 2025.
