 Gaussian 16, Revision C.01,

 ----------------------------------------------------------------------
 #t hf aug-cc-pvdz symm=none int=(grid=ultrafine) guess=(read,tcheck) s
 table=opt
 ----------------------------------------------------------------------
 -----
 title
 -----
 Symbolic Z-matrix:
 Charge =  0 Multiplicity = 2

 SCF Done:  E(UHF) =  -675.865860061     A.U. after   20 cycles
 Normal termination of Gaussian 16 at Wed Apr  9 00:54:40 2025.
 Gaussian 16:  ES64L-G16RevC.01  3-Jul-2019

 ----------------------------------------------------------------------
 #t hf aug-cc-pvdz iop(5/13=1,5/36=2,99/5=2) pseudo=read geom=check gue
 ss=(read,tcheck) scf=(maxcycle=1)
 ----------------------------------------------------------------------
 -----
 title
 -----
 Structure from the checkpoint file:  "BDE49_nonexpt_956_mol2.chk"
 Charge =  0 Multiplicity = 2

                         Standard orientation:
 ---------------------------------------------------------------------
 Center     Atomic      Atomic             Coordinates (Angstroms)
 Number     Number       Type             X           Y           Z
 ---------------------------------------------------------------------
      1          9           0        2.324116    0.754717    0.701711
      2          9           0        2.937890   -0.857068   -0.653845
      3          8           0       -1.635550    2.156697   -0.197105
      4          6           0       -0.436910    1.821950    0.535762
      5          1           0       -0.570638    1.927985    1.616001
      6          1           0        0.422336    2.417974    0.216185
      7          6           0       -0.447450    0.374996   -0.020771
      8          7           0        1.867076   -0.479682    0.172324
      9          6           0        0.796552   -0.103210   -0.766694
     10          1           0        1.172416    0.658463   -1.454905
     11          1           0        0.584928   -1.021283   -1.319485
     12          6           0       -1.576864    0.917924   -0.936017
     13          1           0       -1.267808    1.078029   -1.976217
     14          1           0       -2.521567    0.375009   -0.914898
     15          6           0       -0.929482   -0.642246    1.042078
     16          7           0       -1.083123   -1.991486    0.542462
     17          9           0       -2.217622   -1.963251   -0.273145
     18          1           0       -1.874623   -0.289893    1.471690
     19          1           0       -0.182848   -0.727756    1.836331
 ---------------------------------------------------------------------

 SCF Done:  E(UHF) =  -676.512504691     A.U. after    2 cycles

 The electronic state is 2-A.
 Alpha  occ. eigenvalues --  -26.51359 -26.51137 -26.49991 -20.55909 -15.72763
 Alpha  occ. eigenvalues --  -15.65584 -11.31466 -11.31151 -11.31041 -11.30003
 Alpha  occ. eigenvalues --  -11.29351  -1.67139  -1.62770  -1.58544  -1.48193
 Alpha  occ. eigenvalues --   -1.22727  -1.18993  -1.07873  -0.96608  -0.94981
 Alpha  occ. eigenvalues --   -0.91455  -0.81034  -0.78332  -0.77526  -0.76387
 Alpha  occ. eigenvalues --   -0.76057  -0.73003  -0.71904  -0.68746  -0.68333
 Alpha  occ. eigenvalues --   -0.66327  -0.64334  -0.63324  -0.61717  -0.60321
 Alpha  occ. eigenvalues --   -0.60119  -0.58177  -0.58005  -0.55365  -0.52789
 Alpha  occ. eigenvalues --   -0.51057  -0.49222  -0.47887  -0.43100
 Alpha virt. eigenvalues --    0.03645   0.03773   0.04455   0.04797   0.05694
 Alpha virt. eigenvalues --    0.06043   0.06621   0.08120   0.09681   0.11275
 Alpha virt. eigenvalues --    0.12236   0.12658   0.13211   0.13815   0.14110

  Beta  occ. eigenvalues --  -26.51360 -26.51137 -26.49734 -20.55901 -15.72760
  Beta  occ. eigenvalues --  -15.61856 -11.31474 -11.31165 -11.31057 -11.30329
  Beta  occ. eigenvalues --  -11.29126  -1.67138  -1.61036  -1.58546  -1.48168
  Beta  occ. eigenvalues --   -1.20472  -1.14893  -1.05753  -0.96557  -0.94203
  Beta  occ. eigenvalues --   -0.89130  -0.80042  -0.78057  -0.77464  -0.75707
  Beta  occ. eigenvalues --   -0.72261  -0.71288  -0.69854  -0.68313  -0.66237
  Beta  occ. eigenvalues --   -0.64931  -0.64092  -0.63117  -0.61706  -0.60115
  Beta  occ. eigenvalues --   -0.59782  -0.57958  -0.55176  -0.52968  -0.52140
  Beta  occ. eigenvalues --   -0.49026  -0.47868  -0.43243
  Beta virt. eigenvalues --    0.03648   0.03713   0.04437   0.04733   0.05163
  Beta virt. eigenvalues --    0.05741   0.06350   0.06649   0.08188   0.09833
  Beta virt. eigenvalues --    0.11453   0.12272   0.12958   0.13505   0.13872

 Mulliken charges and spin densities:
               1          2
     1  F   -0.672434  -0.000024
     2  F   -0.682926  -0.000227
     3  O   -1.329459   0.001284
     4  C    0.906056  -0.003806
     5  H    0.095765   0.003250
     6  H    0.070925   0.000524
     7  C   -1.120678   0.097397
     8  N    1.622317   0.001384
     9  C   -0.611780  -0.005469
    10  H    0.231271  -0.000802
    11  H    0.192288   0.001815
    12  C    0.891269  -0.013872
    13  H    0.044616   0.000281
    14  H    0.144583   0.000840
    15  C   -0.638423  -0.182237
    16  N    1.047630   1.056671
    17  F   -0.670609  -0.004403
    18  H    0.259680   0.035947
    19  H    0.219909   0.011445
 Sum of Mulliken charges =  -0.00000   1.00000

 Dipole moment (field-independent basis, Debye):
    X=             -0.5431    Y=              1.0244    Z=             -0.3708  Tot=              1.2173
                          Isotropic Fermi Contact Couplings
        Atom                 a.u.       MegaHertz       Gauss      10(-4) cm-1
     1  F(19)              0.00005       0.19490       0.06954       0.06501
     2  F(19)             -0.00013      -0.56106      -0.20020      -0.18715
     3  O(17)              0.00034      -0.20661      -0.07372      -0.06892
     4  C(13)             -0.00278      -3.12864      -1.11638      -1.04360
     5  H(1)               0.00006       0.28888       0.10308       0.09636
     6  H(1)               0.00032       1.44874       0.51695       0.48325
     7  C(13)              0.04188      47.07664      16.79811      15.70308
     8  N(14)              0.00014       0.04574       0.01632       0.01526

 Normal termination of Gaussian 16 at Wed Apr  9 00:54:51 2025.
