 Gaussian 16, Revision C.01,

 ----------------------------------------------------------------------
 #t hf aug-cc-pvdz symm=none int=(grid=ultrafine) guess=(read,tcheck) s
 table=(opt,rrhf)
 ----------------------------------------------------------------------
 -----
 title
 -----
 Symbolic Z-matrix:
 Charge =  0 Multiplicity = 1

 SCF Done:  E(RHF) =  -677.023940248     A.U. after   13 cycles
 Normal termination of Gaussian 16 at Wed Apr  9 00:35:28 2025.
 Gaussian 16:  ES64L-G16RevC.01  3-Jul-2019

 ----------------------------------------------------------------------
 #t hf aug-cc-pvdz iop(5/13=1,5/36=2,99/5=2) pseudo=read geom=check gue
 ss=(read,tcheck) scf=(maxcycle=1)
 ----------------------------------------------------------------------
 -----
 title
 -----
 Structure from the checkpoint file:  "BDE49_nonexpt_437_mol1.chk"
 Charge =  0 Multiplicity = 1

                         Standard orientation:
 ---------------------------------------------------------------------
 Center     Atomic      Atomic             Coordinates (Angstroms)
 Number     Number       Type             X           Y           Z
 ---------------------------------------------------------------------
      1          9           0       -3.655130    1.130234   -0.000215
      2          9           0       -3.655130   -1.130234   -0.000214
      3          5           0       -2.956709    0.000000    0.000244
      4          6           0       -1.409462    0.000000    0.000148
      5          6           0       -0.694437   -1.208890    0.000109
      6          1           0       -1.235825   -2.148193    0.000140
      7          6           0       -0.694437    1.208890    0.000108
      8          1           0       -1.235825    2.148193    0.000138
      9          9           0        3.655129   -1.130234    0.000012
     10          9           0        3.655130    1.130234    0.000011
     11          5           0        2.956709   -0.000000   -0.000089
     12          6           0        1.409462   -0.000000   -0.000003
     13          6           0        0.694437    1.208890    0.000035
     14          1           0        1.235825    2.148193    0.000006
     15          6           0        0.694437   -1.208890    0.000036
     16          1           0        1.235825   -2.148193    0.000008
 ---------------------------------------------------------------------

 SCF Done:  E(RHF) =  -677.663119501     A.U. after    2 cycles

 The electronic state is 1-A.
 Alpha  occ. eigenvalues --  -26.48385 -26.48385 -26.48384 -26.48384 -11.27342
 Alpha  occ. eigenvalues --  -11.27323 -11.27276 -11.27236 -11.25834 -11.25790
 Alpha  occ. eigenvalues --   -7.72868  -7.72731  -1.63524  -1.63513  -1.59513
 Alpha  occ. eigenvalues --   -1.59508  -1.17974  -1.05022  -1.04492  -0.88181
 Alpha  occ. eigenvalues --   -0.86308  -0.81306  -0.80432  -0.76586  -0.75223
 Alpha  occ. eigenvalues --   -0.74199  -0.72896  -0.69823  -0.69805  -0.66469
 Alpha  occ. eigenvalues --   -0.66203  -0.65871  -0.63781  -0.63779  -0.63275
 Alpha  occ. eigenvalues --   -0.62819  -0.61490  -0.56665  -0.53747  -0.52644
 Alpha  occ. eigenvalues --   -0.51111  -0.38521  -0.37110
 Alpha virt. eigenvalues --    0.02660   0.03180   0.03533   0.03862   0.04119
 Alpha virt. eigenvalues --    0.05129   0.05384   0.05632   0.07001   0.07780
 Alpha virt. eigenvalues --    0.08428   0.08581   0.09601   0.10531   0.12869

 Mulliken charges:
               1
     1  F   -0.769885
     2  F   -0.769885
     3  B    1.174619
     4  C    0.777589
     5  C    0.088330
     6  H   -0.294549
     7  C    0.088330
     8  H   -0.294549
     9  F   -0.769885
    10  F   -0.769885
    11  B    1.174618
    12  C    0.777590
    13  C    0.088330
    14  H   -0.294549
    15  C    0.088330
    16  H   -0.294549
 Sum of Mulliken charges =  -0.00000

 Dipole moment (field-independent basis, Debye):
    X=              0.0000    Y=             -0.0000    Z=              0.0010  Tot=              0.0010

 Test job not archived.
 1\1\GINC-SE092\SP\RHF\Aug-CC-pVDZ\C6H4B2F4\OHZDE\09-Apr-2025\0\\#t hf
 aug-cc-pvdz iop(5/13=1,5/36=2,99/5=2) pseudo=read geom=check guess=(re
 ad,tcheck) scf=(maxcycle=1)\\title\\0,1\F,0,-3.65513,-1.130234,0.00021
 5\F,0,-3.65513,1.130234,0.000214\B,0,-2.956709,0.,-0.000244\C,0,-1.409
 462,0.,-0.000148\C,0,-0.694437,1.20889,-0.000109\H,0,-1.235825,2.14819
 3,-0.00014\C,0,-0.694437,-1.20889,-0.000108\H,0,-1.235825,-2.148193,-0
 .000138\F,0,3.655129,1.130234,-0.000012\F,0,3.65513,-1.130234,-0.00001
 1\B,0,2.956709,0.,0.000089\C,0,1.409462,0.,0.000003\C,0,0.694437,-1.20

 Normal termination of Gaussian 16 at Wed Apr  9 00:35:37 2025.
