 Gaussian 16, Revision C.01,

 ----------------------------------------------------------------------
 #t hf aug-cc-pvdz symm=none int=(grid=ultrafine) guess=(read,tcheck) s
 table=(opt,rrhf)
 ----------------------------------------------------------------------
 -----
 title
 -----
 Symbolic Z-matrix:
 Charge =  0 Multiplicity = 1

 SCF Done:  E(RHF) =  -515.608120764     A.U. after   16 cycles
 Normal termination of Gaussian 16 at Tue Apr  8 23:07:24 2025.
 Gaussian 16:  ES64L-G16RevC.01  3-Jul-2019

 ----------------------------------------------------------------------
 #t hf aug-cc-pvdz iop(5/13=1,5/36=2,99/5=2) pseudo=read geom=check gue
 ss=(read,tcheck) scf=(maxcycle=1)
 ----------------------------------------------------------------------
 -----
 title
 -----
 Structure from the checkpoint file:  "BDE49_expt_360_mol1.chk"
 Charge =  0 Multiplicity = 1

                         Standard orientation:
 ---------------------------------------------------------------------
 Center     Atomic      Atomic             Coordinates (Angstroms)
 Number     Number       Type             X           Y           Z
 ---------------------------------------------------------------------
      1          7           0        2.830306   -0.589423    0.000050
      2          6           0        0.458228    0.354184   -0.000482
      3          8           0        0.893543    1.489281   -0.000060
      4          6           0        3.343961    0.021438    1.219847
      5          1           0        2.985467   -0.540913    2.087388
      6          1           0        3.056451    1.074730    1.345465
      7          1           0        4.436362   -0.040346    1.216246
      8          6           0        3.344426    0.021244   -1.219650
      9          1           0        2.986258   -0.541244   -2.087237
     10          1           0        4.436826   -0.040549   -1.215625
     11          1           0        3.056971    1.074516   -1.345545
     12          6           0        1.410510   -0.856426   -0.000196
     13          1           0        1.168113   -1.472716   -0.875584
     14          1           0        1.167784   -1.472597    0.875187
     15          6           0       -1.024254    0.103759   -0.000201
     16          6           0       -1.582145   -1.181758   -0.000134
     17          6           0       -1.877986    1.215193   -0.000001
     18          6           0       -3.256255    1.047313    0.000248
     19          6           0       -2.964548   -1.349524    0.000114
     20          6           0       -3.802649   -0.236887    0.000306
     21          1           0       -0.946798   -2.058635   -0.000278
     22          1           0       -3.386848   -2.347913    0.000159
     23          1           0       -4.878828   -0.369356    0.000501
     24          1           0       -1.430454    2.201458   -0.000055
     25          1           0       -3.907523    1.914055    0.000398
 ---------------------------------------------------------------------

 SCF Done:  E(RHF) =  -516.140343582     A.U. after    2 cycles

 The electronic state is 1-A.
 Alpha  occ. eigenvalues --  -20.53373 -15.48525 -11.34059 -11.27321 -11.26377
 Alpha  occ. eigenvalues --  -11.26128 -11.25661 -11.25519 -11.25483 -11.25285
 Alpha  occ. eigenvalues --  -11.24436 -11.24432  -1.46919  -1.22012  -1.17015
 Alpha  occ. eigenvalues --   -1.05371  -1.03118  -0.99240  -0.95452  -0.88555
 Alpha  occ. eigenvalues --   -0.85275  -0.82593  -0.76726  -0.72791  -0.68209
 Alpha  occ. eigenvalues --   -0.66898  -0.66258  -0.65250  -0.63670  -0.61975
 Alpha  occ. eigenvalues --   -0.61210  -0.58175  -0.57968  -0.53951  -0.53670
 Alpha  occ. eigenvalues --   -0.52535  -0.52526  -0.51950  -0.51426  -0.49312
 Alpha  occ. eigenvalues --   -0.44054  -0.36735  -0.36049  -0.35602
 Alpha virt. eigenvalues --    0.02862   0.03345   0.03962   0.04590   0.04647
 Alpha virt. eigenvalues --    0.05386   0.05859   0.05916   0.06402   0.07197
 Alpha virt. eigenvalues --    0.07876   0.08235   0.08870   0.09757   0.09990

 Mulliken charges:
               1
     1  N    1.039517
     2  C    0.629178
     3  O   -1.510297
     4  C   -0.179229
     5  H    0.095639
     6  H    0.256121
     7  H    0.080409
     8  C   -0.179005
     9  H    0.095633
    10  H    0.080460
    11  H    0.256048
    12  C   -2.343845
    13  H    0.256689
    14  H    0.256534
    15  C    2.214218
    16  C    0.377798
    17  C   -0.441121
    18  C    0.212509
    19  C    0.143557
    20  C    0.106997
    21  H   -0.409923
    22  H   -0.255007
    23  H   -0.219384
    24  H   -0.343890
    25  H   -0.219606
 Sum of Mulliken charges =  -0.00000

 Dipole moment (field-independent basis, Debye):
    X=             -1.9848    Y=             -1.6702    Z=             -0.0003  Tot=              2.5941

 Test job not archived.
 1\1\GINC-SE398\SP\RHF\Aug-CC-pVDZ\C10H13N1O1\OHZDE\08-Apr-2025\0\\#t h
 f aug-cc-pvdz iop(5/13=1,5/36=2,99/5=2) pseudo=read geom=check guess=(
 read,tcheck) scf=(maxcycle=1)\\title\\0,1\N,0,2.830306,-0.589423,0.000
 05\C,0,0.458228,0.354184,-0.000482\O,0,0.893543,1.489281,-0.00006\C,0,
 3.343961,0.021438,1.219847\H,0,2.985467,-0.540913,2.087388\H,0,3.05645
 1,1.07473,1.345465\H,0,4.436362,-0.040346,1.216246\C,0,3.344426,0.0212
 44,-1.21965\H,0,2.986258,-0.541244,-2.087237\H,0,4.436826,-0.040549,-1
 .215625\H,0,3.056971,1.074516,-1.345545\C,0,1.41051,-0.856426,-0.00019

 Normal termination of Gaussian 16 at Tue Apr  8 23:07:43 2025.
