 Gaussian 16, Revision C.01,

 ----------------------------------------------------------------------
 #t hf aug-cc-pvdz symm=none int=(grid=ultrafine) guess=(read,tcheck) s
 table=opt
 ----------------------------------------------------------------------
 -----
 title
 -----
 Symbolic Z-matrix:
 Charge =  0 Multiplicity = 2

 SCF Done:  E(UHF) =  -699.612247146     A.U. after   19 cycles
 Normal termination of Gaussian 16 at Wed Apr  9 00:19:47 2025.
 Gaussian 16:  ES64L-G16RevC.01  3-Jul-2019

 ----------------------------------------------------------------------
 #t hf aug-cc-pvdz iop(5/13=1,5/36=2,99/5=2) pseudo=read geom=check gue
 ss=(read,tcheck) scf=(maxcycle=1)
 ----------------------------------------------------------------------
 -----
 title
 -----
 Structure from the checkpoint file:  "BDE49_nonexpt_2589_mol2.chk"
 Charge =  0 Multiplicity = 2

                         Standard orientation:
 ---------------------------------------------------------------------
 Center     Atomic      Atomic             Coordinates (Angstroms)
 Number     Number       Type             X           Y           Z
 ---------------------------------------------------------------------
      1         16           0        2.252345   -0.000846   -0.000006
      2          8           0        0.744279   -0.700327    0.000000
      3          6           0       -0.378554    0.122198    0.000007
      4          8           0       -0.382630    1.313686    0.000002
      5          8           0       -1.418956   -0.701752    0.000004
      6          6           0       -2.706920   -0.049459    0.000000
      7          1           0       -2.815721    0.570358    0.890604
      8          1           0       -3.434771   -0.856472   -0.000002
      9          1           0       -2.815716    0.570358   -0.890604
 ---------------------------------------------------------------------

 SCF Done:  E(UHF) =  -699.958560302     A.U. after    2 cycles

 The electronic state is 2-A.
 Alpha  occ. eigenvalues --  -94.03691 -20.63926 -20.61722 -20.55879 -11.46170
 Alpha  occ. eigenvalues --  -11.31606  -8.31115  -6.30186  -6.28563  -6.28084
 Alpha  occ. eigenvalues --   -1.60721  -1.51278  -1.48736  -1.04589  -0.96884
 Alpha  occ. eigenvalues --   -0.81422  -0.76378  -0.72222  -0.71696  -0.64482
 Alpha  occ. eigenvalues --   -0.63262  -0.59261  -0.55990  -0.55701  -0.48391
 Alpha  occ. eigenvalues --   -0.48364  -0.44179  -0.40576
 Alpha virt. eigenvalues --    0.03437   0.05347   0.05505   0.06148   0.07289
 Alpha virt. eigenvalues --    0.10270   0.10588   0.12323   0.13628   0.14289
 Alpha virt. eigenvalues --    0.14786   0.15404   0.16897   0.17342   0.19292

  Beta  occ. eigenvalues --  -94.02811 -20.63424 -20.61705 -20.55889 -11.46185
  Beta  occ. eigenvalues --  -11.31609  -8.30105  -6.28174  -6.27565  -6.26169
  Beta  occ. eigenvalues --   -1.60297  -1.50387  -1.48553  -1.01994  -0.92827
  Beta  occ. eigenvalues --   -0.80112  -0.75563  -0.71211  -0.70993  -0.63148
  Beta  occ. eigenvalues --   -0.61908  -0.57817  -0.55959  -0.52377  -0.48304
  Beta  occ. eigenvalues --   -0.48260  -0.38516
  Beta virt. eigenvalues --   -0.00376   0.03439   0.05355   0.05552   0.06552
  Beta virt. eigenvalues --    0.07521   0.10701   0.11538   0.12627   0.13799
  Beta virt. eigenvalues --    0.14345   0.15422   0.15689   0.17238   0.18168

 Mulliken charges and spin densities:
               1          2
     1  S    0.567600   0.972825
     2  O   -1.195193   0.025357
     3  C    2.066551  -0.001918
     4  O   -0.846262  -0.000247
     5  O   -1.091869   0.004388
     6  C    0.165912  -0.001025
     7  H    0.165583   0.000295
     8  H    0.002096   0.000029
     9  H    0.165582   0.000295
 Sum of Mulliken charges =  -0.00000   1.00000

 Dipole moment (field-independent basis, Debye):
    X=             -1.8590    Y=             -0.5085    Z=              0.0000  Tot=              1.9273
                          Isotropic Fermi Contact Couplings
        Atom                 a.u.       MegaHertz       Gauss      10(-4) cm-1
     1  S(33)              0.19942      68.49651      24.44126      22.84798
     2  O(17)              0.04919     -29.81788     -10.63976      -9.94617
     3  C(13)             -0.00349      -3.92133      -1.39923      -1.30801
     4  O(17)             -0.00160       0.97226       0.34693       0.32431
     5  O(17)             -0.00002       0.01107       0.00395       0.00369
     6  C(13)             -0.00043      -0.48698      -0.17376      -0.16244
     7  H(1)               0.00009       0.40355       0.14400       0.13461
     8  H(1)               0.00000       0.00203       0.00073       0.00068

 Normal termination of Gaussian 16 at Wed Apr  9 00:19:51 2025.
