 Gaussian 16, Revision C.01,

 ----------------------------------------------------------------------
 #t hf aug-cc-pvdz symm=none int=(grid=ultrafine) guess=(read,tcheck) s
 table=opt
 ----------------------------------------------------------------------
 -----
 title
 -----
 Symbolic Z-matrix:
 Charge =  0 Multiplicity = 2

 SCF Done:  E(UHF) =  -873.718535501     A.U. after   22 cycles
 Normal termination of Gaussian 16 at Tue Apr  8 22:59:42 2025.
 Gaussian 16:  ES64L-G16RevC.01  3-Jul-2019

 ----------------------------------------------------------------------
 #t hf aug-cc-pvdz iop(5/13=1,5/36=2,99/5=2) pseudo=read geom=check gue
 ss=(read,tcheck) scf=(maxcycle=1)
 ----------------------------------------------------------------------
 -----
 title
 -----
 Structure from the checkpoint file:  "BDE49_expt_1968_mol2.chk"
 Charge =  0 Multiplicity = 2

                         Standard orientation:
 ---------------------------------------------------------------------
 Center     Atomic      Atomic             Coordinates (Angstroms)
 Number     Number       Type             X           Y           Z
 ---------------------------------------------------------------------
      1         16           0        1.556596   -0.597645    0.083600
      2         16           0        0.279060    0.895651   -0.215620
      3          6           0       -1.336403    0.350168    0.493419
      4          6           0       -1.971784   -0.815859   -0.254045
      5          1           0       -1.956788    1.250280    0.444489
      6          1           0       -1.155581    0.112372    1.542795
      7          1           0       -2.165390   -0.560428   -1.298299
      8          1           0       -2.922760   -1.084438    0.214904
      9          1           0       -1.320859   -1.691727   -0.227821
 ---------------------------------------------------------------------

 SCF Done:  E(UHF) =  -873.923308248     A.U. after    2 cycles

 The electronic state is 2-A.
 Alpha  occ. eigenvalues --  -93.99526 -93.97902 -11.28549 -11.24507  -8.27479
 Alpha  occ. eigenvalues --   -8.25951  -6.25331  -6.25163  -6.24929  -6.24789
 Alpha  occ. eigenvalues --   -6.23445  -6.23036  -1.13823  -1.03873  -0.91659
 Alpha  occ. eigenvalues --   -0.81382  -0.65086  -0.61500  -0.57099  -0.53938
 Alpha  occ. eigenvalues --   -0.51463  -0.49963  -0.48005  -0.37936  -0.36192
 Alpha virt. eigenvalues --    0.03447   0.04324   0.04481   0.06035   0.07162
 Alpha virt. eigenvalues --    0.08259   0.08869   0.12244   0.12364   0.13996
 Alpha virt. eigenvalues --    0.14625   0.14790   0.15562   0.15835   0.16633

  Beta  occ. eigenvalues --  -93.99266 -93.97117 -11.28610 -11.24477  -8.27176
  Beta  occ. eigenvalues --   -8.25051  -6.25064  -6.24808  -6.24152  -6.23012
  Beta  occ. eigenvalues --   -6.22550  -6.21323  -1.11865  -1.02050  -0.88814
  Beta  occ. eigenvalues --   -0.77876  -0.64878  -0.61066  -0.56391  -0.53462
  Beta  occ. eigenvalues --   -0.50893  -0.46835  -0.39859  -0.36225
  Beta virt. eigenvalues --    0.00480   0.03484   0.04365   0.04546   0.06068
  Beta virt. eigenvalues --    0.07345   0.08491   0.08993   0.12375   0.12901
  Beta virt. eigenvalues --    0.14176   0.14701   0.14921   0.15855   0.16224

 Mulliken charges and spin densities:
               1          2
     1  S   -0.069683   0.863799
     2  S    0.236112   0.188302
     3  C   -0.794742  -0.061329
     4  C   -0.349685   0.013264
     5  H    0.249108  -0.000877
     6  H    0.215328   0.001903
     7  H    0.177693  -0.000185
     8  H    0.146804  -0.001120
     9  H    0.189065  -0.003757
 Sum of Mulliken charges =   0.00000   1.00000

 Dipole moment (field-independent basis, Debye):
    X=             -2.4459    Y=             -0.0474    Z=              0.5630  Tot=              2.5103
                          Isotropic Fermi Contact Couplings
        Atom                 a.u.       MegaHertz       Gauss      10(-4) cm-1
     1  S(33)              0.18267      62.74146      22.38771      20.92830
     2  S(33)              0.10767      36.98311      13.19649      12.33624
     3  C(13)             -0.01025     -11.52296      -4.11168      -3.84365
     4  C(13)              0.00472       5.31158       1.89530       1.77175
     5  H(1)              -0.00006      -0.25773      -0.09197      -0.08597
     6  H(1)               0.00216       9.66637       3.44920       3.22436
     7  H(1)              -0.00019      -0.82742      -0.29524      -0.27600
     8  H(1)              -0.00029      -1.29168      -0.46091      -0.43086

 Normal termination of Gaussian 16 at Tue Apr  8 22:59:45 2025.
