 Gaussian 16, Revision C.01,

 ----------------------------------------------------------------------
 #t hf aug-cc-pvdz symm=none int=(grid=ultrafine) guess=(read,tcheck) s
 table=(opt,rrhf)
 ----------------------------------------------------------------------
 -----
 title
 -----
 Symbolic Z-matrix:
 Charge =  0 Multiplicity = 1

 SCF Done:  E(RHF) =  -2325.27666310     A.U. after   14 cycles
 Normal termination of Gaussian 16 at Wed Apr  9 00:15:08 2025.
 Gaussian 16:  ES64L-G16RevC.01  3-Jul-2019

 ----------------------------------------------------------------------
 #t hf aug-cc-pvdz iop(5/13=1,5/36=2,99/5=2) pseudo=read geom=check gue
 ss=(read,tcheck) scf=(maxcycle=1)
 ----------------------------------------------------------------------
 -----
 title
 -----
 Structure from the checkpoint file:  "BDE49_nonexpt_2441_mol1.chk"
 Charge =  0 Multiplicity = 1

                         Standard orientation:
 ---------------------------------------------------------------------
 Center     Atomic      Atomic             Coordinates (Angstroms)
 Number     Number       Type             X           Y           Z
 ---------------------------------------------------------------------
      1         14           0        1.154088    1.894400   -0.245836
      2         14           0       -1.154155    1.894412    0.245863
      3          6           0       -1.919010    0.233387   -0.285263
      4          1           0       -1.825685    2.950927   -0.547228
      5          1           0       -1.411075    2.143291    1.684513
      6         16           0       -1.633059   -0.306696   -1.815546
      7         16           0       -2.877069   -0.544609    0.927322
      8          6           0       -3.481701   -2.056844    0.126064
      9          1           0       -4.089416   -2.569725    0.871964
     10          1           0       -2.640574   -2.680619   -0.175148
     11          1           0       -4.081524   -1.804525   -0.747802
     12          6           0        1.918911    0.233341    0.285229
     13          1           0        1.825637    2.950877    0.547292
     14          1           0        1.411013    2.143325   -1.684477
     15         16           0        1.633092   -0.306709    1.815549
     16         16           0        2.877090   -0.544548   -0.927329
     17          6           0        3.481783   -2.056768   -0.126088
     18          1           0        4.089579   -2.569579   -0.871970
     19          1           0        2.640683   -2.680614    0.175053
     20          1           0        4.081536   -1.804435    0.747822
 ---------------------------------------------------------------------

 SCF Done:  E(RHF) =  -2325.73866487     A.U. after    2 cycles

 The electronic state is 1-A.
 Alpha  occ. eigenvalues --  -93.98751 -93.98751 -93.93391 -93.93390 -69.54831
 Alpha  occ. eigenvalues --  -69.54831 -11.34186 -11.34184 -11.27956 -11.27956
 Alpha  occ. eigenvalues --   -8.26882  -8.26881  -8.21551  -8.21551  -6.24703
 Alpha  occ. eigenvalues --   -6.24703  -6.24488  -6.24488  -6.24350  -6.24350
 Alpha  occ. eigenvalues --   -6.21936  -6.21924  -6.19383  -6.19383  -6.19167
 Alpha  occ. eigenvalues --   -6.19167  -6.18975  -6.18975  -3.97311  -3.97291
 Alpha  occ. eigenvalues --   -3.97275  -3.97253  -3.97247  -3.97204  -1.14566
 Alpha  occ. eigenvalues --   -1.14376  -1.03813  -1.03578  -0.93036  -0.92971
 Alpha  occ. eigenvalues --   -0.81570  -0.77257  -0.70057  -0.66948  -0.62191
 Alpha  occ. eigenvalues --   -0.61500  -0.61374  -0.61261  -0.57185  -0.56946
 Alpha  occ. eigenvalues --   -0.53872  -0.53252  -0.50798  -0.50679  -0.47253
 Alpha  occ. eigenvalues --   -0.46439  -0.46363  -0.45853  -0.41496  -0.35704
 Alpha  occ. eigenvalues --   -0.35109  -0.34301  -0.34196
 Alpha virt. eigenvalues --    0.02775   0.02889   0.03343   0.03565   0.04577
 Alpha virt. eigenvalues --    0.04619   0.05158   0.05546   0.05848   0.06881
 Alpha virt. eigenvalues --    0.06882   0.07749   0.07837   0.08471   0.09440

 Mulliken charges:
               1
     1  Si   0.727807
     2  Si   0.727814
     3  C   -0.928212
     4  H   -0.131513
     5  H   -0.095363
     6  S    0.071370
     7  S    0.522592
     8  C   -0.762056
     9  H    0.124765
    10  H    0.223033
    11  H    0.247562
    12  C   -0.928222
    13  H   -0.131509
    14  H   -0.095354
    15  S    0.071359
    16  S    0.522606
    17  C   -0.762043
    18  H    0.124763
    19  H    0.223027
    20  H    0.247574
 Sum of Mulliken charges =  -0.00000

 Dipole moment (field-independent basis, Debye):
    X=              0.0001    Y=             -1.5519    Z=              0.0000  Tot=              1.5519

 Test job not archived.
 1\1\GINC-SE284\SP\RHF\Aug-CC-pVDZ\C4H10S4Si2\OHZDE\09-Apr-2025\0\\#t h
 f aug-cc-pvdz iop(5/13=1,5/36=2,99/5=2) pseudo=read geom=check guess=(
 read,tcheck) scf=(maxcycle=1)\\title\\0,1\Si,0,1.154088,1.8944,-0.2458
 36\Si,0,-1.154155,1.894412,0.245863\C,0,-1.91901,0.233387,-0.285263\H,
 0,-1.825685,2.950927,-0.547228\H,0,-1.411075,2.143291,1.684513\S,0,-1.
 633059,-0.306696,-1.815546\S,0,-2.877069,-0.544609,0.927322\C,0,-3.481
 701,-2.056844,0.126064\H,0,-4.089416,-2.569725,0.871964\H,0,-2.640574,
 -2.680619,-0.175148\H,0,-4.081524,-1.804525,-0.747802\C,0,1.918911,0.2

 Normal termination of Gaussian 16 at Wed Apr  9 00:15:22 2025.
