 Gaussian 16, Revision C.01,

 ----------------------------------------------------------------------
 #t hf aug-cc-pvdz symm=none int=(grid=ultrafine) guess=(read,tcheck) s
 table=(opt,rrhf)
 ----------------------------------------------------------------------
 -----
 title
 -----
 Symbolic Z-matrix:
 Charge =  0 Multiplicity = 1

 SCF Done:  E(RHF) =  -647.634059587     A.U. after   15 cycles
 Normal termination of Gaussian 16 at Tue Apr  8 23:17:47 2025.
 Gaussian 16:  ES64L-G16RevC.01  3-Jul-2019

 ----------------------------------------------------------------------
 #t hf aug-cc-pvdz iop(5/13=1,5/36=2,99/5=2) pseudo=read geom=check gue
 ss=(read,tcheck) scf=(maxcycle=1)
 ----------------------------------------------------------------------
 -----
 title
 -----
 Structure from the checkpoint file:  "BDE49_nonexpt_1044_mol1.chk"
 Charge =  0 Multiplicity = 1

                         Standard orientation:
 ---------------------------------------------------------------------
 Center     Atomic      Atomic             Coordinates (Angstroms)
 Number     Number       Type             X           Y           Z
 ---------------------------------------------------------------------
      1         17           0       -1.292359   -0.264978    0.000000
      2          8           0        0.000000    0.904009    0.000000
      3          6           0        1.253443    0.369725    0.000000
      4          8           0        1.565871   -0.773985    0.000000
      5          1           0        1.922481    1.246085    0.000000
 ---------------------------------------------------------------------

 SCF Done:  E(RHF) =  -647.886555029     A.U. after    2 cycles

 The electronic state is 1-A'.
 Alpha  occ. eigenvalues -- -105.64859 -20.67508 -20.57849 -11.42689 -10.69020
 Alpha  occ. eigenvalues --   -7.86012  -7.85418  -7.85408  -1.57421  -1.49574
 Alpha  occ. eigenvalues --   -1.07374  -0.86628  -0.75929  -0.70777  -0.67955
 Alpha  occ. eigenvalues --   -0.59555  -0.54627  -0.50002  -0.48397  -0.47193
 Alpha virt. eigenvalues --    0.03490   0.04481   0.08247   0.08312   0.09702
 Alpha virt. eigenvalues --    0.14077   0.14436   0.14657   0.15850   0.16000
 Alpha virt. eigenvalues --    0.21045   0.23058   0.23731   0.26009   0.28762

 Mulliken charges:
               1
     1  Cl   0.373485
     2  O   -0.989015
     3  C    1.315274
     4  O   -0.861571
     5  H    0.161827
 Sum of Mulliken charges =   0.00000

 Dipole moment (field-independent basis, Debye):
    X=              0.1262    Y=              1.7854    Z=              0.0000  Tot=              1.7898

 Test job not archived.
 1\1\GINC-SE092\SP\RHF\Aug-CC-pVDZ\C1H1Cl1O2\OHZDE\08-Apr-2025\0\\#t hf
  aug-cc-pvdz iop(5/13=1,5/36=2,99/5=2) pseudo=read geom=check guess=(r
 ead,tcheck) scf=(maxcycle=1)\\title\\0,1\Cl,0,-1.292359,-0.264978,0.\O
 ,0,0.,0.904009,0.\C,0,1.253443,0.369725,0.\O,0,1.565871,-0.773985,0.\H
 ,0,1.922481,1.246085,0.\\Version=ES64L-G16RevC.01\State=1-A'\HF=-647.8
 86555\RMSD=7.353e-03\Dipole=0.0496604,0.7024275,0.\Quadrupole=0.867293
 3,-0.7512998,-0.1159935,4.3478511,0.,0.\PG=CS [SG(C1H1Cl1O2)]\\@

 Normal termination of Gaussian 16 at Tue Apr  8 23:17:49 2025.
