 Gaussian 16, Revision C.01,

 ----------------------------------------------------------------------
 #t hf aug-cc-pvdz symm=none int=(grid=ultrafine) guess=(read,tcheck) s
 table=(opt,rrhf)
 ----------------------------------------------------------------------
 -----
 title
 -----
 Symbolic Z-matrix:
 Charge =  0 Multiplicity = 1

 SCF Done:  E(RHF) =  -733.122370769     A.U. after   12 cycles
 Normal termination of Gaussian 16 at Wed Apr  9 00:09:44 2025.
 Gaussian 16:  ES64L-G16RevC.01  3-Jul-2019

 ----------------------------------------------------------------------
 #t hf aug-cc-pvdz iop(5/13=1,5/36=2,99/5=2) pseudo=read geom=check gue
 ss=(read,tcheck) scf=(maxcycle=1)
 ----------------------------------------------------------------------
 -----
 title
 -----
 Structure from the checkpoint file:  "BDE49_nonexpt_2341_mol1.chk"
 Charge =  0 Multiplicity = 1

                         Standard orientation:
 ---------------------------------------------------------------------
 Center     Atomic      Atomic             Coordinates (Angstroms)
 Number     Number       Type             X           Y           Z
 ---------------------------------------------------------------------
      1         14           0        2.187460    0.285328    0.000016
      2         14           0        0.194966   -0.966744   -0.000022
      3          6           0       -1.283632    0.303701   -0.000033
      4          1           0        0.072574   -1.843501    1.194539
      5          1           0        0.072602   -1.843467   -1.194611
      6          8           0       -1.021104    1.489892   -0.000002
      7          1           0        2.252274    1.135054   -1.210551
      8          1           0        2.252231    1.135046    1.210589
      9          6           0       -2.715664   -0.193378    0.000029
     10          1           0       -2.892853   -0.821700   -0.879332
     11          1           0       -3.406613    0.651406    0.000050
     12          1           0       -2.892785   -0.821688    0.879412
     13          1           0        3.353209   -0.632404    0.000034
 ---------------------------------------------------------------------

 SCF Done:  E(RHF) =  -733.346253598     A.U. after    2 cycles

 The electronic state is 1-A.
 Alpha  occ. eigenvalues --  -69.53921 -69.52928 -20.55115 -11.33576 -11.24988
 Alpha  occ. eigenvalues --   -6.21145  -6.20105  -3.96469  -3.96464  -3.96450
 Alpha  occ. eigenvalues --   -3.95463  -3.95456  -3.95455  -1.47664  -1.01892
 Alpha  occ. eigenvalues --   -0.82245  -0.75374  -0.69823  -0.63312  -0.62058
 Alpha  occ. eigenvalues --   -0.60988  -0.54792  -0.52104  -0.49641  -0.48920
 Alpha  occ. eigenvalues --   -0.48141  -0.42364  -0.38547
 Alpha virt. eigenvalues --    0.03144   0.03952   0.04595   0.04979   0.06174
 Alpha virt. eigenvalues --    0.06377   0.06643   0.07785   0.08567   0.08936
 Alpha virt. eigenvalues --    0.09091   0.09810   0.09965   0.10668   0.11614

 Mulliken charges:
               1
     1  Si   0.304853
     2  Si   0.788900
     3  C    0.580650
     4  H   -0.159277
     5  H   -0.159284
     6  O   -1.057094
     7  H   -0.089802
     8  H   -0.089799
     9  C   -0.575909
    10  H    0.222912
    11  H    0.133398
    12  H    0.222904
    13  H   -0.122452
 Sum of Mulliken charges =  -0.00000

 Dipole moment (field-independent basis, Debye):
    X=             -0.8046    Y=             -2.3413    Z=              0.0000  Tot=              2.4757

 Test job not archived.
 1\1\GINC-SE070\SP\RHF\Aug-CC-pVDZ\C2H8O1Si2\OHZDE\09-Apr-2025\0\\#t hf
  aug-cc-pvdz iop(5/13=1,5/36=2,99/5=2) pseudo=read geom=check guess=(r
 ead,tcheck) scf=(maxcycle=1)\\title\\0,1\Si,0,2.18746,0.285328,0.00001
 6\Si,0,0.194966,-0.966744,-0.000022\C,0,-1.283632,0.303701,-0.000033\H
 ,0,0.072574,-1.843501,1.194539\H,0,0.072602,-1.843467,-1.194611\O,0,-1
 .021104,1.489892,-0.000002\H,0,2.252274,1.135054,-1.210551\H,0,2.25223
 1,1.135046,1.210589\C,0,-2.715664,-0.193378,0.000029\H,0,-2.892853,-0.
 8217,-0.879332\H,0,-3.406613,0.651406,0.00005\H,0,-2.892785,-0.821688,

 Normal termination of Gaussian 16 at Wed Apr  9 00:09:48 2025.
