 Gaussian 16, Revision C.01,

 ----------------------------------------------------------------------
 #t hf aug-cc-pvdz symm=none int=(grid=ultrafine) guess=(read,tcheck) s
 table=(opt,rrhf)
 ----------------------------------------------------------------------
 -----
 title
 -----
 Symbolic Z-matrix:
 Charge =  0 Multiplicity = 1

 SCF Done:  E(RHF) =  -441.627769874     A.U. after   15 cycles
 Normal termination of Gaussian 16 at Tue Apr  8 23:21:15 2025.
 Gaussian 16:  ES64L-G16RevC.01  3-Jul-2019

 ----------------------------------------------------------------------
 #t hf aug-cc-pvdz iop(5/13=1,5/36=2,99/5=2) pseudo=read geom=check gue
 ss=(read,tcheck) scf=(maxcycle=1)
 ----------------------------------------------------------------------
 -----
 title
 -----
 Structure from the checkpoint file:  "BDE49_nonexpt_1165_mol1.chk"
 Charge =  0 Multiplicity = 1

                         Standard orientation:
 ---------------------------------------------------------------------
 Center     Atomic      Atomic             Coordinates (Angstroms)
 Number     Number       Type             X           Y           Z
 ---------------------------------------------------------------------
      1          9           0        0.516657    1.891721   -0.207412
      2          8           0        0.507817    0.626456   -0.912112
      3          6           0        0.326777   -0.397220    0.091793
      4          8           0       -0.865979   -0.206950    0.787544
      5          8           0        1.337199   -0.394255    1.020007
      6          6           0       -2.042048    0.070538    0.024945
      7          1           0       -1.936838    0.999622   -0.538145
      8          1           0       -2.844950    0.171795    0.753423
      9          1           0       -2.285217   -0.749265   -0.658810
     10          6           0        0.406920   -1.674873   -0.737835
     11          1           0       -0.313468   -1.668201   -1.555060
     12          1           0        0.192593   -2.507515   -0.067571
     13          1           0        1.411254   -1.785625   -1.143566
     14          1           0        1.144517    0.321033    1.639498
 ---------------------------------------------------------------------

 SCF Done:  E(RHF) =  -442.065809758     A.U. after    2 cycles

 The electronic state is 1-A.
 Alpha  occ. eigenvalues --  -26.50331 -20.67616 -20.57715 -20.57481 -11.42691
 Alpha  occ. eigenvalues --  -11.29805 -11.25256  -1.66013  -1.53766  -1.45988
 Alpha  occ. eigenvalues --   -1.36097  -1.03291  -0.96581  -0.84052  -0.76977
 Alpha  occ. eigenvalues --   -0.74457  -0.70886  -0.69079  -0.65199  -0.63395
 Alpha  occ. eigenvalues --   -0.60485  -0.59017  -0.57535  -0.57152  -0.55193
 Alpha  occ. eigenvalues --   -0.53095  -0.50452  -0.49380  -0.45747
 Alpha virt. eigenvalues --    0.03530   0.04239   0.04603   0.05167   0.06197
 Alpha virt. eigenvalues --    0.07204   0.07956   0.11031   0.11368   0.13147
 Alpha virt. eigenvalues --    0.14130   0.14642   0.15693   0.15882   0.16674

 Mulliken charges:
               1
     1  F   -0.501620
     2  O   -0.710776
     3  C    3.210141
     4  O   -1.567205
     5  O   -1.450748
     6  C    0.097974
     7  H    0.179593
     8  H   -0.001430
     9  H    0.148565
    10  C   -0.293800
    11  H    0.177982
    12  H    0.247317
    13  H    0.176890
    14  H    0.287119
 Sum of Mulliken charges =  -0.00000

 Dipole moment (field-independent basis, Debye):
    X=             -1.8452    Y=             -1.2857    Z=             -0.3117  Tot=              2.2705

 Test job not archived.
 1\1\GINC-SE341\SP\RHF\Aug-CC-pVDZ\C3H7F1O3\OHZDE\08-Apr-2025\0\\#t hf
 aug-cc-pvdz iop(5/13=1,5/36=2,99/5=2) pseudo=read geom=check guess=(re
 ad,tcheck) scf=(maxcycle=1)\\title\\0,1\F,0,-0.516652,-1.891722,-0.207
 412\O,0,-0.507815,-0.626457,-0.912112\C,0,-0.326778,0.397219,0.091793\
 O,0,0.865978,0.206953,0.787544\O,0,-1.3372,0.394252,1.020007\C,0,2.042
 048,-0.070532,0.024945\H,0,1.936841,-0.999617,-0.538145\H,0,2.84495,-0
 .171787,0.753423\H,0,2.285215,0.749271,-0.65881\C,0,-0.406925,1.674872
 ,-0.737835\H,0,0.313463,1.668202,-1.55506\H,0,-0.1926,2.507515,-0.0675

 Normal termination of Gaussian 16 at Tue Apr  8 23:21:19 2025.
