 Gaussian 16, Revision C.01,

 ----------------------------------------------------------------------
 #t hf aug-cc-pvdz symm=none int=(grid=ultrafine) guess=(read,tcheck) s
 table=(opt,rrhf)
 ----------------------------------------------------------------------
 -----
 title
 -----
 Symbolic Z-matrix:
 Charge =  0 Multiplicity = 1

 SCF Done:  E(RHF) =  -663.061662377     A.U. after   13 cycles
 Normal termination of Gaussian 16 at Tue Apr  8 23:38:38 2025.
 Gaussian 16:  ES64L-G16RevC.01  3-Jul-2019

 ----------------------------------------------------------------------
 #t hf aug-cc-pvdz iop(5/13=1,5/36=2,99/5=2) pseudo=read geom=check gue
 ss=(read,tcheck) scf=(maxcycle=1)
 ----------------------------------------------------------------------
 -----
 title
 -----
 Structure from the checkpoint file:  "BDE49_nonexpt_1571_mol1.chk"
 Charge =  0 Multiplicity = 1

                         Standard orientation:
 ---------------------------------------------------------------------
 Center     Atomic      Atomic             Coordinates (Angstroms)
 Number     Number       Type             X           Y           Z
 ---------------------------------------------------------------------
      1          7           0       -1.377579    0.216424    0.381279
      2          8           0       -2.570126   -0.578195    0.298500
      3          8           0       -1.539964    1.300274   -0.535145
      4          6           0        1.283726    0.328914   -0.290758
      5          6           0        2.692820   -0.239900   -0.326396
      6          6           0        2.211731    0.478877    0.897760
      7          1           0        3.405993    0.254206   -0.974703
      8          1           0        2.812704   -1.315820   -0.267804
      9          1           0        2.597998    1.470602    1.100038
     10          1           0        2.003315   -0.110708    1.783199
     11          1           0       -1.762766    2.042095    0.040701
     12          1           0       -3.012981   -0.392156    1.134626
     13         15           0       -0.087939   -0.866448   -0.188159
     14          1           0        1.102128    1.216999   -0.883770
     15          1           0       -0.433197   -0.867442   -1.569329
 ---------------------------------------------------------------------

 SCF Done:  E(RHF) =  -663.435336354     A.U. after    2 cycles

 The electronic state is 1-A.
 Alpha  occ. eigenvalues --  -84.29329 -20.58933 -20.58905 -15.60923 -11.24749
 Alpha  occ. eigenvalues --  -11.24577 -11.24530  -6.76151  -4.29093  -4.28572
 Alpha  occ. eigenvalues --   -4.27942  -1.53192  -1.44125  -1.15325  -1.06356
 Alpha  occ. eigenvalues --   -0.87651  -0.83346  -0.77021  -0.72934  -0.71440
 Alpha  occ. eigenvalues --   -0.68611  -0.64553  -0.61092  -0.60698  -0.53149
 Alpha  occ. eigenvalues --   -0.51644  -0.49014  -0.48562  -0.44488  -0.43533
 Alpha  occ. eigenvalues --   -0.42494  -0.34548
 Alpha virt. eigenvalues --    0.03446   0.04109   0.04602   0.04708   0.05628
 Alpha virt. eigenvalues --    0.06496   0.07012   0.08054   0.10004   0.10612
 Alpha virt. eigenvalues --    0.11542   0.13005   0.13828   0.15283   0.15414

 Mulliken charges:
               1
     1  N    0.975837
     2  O   -0.983807
     3  O   -1.034714
     4  C    0.006231
     5  C    0.321797
     6  C    0.107422
     7  H   -0.119161
     8  H   -0.125264
     9  H   -0.120829
    10  H   -0.090143
    11  H    0.301095
    12  H    0.310112
    13  P    0.277501
    14  H   -0.199551
    15  H    0.373473
 Sum of Mulliken charges =  -0.00000

 Dipole moment (field-independent basis, Debye):
    X=              0.7507    Y=              1.5049    Z=              1.2228  Tot=              2.0793

 Test job not archived.
 1\1\GINC-SE329\SP\RHF\Aug-CC-pVDZ\C3H8N1O2P1\OHZDE\08-Apr-2025\0\\#t h
 f aug-cc-pvdz iop(5/13=1,5/36=2,99/5=2) pseudo=read geom=check guess=(
 read,tcheck) scf=(maxcycle=1)\\title\\0,1\N,0,-1.377579,0.216424,0.381
 279\O,0,-2.570126,-0.578195,0.2985\O,0,-1.539964,1.300274,-0.535145\C,
 0,1.283726,0.328914,-0.290758\C,0,2.69282,-0.2399,-0.326396\C,0,2.2117
 31,0.478877,0.89776\H,0,3.405993,0.254206,-0.974703\H,0,2.812704,-1.31
 582,-0.267804\H,0,2.597998,1.470602,1.100038\H,0,2.003315,-0.110708,1.
 783199\H,0,-1.762766,2.042095,0.040701\H,0,-3.012981,-0.392156,1.13462

 Normal termination of Gaussian 16 at Tue Apr  8 23:38:43 2025.
