 Gaussian 16, Revision C.01,

 ----------------------------------------------------------------------
 #t hf aug-cc-pvdz symm=none int=(grid=ultrafine) guess=(read,tcheck) s
 table=opt
 ----------------------------------------------------------------------
 -----
 title
 -----
 Symbolic Z-matrix:
 Charge =  0 Multiplicity = 2

 SCF Done:  E(UHF) =  -269.430408864     A.U. after   16 cycles
 Normal termination of Gaussian 16 at Tue Apr  8 23:00:17 2025.
 Gaussian 16:  ES64L-G16RevC.01  3-Jul-2019

 ----------------------------------------------------------------------
 #t hf aug-cc-pvdz iop(5/13=1,5/36=2,99/5=2) pseudo=read geom=check gue
 ss=(read,tcheck) scf=(maxcycle=1)
 ----------------------------------------------------------------------
 -----
 title
 -----
 Structure from the checkpoint file:  "BDE49_expt_197_mol2.chk"
 Charge =  0 Multiplicity = 2

                         Standard orientation:
 ---------------------------------------------------------------------
 Center     Atomic      Atomic             Coordinates (Angstroms)
 Number     Number       Type             X           Y           Z
 ---------------------------------------------------------------------
      1          8           0       -0.050688   -1.125557   -0.082544
      2          6           0        1.342614   -0.851062    0.161860
      3          6           0        1.543704    0.634069   -0.162170
      4          1           0        1.938076   -1.524254   -0.457411
      5          1           0        1.553166   -1.066494    1.215743
      6          6           0        0.150145    1.215393    0.136494
      7          1           0        1.783424    0.762945   -1.220591
      8          1           0        2.342376    1.085423    0.429236
      9          6           0       -0.740126    0.065805   -0.227291
     10          1           0       -0.069307    2.122442   -0.432323
     11          1           0        0.061271    1.477127    1.207073
     12          6           0       -2.201250   -0.018476    0.028533
     13          1           0       -2.430638   -0.122110    1.104047
     14          1           0       -2.634137   -0.884785   -0.478577
     15          1           0       -2.709240    0.879788   -0.331406
 ---------------------------------------------------------------------

 SCF Done:  E(UHF) =  -269.715559967     A.U. after    2 cycles

 The electronic state is 2-A.
 Alpha  occ. eigenvalues --  -20.55027 -11.28417 -11.27287 -11.23725 -11.23538
 Alpha  occ. eigenvalues --  -11.22483  -1.47619  -1.07286  -1.03695  -0.92491
 Alpha  occ. eigenvalues --   -0.82307  -0.76897  -0.69113  -0.67510  -0.61182
 Alpha  occ. eigenvalues --   -0.59732  -0.58208  -0.54424  -0.52169  -0.51118
 Alpha  occ. eigenvalues --   -0.50656  -0.47858  -0.46473  -0.29910
 Alpha virt. eigenvalues --    0.03640   0.03998   0.04094   0.04406   0.06230
 Alpha virt. eigenvalues --    0.06392   0.06833   0.07110   0.08167   0.11196
 Alpha virt. eigenvalues --    0.12479   0.13431   0.13926   0.15065   0.15378

  Beta  occ. eigenvalues --  -20.54453 -11.28445 -11.24749 -11.23781 -11.23692
  Beta  occ. eigenvalues --  -11.22722  -1.45931  -1.06540  -1.01376  -0.92353
  Beta  occ. eigenvalues --   -0.82004  -0.73763  -0.67400  -0.66371  -0.59587
  Beta  occ. eigenvalues --   -0.57732  -0.56048  -0.53756  -0.50913  -0.50664
  Beta  occ. eigenvalues --   -0.50075  -0.47376  -0.43221
  Beta virt. eigenvalues --    0.03625   0.03980   0.04091   0.04404   0.06229
  Beta virt. eigenvalues --    0.06320   0.06840   0.07122   0.08167   0.10920
  Beta virt. eigenvalues --    0.12494   0.13271   0.13959   0.14890   0.15188

 Mulliken charges and spin densities:
               1          2
     1  O   -1.539278   0.053956
     2  C    0.502318  -0.008561
     3  C   -0.220237  -0.030177
     4  H    0.050577  -0.001453
     5  H    0.079362   0.003602
     6  C   -0.655675  -0.194700
     7  H    0.091311  -0.001577
     8  H    0.151081  -0.003198
     9  C    1.104995   1.296409
    10  H    0.158771   0.007080
    11  H    0.152589   0.041399
    12  C   -0.473385  -0.217849
    13  H    0.248141   0.051522
    14  H    0.153833   0.003602
    15  H    0.195597  -0.000054
 Sum of Mulliken charges =  -0.00000   1.00000

 Dipole moment (field-independent basis, Debye):
    X=              0.9603    Y=              1.3120    Z=              0.4639  Tot=              1.6908
                          Isotropic Fermi Contact Couplings
        Atom                 a.u.       MegaHertz       Gauss      10(-4) cm-1
     1  O(17)              0.06447     -39.08409     -13.94618     -13.03705
     2  C(13)             -0.00442      -4.96610      -1.77203      -1.65651
     3  C(13)              0.00490       5.50998       1.96610       1.83793
     4  H(1)              -0.00036      -1.59928      -0.57066      -0.53346
     5  H(1)               0.00115       5.13243       1.83138       1.71200
     6  C(13)             -0.03748     -42.13818     -15.03595     -14.05578
     7  H(1)              -0.00051      -2.27646      -0.81230      -0.75934
     8  H(1)              -0.00087      -3.89621      -1.39027      -1.29964

 Normal termination of Gaussian 16 at Tue Apr  8 23:00:23 2025.
