 Gaussian 16, Revision C.01,

 ----------------------------------------------------------------------
 #t hf aug-cc-pvdz symm=none int=(grid=ultrafine) guess=(read,tcheck) s
 table=(opt,rrhf)
 ----------------------------------------------------------------------
 -----
 title
 -----
 Symbolic Z-matrix:
 Charge =  0 Multiplicity = 1

 SCF Done:  E(RHF) =  -799.208486832     A.U. after   17 cycles
 Normal termination of Gaussian 16 at Wed Apr  9 00:42:56 2025.
 Gaussian 16:  ES64L-G16RevC.01  3-Jul-2019

 ----------------------------------------------------------------------
 #t hf aug-cc-pvdz iop(5/13=1,5/36=2,99/5=2) pseudo=read geom=check gue
 ss=(read,tcheck) scf=(maxcycle=1)
 ----------------------------------------------------------------------
 -----
 title
 -----
 Structure from the checkpoint file:  "BDE49_nonexpt_706_mol1.chk"
 Charge =  0 Multiplicity = 1

                         Standard orientation:
 ---------------------------------------------------------------------
 Center     Atomic      Atomic             Coordinates (Angstroms)
 Number     Number       Type             X           Y           Z
 ---------------------------------------------------------------------
      1         15           0       -0.091357    0.143779   -1.008594
      2          7           0       -1.375994   -0.759603   -0.015802
      3          5           0        1.493885   -0.484371   -0.032644
      4          8           0       -2.413289   -0.187179    0.263138
      5          8           0       -1.156857   -1.951844    0.234933
      6          8           0        2.556739    0.361592   -0.086283
      7          8           0        1.560459   -1.692690    0.557822
      8          6           0       -0.358892    1.875781   -0.405336
      9          6           0       -0.206892    2.153595    1.092068
     10          1           0       -1.347409    2.170635   -0.765415
     11          1           0        0.368972    2.455085   -0.985734
     12          1           0       -0.396186    3.210486    1.300685
     13          1           0        0.803358    1.921013    1.434336
     14          1           0       -0.920961    1.569589    1.675217
     15          1           0        0.700290   -2.149815    0.533620
     16          1           0        3.343113   -0.009884    0.332774
 ---------------------------------------------------------------------

 SCF Done:  E(RHF) =  -799.704321584     A.U. after    2 cycles

 The electronic state is 1-A.
 Alpha  occ. eigenvalues --  -84.32466 -20.60384 -20.59421 -20.58534 -20.57258
 Alpha  occ. eigenvalues --  -15.77846 -11.27371 -11.24764  -7.68107  -6.79523
 Alpha  occ. eigenvalues --   -4.32362  -4.31881  -4.31198  -1.66934  -1.51114
 Alpha  occ. eigenvalues --   -1.50249  -1.46451  -1.08150  -1.01743  -0.89826
 Alpha  occ. eigenvalues --   -0.83886  -0.80592  -0.75988  -0.74878  -0.73640
 Alpha  occ. eigenvalues --   -0.69887  -0.63947  -0.63237  -0.60346  -0.58919
 Alpha  occ. eigenvalues --   -0.58415  -0.55488  -0.53074  -0.51376  -0.49892
 Alpha  occ. eigenvalues --   -0.46875  -0.46068  -0.45298  -0.36724
 Alpha virt. eigenvalues --    0.03044   0.03592   0.03989   0.04848   0.05456
 Alpha virt. eigenvalues --    0.05682   0.06379   0.06908   0.07633   0.08864
 Alpha virt. eigenvalues --    0.09119   0.09736   0.10311   0.11271   0.12095

 Mulliken charges:
               1
     1  P    0.175156
     2  N    2.109830
     3  B    2.117706
     4  O   -1.279606
     5  O   -1.355949
     6  O   -1.245227
     7  O   -1.360379
     8  C   -0.730510
     9  C   -0.362755
    10  H    0.175819
    11  H    0.144414
    12  H    0.113734
    13  H    0.100858
    14  H    0.164547
    15  H    0.722899
    16  H    0.509463
 Sum of Mulliken charges =  -0.00000

 Dipole moment (field-independent basis, Debye):
    X=              2.7507    Y=              2.5411    Z=             -0.5898  Tot=              3.7910

 Test job not archived.
 1\1\GINC-SE455\SP\RHF\Aug-CC-pVDZ\C2H7B1N1O4P1\OHZDE\09-Apr-2025\0\\#t
  hf aug-cc-pvdz iop(5/13=1,5/36=2,99/5=2) pseudo=read geom=check guess
 =(read,tcheck) scf=(maxcycle=1)\\title\\0,1\P,0,-0.091357,0.143779,-1.
 008594\N,0,-1.375994,-0.759602,-0.015802\B,0,1.493885,-0.484371,-0.032
 644\O,0,-2.413289,-0.187178,0.263138\O,0,-1.156858,-1.951843,0.234933\
 O,0,2.556739,0.361591,-0.086283\O,0,1.560459,-1.69269,0.557822\C,0,-0.
 358891,1.875781,-0.405336\C,0,-0.206891,2.153595,1.092068\H,0,-1.34740
 8,2.170636,-0.765415\H,0,0.368973,2.455085,-0.985734\H,0,-0.396185,3.2

 Normal termination of Gaussian 16 at Wed Apr  9 00:43:03 2025.
