 Gaussian 16, Revision C.01,

 ----------------------------------------------------------------------
 #t hf aug-cc-pvdz symm=none int=(grid=ultrafine) guess=(read,tcheck) s
 table=(opt,rrhf)
 ----------------------------------------------------------------------
 -----
 title
 -----
 Symbolic Z-matrix:
 Charge =  0 Multiplicity = 1

 SCF Done:  E(RHF) =  -1126.49347475     A.U. after   13 cycles
 Normal termination of Gaussian 16 at Tue Apr  8 23:30:10 2025.
 Gaussian 16:  ES64L-G16RevC.01  3-Jul-2019

 ----------------------------------------------------------------------
 #t hf aug-cc-pvdz iop(5/13=1,5/36=2,99/5=2) pseudo=read geom=check gue
 ss=(read,tcheck) scf=(maxcycle=1)
 ----------------------------------------------------------------------
 -----
 title
 -----
 Structure from the checkpoint file:  "BDE49_nonexpt_1371_mol1.chk"
 Charge =  0 Multiplicity = 1

                         Standard orientation:
 ---------------------------------------------------------------------
 Center     Atomic      Atomic             Coordinates (Angstroms)
 Number     Number       Type             X           Y           Z
 ---------------------------------------------------------------------
      1          9           0        0.163731    1.665660    1.214121
      2         16           0       -0.148918   -0.954959   -0.000000
      3          8           0        0.163731   -1.593584    1.266357
      4         15           0        0.983329    0.994463   -0.000000
      5          6           0       -1.885536   -0.481910    0.000000
      6          1           0       -2.446997   -1.417573    0.000000
      7          1           0       -2.086945    0.093451    0.902018
      8          9           0        0.163731    1.665660   -1.214121
      9          8           0        0.163731   -1.593584   -1.266357
     10          1           0       -2.086945    0.093451   -0.902018
 ---------------------------------------------------------------------

 SCF Done:  E(RHF) =  -1126.96818702     A.U. after    2 cycles

 The electronic state is 1-A'.
 Alpha  occ. eigenvalues --  -94.20173 -84.47219 -26.52615 -26.52613 -20.55594
 Alpha  occ. eigenvalues --  -20.55591 -11.30442  -8.45723  -6.92711  -6.43785
 Alpha  occ. eigenvalues --   -6.43544  -6.43502  -4.45286  -4.44489  -4.43826
 Alpha  occ. eigenvalues --   -1.66412  -1.61889  -1.56809  -1.45255  -1.07967
 Alpha  occ. eigenvalues --   -0.94884  -0.85221  -0.75360  -0.75148  -0.73523
 Alpha  occ. eigenvalues --   -0.69715  -0.69581  -0.67561  -0.66901  -0.66038
 Alpha  occ. eigenvalues --   -0.62198  -0.62004  -0.52013  -0.51260  -0.49086
 Alpha  occ. eigenvalues --   -0.47995  -0.38898
 Alpha virt. eigenvalues --    0.03230   0.04950   0.05270   0.05555   0.07054
 Alpha virt. eigenvalues --    0.07461   0.09727   0.11212   0.12159   0.12576
 Alpha virt. eigenvalues --    0.15028   0.15122   0.15748   0.15885   0.16347

 Mulliken charges:
               1
     1  F   -0.756323
     2  S    2.884772
     3  O   -1.527157
     4  P    1.930993
     5  C   -0.878298
     6  H    0.237508
     7  H    0.195993
     8  F   -0.756323
     9  O   -1.527157
    10  H    0.195993
 Sum of Mulliken charges =  -0.00000

 Dipole moment (field-independent basis, Debye):
    X=             -1.6052    Y=              3.2372    Z=              0.0000  Tot=              3.6133

 Test job not archived.
 1\1\GINC-SE060\SP\RHF\Aug-CC-pVDZ\C1H3F2O2P1S1\OHZDE\08-Apr-2025\0\\#t
  hf aug-cc-pvdz iop(5/13=1,5/36=2,99/5=2) pseudo=read geom=check guess
 =(read,tcheck) scf=(maxcycle=1)\\title\\0,1\F,0,0.163731,1.66566,1.214
 121\S,0,-0.148918,-0.954959,0.\O,0,0.163731,-1.593584,1.266357\P,0,0.9
 83329,0.994463,0.\C,0,-1.885536,-0.48191,0.\H,0,-2.446997,-1.417573,0.
 \H,0,-2.086945,0.093451,0.902018\F,0,0.163731,1.66566,-1.214121\O,0,0.
 163731,-1.593584,-1.266357\H,0,-2.086945,0.093451,-0.902018\\Version=E
 S64L-G16RevC.01\State=1-A'\HF=-1126.968187\RMSD=1.212e-02\Dipole=-0.63

 Normal termination of Gaussian 16 at Tue Apr  8 23:30:15 2025.
