 Gaussian 16, Revision C.01,

 ----------------------------------------------------------------------
 #t hf aug-cc-pvdz symm=none int=(grid=ultrafine) guess=(read,tcheck) s
 table=(opt,rrhf)
 ----------------------------------------------------------------------
 -----
 title
 -----
 Symbolic Z-matrix:
 Charge =  0 Multiplicity = 1

 SCF Done:  E(RHF) =  -1201.06790853     A.U. after   17 cycles
 Normal termination of Gaussian 16 at Wed Apr  9 00:21:06 2025.
 Gaussian 16:  ES64L-G16RevC.01  3-Jul-2019

 ----------------------------------------------------------------------
 #t hf aug-cc-pvdz iop(5/13=1,5/36=2,99/5=2) pseudo=read geom=check gue
 ss=(read,tcheck) scf=(maxcycle=1)
 ----------------------------------------------------------------------
 -----
 title
 -----
 Structure from the checkpoint file:  "BDE49_nonexpt_2601_mol1.chk"
 Charge =  0 Multiplicity = 1

                         Standard orientation:
 ---------------------------------------------------------------------
 Center     Atomic      Atomic             Coordinates (Angstroms)
 Number     Number       Type             X           Y           Z
 ---------------------------------------------------------------------
      1         17           0        2.909573   -0.805403   -0.843235
      2         16           0        2.035076   -0.092244    0.940847
      3          6           0        0.456772    0.492589    0.380704
      4          6           0       -0.622330   -0.402008    0.306977
      5          6           0       -1.878271    0.069852   -0.074020
      6          6           0       -2.046318    1.431865   -0.368389
      7          6           0        0.291196    1.845964    0.082826
      8          1           0        1.137421    2.517667    0.140290
      9          6           0       -0.972955    2.305891   -0.287915
     10          1           0       -1.119331    3.354590   -0.519029
     11          1           0       -3.032727    1.773814   -0.657238
     12          1           0       -0.454635   -1.442005    0.546758
     13          8           0       -2.993520   -0.698836   -0.182356
     14          6           0       -2.887753   -2.092447    0.088221
     15          1           0       -2.580507   -2.276448    1.123295
     16          1           0       -2.183628   -2.579481   -0.594639
     17          1           0       -3.884455   -2.499930   -0.069568
 ---------------------------------------------------------------------

 SCF Done:  E(RHF) =  -1201.55421266     A.U. after    2 cycles

 The electronic state is 1-A.
 Alpha  occ. eigenvalues -- -105.57528 -94.01232 -20.58546 -11.32421 -11.30594
 Alpha  occ. eigenvalues --  -11.29196 -11.26361 -11.26259 -11.26068 -11.25938
 Alpha  occ. eigenvalues --  -10.62185  -8.28847  -7.79121  -7.78687  -7.78657
 Alpha  occ. eigenvalues --   -6.26653  -6.26424  -6.26145  -1.51049  -1.18281
 Alpha  occ. eigenvalues --   -1.11330  -1.04208  -1.03800  -0.96738  -0.93211
 Alpha  occ. eigenvalues --   -0.84612  -0.82423  -0.73381  -0.69787  -0.68987
 Alpha  occ. eigenvalues --   -0.66862  -0.64189  -0.60479  -0.60148  -0.56445
 Alpha  occ. eigenvalues --   -0.55246  -0.54292  -0.52830  -0.50907  -0.50315
 Alpha  occ. eigenvalues --   -0.47915  -0.44883  -0.37754  -0.36703  -0.33664
 Alpha virt. eigenvalues --    0.03123   0.03225   0.03419   0.04153   0.05060
 Alpha virt. eigenvalues --    0.05371   0.05903   0.07825   0.08664   0.09124
 Alpha virt. eigenvalues --    0.10124   0.10535   0.11657   0.12243   0.12919

 Mulliken charges:
               1
     1  Cl  -0.278080
     2  S    0.047859
     3  C    1.100247
     4  C   -0.541762
     5  C    2.109716
     6  C   -0.253306
     7  C   -0.451913
     8  H   -0.196049
     9  C    0.730798
    10  H   -0.205349
    11  H   -0.269202
    12  H   -0.340155
    13  O   -1.885671
    14  C    0.100661
    15  H    0.186941
    16  H    0.188815
    17  H   -0.043551
 Sum of Mulliken charges =  -0.00000

 Dipole moment (field-independent basis, Debye):
    X=             -2.7269    Y=              0.0487    Z=              0.4855  Tot=              2.7702

 Test job not archived.
 1\1\GINC-SE073\SP\RHF\Aug-CC-pVDZ\C7H7Cl1O1S1\OHZDE\09-Apr-2025\0\\#t
 hf aug-cc-pvdz iop(5/13=1,5/36=2,99/5=2) pseudo=read geom=check guess=
 (read,tcheck) scf=(maxcycle=1)\\title\\0,1\Cl,0,2.909573,-0.805403,-0.
 843235\S,0,2.035076,-0.092244,0.940847\C,0,0.456772,0.492589,0.380704\
 C,0,-0.62233,-0.402008,0.306977\C,0,-1.878271,0.069852,-0.07402\C,0,-2
 .046318,1.431865,-0.368389\C,0,0.291196,1.845964,0.082826\H,0,1.137421
 ,2.517667,0.14029\C,0,-0.972955,2.305891,-0.287915\H,0,-1.119331,3.354
 59,-0.519029\H,0,-3.032727,1.773814,-0.657238\H,0,-0.454635,-1.442005,

 Normal termination of Gaussian 16 at Wed Apr  9 00:21:16 2025.
