 Gaussian 16, Revision C.01,

 ----------------------------------------------------------------------
 #t hf aug-cc-pvdz symm=none int=(grid=ultrafine) guess=(read,tcheck) s
 table=(opt,rrhf)
 ----------------------------------------------------------------------
 -----
 title
 -----
 Symbolic Z-matrix:
 Charge =  0 Multiplicity = 1

 SCF Done:  E(RHF) =  -425.921382504     A.U. after   15 cycles
 Normal termination of Gaussian 16 at Tue Apr  8 22:34:46 2025.
 Gaussian 16:  ES64L-G16RevC.01  3-Jul-2019

 ----------------------------------------------------------------------
 #t hf aug-cc-pvdz iop(5/13=1,5/36=2,99/5=2) pseudo=read geom=check gue
 ss=(read,tcheck) scf=(maxcycle=1)
 ----------------------------------------------------------------------
 -----
 title
 -----
 Structure from the checkpoint file:  "BDE49_expt_101_mol1.chk"
 Charge =  0 Multiplicity = 1

                         Standard orientation:
 ---------------------------------------------------------------------
 Center     Atomic      Atomic             Coordinates (Angstroms)
 Number     Number       Type             X           Y           Z
 ---------------------------------------------------------------------
      1          6           0       -0.444826    0.050870    0.002019
      2          6           0        0.571896   -0.910422   -0.008181
      3          6           0        1.927699   -0.579132   -0.012533
      4          6           0        2.264183    0.775428   -0.011620
      5          6           0        1.269753    1.746517   -0.001345
      6          6           0       -0.088932    1.413953    0.006482
      7          1           0        1.553193    2.794475   -0.003230
      8          1           0        0.299468   -1.961785   -0.015390
      9          6           0       -1.901892   -0.404397    0.002852
     10          1           0        3.307792    1.073940   -0.021096
     11          6           0       -2.249086   -1.215120    1.265642
     12          1           0       -3.312024   -1.475160    1.276156
     13          1           0       -2.028907   -0.646426    2.172803
     14          1           0       -1.678307   -2.146952    1.311484
     15          6           0       -2.257840   -1.188205   -1.274468
     16          1           0       -2.533012    0.486932    0.014602
     17          1           0       -1.686363   -2.118151   -1.344256
     18          1           0       -2.044706   -0.600115   -2.170875
     19          1           0       -3.320591   -1.449103   -1.282806
     20          6           0       -1.117926    2.523926    0.014260
     21          1           0       -0.626155    3.498559    0.016899
     22          1           0       -1.763857    2.479901    0.896778
     23          1           0       -1.769487    2.487530   -0.864484
     24          6           0        2.991538   -1.650908    0.009154
     25          1           0        2.655753   -2.557871   -0.499566
     26          1           0        3.250781   -1.929802    1.036676
     27          1           0        3.909026   -1.311026   -0.477262
 ---------------------------------------------------------------------

 SCF Done:  E(RHF) =  -426.378196913     A.U. after    2 cycles

 The electronic state is 1-A.
 Alpha  occ. eigenvalues --  -11.23831 -11.23767 -11.23662 -11.23567 -11.23057
 Alpha  occ. eigenvalues --  -11.23021 -11.23014 -11.22707 -11.22591 -11.22299
 Alpha  occ. eigenvalues --  -11.22298  -1.15705  -1.08213  -1.05152  -0.98856
 Alpha  occ. eigenvalues --   -0.97182  -0.92936  -0.89549  -0.85032  -0.79815
 Alpha  occ. eigenvalues --   -0.76260  -0.67515  -0.66291  -0.62403  -0.61185
 Alpha  occ. eigenvalues --   -0.59237  -0.58782  -0.57325  -0.56347  -0.56174
 Alpha  occ. eigenvalues --   -0.55629  -0.54213  -0.52903  -0.52592  -0.49904
 Alpha  occ. eigenvalues --   -0.49426  -0.46894  -0.46594  -0.46259  -0.33073
 Alpha  occ. eigenvalues --   -0.31656
 Alpha virt. eigenvalues --    0.03019   0.03358   0.03727   0.03825   0.04569
 Alpha virt. eigenvalues --    0.04770   0.05472   0.06023   0.06704   0.07203
 Alpha virt. eigenvalues --    0.07541   0.08520   0.09403   0.09900   0.10175

 Mulliken charges:
               1
     1  C    1.535925
     2  C   -0.033099
     3  C    0.132451
     4  C    0.133283
     5  C    0.106360
     6  C    0.237933
     7  H   -0.329652
     8  H   -0.390093
     9  C   -1.298112
    10  H   -0.321882
    11  C   -0.145601
    12  H    0.129808
    13  H    0.150831
    14  H    0.203243
    15  C   -0.166503
    16  H   -0.023524
    17  H    0.204462
    18  H    0.156108
    19  H    0.130276
    20  C   -0.920662
    21  H   -0.065456
    22  H    0.374902
    23  H    0.373771
    24  C   -0.725670
    25  H    0.143889
    26  H    0.293339
    27  H    0.113673
 Sum of Mulliken charges =  -0.00000

 Dipole moment (field-independent basis, Debye):
    X=             -0.3433    Y=             -0.0571    Z=              0.0312  Tot=              0.3494

 Test job not archived.
 1\1\GINC-SE029\SP\RHF\Aug-CC-pVDZ\C11H16\OHZDE\08-Apr-2025\0\\#t hf au
 g-cc-pvdz iop(5/13=1,5/36=2,99/5=2) pseudo=read geom=check guess=(read
 ,tcheck) scf=(maxcycle=1)\\title\\0,1\C,0,-0.444826,0.05087,0.002019\C
 ,0,0.571896,-0.910422,-0.008181\C,0,1.927699,-0.579132,-0.012533\C,0,2
 .264183,0.775428,-0.01162\C,0,1.269753,1.746517,-0.001345\C,0,-0.08893
 2,1.413953,0.006482\H,0,1.553193,2.794475,-0.00323\H,0,0.299468,-1.961
 785,-0.01539\C,0,-1.901892,-0.404397,0.002852\H,0,3.307792,1.07394,-0.
 021096\C,0,-2.249086,-1.21512,1.265642\H,0,-3.312024,-1.47516,1.276156

 Normal termination of Gaussian 16 at Tue Apr  8 22:35:09 2025.
