 Gaussian 16, Revision C.01,

 ----------------------------------------------------------------------
 #t hf aug-cc-pvdz symm=none int=(grid=ultrafine) guess=(read,tcheck) s
 table=opt
 ----------------------------------------------------------------------
 -----
 title
 -----
 Symbolic Z-matrix:
 Charge =  0 Multiplicity = 2

 SCF Done:  E(UHF) =  -1512.37595505     A.U. after   15 cycles
 Normal termination of Gaussian 16 at Tue Apr  8 23:31:05 2025.
 Gaussian 16:  ES64L-G16RevC.01  3-Jul-2019

 ----------------------------------------------------------------------
 #t hf aug-cc-pvdz iop(5/13=1,5/36=2,99/5=2) pseudo=read geom=check gue
 ss=(read,tcheck) scf=(maxcycle=1)
 ----------------------------------------------------------------------
 -----
 title
 -----
 Structure from the checkpoint file:  "BDE49_expt_804_mol2.chk"
 Charge =  0 Multiplicity = 2

                         Standard orientation:
 ---------------------------------------------------------------------
 Center     Atomic      Atomic             Coordinates (Angstroms)
 Number     Number       Type             X           Y           Z
 ---------------------------------------------------------------------
      1         14           0        1.963816   -1.276781   -0.020293
      2         14           0        0.000224   -0.000800   -0.351817
      3          6           0        2.640654   -1.057976    1.734882
      4          6           0        3.303107   -0.743088   -1.244110
      5          6           0        1.606182   -3.113561   -0.295435
      6         14           0        0.124419    2.338293   -0.020495
      7         14           0       -2.087618   -1.061847   -0.020364
      8          1           0        0.868358   -3.495682    0.415191
      9          1           0        2.523767   -3.697885   -0.165703
     10          1           0        1.230948   -3.302806   -1.304802
     11          1           0        2.893987   -0.014242    1.941277
     12          1           0        3.550300   -1.654346    1.869040
     13          1           0        1.914937   -1.379256    2.486840
     14          1           0        3.565179    0.311242   -1.122713
     15          1           0        2.977120   -0.889259   -2.277550
     16          1           0        4.213688   -1.333199   -1.091705
     17          6           0       -2.243135   -1.744101    1.739740
     18          1           0       -3.214629   -2.233529    1.873278
     19          1           0       -2.162640   -0.949038    2.486234
     20          1           0       -1.466336   -2.483092    1.955626
     21          6           0       -2.291488   -2.497428   -1.234650
     22          1           0       -2.248106   -2.150849   -2.270823
     23          1           0       -3.259999   -2.987208   -1.083944
     24          1           0       -1.512115   -3.252483   -1.102307
     25          6           0       -3.498321    0.164562   -0.309086
     26          1           0       -3.472600    0.575551   -1.321974
     27          1           0       -3.461113    1.000667    0.394549
     28          1           0       -4.463515   -0.336797   -0.177311
     29          6           0       -0.411126    2.814624    1.732829
     30          1           0       -1.441443    2.509596    1.935967
     31          1           0       -0.353083    3.900806    1.866733
     32          1           0        0.228815    2.349054    2.487388
     33          6           0        1.895451    2.946762   -0.287532
     34          1           0        2.592846    2.495905    0.423993
     35          1           0        1.942044    4.033190   -0.153788
     36          1           0        2.251036    2.720502   -1.296432
     37          6           0       -1.002383    3.231709   -1.249170
     38          1           0       -2.047437    2.933007   -1.131267
     39          1           0       -0.709648    3.021603   -2.281558
     40          1           0       -0.945760    4.315410   -1.097481
 ---------------------------------------------------------------------

 SCF Done:  E(UHF) =  -1512.90692017     A.U. after    2 cycles

 The electronic state is 2-A.
 Alpha  occ. eigenvalues --  -69.51204 -69.51198 -69.51190 -69.48840 -11.20939
 Alpha  occ. eigenvalues --  -11.20927 -11.20924 -11.20907 -11.20904 -11.20900
 Alpha  occ. eigenvalues --  -11.20710 -11.20709 -11.20704  -6.18110  -6.18102
 Alpha  occ. eigenvalues --   -6.18095  -6.16354  -3.93446  -3.93442  -3.93435
 Alpha  occ. eigenvalues --   -3.93435  -3.93430  -3.93424  -3.93401  -3.93395
 Alpha  occ. eigenvalues --   -3.93388  -3.92329  -3.91352  -3.91351  -0.97874
 Alpha  occ. eigenvalues --   -0.97297  -0.97294  -0.92603  -0.92600  -0.92573
 Alpha  occ. eigenvalues --   -0.92256  -0.92253  -0.92039  -0.73492  -0.64316
 Alpha  occ. eigenvalues --   -0.64316  -0.59867  -0.57650  -0.57649  -0.56772
 Alpha  occ. eigenvalues --   -0.56769  -0.56721  -0.56318  -0.56305  -0.56300
 Alpha  occ. eigenvalues --   -0.54755  -0.54621  -0.54617  -0.54253  -0.54247
 Alpha  occ. eigenvalues --   -0.53959  -0.53716  -0.53515  -0.53384  -0.53376
 Alpha  occ. eigenvalues --   -0.44333  -0.44186  -0.44181  -0.43682  -0.43679
 Alpha  occ. eigenvalues --   -0.43422  -0.35923  -0.35916  -0.28457
 Alpha virt. eigenvalues --    0.02969   0.02971   0.03128   0.03307   0.04627
 Alpha virt. eigenvalues --    0.04628   0.04899   0.05221   0.05221   0.06675
 Alpha virt. eigenvalues --    0.06818   0.07292   0.07294   0.07441   0.07443

  Beta  occ. eigenvalues --  -69.51244 -69.51238 -69.51230 -69.48335 -11.20944
  Beta  occ. eigenvalues --  -11.20932 -11.20929 -11.20845 -11.20843 -11.20839
  Beta  occ. eigenvalues --  -11.20702 -11.20700 -11.20696  -6.18170  -6.18161
  Beta  occ. eigenvalues --   -6.18155  -6.15653  -3.93534  -3.93528  -3.93521
  Beta  occ. eigenvalues --   -3.93475  -3.93470  -3.93468  -3.93464  -3.93464
  Beta  occ. eigenvalues --   -3.93457  -3.90970  -3.90970  -3.90158  -0.97748
  Beta  occ. eigenvalues --   -0.97255  -0.97252  -0.92588  -0.92585  -0.92447
  Beta  occ. eigenvalues --   -0.92153  -0.92150  -0.92039  -0.70204  -0.64377
  Beta  occ. eigenvalues --   -0.64377  -0.59318  -0.57608  -0.57607  -0.56740
  Beta  occ. eigenvalues --   -0.56737  -0.56595  -0.56278  -0.56274  -0.56248
  Beta  occ. eigenvalues --   -0.54595  -0.54590  -0.54562  -0.54173  -0.54168
  Beta  occ. eigenvalues --   -0.53912  -0.53500  -0.53362  -0.53355  -0.51434
  Beta  occ. eigenvalues --   -0.44137  -0.44132  -0.43706  -0.43447  -0.43445
  Beta  occ. eigenvalues --   -0.43426  -0.35347  -0.35339
  Beta virt. eigenvalues --    0.02127   0.02971   0.02972   0.03323   0.04633
  Beta virt. eigenvalues --    0.04634   0.04848   0.05243   0.05244   0.05289
  Beta virt. eigenvalues --    0.06675   0.06821   0.07295   0.07298   0.07446

 Mulliken charges and spin densities:
               1          2
     1  Si   1.980158  -0.156671
     2  Si   0.813574   1.491917
     3  C   -0.521605   0.024256
     4  C   -0.508487  -0.016188
     5  C   -0.538059   0.004165
     6  Si   1.983887  -0.156162
     7  Si   1.978643  -0.157297
     8  H   -0.054308   0.007112
     9  H   -0.122582  -0.002898
    10  H   -0.015533  -0.000934
    11  H   -0.079415  -0.001367
    12  H   -0.097777   0.001076
    13  H   -0.075111  -0.010399
    14  H   -0.083591   0.004076
    15  H   -0.075060  -0.012318
    16  H   -0.078124  -0.003577
    17  C   -0.522835   0.024236
    18  H   -0.098310   0.001061
    19  H   -0.074062  -0.010210
    20  H   -0.078433  -0.001560
    21  C   -0.509946  -0.016214
    22  H   -0.074941  -0.012085
    23  H   -0.078677  -0.003604
    24  H   -0.083756   0.004083
    25  C   -0.538352   0.003956
    26  H   -0.016982  -0.001158
    27  H   -0.055591   0.007109
    28  H   -0.120734  -0.002921
    29  C   -0.522504   0.024058
    30  H   -0.079712  -0.001408
    31  H   -0.097371   0.001065
    32  H   -0.074850  -0.010288
    33  C   -0.538475   0.004184
    34  H   -0.057032   0.007069
    35  H   -0.120420  -0.002879
    36  H   -0.016650  -0.001016
    37  C   -0.510404  -0.016423
    38  H   -0.083214   0.004028
    39  H   -0.074632  -0.012281
    40  H   -0.078728  -0.003592
 Sum of Mulliken charges =  -0.00000   1.00000

 Dipole moment (field-independent basis, Debye):
    X=              0.0008    Y=              0.0004    Z=              0.2734  Tot=              0.2734
                          Isotropic Fermi Contact Couplings
        Atom                 a.u.       MegaHertz       Gauss      10(-4) cm-1
     1  Si(29)            -0.04280      38.04182      13.57427      12.68938
     2  Si(29)             0.27287    -242.50999     -86.53360     -80.89263
     3  C(13)              0.01636      18.39689       6.56447       6.13654
     4  C(13)              0.00337       3.78578       1.35086       1.26280
     5  C(13)             -0.00133      -1.50066      -0.53547      -0.50057
     6  Si(29)            -0.04279      38.02932      13.56981      12.68522
     7  Si(29)            -0.04279      38.02632      13.56873      12.68421
     8  H(1)               0.00007       0.30181       0.10769       0.10067

 Normal termination of Gaussian 16 at Tue Apr  8 23:32:16 2025.
