 Gaussian 16, Revision C.01,

 ----------------------------------------------------------------------
 #t hf aug-cc-pvdz symm=none int=(grid=ultrafine) guess=(read,tcheck) s
 table=(opt,rrhf)
 ----------------------------------------------------------------------
 -----
 title
 -----
 Symbolic Z-matrix:
 Charge =  0 Multiplicity = 1

 SCF Done:  E(RHF) =  -918.340249508     A.U. after   15 cycles
 Normal termination of Gaussian 16 at Wed Apr  9 00:16:28 2025.
 Gaussian 16:  ES64L-G16RevC.01  3-Jul-2019

 ----------------------------------------------------------------------
 #t hf aug-cc-pvdz iop(5/13=1,5/36=2,99/5=2) pseudo=read geom=check gue
 ss=(read,tcheck) scf=(maxcycle=1)
 ----------------------------------------------------------------------
 -----
 title
 -----
 Structure from the checkpoint file:  "BDE49_nonexpt_2509_mol1.chk"
 Charge =  0 Multiplicity = 1

                         Standard orientation:
 ---------------------------------------------------------------------
 Center     Atomic      Atomic             Coordinates (Angstroms)
 Number     Number       Type             X           Y           Z
 ---------------------------------------------------------------------
      1          6           0        2.939386    0.976486    0.000001
      2         16           0        2.209782   -0.715836    0.000001
      3          1           0        2.649580    1.525318   -0.894565
      4          1           0        2.649579    1.525318    0.894566
      5         14           0        0.135842   -0.249640    0.000000
      6          6           0       -0.560991    1.372955   -0.000001
      7          6           0       -1.959764    1.439494   -0.000001
      8          6           0       -1.137214   -1.473593    0.000000
      9          6           0       -2.449206   -0.993536   -0.000001
     10          6           0       -2.839387    0.352448   -0.000001
     11          1           0       -3.902142    0.566430   -0.000002
     12          1           0       -2.410969    2.430070   -0.000002
     13          1           0        0.001384    2.299005   -0.000001
     14          1           0       -0.971977   -2.544542    0.000001
     15          1           0       -3.249876   -1.730885    0.000000
     16          1           0        4.019171    0.832108    0.000001
 ---------------------------------------------------------------------

 SCF Done:  E(RHF) =  -918.673446937     A.U. after    2 cycles

 The electronic state is 1-A.
 Alpha  occ. eigenvalues --  -93.95999 -69.54547 -11.28866 -11.25856 -11.25798
 Alpha  occ. eigenvalues --  -11.22643 -11.22481 -11.22109  -8.24227  -6.22024
 Alpha  occ. eigenvalues --   -6.21964  -6.21885  -6.21686  -3.97237  -3.97188
 Alpha  occ. eigenvalues --   -3.97147  -1.11033  -1.07228  -1.01239  -0.93706
 Alpha  occ. eigenvalues --   -0.89589  -0.80690  -0.74587  -0.68714  -0.62978
 Alpha  occ. eigenvalues --   -0.61533  -0.60582  -0.59637  -0.58822  -0.53726
 Alpha  occ. eigenvalues --   -0.51371  -0.48231  -0.46030  -0.44623  -0.39972
 Alpha  occ. eigenvalues --   -0.35747  -0.28166
 Alpha virt. eigenvalues --    0.02897   0.03678   0.03901   0.04897   0.04899
 Alpha virt. eigenvalues --    0.05363   0.06737   0.07605   0.07882   0.08345
 Alpha virt. eigenvalues --    0.08766   0.09543   0.09694   0.10134   0.11962

 Mulliken charges:
               1
     1  C   -0.634048
     2  S   -0.381881
     3  H    0.146762
     4  H    0.146760
     5  Si   1.453136
     6  C   -0.110732
     7  C    0.211523
     8  C   -0.070439
     9  C    0.095981
    10  C    0.347036
    11  H   -0.233017
    12  H   -0.231614
    13  H   -0.308643
    14  H   -0.320954
    15  H   -0.221731
    16  H    0.111862
 Sum of Mulliken charges =  -0.00000

 Dipole moment (field-independent basis, Debye):
    X=              1.3266    Y=              1.4074    Z=              0.0000  Tot=              1.9340

 Test job not archived.
 1\1\GINC-SE165\SP\RHF\Aug-CC-pVDZ\C6H8S1Si1\OHZDE\09-Apr-2025\0\\#t hf
  aug-cc-pvdz iop(5/13=1,5/36=2,99/5=2) pseudo=read geom=check guess=(r
 ead,tcheck) scf=(maxcycle=1)\\title\\0,1\C,0,2.939386,0.976486,0.00000
 1\S,0,2.209782,-0.715836,0.000001\H,0,2.64958,1.525318,-0.894565\H,0,2
 .649579,1.525318,0.894566\Si,0,0.135842,-0.24964,0.\C,0,-0.560991,1.37
 2955,-0.000001\C,0,-1.959764,1.439494,-0.000001\C,0,-1.137214,-1.47359
 3,0.\C,0,-2.449206,-0.993536,-0.000001\C,0,-2.839387,0.352448,-0.00000
 1\H,0,-3.902142,0.56643,-0.000002\H,0,-2.410969,2.43007,-0.000002\H,0,

 Normal termination of Gaussian 16 at Wed Apr  9 00:16:36 2025.
