 Gaussian 16, Revision C.01,

 ----------------------------------------------------------------------
 #t hf aug-cc-pvdz symm=none int=(grid=ultrafine) guess=(read,tcheck) s
 table=(opt,rrhf)
 ----------------------------------------------------------------------
 -----
 title
 -----
 Symbolic Z-matrix:
 Charge =  0 Multiplicity = 1

 SCF Done:  E(RHF) =  -796.371988637     A.U. after   17 cycles
 Normal termination of Gaussian 16 at Tue Apr  8 23:36:47 2025.
 Gaussian 16:  ES64L-G16RevC.01  3-Jul-2019

 ----------------------------------------------------------------------
 #t hf aug-cc-pvdz iop(5/13=1,5/36=2,99/5=2) pseudo=read geom=check gue
 ss=(read,tcheck) scf=(maxcycle=1)
 ----------------------------------------------------------------------
 -----
 title
 -----
 Structure from the checkpoint file:  "BDE49_nonexpt_1486_mol1.chk"
 Charge =  0 Multiplicity = 1

                         Standard orientation:
 ---------------------------------------------------------------------
 Center     Atomic      Atomic             Coordinates (Angstroms)
 Number     Number       Type             X           Y           Z
 ---------------------------------------------------------------------
      1          6           0        1.584295   -1.410750   -0.015340
      2          6           0        2.780385   -0.700838   -0.030655
      3          6           0        2.780385    0.700838   -0.030653
      4          6           0        1.584295    1.410749   -0.015335
      5          6           0        0.384500    0.699658   -0.005144
      6          6           0        0.384500   -0.699659   -0.005147
      7          1           0        1.564508   -2.493930   -0.007312
      8          1           0        1.564507    2.493929   -0.007301
      9          1           0        3.723852   -1.234675   -0.038916
     10          1           0        3.723852    1.234675   -0.038911
     11          6           0       -0.967775   -1.332130    0.035873
     12          6           0       -0.967775    1.332129    0.035889
     13         15           0       -2.289665    0.000001   -0.247373
     14          8           0       -1.175530   -2.511162    0.182091
     15          8           0       -1.175527    2.511164    0.182080
     16          1           0       -2.800147   -0.000005    1.072737
 ---------------------------------------------------------------------

 SCF Done:  E(RHF) =  -796.860842249     A.U. after    2 cycles

 The electronic state is 1-A.
 Alpha  occ. eigenvalues --  -84.30433 -20.56563 -20.56563 -11.36948 -11.36934
 Alpha  occ. eigenvalues --  -11.28352 -11.28281 -11.28246 -11.28167 -11.28007
 Alpha  occ. eigenvalues --  -11.27964  -6.77667  -4.30191  -4.30096  -4.29451
 Alpha  occ. eigenvalues --   -1.49779  -1.49726  -1.20269  -1.09623  -1.06125
 Alpha  occ. eigenvalues --   -0.96721  -0.91898  -0.86301  -0.79762  -0.79267
 Alpha  occ. eigenvalues --   -0.71220  -0.68685  -0.68538  -0.65064  -0.64817
 Alpha  occ. eigenvalues --   -0.62537  -0.61362  -0.57454  -0.56976  -0.55657
 Alpha  occ. eigenvalues --   -0.54078  -0.52301  -0.45412  -0.38876  -0.38296
 Alpha  occ. eigenvalues --   -0.37936  -0.36834
 Alpha virt. eigenvalues --    0.02569   0.03126   0.03515   0.04057   0.04390
 Alpha virt. eigenvalues --    0.05394   0.06153   0.07536   0.07999   0.08543
 Alpha virt. eigenvalues --    0.09730   0.10678   0.10746   0.12271   0.12779

 Mulliken charges:
               1
     1  C    0.173774
     2  C    0.027783
     3  C    0.027786
     4  C    0.173785
     5  C    1.171340
     6  C    1.171357
     7  H   -0.258187
     8  H   -0.258188
     9  H   -0.221255
    10  H   -0.221255
    11  C    0.060843
    12  C    0.060838
    13  P    0.416192
    14  O   -1.435439
    15  O   -1.435446
    16  H    0.546073
 Sum of Mulliken charges =  -0.00000

 Dipole moment (field-independent basis, Debye):
    X=              3.0541    Y=             -0.0000    Z=             -0.1985  Tot=              3.0605

 Test job not archived.
 1\1\GINC-SE165\SP\RHF\Aug-CC-pVDZ\C8H5O2P1\OHZDE\08-Apr-2025\0\\#t hf
 aug-cc-pvdz iop(5/13=1,5/36=2,99/5=2) pseudo=read geom=check guess=(re
 ad,tcheck) scf=(maxcycle=1)\\title\\0,1\C,0,1.584295,-1.41075,-0.01534
 \C,0,2.780385,-0.700838,-0.030655\C,0,2.780385,0.700838,-0.030653\C,0,
 1.584295,1.410749,-0.015335\C,0,0.3845,0.699658,-0.005144\C,0,0.3845,-
 0.699659,-0.005147\H,0,1.564508,-2.49393,-0.007312\H,0,1.564507,2.4939
 29,-0.007301\H,0,3.723852,-1.234675,-0.038916\H,0,3.723852,1.234675,-0
 .038911\C,0,-0.967775,-1.33213,0.035873\C,0,-0.967775,1.332129,0.03588

 Normal termination of Gaussian 16 at Tue Apr  8 23:37:00 2025.
