 Gaussian 16, Revision C.01,

 ----------------------------------------------------------------------
 #t hf aug-cc-pvdz symm=none int=(grid=ultrafine) guess=(read,tcheck) s
 table=(opt,rrhf)
 ----------------------------------------------------------------------
 -----
 title
 -----
 Symbolic Z-matrix:
 Charge =  0 Multiplicity = 1

 SCF Done:  E(RHF) =  -519.556760280     A.U. after   14 cycles
 Normal termination of Gaussian 16 at Wed Apr  9 00:41:54 2025.
 Gaussian 16:  ES64L-G16RevC.01  3-Jul-2019

 ----------------------------------------------------------------------
 #t hf aug-cc-pvdz iop(5/13=1,5/36=2,99/5=2) pseudo=read geom=check gue
 ss=(read,tcheck) scf=(maxcycle=1)
 ----------------------------------------------------------------------
 -----
 title
 -----
 Structure from the checkpoint file:  "BDE49_nonexpt_699_mol1.chk"
 Charge =  0 Multiplicity = 1

                         Standard orientation:
 ---------------------------------------------------------------------
 Center     Atomic      Atomic             Coordinates (Angstroms)
 Number     Number       Type             X           Y           Z
 ---------------------------------------------------------------------
      1         15           0        0.085492   -1.157348   -0.226489
      2          5           0        1.593108    0.044295    0.031069
      3          8           0        1.439973    1.379887    0.078861
      4          6           0       -1.258920   -0.114092    0.446918
      5          6           0       -1.831758    0.873833   -0.249486
      6          1           0       -1.581764   -0.298948    1.468279
      7          1           0       -1.575567    1.072015   -1.286914
      8          1           0       -2.607495    1.497147    0.182887
      9          1           0        0.507641    1.649523    0.093454
     10          1           0        2.699096   -0.399408    0.071292
     11          1           0        0.334454   -1.979129    0.897510
 ---------------------------------------------------------------------

 SCF Done:  E(RHF) =  -519.785186588     A.U. after    2 cycles

 The electronic state is 1-A.
 Alpha  occ. eigenvalues --  -84.26229 -20.56998 -11.26735 -11.25787  -7.63382
 Alpha  occ. eigenvalues --   -6.73643  -4.26329  -4.26038  -4.25444  -1.47137
 Alpha  occ. eigenvalues --   -1.06736  -0.88824  -0.77909  -0.75722  -0.65803
 Alpha  occ. eigenvalues --   -0.62366  -0.59789  -0.56465  -0.54207  -0.49284
 Alpha  occ. eigenvalues --   -0.43567  -0.41379  -0.32397
 Alpha virt. eigenvalues --    0.03307   0.03889   0.04220   0.05346   0.05662
 Alpha virt. eigenvalues --    0.06450   0.07129   0.09107   0.09127   0.09487
 Alpha virt. eigenvalues --    0.11000   0.11847   0.13113   0.13174   0.14173

 Mulliken charges:
               1
     1  P   -0.371363
     2  B    0.944617
     3  O   -1.189222
     4  C   -0.053493
     5  C   -0.147356
     6  H   -0.170336
     7  H   -0.086473
     8  H   -0.076498
     9  H    0.755967
    10  H    0.072093
    11  H    0.322063
 Sum of Mulliken charges =  -0.00000

 Dipole moment (field-independent basis, Debye):
    X=             -1.6380    Y=              0.1744    Z=              0.6421  Tot=              1.7679

 Test job not archived.
 1\1\GINC-SE342\SP\RHF\Aug-CC-pVDZ\C2H6B1O1P1\OHZDE\09-Apr-2025\0\\#t h
 f aug-cc-pvdz iop(5/13=1,5/36=2,99/5=2) pseudo=read geom=check guess=(
 read,tcheck) scf=(maxcycle=1)\\title\\0,1\P,0,0.085491,-1.157348,-0.22
 6489\B,0,1.593108,0.044294,0.031069\O,0,1.439974,1.379886,0.078861\C,0
 ,-1.25892,-0.114091,0.446918\C,0,-1.831757,0.873834,-0.249486\H,0,-1.5
 81764,-0.298947,1.468279\H,0,-1.575566,1.072016,-1.286914\H,0,-2.60749
 4,1.497149,0.182887\H,0,0.507642,1.649523,0.093454\H,0,2.699096,-0.399
 41,0.071292\H,0,0.334453,-1.979129,0.89751\\Version=ES64L-G16RevC.01\S

 Normal termination of Gaussian 16 at Wed Apr  9 00:41:57 2025.
