 Gaussian 16, Revision C.01,

 ----------------------------------------------------------------------
 #t hf aug-cc-pvdz symm=none int=(grid=ultrafine) guess=(read,tcheck) s
 table=(opt,rrhf)
 ----------------------------------------------------------------------
 -----
 title
 -----
 Symbolic Z-matrix:
 Charge =  0 Multiplicity = 1

 SCF Done:  E(RHF) =  -317.185982257     A.U. after   13 cycles
 Normal termination of Gaussian 16 at Wed Apr  9 00:32:55 2025.
 Gaussian 16:  ES64L-G16RevC.01  3-Jul-2019

 ----------------------------------------------------------------------
 #t hf aug-cc-pvdz iop(5/13=1,5/36=2,99/5=2) pseudo=read geom=check gue
 ss=(read,tcheck) scf=(maxcycle=1)
 ----------------------------------------------------------------------
 -----
 title
 -----
 Structure from the checkpoint file:  "BDE49_nonexpt_406_mol1.chk"
 Charge =  0 Multiplicity = 1

                         Standard orientation:
 ---------------------------------------------------------------------
 Center     Atomic      Atomic             Coordinates (Angstroms)
 Number     Number       Type             X           Y           Z
 ---------------------------------------------------------------------
      1          9           0       -1.594737   -0.761803   -0.000009
      2          9           0       -0.639581    1.292567    0.000009
      3          5           0       -0.497684   -0.025180    0.000008
      4          6           0        0.935036   -0.663496   -0.000006
      5          7           0        2.020691    0.009856   -0.000002
      6          1           0        1.810164    1.014532    0.000009
      7          1           0        1.032061   -1.753525    0.000001
 ---------------------------------------------------------------------

 SCF Done:  E(RHF) =  -317.482435389     A.U. after    2 cycles

 The electronic state is 1-A.
 Alpha  occ. eigenvalues --  -26.49875 -26.49802 -15.53915 -11.29368  -7.74073
 Alpha  occ. eigenvalues --   -1.65012  -1.61107  -1.23652  -0.89103  -0.82110
 Alpha  occ. eigenvalues --   -0.76752  -0.76246  -0.71238  -0.65818  -0.65144
 Alpha  occ. eigenvalues --   -0.64599  -0.62743  -0.49959  -0.47621
 Alpha virt. eigenvalues --    0.03367   0.03764   0.04634   0.05214   0.05443
 Alpha virt. eigenvalues --    0.07611   0.08909   0.11678   0.13836   0.16499
 Alpha virt. eigenvalues --    0.18271   0.19429   0.19729   0.21614   0.23823

 Mulliken charges:
               1
     1  F   -0.723575
     2  F   -0.616101
     3  B    1.585126
     4  C   -0.678135
     5  N    0.384731
     6  H    0.103403
     7  H   -0.055448
 Sum of Mulliken charges =  -0.00000

 Dipole moment (field-independent basis, Debye):
    X=             -1.0317    Y=             -0.2193    Z=              0.0001  Tot=              1.0547

 Test job not archived.
 1\1\GINC-SE459\SP\RHF\Aug-CC-pVDZ\C1H2B1F2N1\OHZDE\09-Apr-2025\0\\#t h
 f aug-cc-pvdz iop(5/13=1,5/36=2,99/5=2) pseudo=read geom=check guess=(
 read,tcheck) scf=(maxcycle=1)\\title\\0,1\F,0,-1.594737,-0.761803,-0.0
 00009\F,0,-0.639581,1.292567,0.000009\B,0,-0.497684,-0.02518,0.000008\
 C,0,0.935036,-0.663496,-0.000006\N,0,2.020691,0.009856,-0.000002\H,0,1
 .810164,1.014532,0.000009\H,0,1.032061,-1.753525,0.000001\\Version=ES6
 4L-G16RevC.01\State=1-A\HF=-317.4824354\RMSD=1.097e-02\Dipole=-0.40588
 99,-0.0862931,0.0000202\Quadrupole=-4.9651115,2.5522345,2.412877,0.960

 Normal termination of Gaussian 16 at Wed Apr  9 00:32:57 2025.
