 Gaussian 16, Revision C.01,

 ----------------------------------------------------------------------
 #t hf aug-cc-pvdz symm=none int=(grid=ultrafine) guess=(read,tcheck) s
 table=(opt,rrhf)
 ----------------------------------------------------------------------
 -----
 title
 -----
 Symbolic Z-matrix:
 Charge =  0 Multiplicity = 1

 SCF Done:  E(RHF) =  -259.474968453     A.U. after   12 cycles

 1\1\GINC-SE250\Stability\RHF\Aug-CC-pVDZ\C6H13B1\OHZDE\09-Apr-2025\0\\
 #t hf aug-cc-pvdz symm=none int=(grid=ultrafine) guess=(read,tcheck) s
 table=(opt,rrhf)\\title\\0,1\C,0,-1.169366,0.,0.384309\C,0,-0.319106,-
 1.269542,0.600794\C,0,0.903407,-1.271372,-0.330116\C,0,1.747585,0.,-0.
 1572\C,0,0.903407,1.271372,-0.330116\C,0,-0.319107,1.269542,0.600794\B
 ,0,-2.115447,0.,-0.850019\H,0,-0.924034,-2.165349,0.431305\H,0,0.02807
 6,-1.312071,1.641625\H,0,0.560324,-1.339973,-1.37166\H,0,1.517072,-2.1
 59437,-0.147238\H,0,2.582331,0.,-0.865723\H,0,2.191913,0.,0.846811\H,0

 Normal termination of Gaussian 16 at Wed Apr  9 00:29:00 2025.
 Gaussian 16:  ES64L-G16RevC.01  3-Jul-2019

 ----------------------------------------------------------------------
 #t hf aug-cc-pvdz iop(5/13=1,5/36=2,99/5=2) pseudo=read geom=check gue
 ss=(read,tcheck) scf=(maxcycle=1)
 ----------------------------------------------------------------------
 -----
 title
 -----
 Structure from the checkpoint file:  "BDE49_nonexpt_300_mol1.chk"
 Charge =  0 Multiplicity = 1

                         Standard orientation:
 ---------------------------------------------------------------------
 Center     Atomic      Atomic             Coordinates (Angstroms)
 Number     Number       Type             X           Y           Z
 ---------------------------------------------------------------------
      1          6           0       -1.169366   -0.000000    0.384309
      2          6           0       -0.319106   -1.269542    0.600794
      3          6           0        0.903407   -1.271372   -0.330116
      4          6           0        1.747585    0.000000   -0.157200
      5          6           0        0.903407    1.271372   -0.330116
      6          6           0       -0.319107    1.269542    0.600794
      7          5           0       -2.115447   -0.000001   -0.850019
      8          1           0       -0.924033   -2.165349    0.431305
      9          1           0        0.028076   -1.312071    1.641625
     10          1           0        0.560324   -1.339973   -1.371660
     11          1           0        1.517073   -2.159437   -0.147238
     12          1           0        2.582331    0.000001   -0.865723
     13          1           0        2.191913    0.000001    0.846811
     14          1           0        0.560324    1.339973   -1.371660
     15          1           0        1.517071    2.159437   -0.147238
     16          1           0        0.028076    1.312071    1.641625
     17          1           0       -0.924035    2.165349    0.431305
     18          1           0       -1.980451   -0.000001    1.151604
     19          1           0       -2.530177   -1.026931   -1.300728
     20          1           0       -2.530177    1.026929   -1.300728
 ---------------------------------------------------------------------

 SCF Done:  E(RHF) =  -259.762700643     A.U. after    2 cycles

 The electronic state is 1-A.
 Alpha  occ. eigenvalues --  -11.22436 -11.22416 -11.22396 -11.22382 -11.22329
 Alpha  occ. eigenvalues --  -11.21072  -7.58742  -1.11410  -1.00321  -1.00066
 Alpha  occ. eigenvalues --   -0.84100  -0.83065  -0.76523  -0.67367  -0.64636
 Alpha  occ. eigenvalues --   -0.61492  -0.60987  -0.57374  -0.53606  -0.53364
 Alpha  occ. eigenvalues --   -0.53302  -0.49467  -0.47421  -0.46877  -0.44137
 Alpha  occ. eigenvalues --   -0.42955  -0.42723
 Alpha virt. eigenvalues --    0.03176   0.03330   0.03354   0.03811   0.05261
 Alpha virt. eigenvalues --    0.05453   0.05893   0.05973   0.06426   0.08748
 Alpha virt. eigenvalues --    0.09019   0.09170   0.09299   0.09616   0.11028

 Mulliken charges:
               1
     1  C   -0.196644
     2  C   -0.201212
     3  C   -0.265242
     4  C   -0.244924
     5  C   -0.265242
     6  C   -0.201212
     7  B   -0.990865
     8  H    0.081390
     9  H    0.161772
    10  H    0.175073
    11  H    0.095091
    12  H    0.094659
    13  H    0.147087
    14  H    0.175073
    15  H    0.095091
    16  H    0.161774
    17  H    0.081389
    18  H    0.264972
    19  H    0.415985
    20  H    0.415985
 Sum of Mulliken charges =   0.00000

 Dipole moment (field-independent basis, Debye):
    X=              0.3735    Y=              0.0000    Z=              0.4952  Tot=              0.6203

 Test job not archived.
 1\1\GINC-SE250\SP\RHF\Aug-CC-pVDZ\C6H13B1\OHZDE\09-Apr-2025\0\\#t hf a
 ug-cc-pvdz iop(5/13=1,5/36=2,99/5=2) pseudo=read geom=check guess=(rea
 d,tcheck) scf=(maxcycle=1)\\title\\0,1\C,0,-1.169366,0.,0.384309\C,0,-
 0.319106,-1.269542,0.600794\C,0,0.903407,-1.271372,-0.330116\C,0,1.747
 585,0.,-0.1572\C,0,0.903407,1.271372,-0.330116\C,0,-0.319107,1.269542,
 0.600794\B,0,-2.115447,0.,-0.850019\H,0,-0.924034,-2.165349,0.431305\H
 ,0,0.028076,-1.312071,1.641625\H,0,0.560324,-1.339973,-1.37166\H,0,1.5
 17072,-2.159437,-0.147238\H,0,2.582331,0.,-0.865723\H,0,2.191913,0.,0.

 Normal termination of Gaussian 16 at Wed Apr  9 00:29:08 2025.
