 Gaussian 16, Revision C.01,

 ----------------------------------------------------------------------
 #t hf aug-cc-pvdz symm=none int=(grid=ultrafine) guess=(read,tcheck) s
 table=(opt,rrhf)
 ----------------------------------------------------------------------
 -----
 title
 -----
 Symbolic Z-matrix:
 Charge =  0 Multiplicity = 1

 SCF Done:  E(RHF) =  -786.225888995     A.U. after   15 cycles
 Normal termination of Gaussian 16 at Wed Apr  9 00:46:16 2025.
 Gaussian 16:  ES64L-G16RevC.01  3-Jul-2019

 ----------------------------------------------------------------------
 #t hf aug-cc-pvdz iop(5/13=1,5/36=2,99/5=2) pseudo=read geom=check gue
 ss=(read,tcheck) scf=(maxcycle=1)
 ----------------------------------------------------------------------
 -----
 title
 -----
 Structure from the checkpoint file:  "BDE49_nonexpt_746_mol1.chk"
 Charge =  0 Multiplicity = 1

                         Standard orientation:
 ---------------------------------------------------------------------
 Center     Atomic      Atomic             Coordinates (Angstroms)
 Number     Number       Type             X           Y           Z
 ---------------------------------------------------------------------
      1          6           0        2.107997   -0.857909   -0.860746
      2          6           0        0.781064   -1.204650   -0.634003
      3          6           0        2.735099    0.152540   -0.121167
      4          6           0        1.984300    0.797427    0.863463
      5          6           0        0.658161    0.441532    1.108610
      6          6           0        0.026439   -0.559214    0.356678
      7          1           0        2.666402   -1.376803   -1.634063
      8          1           0        0.325452   -1.982587   -1.236561
      9          5           0       -2.626362    0.447458   -0.266844
     10          8           0       -3.942412    0.266325   -0.558197
     11          8           0       -2.016221    1.617644   -0.608533
     12          1           0        2.443343    1.579606    1.459799
     13          6           0        4.180489    0.509604   -0.368799
     14          1           0        4.386123    0.619448   -1.437153
     15          1           0        4.849314   -0.269768    0.011412
     16          1           0        4.449851    1.445545    0.124582
     17          1           0        0.116997    0.938365    1.908583
     18          1           0       -1.069088    1.616504   -0.427076
     19          1           0       -4.316344    1.024392   -1.023646
     20         15           0       -1.731299   -0.972885    0.739182
     21          1           0       -1.922979   -1.986451   -0.229773
 ---------------------------------------------------------------------

 SCF Done:  E(RHF) =  -786.724366650     A.U. after    2 cycles

 The electronic state is 1-A.
 Alpha  occ. eigenvalues --  -84.25746 -20.56229 -20.55884 -11.25739 -11.25635
 Alpha  occ. eigenvalues --  -11.25339 -11.25252 -11.24900 -11.24807 -11.24270
 Alpha  occ. eigenvalues --   -7.65371  -6.73042  -4.26099  -4.25581  -4.25031
 Alpha  occ. eigenvalues --   -1.48527  -1.44369  -1.16646  -1.06050  -1.02446
 Alpha  occ. eigenvalues --   -0.95597  -0.86577  -0.84624  -0.80200  -0.76608
 Alpha  occ. eigenvalues --   -0.72982  -0.67904  -0.66537  -0.64183  -0.61609
 Alpha  occ. eigenvalues --   -0.60462  -0.59013  -0.57574  -0.56282  -0.55764
 Alpha  occ. eigenvalues --   -0.54921  -0.51223  -0.50584  -0.49554  -0.47891
 Alpha  occ. eigenvalues --   -0.44042  -0.37235  -0.35642  -0.30733
 Alpha virt. eigenvalues --    0.03126   0.03427   0.03480   0.04247   0.04671
 Alpha virt. eigenvalues --    0.05203   0.05864   0.06857   0.07291   0.07767
 Alpha virt. eigenvalues --    0.08507   0.08731   0.09361   0.09772   0.10172

 Mulliken charges:
               1
     1  C    0.790923
     2  C   -0.214770
     3  C    0.258307
     4  C    0.611517
     5  C   -0.373658
     6  C    0.365048
     7  H   -0.302290
     8  H   -0.302370
     9  B    2.043926
    10  O   -1.312051
    11  O   -1.380179
    12  H   -0.306756
    13  C   -0.725640
    14  H    0.192828
    15  H    0.268256
    16  H    0.066379
    17  H   -0.282892
    18  H    0.775600
    19  H    0.527581
    20  P   -0.834032
    21  H    0.134272
 Sum of Mulliken charges =  -0.00000

 Dipole moment (field-independent basis, Debye):
    X=              2.2652    Y=              0.8912    Z=             -0.9034  Tot=              2.5965

 Test job not archived.
 1\1\GINC-SE084\SP\RHF\Aug-CC-pVDZ\C7H10B1O2P1\OHZDE\09-Apr-2025\0\\#t
 hf aug-cc-pvdz iop(5/13=1,5/36=2,99/5=2) pseudo=read geom=check guess=
 (read,tcheck) scf=(maxcycle=1)\\title\\0,1\C,0,2.107997,-0.857909,-0.8
 60746\C,0,0.781064,-1.20465,-0.634003\C,0,2.735099,0.15254,-0.121167\C
 ,0,1.9843,0.797427,0.863463\C,0,0.658161,0.441532,1.10861\C,0,0.026439
 ,-0.559214,0.356678\H,0,2.666402,-1.376803,-1.634063\H,0,0.325452,-1.9
 82587,-1.236561\B,0,-2.626362,0.447458,-0.266844\O,0,-3.942412,0.26632
 5,-0.558197\O,0,-2.016221,1.617644,-0.608533\H,0,2.443343,1.579606,1.4

 Normal termination of Gaussian 16 at Wed Apr  9 00:46:33 2025.
