 Gaussian 16, Revision C.01,

 ----------------------------------------------------------------------
 #t hf aug-cc-pvdz symm=none int=(grid=ultrafine) guess=(read,tcheck) s
 table=(opt,rrhf)
 ----------------------------------------------------------------------
 -----
 title
 -----
 Symbolic Z-matrix:
 Charge =  0 Multiplicity = 1

 SCF Done:  E(RHF) =  -995.802262890     A.U. after   14 cycles
 Normal termination of Gaussian 16 at Tue Apr  8 23:47:52 2025.
 Gaussian 16:  ES64L-G16RevC.01  3-Jul-2019

 ----------------------------------------------------------------------
 #t hf aug-cc-pvdz iop(5/13=1,5/36=2,99/5=2) pseudo=read geom=check gue
 ss=(read,tcheck) scf=(maxcycle=1)
 ----------------------------------------------------------------------
 -----
 title
 -----
 Structure from the checkpoint file:  "BDE49_nonexpt_1794_mol1.chk"
 Charge =  0 Multiplicity = 1

                         Standard orientation:
 ---------------------------------------------------------------------
 Center     Atomic      Atomic             Coordinates (Angstroms)
 Number     Number       Type             X           Y           Z
 ---------------------------------------------------------------------
      1          6           0       -2.300750    1.233632    0.019837
      2          6           0       -0.961995    1.141329    0.377844
      3          6           0       -2.964416    0.071861   -0.371962
      4          7           0       -2.384163   -1.130265   -0.421099
      5          6           0       -1.096328   -1.201376   -0.074893
      6          6           0       -0.320379   -0.105451    0.334042
      7          1           0       -2.824809    2.181737    0.042918
      8          1           0       -0.422366    2.030622    0.688055
      9          1           0       -0.656189   -2.194505   -0.124639
     10         14           0        1.470272   -0.319589    0.800969
     11         17           0        2.724124    0.272085   -0.761607
     12          1           0       -4.011909    0.107362   -0.658688
     13          1           0        1.756601   -1.740241    1.072740
     14          1           0        1.817100    0.535704    1.951855
 ---------------------------------------------------------------------

 SCF Done:  E(RHF) =  -996.163259042     A.U. after    2 cycles

 The electronic state is 1-A.
 Alpha  occ. eigenvalues -- -105.55685 -69.58611 -15.51615 -11.29892 -11.29738
 Alpha  occ. eigenvalues --  -11.28448 -11.26061 -11.25086 -10.60678  -7.77564
 Alpha  occ. eigenvalues --   -7.77261  -7.77257  -6.25263  -4.00693  -4.00563
 Alpha  occ. eigenvalues --   -4.00550  -1.27122  -1.10487  -1.05824  -1.04361
 Alpha  occ. eigenvalues --   -0.89009  -0.88307  -0.76596  -0.72503  -0.70416
 Alpha  occ. eigenvalues --   -0.64932  -0.60644  -0.59254  -0.57696  -0.54104
 Alpha  occ. eigenvalues --   -0.53652  -0.52269  -0.47350  -0.45742  -0.44861
 Alpha  occ. eigenvalues --   -0.41598  -0.37140
 Alpha virt. eigenvalues --    0.02967   0.03807   0.03959   0.04756   0.05241
 Alpha virt. eigenvalues --    0.05683   0.06181   0.07794   0.08343   0.09027
 Alpha virt. eigenvalues --    0.09601   0.09863   0.10783   0.12728   0.12874

 Mulliken charges:
               1
     1  C    0.687141
     2  C    0.696590
     3  C   -0.769945
     4  N    0.928028
     5  C   -0.543669
     6  C   -0.420164
     7  H   -0.183520
     8  H   -0.262568
     9  H   -0.225803
    10  Si   1.135066
    11  Cl  -0.594782
    12  H   -0.158387
    13  H   -0.151392
    14  H   -0.136594
 Sum of Mulliken charges =  -0.00000

 Dipole moment (field-independent basis, Debye):
    X=             -0.8073    Y=              1.8098    Z=              1.7366  Tot=              2.6349

 Test job not archived.
 1\1\GINC-SE252\SP\RHF\Aug-CC-pVDZ\C5H6Cl1N1Si1\OHZDE\08-Apr-2025\0\\#t
  hf aug-cc-pvdz iop(5/13=1,5/36=2,99/5=2) pseudo=read geom=check guess
 =(read,tcheck) scf=(maxcycle=1)\\title\\0,1\C,0,-2.30075,1.233632,0.01
 9837\C,0,-0.961995,1.141329,0.377844\C,0,-2.964416,0.071861,-0.371962\
 N,0,-2.384163,-1.130265,-0.421099\C,0,-1.096328,-1.201376,-0.074893\C,
 0,-0.320379,-0.105451,0.334042\H,0,-2.824809,2.181737,0.042918\H,0,-0.
 422366,2.030622,0.688055\H,0,-0.656189,-2.194505,-0.124639\Si,0,1.4702
 72,-0.319589,0.800969\Cl,0,2.724124,0.272085,-0.761607\H,0,-4.011909,0

 Normal termination of Gaussian 16 at Tue Apr  8 23:47:58 2025.
