 Gaussian 16, Revision C.01,

 ----------------------------------------------------------------------
 #t hf aug-cc-pvdz symm=none int=(grid=ultrafine) guess=(read,tcheck) s
 table=(opt,rrhf)
 ----------------------------------------------------------------------
 -----
 title
 -----
 Symbolic Z-matrix:
 Charge =  0 Multiplicity = 1

 SCF Done:  E(RHF) =  -656.259354466     A.U. after   11 cycles

 1\1\GINC-SE424\Stability\RHF\Aug-CC-pVDZ\H6O1Si2\OHZDE\09-Apr-2025\0\\
 #t hf aug-cc-pvdz symm=none int=(grid=ultrafine) guess=(read,tcheck) s
 table=(opt,rrhf)\\title\\0,1\Si,0,-0.707837,0.546654,-0.017866\Si,0,1.
 546879,-0.161362,0.008045\O,0,-1.775211,-0.720735,0.097825\H,0,-1.7431
 48,-1.415357,-0.563573\H,0,2.452133,1.008347,-0.12049\H,0,1.813421,-1.
 08118,-1.128197\H,0,1.872648,-0.878554,1.26498\H,0,-0.997698,1.397621,
 1.155682\H,0,-0.942264,1.340916,-1.253508\\Version=ES64L-G16RevC.01\HF
 =-656.2593545\RMSD=4.154e-09\Dipole=0.1836919,-0.1772511,-0.4228845\Qu

 Normal termination of Gaussian 16 at Wed Apr  9 00:09:29 2025.
 Gaussian 16:  ES64L-G16RevC.01  3-Jul-2019

 ----------------------------------------------------------------------
 #t hf aug-cc-pvdz iop(5/13=1,5/36=2,99/5=2) pseudo=read geom=check gue
 ss=(read,tcheck) scf=(maxcycle=1)
 ----------------------------------------------------------------------
 -----
 title
 -----
 Structure from the checkpoint file:  "BDE49_nonexpt_2336_mol1.chk"
 Charge =  0 Multiplicity = 1

                         Standard orientation:
 ---------------------------------------------------------------------
 Center     Atomic      Atomic             Coordinates (Angstroms)
 Number     Number       Type             X           Y           Z
 ---------------------------------------------------------------------
      1         14           0        0.707837    0.546654    0.017866
      2         14           0       -1.546879   -0.161362   -0.008045
      3          8           0        1.775211   -0.720736   -0.097825
      4          1           0        1.743147   -1.415357    0.563573
      5          1           0       -2.452133    1.008348    0.120490
      6          1           0       -1.813421   -1.081180    1.128197
      7          1           0       -1.872648   -0.878554   -1.264980
      8          1           0        0.997698    1.397621   -1.155682
      9          1           0        0.942264    1.340916    1.253508
 ---------------------------------------------------------------------

 SCF Done:  E(RHF) =  -656.405804727     A.U. after    2 cycles

 The electronic state is 1-A.
 Alpha  occ. eigenvalues --  -69.56009 -69.52684 -20.55330  -6.22677  -6.19940
 Alpha  occ. eigenvalues --   -3.98142  -3.98002  -3.97976  -3.95293  -3.95288
 Alpha  occ. eigenvalues --   -3.95275  -1.43681  -0.79001  -0.73287  -0.63711
 Alpha  occ. eigenvalues --   -0.55726  -0.54316  -0.49597  -0.49208  -0.46754
 Alpha  occ. eigenvalues --   -0.40104
 Alpha virt. eigenvalues --    0.03503   0.04010   0.04792   0.05983   0.07175
 Alpha virt. eigenvalues --    0.07338   0.07523   0.08152   0.08897   0.09826
 Alpha virt. eigenvalues --    0.10459   0.10628   0.13689   0.15140   0.15464

 Mulliken charges:
               1
     1  Si   1.303891
     2  Si   0.376122
     3  O   -1.297373
     4  H    0.404978
     5  H   -0.158235
     6  H   -0.153141
     7  H   -0.153540
     8  H   -0.151254
     9  H   -0.171448
 Sum of Mulliken charges =  -0.00000

 Dipole moment (field-independent basis, Debye):
    X=             -0.4440    Y=             -0.4556    Z=              1.0431  Tot=              1.2218

 Test job not archived.
 1\1\GINC-SE424\SP\RHF\Aug-CC-pVDZ\H6O1Si2\OHZDE\09-Apr-2025\0\\#t hf a
 ug-cc-pvdz iop(5/13=1,5/36=2,99/5=2) pseudo=read geom=check guess=(rea
 d,tcheck) scf=(maxcycle=1)\\title\\0,1\Si,0,-0.707837,0.546654,-0.0178
 66\Si,0,1.546879,-0.161362,0.008045\O,0,-1.775211,-0.720735,0.097825\H
 ,0,-1.743148,-1.415357,-0.563573\H,0,2.452133,1.008347,-0.12049\H,0,1.
 813421,-1.08118,-1.128197\H,0,1.872648,-0.878554,1.26498\H,0,-0.997698
 ,1.397621,1.155682\H,0,-0.942264,1.340916,-1.253508\\Version=ES64L-G16
 RevC.01\State=1-A\HF=-656.4058047\RMSD=4.504e-03\Dipole=0.1746936,-0.1

 Normal termination of Gaussian 16 at Wed Apr  9 00:09:31 2025.
