 Gaussian 16, Revision C.01,

 ----------------------------------------------------------------------
 #t hf aug-cc-pvdz symm=none int=(grid=ultrafine) guess=(read,tcheck) s
 table=(opt,rrhf)
 ----------------------------------------------------------------------
 -----
 title
 -----
 Symbolic Z-matrix:
 Charge =  0 Multiplicity = 1

 SCF Done:  E(RHF) =  -1261.80295411     A.U. after   16 cycles
 Normal termination of Gaussian 16 at Wed Apr  9 00:25:01 2025.
 Gaussian 16:  ES64L-G16RevC.01  3-Jul-2019

 ----------------------------------------------------------------------
 #t hf aug-cc-pvdz iop(5/13=1,5/36=2,99/5=2) pseudo=read geom=check gue
 ss=(read,tcheck) scf=(maxcycle=1)
 ----------------------------------------------------------------------
 -----
 title
 -----
 Structure from the checkpoint file:  "BDE49_nonexpt_2516_mol1.chk"
 Charge =  0 Multiplicity = 1

                         Standard orientation:
 ---------------------------------------------------------------------
 Center     Atomic      Atomic             Coordinates (Angstroms)
 Number     Number       Type             X           Y           Z
 ---------------------------------------------------------------------
      1          6           0       -2.130090   -0.501184    1.411841
      2          6           0       -0.903830   -1.130709    1.271943
      3          6           0       -2.855365   -0.105425    0.280897
      4          6           0       -2.334062   -0.352914   -0.991498
      5          6           0       -1.097874   -0.986409   -1.122154
      6          6           0       -0.368687   -1.376547   -0.000064
      7          1           0       -0.352747   -1.439129    2.151532
      8          1           0       -2.553243   -0.307018    2.389997
      9          8           0       -4.049534    0.504005    0.526054
     10          1           0       -2.874174   -0.064233   -1.883096
     11          1           0       -0.700353   -1.180175   -2.110673
     12         16           0        1.186845   -2.260420   -0.182255
     13         14           0        2.655483   -0.651131   -0.171733
     14          6           0        2.682719    0.299539    1.413477
     15          6           0        2.459353    0.522190   -1.586887
     16          6           0        1.843099    1.726983   -1.593098
     17          6           0        2.086836    1.483235    1.687519
     18          6           0        1.327380    2.373414    0.834813
     19          6           0        1.227273    2.473945   -0.516474
     20          1           0        3.214864   -0.165852    2.242569
     21          1           0        2.164769    1.847611    2.711757
     22          1           0        2.858896    0.189692   -2.544479
     23          1           0        1.774411    2.239187   -2.552798
     24          1           0        0.784324    3.135964    1.387308
     25          1           0        0.618206    3.304323   -0.864786
     26          6           0       -4.840779    0.914285   -0.579913
     27          1           0       -4.319941    1.657979   -1.193583
     28          1           0       -5.736190    1.364028   -0.154066
     29          1           0       -5.127429    0.062846   -1.207208
     30          1           0        3.902758   -1.437125   -0.322971
 ---------------------------------------------------------------------

 SCF Done:  E(RHF) =  -1262.48169703     A.U. after    2 cycles

 The electronic state is 1-A.
 Alpha  occ. eigenvalues --  -93.92987 -69.54589 -20.57543 -11.31035 -11.29889
 Alpha  occ. eigenvalues --  -11.26368 -11.26251 -11.26215 -11.25661 -11.25558
 Alpha  occ. eigenvalues --  -11.25079 -11.24926 -11.24091 -11.23653 -11.23440
 Alpha  occ. eigenvalues --  -11.23419  -8.21194  -6.21454  -6.18998  -6.18848
 Alpha  occ. eigenvalues --   -6.18683  -3.96808  -3.96789  -3.96755  -1.49940
 Alpha  occ. eigenvalues --   -1.16059  -1.11842  -1.05429  -1.05281  -1.02458
 Alpha  occ. eigenvalues --   -0.99812  -0.97415  -0.92588  -0.87635  -0.84670
 Alpha  occ. eigenvalues --   -0.82324  -0.80125  -0.72956  -0.70578  -0.69316
 Alpha  occ. eigenvalues --   -0.69111  -0.68217  -0.65940  -0.64173  -0.63596
 Alpha  occ. eigenvalues --   -0.62354  -0.60282  -0.59239  -0.59036  -0.56464
 Alpha  occ. eigenvalues --   -0.54250  -0.53207  -0.53040  -0.50664  -0.50062
 Alpha  occ. eigenvalues --   -0.49110  -0.47061  -0.46598  -0.46465  -0.43147
 Alpha  occ. eigenvalues --   -0.39764  -0.36126  -0.35068  -0.32208  -0.30739
 Alpha virt. eigenvalues --    0.02665   0.02983   0.03242   0.03707   0.04438
 Alpha virt. eigenvalues --    0.04571   0.04766   0.05096   0.05360   0.06171
 Alpha virt. eigenvalues --    0.06528   0.06987   0.07681   0.07859   0.08319

 Mulliken charges:
               1
     1  C    0.357508
     2  C    0.287657
     3  C    1.558197
     4  C   -0.016984
     5  C    0.050286
     6  C    0.401471
     7  H   -0.328530
     8  H   -0.341565
     9  O   -1.910493
    10  H   -0.455700
    11  H   -0.305236
    12  S   -0.490448
    13  Si   2.033091
    14  C   -0.519210
    15  C   -0.531763
    16  C    0.514321
    17  C    0.508264
    18  C    0.461378
    19  C    0.464599
    20  H   -0.346366
    21  H   -0.276201
    22  H   -0.345366
    23  H   -0.279537
    24  H   -0.319973
    25  H   -0.322727
    26  C    0.124945
    27  H    0.163337
    28  H   -0.047196
    29  H    0.185222
    30  H   -0.272982
 Sum of Mulliken charges =  -0.00000

 Dipole moment (field-independent basis, Debye):
    X=             -1.5395    Y=              3.0909    Z=             -0.8771  Tot=              3.5627

 Test job not archived.
 1\1\GINC-SE340\SP\RHF\Aug-CC-pVDZ\C13H14O1S1Si1\OHZDE\09-Apr-2025\0\\#
 t hf aug-cc-pvdz iop(5/13=1,5/36=2,99/5=2) pseudo=read geom=check gues
 s=(read,tcheck) scf=(maxcycle=1)\\title\\0,1\C,0,-2.13009,-0.501184,1.
 411841\C,0,-0.90383,-1.130709,1.271943\C,0,-2.855365,-0.105425,0.28089
 7\C,0,-2.334062,-0.352914,-0.991498\C,0,-1.097874,-0.986409,-1.122154\
 C,0,-0.368687,-1.376547,-0.000064\H,0,-0.352747,-1.439129,2.151532\H,0
 ,-2.553243,-0.307018,2.389997\O,0,-4.049534,0.504005,0.526054\H,0,-2.8
 74174,-0.064233,-1.883096\H,0,-0.700353,-1.180175,-2.110673\S,0,1.1868

 Normal termination of Gaussian 16 at Wed Apr  9 00:25:36 2025.
