 Gaussian 16, Revision C.01,

 ----------------------------------------------------------------------
 #t hf aug-cc-pvdz symm=none int=(grid=ultrafine) guess=(read,tcheck) s
 table=(opt,rrhf)
 ----------------------------------------------------------------------
 -----
 title
 -----
 Symbolic Z-matrix:
 Charge =  0 Multiplicity = 1

 SCF Done:  E(RHF) =  -182.561198957     A.U. after   12 cycles

 1\1\GINC-SE343\Stability\RHF\Aug-CC-pVDZ\C4H11B1\OHZDE\09-Apr-2025\0\\
 #t hf aug-cc-pvdz symm=none int=(grid=ultrafine) guess=(read,tcheck) s
 table=(opt,rrhf)\\title\\0,1\B,0,-2.293883,-0.758517,-0.170579\C,0,-1.
 490912,0.518022,0.205816\C,0,2.362439,-0.189265,-0.111738\H,0,-1.55472
 4,0.736721,1.280143\H,0,-2.123807,1.308441,-0.248788\C,0,-0.047631,0.6
 55448,-0.302985\C,0,0.920269,-0.313993,0.386219\H,0,0.311298,1.681196,
 -0.153897\H,0,-0.02528,0.475275,-1.384597\H,0,0.568654,-1.342167,0.232
 511\H,0,0.890533,-0.141278,1.469279\H,0,2.752774,0.819173,0.057656\H,0

 Normal termination of Gaussian 16 at Wed Apr  9 00:21:53 2025.
 Gaussian 16:  ES64L-G16RevC.01  3-Jul-2019

 ----------------------------------------------------------------------
 #t hf aug-cc-pvdz iop(5/13=1,5/36=2,99/5=2) pseudo=read geom=check gue
 ss=(read,tcheck) scf=(maxcycle=1)
 ----------------------------------------------------------------------
 -----
 title
 -----
 Structure from the checkpoint file:  "BDE49_nonexpt_263_mol1.chk"
 Charge =  0 Multiplicity = 1

                         Standard orientation:
 ---------------------------------------------------------------------
 Center     Atomic      Atomic             Coordinates (Angstroms)
 Number     Number       Type             X           Y           Z
 ---------------------------------------------------------------------
      1          5           0       -2.293883   -0.758517   -0.170579
      2          6           0       -1.490912    0.518022    0.205816
      3          6           0        2.362439   -0.189265   -0.111738
      4          1           0       -1.554724    0.736721    1.280143
      5          1           0       -2.123807    1.308441   -0.248788
      6          6           0       -0.047631    0.655448   -0.302985
      7          6           0        0.920269   -0.313993    0.386219
      8          1           0        0.311298    1.681196   -0.153897
      9          1           0       -0.025280    0.475275   -1.384597
     10          1           0        0.568654   -1.342167    0.232511
     11          1           0        0.890533   -0.141278    1.469279
     12          1           0        2.752774    0.819173    0.057656
     13          1           0        2.428545   -0.392857   -1.185006
     14          1           0        3.025084   -0.891790    0.400966
     15          1           0       -3.311938   -1.019342    0.398016
     16          1           0       -1.956716   -1.462057   -1.077264
 ---------------------------------------------------------------------

 SCF Done:  E(RHF) =  -182.768513872     A.U. after    2 cycles

 The electronic state is 1-A.
 Alpha  occ. eigenvalues --  -11.22642 -11.22591 -11.22158 -11.20914  -7.58971
 Alpha  occ. eigenvalues --   -1.07354  -0.98530  -0.87279  -0.79624  -0.68374
 Alpha  occ. eigenvalues --   -0.63197  -0.59180  -0.58855  -0.56077  -0.52295
 Alpha  occ. eigenvalues --   -0.49687  -0.48622  -0.46840  -0.45493  -0.44732
 Alpha virt. eigenvalues --    0.03294   0.03348   0.03795   0.04022   0.05477
 Alpha virt. eigenvalues --    0.05940   0.06049   0.06646   0.07681   0.08974
 Alpha virt. eigenvalues --    0.09140   0.09713   0.11035   0.11793   0.12988

 Mulliken charges:
               1
     1  B   -0.509610
     2  C   -0.176247
     3  C   -0.405655
     4  H    0.054235
     5  H    0.146726
     6  C   -0.299788
     7  C   -0.330708
     8  H    0.138272
     9  H    0.127741
    10  H    0.121853
    11  H    0.113531
    12  H    0.163671
    13  H    0.167665
    14  H    0.117902
    15  H    0.267015
    16  H    0.303396
 Sum of Mulliken charges =  -0.00000

 Dipole moment (field-independent basis, Debye):
    X=              0.2509    Y=              0.4902    Z=              0.1428  Tot=              0.5689

 Test job not archived.
 1\1\GINC-SE343\SP\RHF\Aug-CC-pVDZ\C4H11B1\OHZDE\09-Apr-2025\0\\#t hf a
 ug-cc-pvdz iop(5/13=1,5/36=2,99/5=2) pseudo=read geom=check guess=(rea
 d,tcheck) scf=(maxcycle=1)\\title\\0,1\B,0,-2.293883,-0.758517,-0.1705
 79\C,0,-1.490912,0.518022,0.205816\C,0,2.362439,-0.189265,-0.111738\H,
 0,-1.554724,0.736721,1.280143\H,0,-2.123807,1.308441,-0.248788\C,0,-0.
 047631,0.655448,-0.302985\C,0,0.920269,-0.313993,0.386219\H,0,0.311298
 ,1.681196,-0.153897\H,0,-0.02528,0.475275,-1.384597\H,0,0.568654,-1.34
 2167,0.232511\H,0,0.890533,-0.141278,1.469279\H,0,2.752774,0.819173,0.

 Normal termination of Gaussian 16 at Wed Apr  9 00:21:57 2025.
