 Gaussian 16, Revision C.01,

 ----------------------------------------------------------------------
 #t hf aug-cc-pvdz symm=none int=(grid=ultrafine) guess=(read,tcheck) s
 table=(opt,rrhf)
 ----------------------------------------------------------------------
 -----
 title
 -----
 Symbolic Z-matrix:
 Charge =  0 Multiplicity = 1

 SCF Done:  E(RHF) =  -301.192389685     A.U. after   13 cycles
 Normal termination of Gaussian 16 at Wed Apr  9 00:32:13 2025.
 Gaussian 16:  ES64L-G16RevC.01  3-Jul-2019

 ----------------------------------------------------------------------
 #t hf aug-cc-pvdz iop(5/13=1,5/36=2,99/5=2) pseudo=read geom=check gue
 ss=(read,tcheck) scf=(maxcycle=1)
 ----------------------------------------------------------------------
 -----
 title
 -----
 Structure from the checkpoint file:  "BDE49_nonexpt_385_mol1.chk"
 Charge =  0 Multiplicity = 1

                         Standard orientation:
 ---------------------------------------------------------------------
 Center     Atomic      Atomic             Coordinates (Angstroms)
 Number     Number       Type             X           Y           Z
 ---------------------------------------------------------------------
      1          9           0       -1.620514   -0.764011   -0.000021
      2          9           0       -0.680527    1.290237   -0.000003
      3          5           0       -0.513384   -0.029549    0.000033
      4          6           0        0.888903   -0.671016    0.000006
      5          6           0        2.003069    0.068617    0.000004
      6          1           0        0.971438   -1.754889   -0.000012
      7          1           0        1.957795    1.153453    0.000021
      8          1           0        2.995230   -0.372462   -0.000013
 ---------------------------------------------------------------------

 SCF Done:  E(RHF) =  -301.478530745     A.U. after    2 cycles

 The electronic state is 1-A.
 Alpha  occ. eigenvalues --  -26.47282 -26.47236 -11.27784 -11.24037  -7.71348
 Alpha  occ. eigenvalues --   -1.62407  -1.58368  -1.06456  -0.84016  -0.78769
 Alpha  occ. eigenvalues --   -0.73986  -0.71223  -0.68723  -0.64958  -0.62728
 Alpha  occ. eigenvalues --   -0.61394  -0.59428  -0.51360  -0.41273
 Alpha virt. eigenvalues --    0.03452   0.04291   0.05033   0.05236   0.06507
 Alpha virt. eigenvalues --    0.06723   0.07646   0.09458   0.14042   0.14447
 Alpha virt. eigenvalues --    0.15499   0.15594   0.16757   0.19092   0.20652

 Mulliken charges:
               1
     1  F   -0.743218
     2  F   -0.620234
     3  B    1.496284
     4  C    0.293167
     5  C   -0.229083
     6  H   -0.076809
     7  H   -0.065223
     8  H   -0.054884
 Sum of Mulliken charges =  -0.00000

 Dipole moment (field-independent basis, Debye):
    X=              2.2071    Y=             -0.4184    Z=              0.0001  Tot=              2.2464

 Test job not archived.
 1\1\GINC-SE459\SP\RHF\Aug-CC-pVDZ\C2H3B1F2\OHZDE\09-Apr-2025\0\\#t hf
 aug-cc-pvdz iop(5/13=1,5/36=2,99/5=2) pseudo=read geom=check guess=(re
 ad,tcheck) scf=(maxcycle=1)\\title\\0,1\F,0,1.620514,-0.764011,0.00002
 1\F,0,0.680527,1.290237,0.000003\B,0,0.513384,-0.029549,-0.000033\C,0,
 -0.888903,-0.671016,-0.000006\C,0,-2.003069,0.068617,-0.000004\H,0,-0.
 971438,-1.754889,0.000012\H,0,-1.957795,1.153453,-0.000021\H,0,-2.9952
 3,-0.372462,0.000013\\Version=ES64L-G16RevC.01\State=1-A\HF=-301.47853
 07\RMSD=1.518e-02\Dipole=-0.8683513,-0.1646051,-0.0000533\Quadrupole=0

 Normal termination of Gaussian 16 at Wed Apr  9 00:32:15 2025.
