 Gaussian 16, Revision C.01,

 ----------------------------------------------------------------------
 #t hf aug-cc-pvdz symm=none int=(grid=ultrafine) guess=(read,tcheck) s
 table=(opt,rrhf)
 ----------------------------------------------------------------------
 -----
 title
 -----
 Symbolic Z-matrix:
 Charge =  0 Multiplicity = 1

 SCF Done:  E(RHF) =  -600.797473301     A.U. after   14 cycles
 Normal termination of Gaussian 16 at Wed Apr  9 00:44:33 2025.
 Gaussian 16:  ES64L-G16RevC.01  3-Jul-2019

 ----------------------------------------------------------------------
 #t hf aug-cc-pvdz iop(5/13=1,5/36=2,99/5=2) pseudo=read geom=check gue
 ss=(read,tcheck) scf=(maxcycle=1)
 ----------------------------------------------------------------------
 -----
 title
 -----
 Structure from the checkpoint file:  "BDE49_nonexpt_718_mol1.chk"
 Charge =  0 Multiplicity = 1

                         Standard orientation:
 ---------------------------------------------------------------------
 Center     Atomic      Atomic             Coordinates (Angstroms)
 Number     Number       Type             X           Y           Z
 ---------------------------------------------------------------------
      1          6           0        0.305416   -0.143303    0.269192
      2          6           0       -0.248958    1.165876   -0.326682
      3          6           0       -1.701932    1.421994    0.106408
      4          6           0       -2.612984    0.232981   -0.224822
      5          6           0       -2.069127   -1.067615    0.380412
      6          6           0       -0.619555   -1.335008   -0.054047
      7          5           0        3.280952    0.698098    0.451749
      8          1           0       -0.202350    1.106842   -1.421698
      9          1           0        0.387582    2.005292   -0.033529
     10          1           0       -2.073526    2.333288   -0.373239
     11          1           0       -1.727581    1.607066    1.187981
     12          1           0       -2.683197    0.123169   -1.314804
     13          1           0       -3.629209    0.422394    0.134993
     14          1           0       -2.701597   -1.914737    0.096347
     15          1           0       -2.109803   -1.002047    1.475337
     16          1           0       -0.241083   -2.242260    0.425612
     17          1           0       -0.597925   -1.522485   -1.135752
     18         15           0        2.066672   -0.509753   -0.223342
     19          1           0        0.359668   -0.035198    1.360627
     20          1           0        4.303697    0.871172   -0.130389
     21          1           0        3.121322    1.143056    1.544739
     22          1           0        2.072006   -0.389302   -1.627602
 ---------------------------------------------------------------------

 SCF Done:  E(RHF) =  -601.128225584     A.U. after    2 cycles

 The electronic state is 1-A.
 Alpha  occ. eigenvalues --  -84.24819 -11.25073 -11.23447 -11.23390 -11.22978
 Alpha  occ. eigenvalues --  -11.22964 -11.22865  -7.59928  -6.72377  -4.25249
 Alpha  occ. eigenvalues --   -4.25076  -4.24334  -1.12534  -1.01932  -1.00910
 Alpha  occ. eigenvalues --   -0.88071  -0.84183  -0.80540  -0.76201  -0.67607
 Alpha  occ. eigenvalues --   -0.65574  -0.61745  -0.61192  -0.59190  -0.54254
 Alpha  occ. eigenvalues --   -0.54016  -0.53458  -0.49900  -0.49635  -0.49282
 Alpha  occ. eigenvalues --   -0.46476  -0.45818  -0.44707  -0.41107  -0.30980
 Alpha virt. eigenvalues --    0.03086   0.03306   0.03524   0.04023   0.04746
 Alpha virt. eigenvalues --    0.05127   0.05240   0.05955   0.06305   0.07095
 Alpha virt. eigenvalues --    0.07944   0.08128   0.09184   0.09415   0.10081

 Mulliken charges:
               1
     1  C   -0.385242
     2  C   -0.389755
     3  C   -0.294824
     4  C   -0.258984
     5  C   -0.295625
     6  C   -0.227379
     7  B   -0.595666
     8  H    0.158059
     9  H    0.092254
    10  H    0.103866
    11  H    0.152120
    12  H    0.149864
    13  H    0.111309
    14  H    0.112467
    15  H    0.153855
    16  H    0.090965
    17  H    0.178495
    18  P    0.046107
    19  H    0.126747
    20  H    0.395979
    21  H    0.379006
    22  H    0.196382
 Sum of Mulliken charges =  -0.00000

 Dipole moment (field-independent basis, Debye):
    X=             -1.7545    Y=              0.2837    Z=             -0.2459  Tot=              1.7942

 Test job not archived.
 1\1\GINC-SE038\SP\RHF\Aug-CC-pVDZ\C6H14B1P1\OHZDE\09-Apr-2025\0\\#t hf
  aug-cc-pvdz iop(5/13=1,5/36=2,99/5=2) pseudo=read geom=check guess=(r
 ead,tcheck) scf=(maxcycle=1)\\title\\0,1\C,0,0.305416,-0.143303,0.2691
 92\C,0,-0.248958,1.165876,-0.326682\C,0,-1.701932,1.421994,0.106408\C,
 0,-2.612984,0.232981,-0.224822\C,0,-2.069127,-1.067615,0.380412\C,0,-0
 .619555,-1.335008,-0.054047\B,0,3.280952,0.698098,0.451749\H,0,-0.2023
 5,1.106842,-1.421698\H,0,0.387582,2.005292,-0.033529\H,0,-2.073526,2.3
 33288,-0.373239\H,0,-1.727581,1.607066,1.187981\H,0,-2.683197,0.123169

 Normal termination of Gaussian 16 at Wed Apr  9 00:44:46 2025.
