 Gaussian 16, Revision C.01,

 ----------------------------------------------------------------------
 #t hf aug-cc-pvdz symm=none int=(grid=ultrafine) guess=(read,tcheck) s
 table=opt
 ----------------------------------------------------------------------
 -----
 title
 -----
 Symbolic Z-matrix:
 Charge =  0 Multiplicity = 2

 SCF Done:  E(UHF) =  -423.536560139     A.U. after   16 cycles

 1\1\GINC-SE362\Stability\UHF\Aug-CC-pVDZ\C7H15O2\OHZDE\08-Apr-2025\0\\
 #t hf aug-cc-pvdz symm=none int=(grid=ultrafine) guess=(read,tcheck) s
 table=opt\\title\\0,2\C,0,0.016477,0.069303,1.053021\O,0,-1.269722,-0.
 336328,0.920424\O,0,0.862243,-0.439145,0.091295\H,0,0.364725,-0.03034,
 2.08415\C,0,-1.932142,-0.040762,-0.338252\C,0,2.238949,-0.037006,0.215
 117\C,0,-2.431134,1.400463,-0.325569\C,0,3.056212,-1.06565,-0.553051\H
 ,0,-3.157964,1.544335,0.478576\H,0,-2.910039,1.6505,-1.276653\H,0,-1.6
 00214,2.091349,-0.166441\C,0,-3.048256,-1.064465,-0.47521\H,0,-1.20489

 Normal termination of Gaussian 16 at Tue Apr  8 23:00:16 2025.
 Gaussian 16:  ES64L-G16RevC.01  3-Jul-2019

 ----------------------------------------------------------------------
 #t hf aug-cc-pvdz iop(5/13=1,5/36=2,99/5=2) pseudo=read geom=check gue
 ss=(read,tcheck) scf=(maxcycle=1)
 ----------------------------------------------------------------------
 -----
 title
 -----
 Structure from the checkpoint file:  "BDE49_expt_191_mol2.chk"
 Charge =  0 Multiplicity = 2

                         Standard orientation:
 ---------------------------------------------------------------------
 Center     Atomic      Atomic             Coordinates (Angstroms)
 Number     Number       Type             X           Y           Z
 ---------------------------------------------------------------------
      1          6           0        0.016477    0.069303    1.053021
      2          8           0       -1.269722   -0.336328    0.920424
      3          8           0        0.862243   -0.439145    0.091295
      4          1           0        0.364725   -0.030340    2.084150
      5          6           0       -1.932142   -0.040762   -0.338252
      6          6           0        2.238949   -0.037006    0.215117
      7          6           0       -2.431134    1.400463   -0.325569
      8          6           0        3.056212   -1.065650   -0.553051
      9          1           0       -3.157964    1.544335    0.478576
     10          1           0       -2.910039    1.650500   -1.276653
     11          1           0       -1.600214    2.091349   -0.166441
     12          6           0       -3.048256   -1.064465   -0.475210
     13          1           0       -1.204898   -0.177724   -1.142407
     14          1           0       -3.751485   -0.974304    0.357158
     15          1           0       -2.639705   -2.076875   -0.471503
     16          1           0       -3.595203   -0.911400   -1.409215
     17          1           0        2.881829   -2.067507   -0.156042
     18          1           0        4.123244   -0.840524   -0.479335
     19          1           0        2.773892   -1.060954   -1.609188
     20          6           0        2.435405    1.388689   -0.294601
     21          1           0        2.509728   -0.080906    1.279910
     22          1           0        2.172189    1.451728   -1.354124
     23          1           0        3.477681    1.698526   -0.177656
     24          1           0        1.802981    2.084452    0.260295
 ---------------------------------------------------------------------

 SCF Done:  E(UHF) =  -423.984989842     A.U. after    2 cycles

 The electronic state is 2-A.
 Alpha  occ. eigenvalues --  -20.55508 -20.55051 -11.32638 -11.29531 -11.28532
 Alpha  occ. eigenvalues --  -11.22804 -11.22738 -11.22165 -11.22046  -1.51162
 Alpha  occ. eigenvalues --   -1.44578  -1.06759  -1.05016  -0.94643  -0.93855
 Alpha  occ. eigenvalues --   -0.89182  -0.82042  -0.78228  -0.69988  -0.68709
 Alpha  occ. eigenvalues --   -0.67175  -0.62569  -0.62161  -0.60283  -0.56698
 Alpha  occ. eigenvalues --   -0.55488  -0.55187  -0.54411  -0.54120  -0.52277
 Alpha  occ. eigenvalues --   -0.51472  -0.51086  -0.49459  -0.48002  -0.47350
 Alpha  occ. eigenvalues --   -0.43689  -0.31682
 Alpha virt. eigenvalues --    0.03553   0.03752   0.03885   0.04196   0.05199
 Alpha virt. eigenvalues --    0.05511   0.05589   0.06480   0.06931   0.07935
 Alpha virt. eigenvalues --    0.08177   0.08281   0.08848   0.09388   0.10960

  Beta  occ. eigenvalues --  -20.54972 -20.54661 -11.30170 -11.29553 -11.28503
  Beta  occ. eigenvalues --  -11.22790 -11.22740 -11.22152 -11.22051  -1.49432
  Beta  occ. eigenvalues --   -1.43383  -1.06335  -1.04920  -0.94450  -0.93740
  Beta  occ. eigenvalues --   -0.85881  -0.81787  -0.76922  -0.69536  -0.67562
  Beta  occ. eigenvalues --   -0.63102  -0.61768  -0.61177  -0.59600  -0.56474
  Beta  occ. eigenvalues --   -0.55286  -0.54818  -0.54306  -0.52242  -0.51808
  Beta  occ. eigenvalues --   -0.50787  -0.50715  -0.48417  -0.46957  -0.45979
  Beta  occ. eigenvalues --   -0.41914
  Beta virt. eigenvalues --    0.03570   0.03750   0.03896   0.04209   0.05206
  Beta virt. eigenvalues --    0.05516   0.05573   0.06471   0.06900   0.07913
  Beta virt. eigenvalues --    0.08178   0.08289   0.08848   0.09365   0.10932

 Mulliken charges and spin densities:
               1          2
     1  C    1.222063   1.045315
     2  O   -1.455614  -0.000520
     3  O   -1.427726   0.024936
     4  H    0.000755  -0.044626
     5  C    0.044295   0.015855
     6  C    0.171943  -0.003649
     7  C   -0.295291  -0.002465
     8  C   -0.257869  -0.000624
     9  H    0.252192  -0.002059
    10  H    0.192293  -0.001077
    11  H    0.118909  -0.009972
    12  C   -0.271222  -0.004158
    13  H    0.187508  -0.003234
    14  H    0.192479   0.000593
    15  H    0.166109   0.002089
    16  H    0.199983  -0.001198
    17  H    0.143321   0.001805
    18  H    0.168726  -0.000747
    19  H    0.206479  -0.000481
    20  C   -0.327795   0.002084
    21  H    0.222729   0.002166
    22  H    0.250218   0.000058
    23  H    0.125162  -0.001765
    24  H    0.170353  -0.018326
 Sum of Mulliken charges =   0.00000   1.00000

 Dipole moment (field-independent basis, Debye):
    X=              1.1457    Y=              0.7126    Z=             -0.5965  Tot=              1.4752
                          Isotropic Fermi Contact Couplings
        Atom                 a.u.       MegaHertz       Gauss      10(-4) cm-1
     1  C(13)              0.33052     371.56747     132.58451     123.94157
     2  O(17)              0.02823     -17.11013      -6.10532      -5.70732
     3  O(17)              0.05274     -31.97172     -11.40831     -10.66462
     4  H(1)              -0.00216      -9.65846      -3.44638      -3.22171
     5  C(13)              0.00883       9.92639       3.54198       3.31109
     6  C(13)             -0.00251      -2.81861      -1.00575      -0.94019
     7  C(13)             -0.00104      -1.17076      -0.41776      -0.39052
     8  C(13)             -0.00005      -0.05330      -0.01902      -0.01778

 Normal termination of Gaussian 16 at Tue Apr  8 23:00:29 2025.
