 Gaussian 16, Revision C.01,

 ----------------------------------------------------------------------
 #t hf aug-cc-pvdz symm=none int=(grid=ultrafine) guess=(read,tcheck) s
 table=(opt,rrhf)
 ----------------------------------------------------------------------
 -----
 title
 -----
 Symbolic Z-matrix:
 Charge =  0 Multiplicity = 1

 SCF Done:  E(RHF) =  -435.908145762     A.U. after   13 cycles
 Normal termination of Gaussian 16 at Wed Apr  9 00:32:13 2025.
 Gaussian 16:  ES64L-G16RevC.01  3-Jul-2019

 ----------------------------------------------------------------------
 #t hf aug-cc-pvdz iop(5/13=1,5/36=2,99/5=2) pseudo=read geom=check gue
 ss=(read,tcheck) scf=(maxcycle=1)
 ----------------------------------------------------------------------
 -----
 title
 -----
 Structure from the checkpoint file:  "BDE49_nonexpt_381_mol1.chk"
 Charge =  0 Multiplicity = 1

                         Standard orientation:
 ---------------------------------------------------------------------
 Center     Atomic      Atomic             Coordinates (Angstroms)
 Number     Number       Type             X           Y           Z
 ---------------------------------------------------------------------
      1          9           0        1.337803    1.182068   -0.000039
      2          9           0        1.514557   -1.080004    0.000025
      3          5           0        0.772475   -0.000526    0.000024
      4          6           0       -0.822501   -0.159078    0.000011
      5          8           0       -1.433556   -1.171807   -0.000048
      6          9           0       -1.458906    1.045886    0.000036
 ---------------------------------------------------------------------

 SCF Done:  E(RHF) =  -436.305521236     A.U. after    2 cycles

 The electronic state is 1-A.
 Alpha  occ. eigenvalues --  -26.52542 -26.52333 -26.51306 -20.61087 -11.44884
 Alpha  occ. eigenvalues --   -7.78306  -1.67878  -1.65323  -1.64010  -1.53897
 Alpha  occ. eigenvalues --   -0.93361  -0.84436  -0.80685  -0.79274  -0.74301
 Alpha  occ. eigenvalues --   -0.73553  -0.71059  -0.69889  -0.67474  -0.66971
 Alpha  occ. eigenvalues --   -0.61349  -0.56191  -0.50461
 Alpha virt. eigenvalues --    0.02758   0.04893   0.05095   0.05268   0.05282
 Alpha virt. eigenvalues --    0.10963   0.12528   0.12968   0.16604   0.20408
 Alpha virt. eigenvalues --    0.21110   0.22276   0.23973   0.24678   0.25528

 Mulliken charges:
               1
     1  F   -0.589769
     2  F   -0.631163
     3  B    1.529430
     4  C    1.342677
     5  O   -0.960716
     6  F   -0.690459
 Sum of Mulliken charges =  -0.00000

 Dipole moment (field-independent basis, Debye):
    X=              1.3036    Y=              0.6255    Z=              0.0002  Tot=              1.4459

 Test job not archived.
 1\1\GINC-SE457\SP\RHF\Aug-CC-pVDZ\C1B1F3O1\OHZDE\09-Apr-2025\0\\#t hf
 aug-cc-pvdz iop(5/13=1,5/36=2,99/5=2) pseudo=read geom=check guess=(re
 ad,tcheck) scf=(maxcycle=1)\\title\\0,1\F,0,-1.337803,1.182068,0.00003
 9\F,0,-1.514557,-1.080004,-0.000025\B,0,-0.772475,-0.000526,-0.000024\
 C,0,0.822501,-0.159078,-0.000011\O,0,1.433556,-1.171807,0.000048\F,0,1
 .458906,1.045886,-0.000036\\Version=ES64L-G16RevC.01\State=1-A\HF=-436
 .3055212\RMSD=5.956e-03\Dipole=-0.5128604,0.2461093,-0.0000683\Quadrup
 ole=-1.9090465,-1.9323083,3.8413547,0.7585233,0.0000041,0.0000469\PG=C

 Normal termination of Gaussian 16 at Wed Apr  9 00:32:15 2025.
