 Gaussian 16, Revision C.01,

 ----------------------------------------------------------------------
 #t hf aug-cc-pvdz symm=none int=(grid=ultrafine) guess=(read,tcheck) s
 table=(opt,rrhf)
 ----------------------------------------------------------------------
 -----
 title
 -----
 Symbolic Z-matrix:
 Charge =  0 Multiplicity = 1

 SCF Done:  E(RHF) =  -420.553762887     A.U. after   11 cycles
 Normal termination of Gaussian 16 at Tue Apr  8 23:26:59 2025.
 Gaussian 16:  ES64L-G16RevC.01  3-Jul-2019

 ----------------------------------------------------------------------
 #t hf aug-cc-pvdz iop(5/13=1,5/36=2,99/5=2) pseudo=read geom=check gue
 ss=(read,tcheck) scf=(maxcycle=1)
 ----------------------------------------------------------------------
 -----
 title
 -----
 Structure from the checkpoint file:  "BDE49_nonexpt_1301_mol1.chk"
 Charge =  0 Multiplicity = 1

                         Standard orientation:
 ---------------------------------------------------------------------
 Center     Atomic      Atomic             Coordinates (Angstroms)
 Number     Number       Type             X           Y           Z
 ---------------------------------------------------------------------
      1         15           0        0.037772   -0.664218    0.000000
      2          6           0        0.037772    0.527759    1.430724
      3          1           0       -0.700979    1.325796    1.326418
      4          1           0        1.030521    0.976036    1.519965
      5          1           0       -0.160887   -0.020774    2.354443
      6          6           0        0.037772    0.527759   -1.430724
      7          1           0       -1.357167   -0.931945   -0.000000
      8          1           0        1.030521    0.976036   -1.519965
      9          1           0       -0.700979    1.325796   -1.326418
     10          1           0       -0.160887   -0.020774   -2.354443
 ---------------------------------------------------------------------

 SCF Done:  E(RHF) =  -420.692278258     A.U. after    2 cycles

 The electronic state is 1-A'.
 Alpha  occ. eigenvalues --  -84.26354 -11.23511 -11.23507  -6.73384  -4.25740
 Alpha  occ. eigenvalues --   -4.25723  -4.25022  -1.00863  -0.93850  -0.75848
 Alpha  occ. eigenvalues --   -0.59469  -0.58742  -0.56090  -0.55852  -0.46277
 Alpha  occ. eigenvalues --   -0.45331  -0.32188
 Alpha virt. eigenvalues --    0.03847   0.04237   0.04675   0.05299   0.07134
 Alpha virt. eigenvalues --    0.07302   0.07814   0.09756   0.11513   0.11896
 Alpha virt. eigenvalues --    0.15373   0.16077   0.16103   0.17002   0.17374

 Mulliken charges:
               1
     1  P    0.331203
     2  C   -0.775865
     3  H    0.098508
     4  H    0.154021
     5  H    0.096314
     6  C   -0.775865
     7  H    0.522841
     8  H    0.154021
     9  H    0.098508
    10  H    0.096314
 Sum of Mulliken charges =   0.00000

 Dipole moment (field-independent basis, Debye):
    X=             -0.3290    Y=              1.0329    Z=              0.0000  Tot=              1.0840

 Test job not archived.
 1\1\GINC-SE329\SP\RHF\Aug-CC-pVDZ\C2H7P1\OHZDE\08-Apr-2025\0\\#t hf au
 g-cc-pvdz iop(5/13=1,5/36=2,99/5=2) pseudo=read geom=check guess=(read
 ,tcheck) scf=(maxcycle=1)\\title\\0,1\P,0,0.037772,-0.664218,0.\C,0,0.
 037772,0.527759,1.430724\H,0,-0.700979,1.325796,1.326418\H,0,1.030521,
 0.976036,1.519965\H,0,-0.160887,-0.020774,2.354443\C,0,0.037772,0.5277
 59,-1.430724\H,0,-1.357167,-0.931945,0.\H,0,1.030521,0.976036,-1.51996
 5\H,0,-0.700979,1.325796,-1.326418\H,0,-0.160887,-0.020774,-2.354443\\
 Version=ES64L-G16RevC.01\State=1-A'\HF=-420.6922783\RMSD=2.416e-02\Dip

 Normal termination of Gaussian 16 at Tue Apr  8 23:27:01 2025.
