 Gaussian 16, Revision C.01,

 ----------------------------------------------------------------------
 #t hf aug-cc-pvdz symm=none int=(grid=ultrafine) guess=(read,tcheck) s
 table=opt
 ----------------------------------------------------------------------
 -----
 title
 -----
 Symbolic Z-matrix:
 Charge =  0 Multiplicity = 2

 SCF Done:  E(UHF) =  -428.659454990     A.U. after   17 cycles
 Normal termination of Gaussian 16 at Wed Apr  9 00:46:59 2025.
 Gaussian 16:  ES64L-G16RevC.01  3-Jul-2019

 ----------------------------------------------------------------------
 #t hf aug-cc-pvdz iop(5/13=1,5/36=2,99/5=2) pseudo=read geom=check gue
 ss=(read,tcheck) scf=(maxcycle=1)
 ----------------------------------------------------------------------
 -----
 title
 -----
 Structure from the checkpoint file:  "BDE49_nonexpt_825_mol3.chk"
 Charge =  0 Multiplicity = 2

                         Standard orientation:
 ---------------------------------------------------------------------
 Center     Atomic      Atomic             Coordinates (Angstroms)
 Number     Number       Type             X           Y           Z
 ---------------------------------------------------------------------
      1          6           0       -1.397492    0.174038    0.000000
      2          5           0       -0.117513    0.882219   -0.000046
      3         14           0        1.576680   -0.194978   -0.000005
      4          8           0       -2.380757   -0.426315    0.000038
      5          1           0       -0.146535    2.069343   -0.000020
      6          1           0        1.317789   -1.655289    0.000011
      7          1           0        2.386882    0.135435    1.199413
      8          1           0        2.386916    0.135402   -1.199409
 ---------------------------------------------------------------------

 SCF Done:  E(UHF) =  -428.823980059     A.U. after    2 cycles

 The electronic state is 2-A.
 Alpha  occ. eigenvalues --  -69.52581 -20.66031 -11.39838  -7.60597  -6.19752
 Alpha  occ. eigenvalues --   -3.95133  -3.95123  -3.95077  -1.60465  -0.93451
 Alpha  occ. eigenvalues --   -0.78151  -0.73536  -0.69656  -0.64967  -0.57791
 Alpha  occ. eigenvalues --   -0.49449  -0.48717  -0.44875  -0.35001
 Alpha virt. eigenvalues --    0.03583   0.03939   0.04709   0.05094   0.06939
 Alpha virt. eigenvalues --    0.07351   0.07667   0.08767   0.09301   0.09349
 Alpha virt. eigenvalues --    0.11596   0.12701   0.13038   0.14089   0.14669

  Beta  occ. eigenvalues --  -69.52626 -20.64626 -11.39621  -7.59866  -6.19822
  Beta  occ. eigenvalues --   -3.95209  -3.95172  -3.95169  -1.57598  -0.88022
  Beta  occ. eigenvalues --   -0.76587  -0.72736  -0.63566  -0.59932  -0.56967
  Beta  occ. eigenvalues --   -0.48748  -0.48536  -0.43882
  Beta virt. eigenvalues --    0.01578   0.03643   0.04009   0.04765   0.06066
  Beta virt. eigenvalues --    0.06964   0.07431   0.07675   0.08857   0.09625
  Beta virt. eigenvalues --    0.10036   0.11695   0.12855   0.14293   0.14738

 Mulliken charges and spin densities:
               1          2
     1  C    0.656888   0.301451
     2  B   -0.328545   0.523680
     3  Si   0.537419  -0.084170
     4  O   -0.810276   0.277662
     5  H    0.342782  -0.047146
     6  H   -0.114444  -0.000155
     7  H   -0.141915   0.014339
     8  H   -0.141909   0.014339
 Sum of Mulliken charges =  -0.00000   1.00000

 Dipole moment (field-independent basis, Debye):
    X=             -0.1690    Y=              0.4216    Z=             -0.0000  Tot=              0.4542
                          Isotropic Fermi Contact Couplings
        Atom                 a.u.       MegaHertz       Gauss      10(-4) cm-1
     1  C(13)             -0.02681     -30.13579     -10.75320     -10.05222
     2  B(11)              0.05105      73.22736      26.12934      24.42602
     3  Si(29)            -0.05747      51.07150      18.22358      17.03562
     4  O(17)              0.10692     -64.81622     -23.12804     -21.62036
     5  H(1)              -0.01263     -56.45007     -20.14279     -18.82972
     6  H(1)               0.00012       0.53938       0.19246       0.17992
     7  H(1)               0.00433      19.35277       6.90555       6.45539
     8  H(1)               0.00433      19.35286       6.90558       6.45542

 1\1\GINC-SE084\SP\UHF\Aug-CC-pVDZ\C1H4B1O1Si1(2)\OHZDE\09-Apr-2025\0\\
 #t hf aug-cc-pvdz iop(5/13=1,5/36=2,99/5=2) pseudo=read geom=check gue
 ss=(read,tcheck) scf=(maxcycle=1)\\title\\0,2\C,0,1.397492,0.174038,0.
 \B,0,0.117513,0.882219,0.000046\Si,0,-1.57668,-0.194978,0.000005\O,0,2
 .380757,-0.426315,-0.000038\H,0,0.146535,2.069343,0.00002\H,0,-1.31778
 9,-1.655289,-0.000011\H,0,-2.386882,0.135435,-1.199413\H,0,-2.386916,0
 .135402,1.199409\\Version=ES64L-G16RevC.01\State=2-A\HF=-428.8239801\S
 2=0.765536\S2-1=0.\S2A=0.750163\RMSD=1.002e-02\Dipole=0.0664704,0.1658

 Normal termination of Gaussian 16 at Wed Apr  9 00:47:03 2025.
