 Gaussian 16, Revision C.01,

 ----------------------------------------------------------------------
 #t hf aug-cc-pvdz symm=none int=(grid=ultrafine) guess=(read,tcheck) s
 table=(opt,rrhf)
 ----------------------------------------------------------------------
 -----
 title
 -----
 Symbolic Z-matrix:
 Charge =  0 Multiplicity = 1

 SCF Done:  E(RHF) =  -401.431609961     A.U. after   14 cycles
 Normal termination of Gaussian 16 at Tue Apr  8 23:19:54 2025.
 Gaussian 16:  ES64L-G16RevC.01  3-Jul-2019

 ----------------------------------------------------------------------
 #t hf aug-cc-pvdz iop(5/13=1,5/36=2,99/5=2) pseudo=read geom=check gue
 ss=(read,tcheck) scf=(maxcycle=1)
 ----------------------------------------------------------------------
 -----
 title
 -----
 Structure from the checkpoint file:  "BDE49_nonexpt_1129_mol1.chk"
 Charge =  0 Multiplicity = 1

                         Standard orientation:
 ---------------------------------------------------------------------
 Center     Atomic      Atomic             Coordinates (Angstroms)
 Number     Number       Type             X           Y           Z
 ---------------------------------------------------------------------
      1          9           0       -2.279799    0.022362    0.000127
      2          8           0       -1.098592   -0.761825   -0.000008
      3          6           0       -0.021626    0.115589   -0.000116
      4          8           0       -0.070696    1.302366   -0.000012
      5          8           0        1.032752   -0.690239   -0.000060
      6          6           0        2.311869   -0.015543    0.000015
      7          1           0        3.050583   -0.812165    0.000051
      8          1           0        2.409171    0.604104    0.891515
      9          1           0        2.409267    0.604113   -0.891468
 ---------------------------------------------------------------------

 SCF Done:  E(RHF) =  -401.815984581     A.U. after    2 cycles

 The electronic state is 1-A.
 Alpha  occ. eigenvalues --  -26.53952 -20.71695 -20.63232 -20.57332 -11.47751
 Alpha  occ. eigenvalues --  -11.32785  -1.71399  -1.59001  -1.50589  -1.39382
 Alpha  occ. eigenvalues --   -1.00976  -0.85434  -0.79683  -0.75859  -0.74242
 Alpha  occ. eigenvalues --   -0.69700  -0.68315  -0.64418  -0.61088  -0.60925
 Alpha  occ. eigenvalues --   -0.57363  -0.52605  -0.49897  -0.49743
 Alpha virt. eigenvalues --    0.03064   0.05040   0.05275   0.07652   0.10489
 Alpha virt. eigenvalues --    0.11159   0.11543   0.13410   0.14539   0.14786
 Alpha virt. eigenvalues --    0.16722   0.18338   0.18824   0.20681   0.23264

 Mulliken charges:
               1
     1  F   -0.400302
     2  O   -0.407160
     3  C    2.255479
     4  O   -0.851772
     5  O   -1.134404
     6  C    0.172094
     7  H    0.015406
     8  H    0.175331
     9  H    0.175328
 Sum of Mulliken charges =  -0.00000

 Dipole moment (field-independent basis, Debye):
    X=              3.2354    Y=             -0.7849    Z=             -0.0002  Tot=              3.3293

 Test job not archived.
 1\1\GINC-SE252\SP\RHF\Aug-CC-pVDZ\C2H3F1O3\OHZDE\08-Apr-2025\0\\#t hf
 aug-cc-pvdz iop(5/13=1,5/36=2,99/5=2) pseudo=read geom=check guess=(re
 ad,tcheck) scf=(maxcycle=1)\\title\\0,1\F,0,-2.279799,0.022362,0.00012
 7\O,0,-1.098592,-0.761825,-0.000008\C,0,-0.021626,0.115589,-0.000116\O
 ,0,-0.070696,1.302366,-0.000012\O,0,1.032752,-0.690239,-0.00006\C,0,2.
 311869,-0.015542,0.000015\H,0,3.050583,-0.812164,0.000051\H,0,2.409171
 ,0.604105,0.891515\H,0,2.409267,0.604114,-0.891468\\Version=ES64L-G16R
 evC.01\State=1-A\HF=-401.8159846\RMSD=6.990e-03\Dipole=1.2729213,-0.30

 Normal termination of Gaussian 16 at Tue Apr  8 23:19:57 2025.
