 Gaussian 16, Revision C.01,

 ----------------------------------------------------------------------
 #t hf aug-cc-pvdz symm=none int=(grid=ultrafine) guess=(read,tcheck) s
 table=(opt,rrhf)
 ----------------------------------------------------------------------
 -----
 title
 -----
 Symbolic Z-matrix:
 Charge =  0 Multiplicity = 1

 SCF Done:  E(RHF) =  -1262.74366436     A.U. after   16 cycles
 Normal termination of Gaussian 16 at Wed Apr  9 00:51:03 2025.
 Gaussian 16:  ES64L-G16RevC.01  3-Jul-2019

 ----------------------------------------------------------------------
 #t hf aug-cc-pvdz iop(5/13=1,5/36=2,99/5=2) pseudo=read geom=check gue
 ss=(read,tcheck) scf=(maxcycle=1)
 ----------------------------------------------------------------------
 -----
 title
 -----
 Structure from the checkpoint file:  "BDE49_nonexpt_885_mol1.chk"
 Charge =  0 Multiplicity = 1

                         Standard orientation:
 ---------------------------------------------------------------------
 Center     Atomic      Atomic             Coordinates (Angstroms)
 Number     Number       Type             X           Y           Z
 ---------------------------------------------------------------------
      1          6           0       -0.087315   -0.360781    0.037172
      2          6           0        0.747391    0.763216   -0.140714
      3          6           0        2.141213    0.643669   -0.104700
      4          1           0        2.760366    1.519878   -0.250792
      5          6           0        2.699608   -0.599939    0.107448
      6          6           0        1.915696   -1.734741    0.276700
      7          1           0        2.392170   -2.694706    0.433058
      8          6           0        0.531529   -1.607288    0.234635
      9          1           0       -0.077166   -2.495230    0.363912
     10          5           0       -1.657036   -0.300886    0.054916
     11         16           0       -2.607649    0.287092    1.483260
     12         16           0       -2.529627   -0.937726   -1.397619
     13          6           0        0.171095    2.108803   -0.405841
     14          1           0       -0.935153    2.141324   -0.477796
     15          8           0        0.827092    3.114032   -0.545770
     16          9           0        4.041294   -0.725927    0.145311
     17          1           0       -1.565997    0.591162    2.277307
     18          1           0       -3.796309   -0.804405   -0.960354
 ---------------------------------------------------------------------

 SCF Done:  E(RHF) =  -1263.31626015     A.U. after    2 cycles

 The electronic state is 1-A.
 Alpha  occ. eigenvalues --  -93.97537 -93.97385 -26.49066 -20.55808 -11.35701
 Alpha  occ. eigenvalues --  -11.35580 -11.28148 -11.28081 -11.27910 -11.27336
 Alpha  occ. eigenvalues --  -11.26950  -8.25824  -8.25655  -7.68197  -6.23652
 Alpha  occ. eigenvalues --   -6.23509  -6.23489  -6.23354  -6.23335  -6.23185
 Alpha  occ. eigenvalues --   -1.62055  -1.48772  -1.19162  -1.08187  -1.06837
 Alpha  occ. eigenvalues --   -1.04057  -1.02052  -0.92855  -0.87361  -0.82889
 Alpha  occ. eigenvalues --   -0.76428  -0.73234  -0.72114  -0.68763  -0.67637
 Alpha  occ. eigenvalues --   -0.65651  -0.64807  -0.63645  -0.60931  -0.60784
 Alpha  occ. eigenvalues --   -0.57737  -0.55611  -0.54468  -0.51525  -0.49027
 Alpha  occ. eigenvalues --   -0.48015  -0.46140  -0.43181  -0.39560  -0.37839
 Alpha  occ. eigenvalues --   -0.36497
 Alpha virt. eigenvalues --    0.02642   0.03471   0.03749   0.04013   0.04349
 Alpha virt. eigenvalues --    0.05216   0.05610   0.06205   0.07278   0.07613
 Alpha virt. eigenvalues --    0.08556   0.08848   0.09410   0.10263   0.10667

 Mulliken charges:
               1
     1  C    0.623276
     2  C    0.688648
     3  C    0.022919
     4  H   -0.255925
     5  C    1.223869
     6  C   -0.123418
     7  H   -0.184387
     8  C    0.084958
     9  H   -0.357607
    10  B    0.891609
    11  S   -0.742648
    12  S   -0.755096
    13  C    0.827646
    14  H   -0.118410
    15  O   -1.357647
    16  F   -1.002861
    17  H    0.274250
    18  H    0.260822
 Sum of Mulliken charges =  -0.00000

 Dipole moment (field-independent basis, Debye):
    X=             -1.7453    Y=             -2.7947    Z=              1.2494  Tot=              3.5239

 Test job not archived.
 1\1\GINC-SE412\SP\RHF\Aug-CC-pVDZ\C7H6B1F1O1S2\OHZDE\09-Apr-2025\0\\#t
  hf aug-cc-pvdz iop(5/13=1,5/36=2,99/5=2) pseudo=read geom=check guess
 =(read,tcheck) scf=(maxcycle=1)\\title\\0,1\C,0,-0.087315,-0.360781,0.
 037172\C,0,0.747391,0.763216,-0.140714\C,0,2.141213,0.643669,-0.1047\H
 ,0,2.760366,1.519878,-0.250792\C,0,2.699608,-0.599939,0.107448\C,0,1.9
 15696,-1.734741,0.2767\H,0,2.39217,-2.694706,0.433058\C,0,0.531529,-1.
 607288,0.234635\H,0,-0.077166,-2.49523,0.363912\B,0,-1.657036,-0.30088
 6,0.054916\S,0,-2.607649,0.287092,1.48326\S,0,-2.529627,-0.937726,-1.3

 Normal termination of Gaussian 16 at Wed Apr  9 00:51:16 2025.
