 Gaussian 16, Revision C.01,

 ----------------------------------------------------------------------
 #t hf aug-cc-pvdz symm=none int=(grid=ultrafine) guess=(read,tcheck) s
 table=(opt,rrhf)
 ----------------------------------------------------------------------
 -----
 title
 -----
 Symbolic Z-matrix:
 Charge =  0 Multiplicity = 1

 SCF Done:  E(RHF) =  -1000.75097582     A.U. after   11 cycles
 Normal termination of Gaussian 16 at Wed Apr  9 00:13:58 2025.
 Gaussian 16:  ES64L-G16RevC.01  3-Jul-2019

 ----------------------------------------------------------------------
 #t hf aug-cc-pvdz iop(5/13=1,5/36=2,99/5=2) pseudo=read geom=check gue
 ss=(read,tcheck) scf=(maxcycle=1)
 ----------------------------------------------------------------------
 -----
 title
 -----
 Structure from the checkpoint file:  "BDE49_nonexpt_2446_mol1.chk"
 Charge =  0 Multiplicity = 1

                         Standard orientation:
 ---------------------------------------------------------------------
 Center     Atomic      Atomic             Coordinates (Angstroms)
 Number     Number       Type             X           Y           Z
 ---------------------------------------------------------------------
      1         14           0       -2.296563   -0.604830    0.000035
      2         14           0       -0.656766    1.099439   -0.000072
      3         15           0        1.531799    0.454742   -0.000030
      4          1           0       -0.860924    1.952237    1.200032
      5          1           0       -0.860923    1.952085   -1.200283
      6          1           0       -2.165106   -1.466786   -1.200699
      7          1           0       -3.657341   -0.012925    0.000001
      8          6           0        1.550707   -0.738821    1.436443
      9          1           0        0.810474   -1.538363    1.356075
     10          1           0        1.379864   -0.190367    2.365491
     11          1           0        2.544928   -1.189201    1.497026
     12          6           0        1.550706   -0.739018   -1.436338
     13          1           0        1.379858   -0.190693   -2.365461
     14          1           0        0.810476   -1.538552   -1.355858
     15          1           0        2.544929   -1.189404   -1.496863
     16          1           0       -2.165102   -1.466641    1.200871
 ---------------------------------------------------------------------

 SCF Done:  E(RHF) =  -1000.95809089     A.U. after    2 cycles

 The electronic state is 1-A.
 Alpha  occ. eigenvalues --  -84.26120 -69.52916 -69.52886 -11.24225 -11.24222
 Alpha  occ. eigenvalues --   -6.73269  -6.20086  -6.20059  -4.25599  -4.25566
 Alpha  occ. eigenvalues --   -4.24931  -3.95435  -3.95417  -3.95414  -3.95381
 Alpha  occ. eigenvalues --   -3.95380  -3.95339  -1.01246  -0.94391  -0.79584
 Alpha  occ. eigenvalues --   -0.74434  -0.66783  -0.59532  -0.58851  -0.56855
 Alpha  occ. eigenvalues --   -0.56548  -0.50629  -0.49340  -0.48025  -0.45341
 Alpha  occ. eigenvalues --   -0.42431  -0.40861  -0.30617
 Alpha virt. eigenvalues --    0.03484   0.03993   0.04230   0.04474   0.06082
 Alpha virt. eigenvalues --    0.06220   0.06539   0.07199   0.07336   0.08571
 Alpha virt. eigenvalues --    0.09196   0.09725   0.09885   0.10017   0.10552

 Mulliken charges:
               1
     1  Si   0.263029
     2  Si   0.823074
     3  P    0.454069
     4  H   -0.149103
     5  H   -0.149103
     6  H   -0.064930
     7  H   -0.163599
     8  C   -0.710841
     9  H    0.107768
    10  H    0.045334
    11  H    0.083486
    12  C   -0.710845
    13  H    0.045334
    14  H    0.107771
    15  H    0.083489
    16  H   -0.064930
 Sum of Mulliken charges =  -0.00000

 Dipole moment (field-independent basis, Debye):
    X=              0.3581    Y=             -1.0733    Z=              0.0001  Tot=              1.1315

 Test job not archived.
 1\1\GINC-SE247\SP\RHF\Aug-CC-pVDZ\C2H11P1Si2\OHZDE\09-Apr-2025\0\\#t h
 f aug-cc-pvdz iop(5/13=1,5/36=2,99/5=2) pseudo=read geom=check guess=(
 read,tcheck) scf=(maxcycle=1)\\title\\0,1\Si,0,-2.296563,-0.60483,0.00
 0035\Si,0,-0.656766,1.099439,-0.000072\P,0,1.531799,0.454742,-0.00003\
 H,0,-0.860924,1.952237,1.200032\H,0,-0.860923,1.952085,-1.200283\H,0,-
 2.165106,-1.466786,-1.200699\H,0,-3.657341,-0.012924,0.000001\C,0,1.55
 0707,-0.738821,1.436443\H,0,0.810474,-1.538363,1.356075\H,0,1.379864,-
 0.190367,2.365491\H,0,2.544928,-1.189201,1.497026\C,0,1.550706,-0.7390

 Normal termination of Gaussian 16 at Wed Apr  9 00:14:04 2025.
