 Gaussian 16, Revision C.01,

 ----------------------------------------------------------------------
 #t hf aug-cc-pvdz symm=none int=(grid=ultrafine) guess=(read,tcheck) s
 table=(opt,rrhf)
 ----------------------------------------------------------------------
 -----
 title
 -----
 Symbolic Z-matrix:
 Charge =  0 Multiplicity = 1

 SCF Done:  E(RHF) =  -543.271702504     A.U. after   13 cycles
 Normal termination of Gaussian 16 at Wed Apr  9 00:47:11 2025.
 Gaussian 16:  ES64L-G16RevC.01  3-Jul-2019

 ----------------------------------------------------------------------
 #t hf aug-cc-pvdz iop(5/13=1,5/36=2,99/5=2) pseudo=read geom=check gue
 ss=(read,tcheck) scf=(maxcycle=1)
 ----------------------------------------------------------------------
 -----
 title
 -----
 Structure from the checkpoint file:  "BDE49_nonexpt_837_mol1.chk"
 Charge =  0 Multiplicity = 1

                         Standard orientation:
 ---------------------------------------------------------------------
 Center     Atomic      Atomic             Coordinates (Angstroms)
 Number     Number       Type             X           Y           Z
 ---------------------------------------------------------------------
      1          6           0       -1.794708    0.072847   -0.513990
      2          5           0        1.338400    0.166191    0.016953
      3          8           0        1.272263    1.534201    0.017050
      4          8           0        2.564415   -0.421890    0.023790
      5          6           0       -2.740337    0.555078    0.298342
      6          1           0       -3.544726    1.193120   -0.059395
      7          1           0       -2.757939    0.321080    1.359612
      8          1           0        3.280419    0.226999    0.035311
      9          1           0        0.369644    1.867523    0.009796
     10         14           0       -0.344211   -0.986816    0.038438
     11          1           0       -1.852762    0.344315   -1.569290
     12          1           0       -0.220064   -2.170388   -0.848783
     13          1           0       -0.630764   -1.464212    1.417021
 ---------------------------------------------------------------------

 SCF Done:  E(RHF) =  -543.561746934     A.U. after    2 cycles

 The electronic state is 1-A.
 Alpha  occ. eigenvalues --  -69.51457 -20.56475 -20.55842 -11.25649 -11.23640
 Alpha  occ. eigenvalues --   -7.64160  -6.18714  -3.94089  -3.94067  -3.94016
 Alpha  occ. eigenvalues --   -1.48483  -1.44180  -1.04454  -0.81470  -0.77678
 Alpha  occ. eigenvalues --   -0.74167  -0.70617  -0.63970  -0.61228  -0.57870
 Alpha  occ. eigenvalues --   -0.56989  -0.56062  -0.49432  -0.48016  -0.46483
 Alpha  occ. eigenvalues --   -0.43496  -0.38204
 Alpha virt. eigenvalues --    0.03371   0.03878   0.04088   0.04626   0.05929
 Alpha virt. eigenvalues --    0.06695   0.07226   0.07294   0.08229   0.08827
 Alpha virt. eigenvalues --    0.09528   0.10068   0.10710   0.11223   0.12932

 Mulliken charges:
               1
     1  C   -0.007253
     2  B    1.634049
     3  O   -1.418856
     4  O   -1.230686
     5  C   -0.012553
     6  H   -0.052167
     7  H   -0.091590
     8  H    0.531707
     9  H    0.602455
    10  Si   0.499090
    11  H   -0.168834
    12  H   -0.156241
    13  H   -0.129122
 Sum of Mulliken charges =  -0.00000

 Dipole moment (field-independent basis, Debye):
    X=             -0.8942    Y=              1.5591    Z=             -0.1043  Tot=              1.8004

 Test job not archived.
 1\1\GINC-SE343\SP\RHF\Aug-CC-pVDZ\C2H7B1O2Si1\OHZDE\09-Apr-2025\0\\#t
 hf aug-cc-pvdz iop(5/13=1,5/36=2,99/5=2) pseudo=read geom=check guess=
 (read,tcheck) scf=(maxcycle=1)\\title\\0,1\C,0,-1.794708,0.072847,-0.5
 1399\B,0,1.3384,0.166191,0.016953\O,0,1.272263,1.534201,0.01705\O,0,2.
 564415,-0.42189,0.02379\C,0,-2.740337,0.555078,0.298342\H,0,-3.544726,
 1.19312,-0.059395\H,0,-2.757939,0.32108,1.359612\H,0,3.280419,0.227,0.
 035311\H,0,0.369644,1.867523,0.009796\Si,0,-0.344211,-0.986816,0.03843
 8\H,0,-1.852762,0.344315,-1.56929\H,0,-0.220064,-2.170388,-0.848783\H,

 Normal termination of Gaussian 16 at Wed Apr  9 00:47:14 2025.
