 Gaussian 16, Revision C.01,

 ----------------------------------------------------------------------
 #t hf aug-cc-pvdz symm=none int=(grid=ultrafine) guess=(read,tcheck) s
 table=(opt,rrhf)
 ----------------------------------------------------------------------
 -----
 title
 -----
 Symbolic Z-matrix:
 Charge =  0 Multiplicity = 1

 SCF Done:  E(RHF) =  -952.382326821     A.U. after   13 cycles

 1\1\GINC-SE051\Stability\RHF\Aug-CC-pVDZ\C4H10S2\OHZDE\08-Apr-2025\0\\
 #t hf aug-cc-pvdz symm=none int=(grid=ultrafine) guess=(read,tcheck) s
 table=(opt,rrhf)\\title\\0,1\S,0,-0.590979,-0.856444,-0.581576\S,0,0.5
 90978,0.856441,-0.581579\C,0,1.873888,0.50887,0.696432\C,0,-1.873888,-
 0.508868,0.696434\C,0,-2.84998,0.600847,0.328286\H,0,-1.370911,-0.3090
 65,1.644363\H,0,-2.385834,-1.471889,0.794841\H,0,-2.326869,1.549813,0.
 193476\H,0,-3.59097,0.733547,1.123218\H,0,-3.377651,0.367192,-0.59897\
 C,0,2.849982,-0.600845,0.328286\H,0,1.370912,0.309069,1.644361\H,0,2.3

 Normal termination of Gaussian 16 at Tue Apr  8 23:00:08 2025.
 Gaussian 16:  ES64L-G16RevC.01  3-Jul-2019

 ----------------------------------------------------------------------
 #t hf aug-cc-pvdz iop(5/13=1,5/36=2,99/5=2) pseudo=read geom=check gue
 ss=(read,tcheck) scf=(maxcycle=1)
 ----------------------------------------------------------------------
 -----
 title
 -----
 Structure from the checkpoint file:  "BDE49_expt_1957_mol1.chk"
 Charge =  0 Multiplicity = 1

                         Standard orientation:
 ---------------------------------------------------------------------
 Center     Atomic      Atomic             Coordinates (Angstroms)
 Number     Number       Type             X           Y           Z
 ---------------------------------------------------------------------
      1         16           0        0.590979    0.856444   -0.581576
      2         16           0       -0.590978   -0.856441   -0.581579
      3          6           0       -1.873888   -0.508870    0.696432
      4          6           0        1.873888    0.508868    0.696434
      5          6           0        2.849980   -0.600847    0.328286
      6          1           0        1.370911    0.309065    1.644363
      7          1           0        2.385834    1.471889    0.794841
      8          1           0        2.326869   -1.549813    0.193476
      9          1           0        3.590970   -0.733547    1.123218
     10          1           0        3.377651   -0.367192   -0.598970
     11          6           0       -2.849982    0.600845    0.328286
     12          1           0       -1.370912   -0.309069    1.644361
     13          1           0       -2.385832   -1.471892    0.794836
     14          1           0       -2.326871    1.549812    0.193478
     15          1           0       -3.590972    0.733541    1.123218
     16          1           0       -3.377652    0.367191   -0.598971
 ---------------------------------------------------------------------

 SCF Done:  E(RHF) =  -952.681881561     A.U. after    2 cycles

 The electronic state is 1-A.
 Alpha  occ. eigenvalues --  -93.96326 -93.96322 -11.27359 -11.27355 -11.23320
 Alpha  occ. eigenvalues --  -11.23318  -8.24255  -8.24232  -6.22069  -6.22028
 Alpha  occ. eigenvalues --   -6.21841  -6.21833  -6.21628  -6.21627  -1.11539
 Alpha  occ. eigenvalues --   -1.06396  -0.99277  -0.91444  -0.84444  -0.77968
 Alpha  occ. eigenvalues --   -0.64666  -0.62867  -0.60260  -0.59268  -0.56216
 Alpha  occ. eigenvalues --   -0.54310  -0.52779  -0.51401  -0.49638  -0.47243
 Alpha  occ. eigenvalues --   -0.43834  -0.35949  -0.35509
 Alpha virt. eigenvalues --    0.03428   0.03793   0.04009   0.04587   0.05717
 Alpha virt. eigenvalues --    0.05858   0.06646   0.07400   0.08250   0.09486
 Alpha virt. eigenvalues --    0.09795   0.11029   0.12344   0.13599   0.13812

 Mulliken charges:
               1
     1  S    0.165947
     2  S    0.165947
     3  C   -0.708266
     4  C   -0.708268
     5  C   -0.406739
     6  H    0.175446
     7  H    0.249483
     8  H    0.202437
     9  H    0.138914
    10  H    0.182780
    11  C   -0.406740
    12  H    0.175443
    13  H    0.249483
    14  H    0.202439
    15  H    0.138914
    16  H    0.182781
 Sum of Mulliken charges =  -0.00000

 Dipole moment (field-independent basis, Debye):
    X=             -0.0000    Y=             -0.0000    Z=              2.3433  Tot=              2.3433

 Test job not archived.
 1\1\GINC-SE051\SP\RHF\Aug-CC-pVDZ\C4H10S2\OHZDE\08-Apr-2025\0\\#t hf a
 ug-cc-pvdz iop(5/13=1,5/36=2,99/5=2) pseudo=read geom=check guess=(rea
 d,tcheck) scf=(maxcycle=1)\\title\\0,1\S,0,-0.590979,-0.856444,-0.5815
 76\S,0,0.590978,0.856441,-0.581579\C,0,1.873888,0.50887,0.696432\C,0,-
 1.873888,-0.508868,0.696434\C,0,-2.84998,0.600847,0.328286\H,0,-1.3709
 11,-0.309065,1.644363\H,0,-2.385834,-1.471889,0.794841\H,0,-2.326869,1
 .549813,0.193476\H,0,-3.59097,0.733547,1.123218\H,0,-3.377651,0.367192
 ,-0.59897\C,0,2.849982,-0.600845,0.328286\H,0,1.370912,0.309069,1.6443

 Normal termination of Gaussian 16 at Tue Apr  8 23:00:14 2025.
