 Gaussian 16, Revision C.01,

 ----------------------------------------------------------------------
 #t hf aug-cc-pvdz symm=none int=(grid=ultrafine) guess=(read,tcheck) s
 table=opt
 ----------------------------------------------------------------------
 -----
 title
 -----
 Symbolic Z-matrix:
 Charge =  0 Multiplicity = 2

 SCF Done:  E(UHF) =  -237.389635904     A.U. after   21 cycles
 Normal termination of Gaussian 16 at Wed Apr  9 00:32:45 2025.
 Gaussian 16:  ES64L-G16RevC.01  3-Jul-2019

 ----------------------------------------------------------------------
 #t hf aug-cc-pvdz iop(5/13=1,5/36=2,99/5=2) pseudo=read geom=check gue
 ss=(read,tcheck) scf=(maxcycle=1)
 ----------------------------------------------------------------------
 -----
 title
 -----
 Structure from the checkpoint file:  "BDE49_nonexpt_38_mol2.chk"
 Charge =  0 Multiplicity = 2

                         Standard orientation:
 ---------------------------------------------------------------------
 Center     Atomic      Atomic             Coordinates (Angstroms)
 Number     Number       Type             X           Y           Z
 ---------------------------------------------------------------------
      1          5           0       -1.437863   -0.517284   -0.134859
      2          6           0       -0.059186    0.088167   -0.004518
      3          8           0        0.143905    1.267913    0.013465
      4          9           0        0.977429   -0.807859    0.014472
      5          1           0       -2.403664   -0.815148    0.463440
 ---------------------------------------------------------------------

 SCF Done:  E(UHF) =  -237.607166048     A.U. after    2 cycles

 The electronic state is 2-A.
 Alpha  occ. eigenvalues --  -26.49805 -20.59359 -11.42326  -7.68675  -1.63373
 Alpha  occ. eigenvalues --   -1.52557  -0.92537  -0.79372  -0.72297  -0.70282
 Alpha  occ. eigenvalues --   -0.67357  -0.60370  -0.58293  -0.49674  -0.38598
 Alpha virt. eigenvalues --    0.01037   0.04300   0.04498   0.05322   0.06887
 Alpha virt. eigenvalues --    0.08924   0.12327   0.13694   0.14333   0.15174
 Alpha virt. eigenvalues --    0.17689   0.22316   0.22511   0.23626   0.25200

  Beta  occ. eigenvalues --  -26.49886 -20.58073 -11.42879  -7.66928  -1.63470
  Beta  occ. eigenvalues --   -1.49947  -0.90754  -0.78239  -0.71394  -0.70051
  Beta  occ. eigenvalues --   -0.65184  -0.59968  -0.51691  -0.48108
  Beta virt. eigenvalues --    0.02139   0.02413   0.04378   0.05394   0.06182
  Beta virt. eigenvalues --    0.07973   0.09660   0.12549   0.13828   0.14887
  Beta virt. eigenvalues --    0.17803   0.19845   0.22824   0.23521   0.24520

 Mulliken charges and spin densities:
               1          2
     1  B   -0.196747   0.918959
     2  C    1.538477  -0.198412
     3  O   -0.971556   0.302204
     4  F   -0.685639  -0.001139
     5  H    0.315465  -0.021612
 Sum of Mulliken charges =  -0.00000   1.00000

 Dipole moment (field-independent basis, Debye):
    X=             -2.2975    Y=             -1.6915    Z=              0.3086  Tot=              2.8696
                          Isotropic Fermi Contact Couplings
        Atom                 a.u.       MegaHertz       Gauss      10(-4) cm-1
     1  B(11)              0.20348     291.85790     104.14216      97.35332
     2  C(13)             -0.05983     -67.26401     -24.00147     -22.43686
     3  O(17)              0.09543     -57.84911     -20.64200     -19.29639
     4  F(19)             -0.01775     -74.69805     -26.65412     -24.91659
     5  H(1)              -0.01135     -50.75469     -18.11053     -16.92994
 --------------------------------------------------------
       Center         ----  Spin Dipole Couplings  ----
                      3XX-RR        3YY-RR        3ZZ-RR

 Normal termination of Gaussian 16 at Wed Apr  9 00:32:54 2025.
