 Gaussian 16, Revision C.01,

 ----------------------------------------------------------------------
 #t hf aug-cc-pvdz symm=none int=(grid=ultrafine) guess=(read,tcheck) s
 table=(opt,rrhf)
 ----------------------------------------------------------------------
 -----
 title
 -----
 Symbolic Z-matrix:
 Charge =  0 Multiplicity = 1

 SCF Done:  E(RHF) =  -430.476586120     A.U. after   12 cycles
 Normal termination of Gaussian 16 at Wed Apr  9 00:46:57 2025.
 Gaussian 16:  ES64L-G16RevC.01  3-Jul-2019

 ----------------------------------------------------------------------
 #t hf aug-cc-pvdz iop(5/13=1,5/36=2,99/5=2) pseudo=read geom=check gue
 ss=(read,tcheck) scf=(maxcycle=1)
 ----------------------------------------------------------------------
 -----
 title
 -----
 Structure from the checkpoint file:  "BDE49_nonexpt_839_mol1.chk"
 Charge =  0 Multiplicity = 1

                         Standard orientation:
 ---------------------------------------------------------------------
 Center     Atomic      Atomic             Coordinates (Angstroms)
 Number     Number       Type             X           Y           Z
 ---------------------------------------------------------------------
      1         14           0       -0.694757   -0.668372   -0.000003
      2          5           0        1.332186   -0.527848   -0.000087
      3          8           0        1.890047    0.708344    0.000027
      4          6           0       -1.575994    1.000001    0.000010
      5          1           0       -1.299045    1.583177    0.882331
      6          1           0       -2.662135    0.877724    0.000048
      7          1           0       -1.299104    1.583160   -0.882340
      8          1           0        2.853869    0.700412    0.000092
      9          1           0        2.047057   -1.494164    0.000033
     10          1           0       -1.119655   -1.460302    1.189025
     11          1           0       -1.119729   -1.460319   -1.188993
 ---------------------------------------------------------------------

 SCF Done:  E(RHF) =  -430.658134409     A.U. after    2 cycles

 The electronic state is 1-A.
 Alpha  occ. eigenvalues --  -69.50174 -20.57533 -11.21092  -7.62067  -6.17435
 Alpha  occ. eigenvalues --   -3.92794  -3.92778  -3.92744  -1.47241  -0.94406
 Alpha  occ. eigenvalues --   -0.78131  -0.69741  -0.65331  -0.56092  -0.56086
 Alpha  occ. eigenvalues --   -0.53979  -0.53375  -0.46086  -0.45268  -0.39974
 Alpha virt. eigenvalues --    0.03010   0.04278   0.04573   0.04612   0.06388
 Alpha virt. eigenvalues --    0.06649   0.06715   0.08126   0.09180   0.10038
 Alpha virt. eigenvalues --    0.10182   0.10807   0.11484   0.13382   0.13806

 Mulliken charges:
               1
     1  Si   0.918640
     2  B    0.331113
     3  O   -0.991270
     4  C   -0.635024
     5  H    0.118778
     6  H   -0.025823
     7  H    0.118773
     8  H    0.499939
     9  H    0.065284
    10  H   -0.200204
    11  H   -0.200207
 Sum of Mulliken charges =  -0.00000

 Dipole moment (field-independent basis, Debye):
    X=              1.6814    Y=              0.4214    Z=             -0.0000  Tot=              1.7334

 Test job not archived.
 1\1\GINC-SE459\SP\RHF\Aug-CC-pVDZ\C1H7B1O1Si1\OHZDE\09-Apr-2025\0\\#t
 hf aug-cc-pvdz iop(5/13=1,5/36=2,99/5=2) pseudo=read geom=check guess=
 (read,tcheck) scf=(maxcycle=1)\\title\\0,1\Si,0,0.694757,-0.668372,0.0
 00003\B,0,-1.332186,-0.527848,0.000087\O,0,-1.890047,0.708345,-0.00002
 7\C,0,1.575995,1.,-0.00001\H,0,1.299046,1.583176,-0.882331\H,0,2.66213
 5,0.877723,-0.000048\H,0,1.299105,1.583159,0.88234\H,0,-2.853869,0.700
 413,-0.000092\H,0,-2.047057,-1.494163,-0.000033\H,0,1.119655,-1.460302
 ,-1.189025\H,0,1.119729,-1.460319,1.188993\\Version=ES64L-G16RevC.01\S

 Normal termination of Gaussian 16 at Wed Apr  9 00:47:00 2025.
