 Gaussian 16, Revision C.01,

 ----------------------------------------------------------------------
 #t hf aug-cc-pvdz symm=none int=(grid=ultrafine) guess=(read,tcheck) s
 table=(opt,rrhf)
 ----------------------------------------------------------------------
 -----
 title
 -----
 Symbolic Z-matrix:
 Charge =  0 Multiplicity = 1

 SCF Done:  E(RHF) =  -786.224804309     A.U. after   15 cycles
 Normal termination of Gaussian 16 at Wed Apr  9 00:46:14 2025.
 Gaussian 16:  ES64L-G16RevC.01  3-Jul-2019

 ----------------------------------------------------------------------
 #t hf aug-cc-pvdz iop(5/13=1,5/36=2,99/5=2) pseudo=read geom=check gue
 ss=(read,tcheck) scf=(maxcycle=1)
 ----------------------------------------------------------------------
 -----
 title
 -----
 Structure from the checkpoint file:  "BDE49_nonexpt_763_mol1.chk"
 Charge =  0 Multiplicity = 1

                         Standard orientation:
 ---------------------------------------------------------------------
 Center     Atomic      Atomic             Coordinates (Angstroms)
 Number     Number       Type             X           Y           Z
 ---------------------------------------------------------------------
      1          6           0        2.768671   -0.518927   -1.043638
      2          6           0        1.626311   -1.138813   -0.547610
      3          6           0        3.222011    0.675722   -0.484230
      4          6           0        2.525114    1.241433    0.579250
      5          6           0        1.381072    0.616697    1.078739
      6          6           0        0.913580   -0.582620    0.524394
      7          1           0        1.279011   -2.064801   -0.993364
      8          5           0       -2.258472    0.654718   -0.251063
      9          8           0       -1.374585    1.693886   -0.300741
     10          8           0       -3.589489    0.926941   -0.351074
     11          1           0        3.307172   -0.968781   -1.870318
     12          1           0        2.871589    2.165691    1.028039
     13          1           0        4.111719    1.157688   -0.872715
     14          1           0        0.854785    1.055054    1.920852
     15          6           0       -0.331204   -1.247605    1.059578
     16          1           0       -3.750167    1.870500   -0.476441
     17          1           0       -0.446123    1.441739   -0.236916
     18         15           0       -1.753541   -1.229329   -0.197716
     19          1           0       -0.632372   -0.783386    1.999529
     20          1           0       -0.131209   -2.302963    1.264792
     21          1           0       -2.789664   -1.646347    0.673227
 ---------------------------------------------------------------------

 SCF Done:  E(RHF) =  -786.723655708     A.U. after    2 cycles

 The electronic state is 1-A.
 Alpha  occ. eigenvalues --  -84.25355 -20.55861 -20.55573 -11.26451 -11.25583
 Alpha  occ. eigenvalues --  -11.25539 -11.25403 -11.25205 -11.25024 -11.24924
 Alpha  occ. eigenvalues --   -7.65076  -6.72606  -4.25317  -4.25124  -4.24401
 Alpha  occ. eigenvalues --   -1.48233  -1.43942  -1.16903  -1.06392  -1.02676
 Alpha  occ. eigenvalues --   -0.96177  -0.84846  -0.84320  -0.80425  -0.76242
 Alpha  occ. eigenvalues --   -0.72372  -0.71061  -0.66501  -0.65276  -0.61556
 Alpha  occ. eigenvalues --   -0.60861  -0.59231  -0.57622  -0.56764  -0.56126
 Alpha  occ. eigenvalues --   -0.53927  -0.51482  -0.51047  -0.49197  -0.47370
 Alpha  occ. eigenvalues --   -0.43658  -0.35915  -0.34134  -0.32379
 Alpha virt. eigenvalues --    0.03101   0.03308   0.03647   0.04287   0.04892
 Alpha virt. eigenvalues --    0.05162   0.06336   0.06766   0.07281   0.07603
 Alpha virt. eigenvalues --    0.08494   0.09253   0.09586   0.09673   0.10618

 Mulliken charges:
               1
     1  C   -0.006204
     2  C    0.121146
     3  C    0.172748
     4  C   -0.045531
     5  C    0.429565
     6  C    1.109249
     7  H   -0.300926
     8  B    1.908935
     9  O   -1.422300
    10  O   -1.418151
    11  H   -0.233963
    12  H   -0.240616
    13  H   -0.216154
    14  H   -0.360429
    15  C   -0.776066
    16  H    0.541967
    17  H    0.869091
    18  P   -0.457552
    19  H   -0.023299
    20  H    0.045917
    21  H    0.302575
 Sum of Mulliken charges =  -0.00000

 Dipole moment (field-independent basis, Debye):
    X=              1.8591    Y=              0.5336    Z=              0.7729  Tot=              2.0828

 Test job not archived.
 1\1\GINC-SE095\SP\RHF\Aug-CC-pVDZ\C7H10B1O2P1\OHZDE\09-Apr-2025\0\\#t
 hf aug-cc-pvdz iop(5/13=1,5/36=2,99/5=2) pseudo=read geom=check guess=
 (read,tcheck) scf=(maxcycle=1)\\title\\0,1\C,0,2.768671,-0.518927,-1.0
 43638\C,0,1.626311,-1.138813,-0.54761\C,0,3.222011,0.675722,-0.48423\C
 ,0,2.525114,1.241433,0.57925\C,0,1.381072,0.616697,1.078739\C,0,0.9135
 8,-0.58262,0.524394\H,0,1.279011,-2.064801,-0.993364\B,0,-2.258472,0.6
 54718,-0.251063\O,0,-1.374585,1.693886,-0.300741\O,0,-3.589489,0.92694
 1,-0.351074\H,0,3.307172,-0.968781,-1.870318\H,0,2.871589,2.165691,1.0

 Normal termination of Gaussian 16 at Wed Apr  9 00:46:28 2025.
