 Gaussian 16, Revision C.01,

 ----------------------------------------------------------------------
 #t hf aug-cc-pvdz symm=none int=(grid=ultrafine) guess=(read,tcheck) s
 table=(opt,rrhf)
 ----------------------------------------------------------------------
 -----
 title
 -----
 Symbolic Z-matrix:
 Charge =  0 Multiplicity = 1

 SCF Done:  E(RHF) =  -1147.72351143     A.U. after   12 cycles
 Normal termination of Gaussian 16 at Wed Apr  9 00:16:33 2025.
 Gaussian 16:  ES64L-G16RevC.01  3-Jul-2019

 ----------------------------------------------------------------------
 #t hf aug-cc-pvdz iop(5/13=1,5/36=2,99/5=2) pseudo=read geom=check gue
 ss=(read,tcheck) scf=(maxcycle=1)
 ----------------------------------------------------------------------
 -----
 title
 -----
 Structure from the checkpoint file:  "BDE49_nonexpt_2534_mol1.chk"
 Charge =  0 Multiplicity = 1

                         Standard orientation:
 ---------------------------------------------------------------------
 Center     Atomic      Atomic             Coordinates (Angstroms)
 Number     Number       Type             X           Y           Z
 ---------------------------------------------------------------------
      1         17           0        1.610920   -0.462362    0.000026
      2         16           0        0.077712    0.958956   -0.000016
      3         14           0       -1.617278   -0.396246   -0.000011
      4          1           0       -1.611408   -1.237214    1.213002
      5          1           0       -2.764337    0.538786   -0.000040
      6          1           0       -1.611381   -1.237257   -1.212994
 ---------------------------------------------------------------------

 SCF Done:  E(RHF) =  -1147.89709903     A.U. after    2 cycles

 The electronic state is 1-A.
 Alpha  occ. eigenvalues -- -105.59152 -94.00328 -69.57745 -10.63801  -8.28266
 Alpha  occ. eigenvalues --   -7.80745  -7.80296  -7.80265  -6.26066  -6.25801
 Alpha  occ. eigenvalues --   -6.25561  -6.24626  -4.00053  -3.99942  -3.99899
 Alpha  occ. eigenvalues --   -1.11513  -0.94183  -0.75237  -0.56324  -0.54385
 Alpha  occ. eigenvalues --   -0.54372  -0.50528  -0.50263  -0.43894  -0.38452
 Alpha virt. eigenvalues --    0.03398   0.03584   0.05230   0.05534   0.06047
 Alpha virt. eigenvalues --    0.08741   0.08931   0.10467   0.12110   0.13412
 Alpha virt. eigenvalues --    0.14504   0.15399   0.16663   0.17385   0.17986

 Mulliken charges:
               1
     1  Cl  -0.297893
     2  S   -0.386389
     3  Si   1.288577
     4  H   -0.183461
     5  H   -0.237373
     6  H   -0.183461
 Sum of Mulliken charges =  -0.00000

 Dipole moment (field-independent basis, Debye):
    X=             -2.0678    Y=             -0.3960    Z=             -0.0000  Tot=              2.1053

 Test job not archived.
 1\1\GINC-SE179\SP\RHF\Aug-CC-pVDZ\Cl1H3S1Si1\OHZDE\09-Apr-2025\0\\#t h
 f aug-cc-pvdz iop(5/13=1,5/36=2,99/5=2) pseudo=read geom=check guess=(
 read,tcheck) scf=(maxcycle=1)\\title\\0,1\Cl,0,1.61092,-0.462362,0.000
 026\S,0,0.077712,0.958956,-0.000016\Si,0,-1.617278,-0.396246,-0.000011
 \H,0,-1.611408,-1.237214,1.213002\H,0,-2.764337,0.538786,-0.00004\H,0,
 -1.611381,-1.237257,-1.212994\\Version=ES64L-G16RevC.01\State=1-A\HF=-
 1147.897099\RMSD=3.510e-03\Dipole=-0.8135209,-0.1558016,-0.0000065\Qua
 drupole=1.419538,0.0347659,-1.4543039,0.0845382,0.0000311,-0.0000248\P

 Normal termination of Gaussian 16 at Wed Apr  9 00:16:35 2025.
