 Gaussian 16, Revision C.01,

 ----------------------------------------------------------------------
 #t hf aug-cc-pvdz symm=none int=(grid=ultrafine) guess=(read,tcheck) s
 table=(opt,rrhf)
 ----------------------------------------------------------------------
 -----
 title
 -----
 Symbolic Z-matrix:
 Charge =  0 Multiplicity = 1

 SCF Done:  E(RHF) =  -537.135095351     A.U. after   13 cycles
 Normal termination of Gaussian 16 at Tue Apr  8 23:51:41 2025.
 Gaussian 16:  ES64L-G16RevC.01  3-Jul-2019

 ----------------------------------------------------------------------
 #t hf aug-cc-pvdz iop(5/13=1,5/36=2,99/5=2) pseudo=read geom=check gue
 ss=(read,tcheck) scf=(maxcycle=1)
 ----------------------------------------------------------------------
 -----
 title
 -----
 Structure from the checkpoint file:  "BDE49_nonexpt_1895_mol1.chk"
 Charge =  0 Multiplicity = 1

                         Standard orientation:
 ---------------------------------------------------------------------
 Center     Atomic      Atomic             Coordinates (Angstroms)
 Number     Number       Type             X           Y           Z
 ---------------------------------------------------------------------
      1         14           0       -2.268716    0.021302    0.324342
      2          6           0       -0.774244   -0.679702   -0.613733
      3          6           0        0.483677    0.111214   -0.299654
      4          8           0        0.494375    1.332766   -0.339110
      5          7           0        1.577657   -0.629446    0.044628
      6          1           0       -1.938653    0.166524    1.760425
      7          6           0        2.856544   -0.026000    0.380930
      8          1           0        2.714954    1.053384    0.384691
      9          1           0        3.624575   -0.280068   -0.356103
     10          1           0        3.193571   -0.348145    1.370159
     11          1           0       -3.387639   -0.945003    0.194536
     12          1           0       -2.696105    1.320396   -0.230505
     13          1           0        1.505889   -1.633158    0.024014
     14          1           0       -0.980655   -0.571914   -1.683913
     15          1           0       -0.668376   -1.749314   -0.408873
 ---------------------------------------------------------------------

 SCF Done:  E(RHF) =  -537.426111304     A.U. after    2 cycles

 The electronic state is 1-A.
 Alpha  occ. eigenvalues --  -69.53028 -20.50450 -15.52938 -11.36121 -11.26965
 Alpha  occ. eigenvalues --  -11.24180  -6.20060  -3.95442  -3.95433  -3.95417
 Alpha  occ. eigenvalues --   -1.45454  -1.23928  -1.02496  -0.94599  -0.82354
 Alpha  occ. eigenvalues --   -0.73891  -0.69985  -0.67383  -0.64555  -0.59533
 Alpha  occ. eigenvalues --   -0.59344  -0.55944  -0.53658  -0.48346  -0.47927
 Alpha  occ. eigenvalues --   -0.46505  -0.42193  -0.41671
 Alpha virt. eigenvalues --    0.02775   0.04068   0.04477   0.04532   0.05371
 Alpha virt. eigenvalues --    0.06146   0.06444   0.07334   0.08535   0.09475
 Alpha virt. eigenvalues --    0.09889   0.10540   0.12299   0.13421   0.14101

 Mulliken charges:
               1
     1  Si   0.966217
     2  C   -0.737314
     3  C    0.626043
     4  O   -1.314031
     5  N    0.664384
     6  H   -0.187235
     7  C   -0.377754
     8  H    0.069155
     9  H    0.130780
    10  H    0.122459
    11  H   -0.183227
    12  H   -0.121143
    13  H    0.073375
    14  H    0.216289
    15  H    0.052003
 Sum of Mulliken charges =  -0.00000

 Dipole moment (field-independent basis, Debye):
    X=              1.0746    Y=             -3.5842    Z=             -0.0044  Tot=              3.7418

 Test job not archived.
 1\1\GINC-SE402\SP\RHF\Aug-CC-pVDZ\C3H9N1O1Si1\OHZDE\08-Apr-2025\0\\#t
 hf aug-cc-pvdz iop(5/13=1,5/36=2,99/5=2) pseudo=read geom=check guess=
 (read,tcheck) scf=(maxcycle=1)\\title\\0,1\Si,0,2.268716,0.021302,-0.3
 24342\C,0,0.774244,-0.679702,0.613733\C,0,-0.483677,0.111214,0.299654\
 O,0,-0.494375,1.332766,0.33911\N,0,-1.577657,-0.629446,-0.044628\H,0,1
 .938653,0.166524,-1.760425\C,0,-2.856544,-0.026,-0.38093\H,0,-2.714954
 ,1.053384,-0.384691\H,0,-3.624575,-0.280068,0.356103\H,0,-3.193571,-0.
 348145,-1.370159\H,0,3.387639,-0.945003,-0.194536\H,0,2.696105,1.32039

 Normal termination of Gaussian 16 at Tue Apr  8 23:51:46 2025.
