 Gaussian 16, Revision C.01,

 ----------------------------------------------------------------------
 #t hf aug-cc-pvdz symm=none int=(grid=ultrafine) guess=(read,tcheck) s
 table=(opt,rrhf)
 ----------------------------------------------------------------------
 -----
 title
 -----
 Symbolic Z-matrix:
 Charge =  0 Multiplicity = 1

 SCF Done:  E(RHF) =  -561.377873569     A.U. after   12 cycles
 Normal termination of Gaussian 16 at Wed Apr  9 00:06:30 2025.
 Gaussian 16:  ES64L-G16RevC.01  3-Jul-2019

 ----------------------------------------------------------------------
 #t hf aug-cc-pvdz iop(5/13=1,5/36=2,99/5=2) pseudo=read geom=check gue
 ss=(read,tcheck) scf=(maxcycle=1)
 ----------------------------------------------------------------------
 -----
 title
 -----
 Structure from the checkpoint file:  "BDE49_nonexpt_2227_mol1.chk"
 Charge =  0 Multiplicity = 1

                         Standard orientation:
 ---------------------------------------------------------------------
 Center     Atomic      Atomic             Coordinates (Angstroms)
 Number     Number       Type             X           Y           Z
 ---------------------------------------------------------------------
      1         14           0       -1.196653   -0.134366   -0.347496
      2          8           0        0.305669   -0.355324    0.311721
      3          6           0        1.557404    0.078584   -0.239180
      4          6           0        2.155073    1.149649    0.669271
      5          1           0        1.484997    2.008669    0.749126
      6          1           0        3.116890    1.497763    0.281480
      7          1           0        2.310370    0.743678    1.672429
      8          6           0        2.464174   -1.139283   -0.385791
      9          1           0        1.387547    0.511905   -1.235982
     10          1           0        3.437120   -0.855433   -0.797362
     11          1           0        2.009774   -1.877878   -1.049804
     12          1           0        2.620598   -1.606844    0.590035
     13          6           0       -1.736245    1.661820   -0.278162
     14          1           0       -1.795780    2.020384    0.753807
     15          1           0       -2.724670    1.781814   -0.734284
     16          1           0       -1.043972    2.311681   -0.821900
     17          6           0       -2.360702   -1.232022    0.615831
     18          1           0       -3.378654   -1.162428    0.220070
     19          1           0       -2.387420   -0.941314    1.669924
     20          1           0       -2.046221   -2.277354    0.561927
     21          1           0       -1.161009   -0.543411   -1.780101
 ---------------------------------------------------------------------

 SCF Done:  E(RHF) =  -561.708345631     A.U. after    2 cycles

 The electronic state is 1-A.
 Alpha  occ. eigenvalues --  -69.53643 -20.51981 -11.29193 -11.22314 -11.22172
 Alpha  occ. eigenvalues --  -11.20997 -11.20786  -6.20268  -3.95744  -3.95599
 Alpha  occ. eigenvalues --   -3.95571  -1.42479  -1.04805  -0.96100  -0.93778
 Alpha  occ. eigenvalues --   -0.92845  -0.80453  -0.71866  -0.62553  -0.61844
 Alpha  occ. eigenvalues --   -0.60715  -0.57063  -0.56228  -0.55113  -0.54773
 Alpha  occ. eigenvalues --   -0.54516  -0.53141  -0.52169  -0.51424  -0.47102
 Alpha  occ. eigenvalues --   -0.46018  -0.43534  -0.41115
 Alpha virt. eigenvalues --    0.03563   0.03792   0.03952   0.04027   0.05694
 Alpha virt. eigenvalues --    0.05827   0.06184   0.06604   0.06966   0.08265
 Alpha virt. eigenvalues --    0.08974   0.09044   0.09210   0.10070   0.10411

 Mulliken charges:
               1
     1  Si   2.501117
     2  O   -1.981604
     3  C    0.214279
     4  C   -0.228750
     5  H    0.120883
     6  H    0.181653
     7  H    0.225566
     8  C   -0.343521
     9  H    0.223162
    10  H    0.183321
    11  H    0.152474
    12  H    0.219149
    13  C   -0.629985
    14  H    0.106353
    15  H   -0.024670
    16  H   -0.048461
    17  C   -0.614033
    18  H   -0.020957
    19  H    0.107264
    20  H   -0.031279
    21  H   -0.311960
 Sum of Mulliken charges =  -0.00000

 Dipole moment (field-independent basis, Debye):
    X=              0.1902    Y=              0.6550    Z=             -0.3520  Tot=              0.7676

 Test job not archived.
 1\1\GINC-SE082\SP\RHF\Aug-CC-pVDZ\C5H14O1Si1\OHZDE\09-Apr-2025\0\\#t h
 f aug-cc-pvdz iop(5/13=1,5/36=2,99/5=2) pseudo=read geom=check guess=(
 read,tcheck) scf=(maxcycle=1)\\title\\0,1\Si,0,-1.196653,-0.134366,-0.
 347496\O,0,0.305669,-0.355324,0.311721\C,0,1.557404,0.078584,-0.23918\
 C,0,2.155073,1.149649,0.669271\H,0,1.484997,2.008669,0.749126\H,0,3.11
 689,1.497763,0.28148\H,0,2.31037,0.743678,1.672429\C,0,2.464174,-1.139
 283,-0.385791\H,0,1.387547,0.511905,-1.235982\H,0,3.43712,-0.855433,-0
 .797362\H,0,2.009774,-1.877878,-1.049804\H,0,2.620598,-1.606844,0.5900

 Normal termination of Gaussian 16 at Wed Apr  9 00:06:40 2025.
