 Gaussian 16, Revision C.01,

 ----------------------------------------------------------------------
 #t hf aug-cc-pvdz symm=none int=(grid=ultrafine) guess=(read,tcheck) s
 table=(opt,rrhf)
 ----------------------------------------------------------------------
 -----
 title
 -----
 Symbolic Z-matrix:
 Charge =  0 Multiplicity = 1

 SCF Done:  E(RHF) =  -1768.44764336     A.U. after   14 cycles
 Normal termination of Gaussian 16 at Wed Apr  9 00:50:34 2025.
 Gaussian 16:  ES64L-G16RevC.01  3-Jul-2019

 ----------------------------------------------------------------------
 #t hf aug-cc-pvdz iop(5/13=1,5/36=2,99/5=2) pseudo=read geom=check gue
 ss=(read,tcheck) scf=(maxcycle=1)
 ----------------------------------------------------------------------
 -----
 title
 -----
 Structure from the checkpoint file:  "BDE49_nonexpt_908_mol1.chk"
 Charge =  0 Multiplicity = 1

                         Standard orientation:
 ---------------------------------------------------------------------
 Center     Atomic      Atomic             Coordinates (Angstroms)
 Number     Number       Type             X           Y           Z
 ---------------------------------------------------------------------
      1         16           0        0.336958   -1.264187   -0.449737
      2          5           0        1.502609    0.083315   -0.062623
      3         16           0        1.047840    1.827708   -0.232306
      4         16           0        3.169538   -0.390024    0.489877
      5         16           0       -1.430574   -0.316286   -1.041812
      6          6           0       -2.315242   -0.110836    0.559178
      7          6           0       -3.663245    0.546819    0.358711
      8          1           0       -3.591732    1.581254    0.705864
      9          1           0       -4.399283    0.029741    0.976730
     10          1           0       -3.984989    0.545751   -0.683485
     11          8           0       -1.858932   -0.439297    1.611749
     12          1           0        3.000430   -1.725421    0.477283
     13          1           0        2.224717    2.335211    0.179040
 ---------------------------------------------------------------------

 SCF Done:  E(RHF) =  -1768.86311463     A.U. after    2 cycles

 The electronic state is 1-A.
 Alpha  occ. eigenvalues --  -93.99934 -93.98582 -93.96757 -93.96600 -20.56508
 Alpha  occ. eigenvalues --  -11.39136 -11.27151  -8.27939  -8.26727  -8.25044
 Alpha  occ. eigenvalues --   -8.24878  -7.68847  -6.25726  -6.25510  -6.25303
 Alpha  occ. eigenvalues --   -6.24529  -6.24296  -6.24133  -6.22879  -6.22740
 Alpha  occ. eigenvalues --   -6.22710  -6.22575  -6.22560  -6.22397  -1.50879
 Alpha  occ. eigenvalues --   -1.12173  -1.06808  -1.03775  -1.01472  -0.93800
 Alpha  occ. eigenvalues --   -0.76483  -0.68375  -0.66129  -0.65450  -0.63657
 Alpha  occ. eigenvalues --   -0.61014  -0.58132  -0.56091  -0.53815  -0.49347
 Alpha  occ. eigenvalues --   -0.48799  -0.47428  -0.46060  -0.42542  -0.39416
 Alpha  occ. eigenvalues --   -0.38759  -0.38244
 Alpha virt. eigenvalues --    0.03215   0.04070   0.04546   0.05108   0.05533
 Alpha virt. eigenvalues --    0.06246   0.06778   0.07843   0.08860   0.09092
 Alpha virt. eigenvalues --    0.09157   0.10532   0.11084   0.11111   0.12257

 Mulliken charges:
               1
     1  S   -0.290146
     2  B    1.276983
     3  S   -0.568623
     4  S   -0.719238
     5  S   -0.108136
     6  C    0.880852
     7  C   -0.520011
     8  H    0.276709
     9  H    0.213770
    10  H    0.200673
    11  O   -1.194431
    12  H    0.273390
    13  H    0.278207
 Sum of Mulliken charges =  -0.00000

 Dipole moment (field-independent basis, Debye):
    X=             -1.3211    Y=              0.8797    Z=             -0.6900  Tot=              1.7307

 Test job not archived.
 1\1\GINC-SE362\SP\RHF\Aug-CC-pVDZ\C2H5B1O1S4\OHZDE\09-Apr-2025\0\\#t h
 f aug-cc-pvdz iop(5/13=1,5/36=2,99/5=2) pseudo=read geom=check guess=(
 read,tcheck) scf=(maxcycle=1)\\title\\0,1\S,0,0.336958,-1.264187,-0.44
 9737\B,0,1.502609,0.083315,-0.062623\S,0,1.04784,1.827708,-0.232306\S,
 0,3.169538,-0.390024,0.489877\S,0,-1.430574,-0.316286,-1.041812\C,0,-2
 .315242,-0.110836,0.559178\C,0,-3.663245,0.546819,0.358711\H,0,-3.5917
 32,1.581254,0.705864\H,0,-4.399283,0.029741,0.97673\H,0,-3.984989,0.54
 5751,-0.683485\O,0,-1.858932,-0.439297,1.611749\H,0,3.00043,-1.725421,

 Normal termination of Gaussian 16 at Wed Apr  9 00:50:39 2025.
