 Gaussian 16, Revision C.01,

 ----------------------------------------------------------------------
 #t hf aug-cc-pvdz symm=none int=(grid=ultrafine) guess=(read,tcheck) s
 table=(opt,rrhf)
 ----------------------------------------------------------------------
 -----
 title
 -----
 Symbolic Z-matrix:
 Charge =  0 Multiplicity = 1

 SCF Done:  E(RHF) =  -760.695585912     A.U. after   16 cycles
 Normal termination of Gaussian 16 at Tue Apr  8 22:51:36 2025.
 Gaussian 16:  ES64L-G16RevC.01  3-Jul-2019

 ----------------------------------------------------------------------
 #t hf aug-cc-pvdz iop(5/13=1,5/36=2,99/5=2) pseudo=read geom=check gue
 ss=(read,tcheck) scf=(maxcycle=1)
 ----------------------------------------------------------------------
 -----
 title
 -----
 Structure from the checkpoint file:  "BDE49_expt_1461_mol1.chk"
 Charge =  0 Multiplicity = 1

                         Standard orientation:
 ---------------------------------------------------------------------
 Center     Atomic      Atomic             Coordinates (Angstroms)
 Number     Number       Type             X           Y           Z
 ---------------------------------------------------------------------
      1          6           0        2.377492    0.161494   -0.124401
      2          6           0        1.146876    0.948956   -0.391475
      3          8           0        0.000000    0.259029    0.000003
      4          6           0       -1.146877    0.948955    0.391479
      5          8           0        1.104736    2.018695   -0.924616
      6          8           0       -1.104739    2.018697    0.924616
      7          6           0       -2.377493    0.161494    0.124403
      8          6           0        2.359683   -1.055175    0.566953
      9          6           0        3.549067   -1.739969    0.794973
     10          6           0        4.756306   -1.217077    0.334462
     11          6           0        4.777050   -0.004104   -0.354776
     12          6           0        3.592709    0.684330   -0.583533
     13          6           0       -2.359681   -1.055177   -0.566949
     14          6           0       -3.592710    0.684330    0.583529
     15          6           0       -4.777051   -0.004104    0.354770
     16          6           0       -4.756305   -1.217079   -0.334465
     17          6           0       -3.549064   -1.739972   -0.794971
     18          1           0       -3.534717   -2.680844   -1.332777
     19          1           0       -1.419628   -1.453632   -0.924052
     20          1           0       -3.585095    1.628849    1.112980
     21          1           0       -5.716315    0.402746    0.710912
     22          1           0       -5.681365   -1.753509   -0.513672
     23          1           0        1.419631   -1.453629    0.924060
     24          1           0        3.534721   -2.680841    1.332781
     25          1           0        5.681366   -1.753507    0.513667
     26          1           0        5.716313    0.402745   -0.710922
     27          1           0        3.585092    1.628847   -1.112986
 ---------------------------------------------------------------------

 SCF Done:  E(RHF) =  -761.452522328     A.U. after    2 cycles

 The electronic state is 1-A.
 Alpha  occ. eigenvalues --  -20.60982 -20.54863 -20.54861 -11.40924 -11.40884
 Alpha  occ. eigenvalues --  -11.26859 -11.26858 -11.26783 -11.26782 -11.26751
 Alpha  occ. eigenvalues --  -11.26751 -11.26455 -11.26452 -11.25902 -11.25901
 Alpha  occ. eigenvalues --  -11.25794 -11.25793  -1.57302  -1.49573  -1.45972
 Alpha  occ. eigenvalues --   -1.17961  -1.17590  -1.06889  -1.05067  -1.03735
 Alpha  occ. eigenvalues --   -1.03686  -0.94847  -0.88585  -0.86041  -0.85345
 Alpha  occ. eigenvalues --   -0.82971  -0.77386  -0.75024  -0.74292  -0.70350
 Alpha  occ. eigenvalues --   -0.69510  -0.68353  -0.66449  -0.65354  -0.64818
 Alpha  occ. eigenvalues --   -0.64752  -0.62178  -0.62090  -0.61246  -0.60770
 Alpha  occ. eigenvalues --   -0.56283  -0.54451  -0.54352  -0.52802  -0.52284
 Alpha  occ. eigenvalues --   -0.52255  -0.51562  -0.47643  -0.46997  -0.44463
 Alpha  occ. eigenvalues --   -0.36755  -0.36651  -0.36320  -0.36304
 Alpha virt. eigenvalues --    0.02726   0.02830   0.03320   0.03850   0.04298
 Alpha virt. eigenvalues --    0.04956   0.05016   0.05541   0.06249   0.06698
 Alpha virt. eigenvalues --    0.06759   0.07834   0.08931   0.09210   0.09397

 Mulliken charges:
               1
     1  C    1.945400
     2  C    1.118004
     3  O   -1.693005
     4  C    1.118012
     5  O   -1.350601
     6  O   -1.350602
     7  C    1.945402
     8  C    0.293201
     9  C    0.155881
    10  C   -0.003259
    11  C    0.344966
    12  C   -0.342610
    13  C    0.293194
    14  C   -0.342605
    15  C    0.344963
    16  C   -0.003267
    17  C    0.155889
    18  H   -0.235722
    19  H   -0.307073
    20  H   -0.336458
    21  H   -0.218552
    22  H   -0.216676
    23  H   -0.307072
    24  H   -0.235720
    25  H   -0.216677
    26  H   -0.218551
    27  H   -0.336461
 Sum of Mulliken charges =  -0.00000

 Dipole moment (field-independent basis, Debye):
    X=              0.0000    Y=             -4.6419    Z=             -0.0000  Tot=              4.6419

 Test job not archived.
 1\1\GINC-SE229\SP\RHF\Aug-CC-pVDZ\C14H10O3\OHZDE\08-Apr-2025\0\\#t hf
 aug-cc-pvdz iop(5/13=1,5/36=2,99/5=2) pseudo=read geom=check guess=(re
 ad,tcheck) scf=(maxcycle=1)\\title\\0,1\C,0,2.377492,0.161494,-0.12440
 1\C,0,1.146876,0.948956,-0.391475\O,0,0.,0.259029,0.000003\C,0,-1.1468
 77,0.948955,0.391479\O,0,1.104736,2.018695,-0.924616\O,0,-1.104739,2.0
 18697,0.924616\C,0,-2.377493,0.161494,0.124403\C,0,2.359683,-1.055175,
 0.566953\C,0,3.549067,-1.739969,0.794973\C,0,4.756306,-1.217077,0.3344
 62\C,0,4.77705,-0.004104,-0.354776\C,0,3.592709,0.68433,-0.583533\C,0,

 Normal termination of Gaussian 16 at Tue Apr  8 22:52:10 2025.
