 Gaussian 16, Revision C.01,

 ----------------------------------------------------------------------
 #t hf aug-cc-pvdz symm=none int=(grid=ultrafine) guess=(read,tcheck) s
 table=opt
 ----------------------------------------------------------------------
 -----
 title
 -----
 Symbolic Z-matrix:
 Charge =  0 Multiplicity = 2

 SCF Done:  E(UHF) =  -614.022178572     A.U. after   21 cycles
 Normal termination of Gaussian 16 at Wed Apr  9 00:32:47 2025.
 Gaussian 16:  ES64L-G16RevC.01  3-Jul-2019

 ----------------------------------------------------------------------
 #t hf aug-cc-pvdz iop(5/13=1,5/36=2,99/5=2) pseudo=read geom=check gue
 ss=(read,tcheck) scf=(maxcycle=1)
 ----------------------------------------------------------------------
 -----
 title
 -----
 Structure from the checkpoint file:  "BDE49_nonexpt_395_mol2.chk"
 Charge =  0 Multiplicity = 2

                         Standard orientation:
 ---------------------------------------------------------------------
 Center     Atomic      Atomic             Coordinates (Angstroms)
 Number     Number       Type             X           Y           Z
 ---------------------------------------------------------------------
      1          9           0        2.940208   -0.215464    0.000003
      2          5           0        1.842012    0.506734    0.000005
      3          7           0        0.546610   -0.013544    0.000001
      4          6           0       -0.656371   -0.002577   -0.000001
      5         16           0       -2.222499   -0.030264   -0.000003
 ---------------------------------------------------------------------

 SCF Done:  E(UHF) =  -614.274192476     A.U. after    2 cycles

 The electronic state is 2-A.
 Alpha  occ. eigenvalues --  -93.98040 -26.50014 -15.55887 -11.42245  -8.26331
 Alpha  occ. eigenvalues --   -7.73928  -6.24186  -6.23872  -6.23754  -1.63362
 Alpha  occ. eigenvalues --   -1.31119  -1.10813  -0.93672  -0.78197  -0.70405
 Alpha  occ. eigenvalues --   -0.68850  -0.64706  -0.62257  -0.61971  -0.44953
 Alpha  occ. eigenvalues --   -0.41733  -0.36556
 Alpha virt. eigenvalues --    0.02688   0.04446   0.05272   0.05642   0.05879
 Alpha virt. eigenvalues --    0.06937   0.08947   0.11684   0.12513   0.14488
 Alpha virt. eigenvalues --    0.14761   0.14795   0.16248   0.18954   0.21693

  Beta  occ. eigenvalues --  -93.97990 -26.49684 -15.56099 -11.41979  -8.26275
  Beta  occ. eigenvalues --   -7.71770  -6.24183  -6.23761  -6.23594  -1.62407
  Beta  occ. eigenvalues --   -1.31045  -1.10641  -0.92110  -0.76713  -0.68675
  Beta  occ. eigenvalues --   -0.67428  -0.64138  -0.62326  -0.62062  -0.41921
  Beta  occ. eigenvalues --   -0.41826
  Beta virt. eigenvalues --    0.02700   0.04323   0.04777   0.05815   0.06278
  Beta virt. eigenvalues --    0.06589   0.07190   0.11763   0.12023   0.13414
  Beta virt. eigenvalues --    0.14815   0.15159   0.15336   0.17865   0.20893

 Mulliken charges and spin densities:
               1          2
     1  F   -0.500242  -0.002218
     2  B    0.478989   0.976845
     3  N    0.732075  -0.067322
     4  C   -1.126317   0.028899
     5  S    0.415495   0.063795
 Sum of Mulliken charges =  -0.00000   1.00000

 Dipole moment (field-independent basis, Debye):
    X=             -0.4923    Y=              0.2985    Z=              0.0000  Tot=              0.5757
                          Isotropic Fermi Contact Couplings
        Atom                 a.u.       MegaHertz       Gauss      10(-4) cm-1
     1  F(19)              0.09024     379.68666     135.48164     126.64984
     2  B(11)              0.44607     639.82171     228.30429     213.42155
     3  N(14)              0.05380      17.38273       6.20259       5.79825
     4  C(13)              0.02084      23.42481       8.35855       7.81368
     5  S(33)              0.01584       5.44070       1.94138       1.81482
 --------------------------------------------------------
       Center         ----  Spin Dipole Couplings  ----
                      3XX-RR        3YY-RR        3ZZ-RR

 Normal termination of Gaussian 16 at Wed Apr  9 00:32:53 2025.
