 Gaussian 16, Revision C.01,

 ----------------------------------------------------------------------
 #t hf aug-cc-pvdz symm=none int=(grid=ultrafine) guess=(read,tcheck) s
 table=(opt,rrhf)
 ----------------------------------------------------------------------
 -----
 title
 -----
 Symbolic Z-matrix:
 Charge =  0 Multiplicity = 1

 SCF Done:  E(RHF) =  -584.887886460     A.U. after   14 cycles
 Normal termination of Gaussian 16 at Wed Apr  9 00:43:08 2025.
 Gaussian 16:  ES64L-G16RevC.01  3-Jul-2019

 ----------------------------------------------------------------------
 #t hf aug-cc-pvdz iop(5/13=1,5/36=2,99/5=2) pseudo=read geom=check gue
 ss=(read,tcheck) scf=(maxcycle=1)
 ----------------------------------------------------------------------
 -----
 title
 -----
 Structure from the checkpoint file:  "BDE49_nonexpt_681_mol1.chk"
 Charge =  0 Multiplicity = 1

                         Standard orientation:
 ---------------------------------------------------------------------
 Center     Atomic      Atomic             Coordinates (Angstroms)
 Number     Number       Type             X           Y           Z
 ---------------------------------------------------------------------
      1          8           0       -1.399928    0.000001   -0.680472
      2          7           0       -0.288210    0.000002    0.260477
      3          5           0       -2.630600    0.000008   -0.105513
      4          9           0       -3.671424   -0.000011   -0.926198
      5          9           0       -2.846060    0.000006    1.198119
      6          6           0        0.448376    1.196897    0.129155
      7          6           0        1.777806    1.232422    0.215552
      8          6           0        2.636660    0.000000    0.365492
      9          6           0        1.777804   -1.232421    0.215561
     10          6           0        0.448374   -1.196895    0.129164
     11          6           0        3.812701   -0.000004   -0.633602
     12          1           0       -0.164597   -2.082054    0.024102
     13          1           0       -0.164594    2.082056    0.024087
     14          1           0        2.269462    2.198967    0.200128
     15          1           0        3.444275   -0.000008   -1.662462
     16          1           0        4.441544   -0.883799   -0.493897
     17          1           0        2.269459   -2.198968    0.200143
     18          1           0        4.441545    0.883791   -0.493903
     19          1           0        3.079836    0.000003    1.374596
 ---------------------------------------------------------------------

 SCF Done:  E(RHF) =  -585.461718933     A.U. after    2 cycles

 The electronic state is 1-A.
 Alpha  occ. eigenvalues --  -26.48223 -26.47835 -20.60946 -15.59330 -11.28422
 Alpha  occ. eigenvalues --  -11.28418 -11.26049 -11.24726 -11.24717 -11.23645
 Alpha  occ. eigenvalues --   -7.74700  -1.63639  -1.59548  -1.52113  -1.23798
 Alpha  occ. eigenvalues --   -1.09916  -1.05379  -0.97498  -0.87645  -0.86054
 Alpha  occ. eigenvalues --   -0.81290  -0.77765  -0.75840  -0.72151  -0.71000
 Alpha  occ. eigenvalues --   -0.69049  -0.68715  -0.64612  -0.63700  -0.63456
 Alpha  occ. eigenvalues --   -0.62706  -0.62101  -0.60241  -0.56878  -0.55592
 Alpha  occ. eigenvalues --   -0.53898  -0.51791  -0.51177  -0.49352  -0.39378
 Alpha  occ. eigenvalues --   -0.33854
 Alpha virt. eigenvalues --    0.03316   0.03572   0.03680   0.04320   0.04683
 Alpha virt. eigenvalues --    0.05138   0.05886   0.06263   0.07761   0.07906
 Alpha virt. eigenvalues --    0.09715   0.11213   0.11307   0.11904   0.12317

 Mulliken charges:
               1
     1  O   -1.243431
     2  N    1.200403
     3  B    1.670747
     4  F   -0.679004
     5  F   -0.521749
     6  C   -0.365024
     7  C    1.119839
     8  C   -1.509046
     9  C    1.119834
    10  C   -0.365025
    11  C   -0.139448
    12  H   -0.307869
    13  H   -0.307870
    14  H   -0.211948
    15  H    0.237662
    16  H    0.131181
    17  H   -0.211946
    18  H    0.131181
    19  H    0.251515
 Sum of Mulliken charges =  -0.00000

 Dipole moment (field-independent basis, Debye):
    X=              2.6589    Y=              0.0000    Z=              0.1704  Tot=              2.6643

 Test job not archived.
 1\1\GINC-SE099\SP\RHF\Aug-CC-pVDZ\C6H8B1F2N1O1\OHZDE\09-Apr-2025\0\\#t
  hf aug-cc-pvdz iop(5/13=1,5/36=2,99/5=2) pseudo=read geom=check guess
 =(read,tcheck) scf=(maxcycle=1)\\title\\0,1\O,0,-1.399928,0.000001,-0.
 680472\N,0,-0.28821,0.000002,0.260477\B,0,-2.6306,0.000008,-0.105513\F
 ,0,-3.671424,-0.000011,-0.926198\F,0,-2.84606,0.000006,1.198119\C,0,0.
 448376,1.196897,0.129155\C,0,1.777806,1.232422,0.215552\C,0,2.63666,0.
 ,0.365492\C,0,1.777804,-1.232421,0.215561\C,0,0.448374,-1.196895,0.129
 164\C,0,3.812701,-0.000004,-0.633602\H,0,-0.164597,-2.082054,0.024102\

 Normal termination of Gaussian 16 at Wed Apr  9 00:43:20 2025.
