 Gaussian 16, Revision C.01,

 ----------------------------------------------------------------------
 #t hf aug-cc-pvdz symm=none int=(grid=ultrafine) guess=(read,tcheck) s
 table=(opt,rrhf)
 ----------------------------------------------------------------------
 -----
 title
 -----
 Symbolic Z-matrix:
 Charge =  0 Multiplicity = 1

 SCF Done:  E(RHF) =  -627.021948391     A.U. after   12 cycles
 Normal termination of Gaussian 16 at Tue Apr  8 23:49:23 2025.
 Gaussian 16:  ES64L-G16RevC.01  3-Jul-2019

 ----------------------------------------------------------------------
 #t hf aug-cc-pvdz iop(5/13=1,5/36=2,99/5=2) pseudo=read geom=check gue
 ss=(read,tcheck) scf=(maxcycle=1)
 ----------------------------------------------------------------------
 -----
 title
 -----
 Structure from the checkpoint file:  "BDE49_nonexpt_1840_mol1.chk"
 Charge =  0 Multiplicity = 1

                         Standard orientation:
 ---------------------------------------------------------------------
 Center     Atomic      Atomic             Coordinates (Angstroms)
 Number     Number       Type             X           Y           Z
 ---------------------------------------------------------------------
      1          6           0        1.146395   -0.619050   -0.381381
      2         14           0       -0.471085    0.017064    0.320775
      3          9           0       -1.630289   -0.990593   -0.124229
      4          9           0        2.177726    0.162581    0.172551
      5          9           0       -0.805081    1.441744   -0.314875
      6          1           0       -0.475975    0.147780    1.781321
      7          1           0        1.188888   -0.530175   -1.471325
      8          1           0        1.322706   -1.665786   -0.113583
 ---------------------------------------------------------------------

 SCF Done:  E(RHF) =  -627.368859196     A.U. after    2 cycles

 The electronic state is 1-A.
 Alpha  occ. eigenvalues --  -69.63864 -26.47625 -26.47287 -26.46661 -11.33063
 Alpha  occ. eigenvalues --   -6.30135  -4.05549  -4.05387  -4.05200  -1.60004
 Alpha  occ. eigenvalues --   -1.58091  -1.57719  -0.97226  -0.80161  -0.71648
 Alpha  occ. eigenvalues --   -0.70995  -0.70043  -0.68701  -0.68073  -0.64752
 Alpha  occ. eigenvalues --   -0.64491  -0.62708  -0.56950  -0.54662  -0.48310
 Alpha virt. eigenvalues --    0.03521   0.04525   0.04995   0.05824   0.07830
 Alpha virt. eigenvalues --    0.08533   0.10926   0.13152   0.14335   0.15257
 Alpha virt. eigenvalues --    0.16316   0.18165   0.19603   0.21076   0.23944

 Mulliken charges:
               1
     1  C    0.140953
     2  Si   2.342788
     3  F   -0.834358
     4  F   -0.687641
     5  F   -0.832700
     6  H   -0.227158
     7  H    0.066091
     8  H    0.032024
 Sum of Mulliken charges =  -0.00000

 Dipole moment (field-independent basis, Debye):
    X=              0.3076    Y=             -1.4974    Z=              0.0794  Tot=              1.5307

 Test job not archived.
 1\1\GINC-SE335\SP\RHF\Aug-CC-pVDZ\C1H3F3Si1\OHZDE\08-Apr-2025\0\\#t hf
  aug-cc-pvdz iop(5/13=1,5/36=2,99/5=2) pseudo=read geom=check guess=(r
 ead,tcheck) scf=(maxcycle=1)\\title\\0,1\C,0,1.146395,-0.61905,-0.3813
 81\Si,0,-0.471085,0.017064,0.320775\F,0,-1.630289,-0.990592,-0.124229\
 F,0,2.177726,0.162581,0.172551\F,0,-0.805081,1.441744,-0.314875\H,0,-0
 .475975,0.14778,1.781321\H,0,1.188888,-0.530175,-1.471325\H,0,1.322706
 ,-1.665786,-0.113583\\Version=ES64L-G16RevC.01\State=1-A\HF=-627.36885
 92\RMSD=4.050e-03\Dipole=0.1210383,-0.5891082,0.0312368\Quadrupole=-3.

 Normal termination of Gaussian 16 at Tue Apr  8 23:49:25 2025.
