 Gaussian 16, Revision C.01,

 ----------------------------------------------------------------------
 #t hf aug-cc-pvdz symm=none int=(grid=ultrafine) guess=(read,tcheck) s
 table=(opt,rrhf)
 ----------------------------------------------------------------------
 -----
 title
 -----
 Symbolic Z-matrix:
 Charge =  0 Multiplicity = 1

 SCF Done:  E(RHF) =  -2092.78485562     A.U. after   16 cycles
 Normal termination of Gaussian 16 at Tue Apr  8 23:16:07 2025.
 Gaussian 16:  ES64L-G16RevC.01  3-Jul-2019

 ----------------------------------------------------------------------
 #t hf aug-cc-pvdz iop(5/13=1,5/36=2,99/5=2) pseudo=read geom=check gue
 ss=(read,tcheck) scf=(maxcycle=1)
 ----------------------------------------------------------------------
 -----
 title
 -----
 Structure from the checkpoint file:  "BDE49_nonexpt_1013_mol1.chk"
 Charge =  0 Multiplicity = 1

                         Standard orientation:
 ---------------------------------------------------------------------
 Center     Atomic      Atomic             Coordinates (Angstroms)
 Number     Number       Type             X           Y           Z
 ---------------------------------------------------------------------
      1         16           0        1.302625    1.081419   -0.438650
      2          7           0        2.541186   -0.260169   -0.106939
      3          8           0        2.225305   -1.406882   -0.245540
      4          8           0        3.603370    0.223734    0.214119
      5          8           0       -0.010270    0.163747   -0.923742
      6          6           0       -1.072112   -0.046431   -0.037308
      7         17           0       -2.194361   -1.096598   -0.926576
      8         17           0       -1.877926    1.518037    0.360127
      9         17           0       -0.559764   -0.836011    1.485986
 ---------------------------------------------------------------------

 SCF Done:  E(RHF) =  -2093.36297648     A.U. after    2 cycles

 The electronic state is 1-A.
 Alpha  occ. eigenvalues -- -105.61745-105.61666-105.61613 -94.11337 -20.67586
 Alpha  occ. eigenvalues --  -20.63610 -20.62879 -15.83545 -11.52836 -10.66590
 Alpha  occ. eigenvalues --  -10.66519 -10.66459  -8.38378  -7.83532  -7.83475
 Alpha  occ. eigenvalues --   -7.83408  -7.83101  -7.83088  -7.83011  -7.83007
 Alpha  occ. eigenvalues --   -7.82969  -7.82953  -6.36118  -6.35910  -6.35550
 Alpha  occ. eigenvalues --   -1.71893  -1.58751  -1.56423  -1.22053  -1.12166
 Alpha  occ. eigenvalues --   -1.09334  -1.09157  -0.94696  -0.86350  -0.81054
 Alpha  occ. eigenvalues --   -0.78692  -0.78554  -0.72616  -0.71681  -0.69039
 Alpha  occ. eigenvalues --   -0.60412  -0.58545  -0.54003  -0.52896  -0.52362
 Alpha  occ. eigenvalues --   -0.51970  -0.49720  -0.49402  -0.48817  -0.48479
 Alpha  occ. eigenvalues --   -0.47750  -0.45232
 Alpha virt. eigenvalues --    0.03211   0.04272   0.05211   0.05890   0.07793
 Alpha virt. eigenvalues --    0.08147   0.08443   0.09785   0.10848   0.11043
 Alpha virt. eigenvalues --    0.12321   0.12955   0.14315   0.15139   0.15543

 Mulliken charges:
               1
     1  S    1.037626
     2  N    1.803897
     3  O   -1.102798
     4  O   -1.152300
     5  O   -1.072691
     6  C   -0.053704
     7  Cl   0.183846
     8  Cl   0.203609
     9  Cl   0.152515
 Sum of Mulliken charges =  -0.00000

 Dipole moment (field-independent basis, Debye):
    X=             -1.7050    Y=              1.5131    Z=             -0.1975  Tot=              2.2881

 Test job not archived.
 1\1\GINC-SE424\SP\RHF\Aug-CC-pVDZ\C1Cl3N1O3S1\OHZDE\08-Apr-2025\0\\#t
 hf aug-cc-pvdz iop(5/13=1,5/36=2,99/5=2) pseudo=read geom=check guess=
 (read,tcheck) scf=(maxcycle=1)\\title\\0,1\S,0,1.302625,1.081419,-0.43
 865\N,0,2.541186,-0.260169,-0.106939\O,0,2.225305,-1.406882,-0.24554\O
 ,0,3.60337,0.223734,0.214119\O,0,-0.01027,0.163747,-0.923742\C,0,-1.07
 2112,-0.046431,-0.037308\Cl,0,-2.194361,-1.096598,-0.926576\Cl,0,-1.87
 7926,1.518037,0.360127\Cl,0,-0.559764,-0.836011,1.485986\\Version=ES64
 L-G16RevC.01\State=1-A\HF=-2093.3629765\RMSD=9.002e-03\Dipole=-0.67078

 Normal termination of Gaussian 16 at Tue Apr  8 23:16:12 2025.
