 Gaussian 16, Revision C.01,

 ----------------------------------------------------------------------
 #t hf aug-cc-pvdz symm=none int=(grid=ultrafine) guess=(read,tcheck) s
 table=(opt,rrhf)
 ----------------------------------------------------------------------
 -----
 title
 -----
 Symbolic Z-matrix:
 Charge =  0 Multiplicity = 1

 SCF Done:  E(RHF) =  -628.258305747     A.U. after   15 cycles
 Normal termination of Gaussian 16 at Tue Apr  8 22:45:50 2025.
 Gaussian 16:  ES64L-G16RevC.01  3-Jul-2019

 ----------------------------------------------------------------------
 #t hf aug-cc-pvdz iop(5/13=1,5/36=2,99/5=2) pseudo=read geom=check gue
 ss=(read,tcheck) scf=(maxcycle=1)
 ----------------------------------------------------------------------
 -----
 title
 -----
 Structure from the checkpoint file:  "BDE49_expt_1559_mol1.chk"
 Charge =  0 Multiplicity = 1

                         Standard orientation:
 ---------------------------------------------------------------------
 Center     Atomic      Atomic             Coordinates (Angstroms)
 Number     Number       Type             X           Y           Z
 ---------------------------------------------------------------------
      1          6           0        2.293494    0.003727   -0.000001
      2          6           0        1.588513    1.204992   -0.000001
      3          6           0        0.196377    1.209311   -0.000001
      4          6           0        1.591372   -1.199917   -0.000000
      5          6           0        0.200225   -1.206360    0.000003
      6          6           0       -0.506310    0.000956    0.000001
      7          1           0        3.376999    0.005331   -0.000002
      8          1           0        2.121643    2.149176   -0.000002
      9          1           0       -0.338308    2.152247   -0.000004
     10          1           0        2.126903   -2.142643    0.000001
     11          1           0       -0.336653   -2.148416    0.000007
     12         16           0       -2.288731   -0.083246   -0.000003
     13          1           0       -2.512912    1.239988    0.000054
 ---------------------------------------------------------------------

 SCF Done:  E(RHF) =  -628.555537926     A.U. after    2 cycles

 The electronic state is 1-A.
 Alpha  occ. eigenvalues --  -93.96481 -11.28670 -11.25327 -11.25272 -11.25198
 Alpha  occ. eigenvalues --  -11.25036 -11.24591  -8.24589  -6.22448  -6.22296
 Alpha  occ. eigenvalues --   -6.22060  -1.17159  -1.07367  -1.02699  -0.97136
 Alpha  occ. eigenvalues --   -0.84755  -0.82227  -0.71714  -0.66164  -0.64792
 Alpha  occ. eigenvalues --   -0.61008  -0.59234  -0.53739  -0.53313  -0.51492
 Alpha  occ. eigenvalues --   -0.48026  -0.42550  -0.35608  -0.31786
 Alpha virt. eigenvalues --    0.03413   0.03569   0.04030   0.05179   0.05713
 Alpha virt. eigenvalues --    0.07791   0.08671   0.09567   0.10278   0.11560
 Alpha virt. eigenvalues --    0.11760   0.13021   0.13689   0.13785   0.14097

 Mulliken charges:
               1
     1  C   -0.085212
     2  C    0.514606
     3  C    0.186332
     4  C    0.282223
     5  C   -0.368315
     6  C    0.410092
     7  H   -0.205360
     8  H   -0.216269
     9  H   -0.284081
    10  H   -0.213696
    11  H   -0.213767
    12  S   -0.112660
    13  H    0.306106
 Sum of Mulliken charges =   0.00000

 Dipole moment (field-independent basis, Debye):
    X=              1.0203    Y=              0.8657    Z=              0.0000  Tot=              1.3381

 Test job not archived.
 1\1\GINC-SE362\SP\RHF\Aug-CC-pVDZ\C6H6S1\OHZDE\08-Apr-2025\0\\#t hf au
 g-cc-pvdz iop(5/13=1,5/36=2,99/5=2) pseudo=read geom=check guess=(read
 ,tcheck) scf=(maxcycle=1)\\title\\0,1\C,0,2.293494,0.003727,-0.000001\
 C,0,1.588513,1.204992,-0.000001\C,0,0.196377,1.209311,-0.000001\C,0,1.
 591372,-1.199917,0.\C,0,0.200225,-1.20636,0.000003\C,0,-0.50631,0.0009
 56,0.000001\H,0,3.376999,0.005331,-0.000002\H,0,2.121643,2.149176,-0.0
 00002\H,0,-0.338308,2.152247,-0.000004\H,0,2.126903,-2.142643,0.000001
 \H,0,-0.336653,-2.148416,0.000007\S,0,-2.288731,-0.083246,-0.000003\H,

 Normal termination of Gaussian 16 at Tue Apr  8 22:45:54 2025.
