 Gaussian 16, Revision C.01,

 ----------------------------------------------------------------------
 #t hf aug-cc-pvdz symm=none int=(grid=ultrafine) guess=(read,tcheck) s
 table=(opt,rrhf)
 ----------------------------------------------------------------------
 -----
 title
 -----
 Symbolic Z-matrix:
 Charge =  0 Multiplicity = 1

 SCF Done:  E(RHF) =  -815.753354467     A.U. after   16 cycles
 Normal termination of Gaussian 16 at Tue Apr  8 23:40:35 2025.
 Gaussian 16:  ES64L-G16RevC.01  3-Jul-2019

 ----------------------------------------------------------------------
 #t hf aug-cc-pvdz iop(5/13=1,5/36=2,99/5=2) pseudo=read geom=check gue
 ss=(read,tcheck) scf=(maxcycle=1)
 ----------------------------------------------------------------------
 -----
 title
 -----
 Structure from the checkpoint file:  "BDE49_nonexpt_1559_mol1.chk"
 Charge =  0 Multiplicity = 1

                         Standard orientation:
 ---------------------------------------------------------------------
 Center     Atomic      Atomic             Coordinates (Angstroms)
 Number     Number       Type             X           Y           Z
 ---------------------------------------------------------------------
      1          6           0        2.381068   -1.484661   -0.083624
      2          6           0        1.081612   -1.398824    0.409108
      3          6           0        3.029205   -0.326543   -0.499282
      4          6           0        2.377773    0.902235   -0.419806
      5          6           0        1.075381    1.011628    0.074951
      6          6           0        0.415833   -0.165878    0.501321
      7          1           0        2.877943   -2.446255   -0.142583
      8          1           0        0.574578   -2.300835    0.732567
      9          7           0       -2.342825   -0.402457   -0.191234
     10          8           0       -2.409377    0.823037   -0.939309
     11          8           0       -1.883737   -1.409718   -1.057971
     12          1           0        2.891812    1.800222   -0.746341
     13          1           0        4.041570   -0.375814   -0.884822
     14          6           0        0.409823    2.366667    0.136279
     15          1           0        1.091058    3.147342   -0.206602
     16          1           0        0.098713    2.610957    1.156209
     17          1           0       -0.487230    2.392626   -0.486769
     18          1           0       -0.982082   -1.155084   -1.325219
     19          1           0       -3.314962    0.821588   -1.272760
     20         15           0       -1.288918   -0.066925    1.208715
     21          1           0       -1.337121   -1.407976    1.648793
 ---------------------------------------------------------------------

 SCF Done:  E(RHF) =  -816.278265179     A.U. after    2 cycles

 The electronic state is 1-A.
 Alpha  occ. eigenvalues --  -84.30297 -20.59041 -20.58647 -15.60891 -11.26687
 Alpha  occ. eigenvalues --  -11.26064 -11.25840 -11.25399 -11.24987 -11.24773
 Alpha  occ. eigenvalues --  -11.23490  -6.77085  -4.30152  -4.29783  -4.29252
 Alpha  occ. eigenvalues --   -1.53671  -1.44000  -1.16958  -1.06923  -1.05617
 Alpha  occ. eigenvalues --   -1.02604  -0.94525  -0.87198  -0.83296  -0.79639
 Alpha  occ. eigenvalues --   -0.75589  -0.70654  -0.66815  -0.66691  -0.64901
 Alpha  occ. eigenvalues --   -0.63080  -0.62717  -0.59460  -0.58398  -0.56734
 Alpha  occ. eigenvalues --   -0.54491  -0.51251  -0.51050  -0.49875  -0.48901
 Alpha  occ. eigenvalues --   -0.48151  -0.43535  -0.37317  -0.35094  -0.34074
 Alpha virt. eigenvalues --    0.03148   0.03596   0.03891   0.04980   0.05450
 Alpha virt. eigenvalues --    0.05586   0.06499   0.07113   0.07399   0.08002
 Alpha virt. eigenvalues --    0.08666   0.08884   0.10222   0.10879   0.11961

 Mulliken charges:
               1
     1  C    0.059677
     2  C   -0.111560
     3  C    0.114836
     4  C    0.834097
     5  C   -0.095710
     6  C    0.425480
     7  H   -0.228414
     8  H   -0.352015
     9  N    1.278162
    10  O   -1.216242
    11  O   -1.242626
    12  H   -0.298513
    13  H   -0.225922
    14  C   -0.790901
    15  H   -0.014436
    16  H    0.290055
    17  H    0.295487
    18  H    0.416040
    19  H    0.373303
    20  P    0.349493
    21  H    0.139706
 Sum of Mulliken charges =   0.00000

 Dipole moment (field-independent basis, Debye):
    X=              2.1132    Y=              0.8088    Z=             -0.2828  Tot=              2.2803

 Test job not archived.
 1\1\GINC-SE184\SP\RHF\Aug-CC-pVDZ\C7H10N1O2P1\OHZDE\08-Apr-2025\0\\#t
 hf aug-cc-pvdz iop(5/13=1,5/36=2,99/5=2) pseudo=read geom=check guess=
 (read,tcheck) scf=(maxcycle=1)\\title\\0,1\C,0,2.381068,-1.484661,-0.0
 83624\C,0,1.081612,-1.398824,0.409108\C,0,3.029205,-0.326543,-0.499282
 \C,0,2.377773,0.902235,-0.419806\C,0,1.075381,1.011628,0.074951\C,0,0.
 415833,-0.165878,0.501321\H,0,2.877943,-2.446255,-0.142583\H,0,0.57457
 8,-2.300835,0.732567\N,0,-2.342825,-0.402457,-0.191234\O,0,-2.409377,0
 .823037,-0.939309\O,0,-1.883737,-1.409718,-1.057971\H,0,2.891812,1.800

 Normal termination of Gaussian 16 at Tue Apr  8 23:40:50 2025.
