 Gaussian 16, Revision C.01,

 ----------------------------------------------------------------------
 #t hf aug-cc-pvdz symm=none int=(grid=ultrafine) guess=(read,tcheck) s
 table=(opt,rrhf)
 ----------------------------------------------------------------------
 -----
 title
 -----
 Symbolic Z-matrix:
 Charge =  0 Multiplicity = 1

 SCF Done:  E(RHF) =  -799.877424456     A.U. after   14 cycles
 Normal termination of Gaussian 16 at Tue Apr  8 22:41:19 2025.
 Gaussian 16:  ES64L-G16RevC.01  3-Jul-2019

 ----------------------------------------------------------------------
 #t hf aug-cc-pvdz iop(5/13=1,5/36=2,99/5=2) pseudo=read geom=check gue
 ss=(read,tcheck) scf=(maxcycle=1)
 ----------------------------------------------------------------------
 -----
 title
 -----
 Structure from the checkpoint file:  "BDE49_expt_1341_mol1.chk"
 Charge =  0 Multiplicity = 1

                         Standard orientation:
 ---------------------------------------------------------------------
 Center     Atomic      Atomic             Coordinates (Angstroms)
 Number     Number       Type             X           Y           Z
 ---------------------------------------------------------------------
      1          6           0       -0.000000    1.363624   -0.000000
      2          6           0        1.211231    0.687896   -0.000000
      3          6           0       -1.220414    0.690320    0.000000
      4          6           0       -1.197344   -0.704956    0.000000
      5          6           0        0.009993   -1.393014    0.000000
      6          6           0        1.217196   -0.701702   -0.000000
      7          8           0       -2.408356    1.337861    0.000000
      8          1           0       -2.241329    2.288674   -0.000000
      9          9           0       -0.026180    2.714304   -0.000000
     10          9           0        2.361453    1.366833   -0.000000
     11          9           0        2.375043   -1.369962   -0.000000
     12          9           0        0.012512   -2.728561    0.000000
     13          9           0       -2.346805   -1.387567    0.000000
 ---------------------------------------------------------------------

 SCF Done:  E(RHF) =  -800.623435740     A.U. after    2 cycles

 The electronic state is 1-A'.
 Alpha  occ. eigenvalues --  -26.52956 -26.52388 -26.52001 -26.51862 -26.51427
 Alpha  occ. eigenvalues --  -20.62660 -11.39202 -11.38934 -11.38395 -11.38387
 Alpha  occ. eigenvalues --  -11.38103 -11.36966  -1.66619  -1.65939  -1.65188
 Alpha  occ. eigenvalues --   -1.64339  -1.63677  -1.54150  -1.21787  -1.07643
 Alpha  occ. eigenvalues --   -1.07436  -0.93309  -0.92658  -0.85754  -0.81837
 Alpha  occ. eigenvalues --   -0.80195  -0.76747  -0.75696  -0.75481  -0.75286
 Alpha  occ. eigenvalues --   -0.73362  -0.72643  -0.71577  -0.69717  -0.69006
 Alpha  occ. eigenvalues --   -0.67764  -0.66824  -0.65197  -0.62281  -0.62167
 Alpha  occ. eigenvalues --   -0.60847  -0.58995  -0.52217  -0.38854  -0.37005
 Alpha virt. eigenvalues --    0.03067   0.06576   0.07298   0.08468   0.08797
 Alpha virt. eigenvalues --    0.09431   0.09835   0.10094   0.10728   0.11573
 Alpha virt. eigenvalues --    0.12230   0.12592   0.14021   0.14796   0.15469

 Mulliken charges:
               1
     1  C    1.161699
     2  C    0.641694
     3  C    0.433258
     4  C    1.794631
     5  C    0.763415
     6  C    1.383491
     7  O   -1.715608
     8  H    0.398586
     9  F   -1.021034
    10  F   -0.928259
    11  F   -0.965410
    12  F   -0.941348
    13  F   -1.005117
 Sum of Mulliken charges =   0.00000

 Dipole moment (field-independent basis, Debye):
    X=             -0.6045    Y=              1.9228    Z=             -0.0000  Tot=              2.0156

 Test job not archived.
 1\1\GINC-SE393\SP\RHF\Aug-CC-pVDZ\C6H1F5O1\OHZDE\08-Apr-2025\0\\#t hf
 aug-cc-pvdz iop(5/13=1,5/36=2,99/5=2) pseudo=read geom=check guess=(re
 ad,tcheck) scf=(maxcycle=1)\\title\\0,1\C,0,0.,1.363624,0.\C,0,-1.2112
 31,0.687896,0.\C,0,1.220414,0.69032,0.\C,0,1.197344,-0.704956,0.\C,0,-
 0.009993,-1.393014,0.\C,0,-1.217196,-0.701702,0.\O,0,2.408356,1.337861
 ,0.\H,0,2.241329,2.288674,0.\F,0,0.02618,2.714304,0.\F,0,-2.361453,1.3
 66833,0.\F,0,-2.375043,-1.369962,0.\F,0,-0.012512,-2.728561,0.\F,0,2.3
 46805,-1.387567,0.\\Version=ES64L-G16RevC.01\State=1-A'\HF=-800.623435

 Normal termination of Gaussian 16 at Tue Apr  8 22:41:26 2025.
