 Gaussian 16, Revision C.01,

 ----------------------------------------------------------------------
 #t hf aug-cc-pvdz symm=none int=(grid=ultrafine) guess=(read,tcheck) s
 table=(opt,rrhf)
 ----------------------------------------------------------------------
 -----
 title
 -----
 Symbolic Z-matrix:
 Charge =  0 Multiplicity = 1

 SCF Done:  E(RHF) =  -559.860862875     A.U. after   14 cycles
 Normal termination of Gaussian 16 at Tue Apr  8 23:12:41 2025.
 Gaussian 16:  ES64L-G16RevC.01  3-Jul-2019

 ----------------------------------------------------------------------
 #t hf aug-cc-pvdz iop(5/13=1,5/36=2,99/5=2) pseudo=read geom=check gue
 ss=(read,tcheck) scf=(maxcycle=1)
 ----------------------------------------------------------------------
 -----
 title
 -----
 Structure from the checkpoint file:  "BDE49_expt_811_mol1.chk"
 Charge =  0 Multiplicity = 1

                         Standard orientation:
 ---------------------------------------------------------------------
 Center     Atomic      Atomic             Coordinates (Angstroms)
 Number     Number       Type             X           Y           Z
 ---------------------------------------------------------------------
      1          6           0        2.689043    0.000000   -0.391613
      2          6           0        2.021005   -1.202623   -0.172163
      3          6           0        0.697912   -1.201242    0.261829
      4          6           0        2.021005    1.202623   -0.172163
      5          6           0        0.697912    1.201242    0.261829
      6          6           0        0.014627    0.000000    0.488308
      7          1           0        3.719756    0.000000   -0.727296
      8          1           0        2.531422   -2.145442   -0.335651
      9          1           0        0.188975   -2.144667    0.432701
     10          1           0        2.531421    2.145442   -0.335651
     11          1           0        0.188975    2.144666    0.432702
     12          6           0       -1.428167   -0.000001    0.935151
     13         14           0       -2.656765    0.000000   -0.510817
     14          1           0       -2.460076    1.205606   -1.349183
     15          1           0       -4.047622   -0.000001    0.007558
     16          1           0       -2.460074   -1.205604   -1.349185
     17          1           0       -1.639049    0.877920    1.554191
     18          1           0       -1.639048   -0.877922    1.554190
 ---------------------------------------------------------------------

 SCF Done:  E(RHF) =  -560.178859145     A.U. after    2 cycles

 The electronic state is 1-A.
 Alpha  occ. eigenvalues --  -69.52689 -11.25462 -11.24339 -11.24319 -11.23859
 Alpha  occ. eigenvalues --  -11.23857 -11.23807 -11.23317  -6.19761  -3.95128
 Alpha  occ. eigenvalues --   -3.95121  -3.95120  -1.15695  -1.04914  -1.01500
 Alpha  occ. eigenvalues --   -0.93987  -0.83524  -0.81157  -0.72905  -0.70287
 Alpha  occ. eigenvalues --   -0.65357  -0.64173  -0.59782  -0.58804  -0.56209
 Alpha  occ. eigenvalues --   -0.53426  -0.50556  -0.50114  -0.47772  -0.47668
 Alpha  occ. eigenvalues --   -0.46594  -0.34579  -0.32878
 Alpha virt. eigenvalues --    0.03436   0.03501   0.03580   0.04307   0.04968
 Alpha virt. eigenvalues --    0.05030   0.06863   0.07693   0.07843   0.07922
 Alpha virt. eigenvalues --    0.08445   0.10272   0.10365   0.10995   0.11484

 Mulliken charges:
               1
     1  C    0.088706
     2  C    0.087901
     3  C    0.251567
     4  C    0.087903
     5  C    0.251574
     6  C    1.361533
     7  H   -0.214195
     8  H   -0.234396
     9  H   -0.308837
    10  H   -0.234396
    11  H   -0.308838
    12  C   -1.215318
    13  Si   0.977198
    14  H   -0.181241
    15  H   -0.186975
    16  H   -0.181241
    17  H   -0.020471
    18  H   -0.020473
 Sum of Mulliken charges =  -0.00000

 Dipole moment (field-independent basis, Debye):
    X=              0.0690    Y=             -0.0000    Z=              0.5129  Tot=              0.5175

 Test job not archived.
 1\1\GINC-SE460\SP\RHF\Aug-CC-pVDZ\C7H10Si1\OHZDE\08-Apr-2025\0\\#t hf
 aug-cc-pvdz iop(5/13=1,5/36=2,99/5=2) pseudo=read geom=check guess=(re
 ad,tcheck) scf=(maxcycle=1)\\title\\0,1\C,0,2.689043,0.,-0.391613\C,0,
 2.021005,-1.202623,-0.172163\C,0,0.697912,-1.201242,0.261829\C,0,2.021
 005,1.202623,-0.172163\C,0,0.697912,1.201242,0.261829\C,0,0.014627,0.,
 0.488308\H,0,3.719756,0.,-0.727296\H,0,2.531422,-2.145442,-0.335651\H,
 0,0.188975,-2.144667,0.432701\H,0,2.531421,2.145442,-0.335651\H,0,0.18
 8975,2.144666,0.432702\C,0,-1.428167,-0.000001,0.935151\Si,0,-2.656765

 Normal termination of Gaussian 16 at Tue Apr  8 23:12:49 2025.
