 Gaussian 16, Revision C.01,

 ----------------------------------------------------------------------
 #t hf aug-cc-pvdz symm=none int=(grid=ultrafine) guess=(read,tcheck) s
 table=(opt,rrhf)
 ----------------------------------------------------------------------
 -----
 title
 -----
 Symbolic Z-matrix:
 Charge =  0 Multiplicity = 1

 SCF Done:  E(RHF) =  -201.526026751     A.U. after   13 cycles
 Normal termination of Gaussian 16 at Wed Apr  9 00:11:31 2025.
 Gaussian 16:  ES64L-G16RevC.01  3-Jul-2019

 ----------------------------------------------------------------------
 #t hf aug-cc-pvdz iop(5/13=1,5/36=2,99/5=2) pseudo=read geom=check gue
 ss=(read,tcheck) scf=(maxcycle=1)
 ----------------------------------------------------------------------
 -----
 title
 -----
 Structure from the checkpoint file:  "BDE49_nonexpt_23_mol1.chk"
 Charge =  0 Multiplicity = 1

                         Standard orientation:
 ---------------------------------------------------------------------
 Center     Atomic      Atomic             Coordinates (Angstroms)
 Number     Number       Type             X           Y           Z
 ---------------------------------------------------------------------
      1          5           0       -0.008711   -0.006063   -0.000024
      2          5           0       -1.702874   -0.035274    0.000001
      3          8           0        0.769857    1.129608   -0.000005
      4          1           0        0.278011    1.953930    0.000001
      5          8           0        0.648826   -1.202028    0.000014
      6          1           0        1.607639   -1.087837    0.000024
      7          1           0       -2.338608   -0.040019   -1.012060
      8          1           0       -2.338581   -0.040029    1.012079
 ---------------------------------------------------------------------

 SCF Done:  E(RHF) =  -201.727770417     A.U. after    2 cycles

 The electronic state is 1-A.
 Alpha  occ. eigenvalues --  -20.56301 -20.55254  -7.62744  -7.59249  -1.48032
 Alpha  occ. eigenvalues --   -1.43605  -0.78456  -0.74510  -0.69143  -0.60274
 Alpha  occ. eigenvalues --   -0.57088  -0.55518  -0.49342  -0.48913  -0.44387
 Alpha virt. eigenvalues --    0.02526   0.03837   0.04237   0.04847   0.06705
 Alpha virt. eigenvalues --    0.07332   0.07585   0.08207   0.10024   0.10686
 Alpha virt. eigenvalues --    0.13107   0.13537   0.15158   0.18030   0.19940

 Mulliken charges:
               1
     1  B    1.764800
     2  B   -1.038282
     3  O   -1.074117
     4  H    0.460880
     5  O   -1.155628
     6  H    0.506156
     7  H    0.268094
     8  H    0.268096
 Sum of Mulliken charges =   0.00000

 Dipole moment (field-independent basis, Debye):
    X=              0.0787    Y=              1.5646    Z=             -0.0000  Tot=              1.5666

 Test job not archived.
 1\1\GINC-SE070\SP\RHF\Aug-CC-pVDZ\B2H4O2\OHZDE\09-Apr-2025\0\\#t hf au
 g-cc-pvdz iop(5/13=1,5/36=2,99/5=2) pseudo=read geom=check guess=(read
 ,tcheck) scf=(maxcycle=1)\\title\\0,1\B,0,-0.008711,-0.006063,-0.00002
 4\B,0,-1.702874,-0.035272,0.000001\O,0,0.769858,1.129607,-0.000005\H,0
 ,0.278013,1.95393,0.000001\O,0,0.648825,-1.202028,0.000014\H,0,1.60763
 8,-1.087838,0.000024\H,0,-2.338608,-0.040017,-1.01206\H,0,-2.338581,-0
 .040027,1.012079\\Version=ES64L-G16RevC.01\State=1-A\HF=-201.7277704\R
 MSD=1.774e-02\Dipole=0.0309698,0.6155526,-0.0000137\Quadrupole=-0.2939

 Normal termination of Gaussian 16 at Wed Apr  9 00:11:33 2025.
