 Gaussian 16, Revision C.01,

 ----------------------------------------------------------------------
 #t hf aug-cc-pvdz symm=none int=(grid=ultrafine) guess=(read,tcheck) s
 table=(opt,rrhf)
 ----------------------------------------------------------------------
 -----
 title
 -----
 Symbolic Z-matrix:
 Charge =  0 Multiplicity = 1

 SCF Done:  E(RHF) =  -447.400357226     A.U. after   11 cycles
 Normal termination of Gaussian 16 at Tue Apr  8 23:57:41 2025.
 Gaussian 16:  ES64L-G16RevC.01  3-Jul-2019

 ----------------------------------------------------------------------
 #t hf aug-cc-pvdz iop(5/13=1,5/36=2,99/5=2) pseudo=read geom=check gue
 ss=(read,tcheck) scf=(maxcycle=1)
 ----------------------------------------------------------------------
 -----
 title
 -----
 Structure from the checkpoint file:  "BDE49_nonexpt_2031_mol1.chk"
 Charge =  0 Multiplicity = 1

                         Standard orientation:
 ---------------------------------------------------------------------
 Center     Atomic      Atomic             Coordinates (Angstroms)
 Number     Number       Type             X           Y           Z
 ---------------------------------------------------------------------
      1         14           0       -1.529908    0.000004   -0.000116
      2          6           0        0.376643    0.000001   -0.000051
      3          6           0        0.890074    1.260454   -0.725947
      4          1           0        0.554890    1.295838   -1.767129
      5          1           0        1.987136    1.274210   -0.733323
      6          1           0        0.554129    2.178759   -0.234492
      7          6           0        0.889729   -0.001459    1.454627
      8          1           0        1.986783   -0.001517    1.470448
      9          1           0        0.553997   -0.886386    2.004031
     10          1           0        0.554060    0.882388    2.005811
     11          6           0        0.890059   -1.259002   -0.728468
     12          1           0        0.554807   -1.292325   -1.769696
     13          1           0        0.554165   -2.178290   -0.238819
     14          1           0        1.987121   -1.272722   -0.735956
     15          1           0       -2.049057    1.203818    0.696517
     16          1           0       -2.049062   -1.205172    0.694154
     17          1           0       -2.049289    0.001374   -1.390881
 ---------------------------------------------------------------------

 SCF Done:  E(RHF) =  -447.614276116     A.U. after    2 cycles

 The electronic state is 1-A.
 Alpha  occ. eigenvalues --  -69.51713 -11.23312 -11.22896 -11.22896 -11.22869
 Alpha  occ. eigenvalues --   -6.18875  -3.94229  -3.94229  -3.94193  -1.08751
 Alpha  occ. eigenvalues --   -0.93500  -0.93499  -0.78942  -0.70703  -0.60992
 Alpha  occ. eigenvalues --   -0.60663  -0.60663  -0.54957  -0.54957  -0.52455
 Alpha  occ. eigenvalues --   -0.48432  -0.48432  -0.47001  -0.47000  -0.40935
 Alpha virt. eigenvalues --    0.03674   0.04087   0.04087   0.04299   0.05996
 Alpha virt. eigenvalues --    0.06584   0.06585   0.06650   0.06650   0.09677
 Alpha virt. eigenvalues --    0.09859   0.10198   0.10198   0.11387   0.11387

 Mulliken charges:
               1
     1  Si   0.436430
     2  C   -2.050977
     3  C    0.070683
     4  H    0.158171
     5  H    0.207769
     6  H    0.158211
     7  C    0.070834
     8  H    0.207632
     9  H    0.158240
    10  H    0.158251
    11  C    0.070690
    12  H    0.158156
    13  H    0.158221
    14  H    0.207765
    15  H   -0.056692
    16  H   -0.056691
    17  H   -0.056693
 Sum of Mulliken charges =  -0.00000

 Dipole moment (field-independent basis, Debye):
    X=              0.7662    Y=             -0.0000    Z=             -0.0001  Tot=              0.7662

 Test job not archived.
 1\1\GINC-SE398\SP\RHF\Aug-CC-pVDZ\C4H12Si1\OHZDE\08-Apr-2025\0\\#t hf
 aug-cc-pvdz iop(5/13=1,5/36=2,99/5=2) pseudo=read geom=check guess=(re
 ad,tcheck) scf=(maxcycle=1)\\title\\0,1\Si,0,1.529908,-0.000004,-0.000
 116\C,0,-0.376643,-0.000001,-0.000051\C,0,-0.890074,-1.259334,-0.72788
 7\H,0,-0.55489,-1.293115,-1.769122\H,0,-1.987136,-1.273079,-0.735285\H
 ,0,-0.554129,-2.178395,-0.237847\C,0,-0.889729,-0.000781,1.454627\H,0,
 -1.986783,-0.000747,1.470448\H,0,-0.553997,0.883299,2.005393\H,0,-0.55
 4061,-0.885475,2.00445\C,0,-0.890059,1.260122,-0.726529\H,0,-0.554806,

 Normal termination of Gaussian 16 at Tue Apr  8 23:57:46 2025.
