 Gaussian 16, Revision C.01,

 ----------------------------------------------------------------------
 #t hf aug-cc-pvdz symm=none int=(grid=ultrafine) guess=(read,tcheck) s
 table=(opt,rrhf)
 ----------------------------------------------------------------------
 -----
 title
 -----
 Symbolic Z-matrix:
 Charge =  0 Multiplicity = 1

 SCF Done:  E(RHF) =  -664.457170021     A.U. after   16 cycles
 Normal termination of Gaussian 16 at Wed Apr  9 00:41:51 2025.
 Gaussian 16:  ES64L-G16RevC.01  3-Jul-2019

 ----------------------------------------------------------------------
 #t hf aug-cc-pvdz iop(5/13=1,5/36=2,99/5=2) pseudo=read geom=check gue
 ss=(read,tcheck) scf=(maxcycle=1)
 ----------------------------------------------------------------------
 -----
 title
 -----
 Structure from the checkpoint file:  "BDE49_nonexpt_598_mol1.chk"
 Charge =  0 Multiplicity = 1

                         Standard orientation:
 ---------------------------------------------------------------------
 Center     Atomic      Atomic             Coordinates (Angstroms)
 Number     Number       Type             X           Y           Z
 ---------------------------------------------------------------------
      1          6           0       -1.020899    1.062046    0.000140
      2          6           0        0.348305    0.852041    0.000093
      3          6           0       -1.890883   -0.024929    0.000161
      4          6           0       -1.406675   -1.329824    0.000122
      5          6           0       -0.039290   -1.538182    0.000075
      6          6           0        0.863707   -0.457483    0.000060
      7          1           0        0.344209   -2.553599    0.000050
      8          1           0       -1.429835    2.062823    0.000167
      9          1           0        1.026068    1.691815    0.000082
     10          5           0        3.380774    0.134899   -0.000015
     11          8           0        4.658737   -0.370109   -0.000064
     12          8           0        3.229583    1.492501    0.000007
     13          7           0       -3.338560    0.205380    0.000213
     14          8           0       -3.733649    1.366556   -0.000321
     15          8           0       -4.073952   -0.777069   -0.000339
     16          1           0       -2.104560   -2.155218    0.000134
     17          1           0        4.081984    1.938593   -0.000016
     18          1           0        4.735795   -1.326434   -0.000079
     19          7           0        2.231647   -0.731860    0.000012
     20          1           0        2.419509   -1.724155   -0.000006
 ---------------------------------------------------------------------

 SCF Done:  E(RHF) =  -665.112213369     A.U. after    2 cycles

 The electronic state is 1-A.
 Alpha  occ. eigenvalues --  -20.58030 -20.57780 -20.57745 -20.57272 -15.78230
 Alpha  occ. eigenvalues --  -15.53471 -11.32496 -11.29699 -11.28007 -11.27748
 Alpha  occ. eigenvalues --  -11.26266 -11.25385  -7.68031  -1.65600  -1.50385
 Alpha  occ. eigenvalues --   -1.49233  -1.46153  -1.25888  -1.18564  -1.08848
 Alpha  occ. eigenvalues --   -1.05052  -0.96813  -0.88465  -0.85014  -0.80741
 Alpha  occ. eigenvalues --   -0.79388  -0.77561  -0.76229  -0.73789  -0.73374
 Alpha  occ. eigenvalues --   -0.70451  -0.65614  -0.64416  -0.63002  -0.62345
 Alpha  occ. eigenvalues --   -0.62132  -0.57624  -0.57495  -0.56543  -0.52770
 Alpha  occ. eigenvalues --   -0.51572  -0.49996  -0.48893  -0.47533  -0.44115
 Alpha  occ. eigenvalues --   -0.37582  -0.34811
 Alpha virt. eigenvalues --    0.01539   0.03254   0.03329   0.03992   0.04576
 Alpha virt. eigenvalues --    0.04868   0.05425   0.06630   0.08075   0.08524
 Alpha virt. eigenvalues --    0.08576   0.09691   0.10362   0.11117   0.11502

 Mulliken charges:
               1
     1  C   -0.173769
     2  C    1.320387
     3  C   -0.201732
     4  C    0.183190
     5  C    1.197215
     6  C   -2.532061
     7  H   -0.401431
     8  H   -0.210533
     9  H   -0.356098
    10  B    1.483924
    11  O   -1.604742
    12  O   -1.447301
    13  N    3.018216
    14  O   -1.482804
    15  O   -1.502027
    16  H   -0.205994
    17  H    0.525426
    18  H    0.542344
    19  N    2.003397
    20  H   -0.155606
 Sum of Mulliken charges =  -0.00000

 Dipole moment (field-independent basis, Debye):
    X=              6.9568    Y=             -2.4384    Z=              0.0008  Tot=              7.3718

 Test job not archived.
 1\1\GINC-SE116\SP\RHF\Aug-CC-pVDZ\C6H7B1N2O4\OHZDE\09-Apr-2025\0\\#t h
 f aug-cc-pvdz iop(5/13=1,5/36=2,99/5=2) pseudo=read geom=check guess=(
 read,tcheck) scf=(maxcycle=1)\\title\\0,1\C,0,1.020899,1.062046,-0.000
 14\C,0,-0.348305,0.852041,-0.000093\C,0,1.890883,-0.024929,-0.000161\C
 ,0,1.406675,-1.329824,-0.000122\C,0,0.03929,-1.538182,-0.000075\C,0,-0
 .863707,-0.457483,-0.00006\H,0,-0.344209,-2.553599,-0.00005\H,0,1.4298
 35,2.062823,-0.000167\H,0,-1.026068,1.691815,-0.000082\B,0,-3.380774,0
 .134899,0.000015\O,0,-4.658737,-0.370109,0.000064\O,0,-3.229583,1.4925

 Normal termination of Gaussian 16 at Wed Apr  9 00:42:06 2025.
