 Gaussian 16, Revision C.01,

 ----------------------------------------------------------------------
 #t hf aug-cc-pvdz symm=none int=(grid=ultrafine) guess=(read,tcheck) s
 table=opt
 ----------------------------------------------------------------------
 -----
 title
 -----
 Symbolic Z-matrix:
 Charge =  0 Multiplicity = 2

 SCF Done:  E(UHF) =  -278.934681694     A.U. after   19 cycles
 Normal termination of Gaussian 16 at Tue Apr  8 23:34:28 2025.
 Gaussian 16:  ES64L-G16RevC.01  3-Jul-2019

 ----------------------------------------------------------------------
 #t hf aug-cc-pvdz iop(5/13=1,5/36=2,99/5=2) pseudo=read geom=check gue
 ss=(read,tcheck) scf=(maxcycle=1)
 ----------------------------------------------------------------------
 -----
 title
 -----
 Structure from the checkpoint file:  "BDE49_nonexpt_145_mol2.chk"
 Charge =  0 Multiplicity = 2

                         Standard orientation:
 ---------------------------------------------------------------------
 Center     Atomic      Atomic             Coordinates (Angstroms)
 Number     Number       Type             X           Y           Z
 ---------------------------------------------------------------------
      1          5           0        0.802483    1.964898   -0.078045
      2          5           0        0.027155    0.514246   -0.002640
      3          8           0       -1.340142    0.556766    0.003381
      4          8           0        0.650172   -0.709944   -0.000050
      5          6           0       -2.115314   -0.642395    0.005545
      6          1           0       -3.165096   -0.348477   -0.009067
      7          1           0       -1.916368   -1.237914    0.900977
      8          1           0       -1.895814   -1.254730   -0.873542
      9          6           0        2.067525   -0.812872    0.005359
     10          1           0        2.331276   -1.843033   -0.237146
     11          1           0        2.475890   -0.569915    0.992099
     12          1           0        2.522035   -0.152702   -0.743824
     13          1           0        1.306383    2.968076    0.281859
 ---------------------------------------------------------------------

 SCF Done:  E(UHF) =  -279.216348348     A.U. after    2 cycles

 The electronic state is 2-A.
 Alpha  occ. eigenvalues --  -20.54611 -20.53729 -11.29596 -11.28012  -7.62404
 Alpha  occ. eigenvalues --   -7.61395  -1.47565  -1.43730  -0.94964  -0.93629
 Alpha  occ. eigenvalues --   -0.75391  -0.69555  -0.67503  -0.65030  -0.62668
 Alpha  occ. eigenvalues --   -0.61964  -0.59433  -0.53270  -0.49244  -0.48875
 Alpha  occ. eigenvalues --   -0.46310  -0.44437  -0.30875
 Alpha virt. eigenvalues --    0.02975   0.03638   0.04009   0.04772   0.05162
 Alpha virt. eigenvalues --    0.06310   0.07061   0.07133   0.07944   0.08582
 Alpha virt. eigenvalues --    0.09778   0.10389   0.10575   0.11092   0.13378

  Beta  occ. eigenvalues --  -20.54530 -20.53570 -11.29597 -11.28029  -7.62491
  Beta  occ. eigenvalues --   -7.59983  -1.47322  -1.43417  -0.94944  -0.93570
  Beta  occ. eigenvalues --   -0.73671  -0.67848  -0.66853  -0.64535  -0.61625
  Beta  occ. eigenvalues --   -0.60798  -0.59386  -0.52938  -0.48793  -0.48368
  Beta  occ. eigenvalues --   -0.45438  -0.43480
  Beta virt. eigenvalues --    0.03194   0.03663   0.03758   0.04151   0.05527
  Beta virt. eigenvalues --    0.06313   0.06587   0.07146   0.07692   0.09305
  Beta virt. eigenvalues --    0.09714   0.10104   0.10761   0.11077   0.11410

 Mulliken charges and spin densities:
               1          2
     1  B   -1.307184   0.991353
     2  B    1.950475  -0.012629
     3  O   -1.251973   0.068509
     4  O   -1.205656   0.016768
     5  C    0.399861  -0.003407
     6  H   -0.048980   0.000479
     7  H    0.125005   0.000529
     8  H    0.133389   0.000888
     9  C    0.457573   0.009145
    10  H   -0.001968  -0.000605
    11  H    0.145778  -0.004598
    12  H    0.105172  -0.006375
    13  H    0.498507  -0.060056
 Sum of Mulliken charges =  -0.00000   1.00000

 Dipole moment (field-independent basis, Debye):
    X=              1.1735    Y=             -0.8656    Z=              0.3206  Tot=              1.4930
                          Isotropic Fermi Contact Couplings
        Atom                 a.u.       MegaHertz       Gauss      10(-4) cm-1
     1  B(11)              0.11224     160.99211      57.44599      53.70119
     2  B(11)             -0.02402     -34.45168     -12.29321     -11.49184
     3  O(17)              0.01064      -6.44957      -2.30137      -2.15135
     4  O(17)              0.00748      -4.53475      -1.61811      -1.51263
     5  C(13)             -0.00283      -3.17733      -1.13375      -1.05984
     6  H(1)               0.00005       0.22169       0.07910       0.07395
     7  H(1)               0.00041       1.85412       0.66160       0.61847
     8  H(1)               0.00056       2.49928       0.89181       0.83367

 Normal termination of Gaussian 16 at Tue Apr  8 23:34:32 2025.
