 Gaussian 16, Revision C.01,

 ----------------------------------------------------------------------
 #t hf aug-cc-pvdz symm=none int=(grid=ultrafine) guess=(read,tcheck) s
 table=(opt,rrhf)
 ----------------------------------------------------------------------
 -----
 title
 -----
 Symbolic Z-matrix:
 Charge =  0 Multiplicity = 1

 SCF Done:  E(RHF) =  -601.171446175     A.U. after   15 cycles
 Normal termination of Gaussian 16 at Wed Apr  9 00:49:19 2025.
 Gaussian 16:  ES64L-G16RevC.01  3-Jul-2019

 ----------------------------------------------------------------------
 #t hf aug-cc-pvdz iop(5/13=1,5/36=2,99/5=2) pseudo=read geom=check gue
 ss=(read,tcheck) scf=(maxcycle=1)
 ----------------------------------------------------------------------
 -----
 title
 -----
 Structure from the checkpoint file:  "BDE49_nonexpt_852_mol1.chk"
 Charge =  0 Multiplicity = 1

                         Standard orientation:
 ---------------------------------------------------------------------
 Center     Atomic      Atomic             Coordinates (Angstroms)
 Number     Number       Type             X           Y           Z
 ---------------------------------------------------------------------
      1          6           0        0.213658   -0.437174    0.258814
      2          5           0       -2.890807    0.326539   -0.267675
      3          7           0       -2.423462    1.471149   -0.900165
      4          1           0       -1.440172    1.684227   -0.995635
      5          1           0       -3.028992    2.166307   -1.312700
      6          6           0        1.054990   -1.082199   -0.661917
      7          6           0        2.357603   -0.639617   -0.886580
      8          6           0        2.849942    0.463297   -0.192589
      9          6           0        2.033753    1.120180    0.726680
     10          6           0        0.732259    0.673896    0.946808
     11          1           0        0.116034    1.194419    1.674618
     12          1           0        0.690845   -1.947344   -1.207011
     13          1           0        2.989076   -1.158262   -1.599936
     14          1           0        3.864087    0.807059   -0.363792
     15          1           0        2.412573    1.975981    1.275161
     16         14           0       -1.573449   -0.993681    0.524283
     17          1           0       -1.814495   -1.153783    1.984770
     18          1           0       -1.721977   -2.339547   -0.092630
     19          1           0       -4.073659    0.161449   -0.210573
 ---------------------------------------------------------------------

 SCF Done:  E(RHF) =  -601.527359745     A.U. after    2 cycles

 The electronic state is 1-A.
 Alpha  occ. eigenvalues --  -69.50432 -15.50401 -11.24671 -11.24636 -11.24543
 Alpha  occ. eigenvalues --  -11.24460 -11.24364 -11.23017  -7.58213  -6.17685
 Alpha  occ. eigenvalues --   -3.93044  -3.93032  -3.92973  -1.17150  -1.15142
 Alpha  occ. eigenvalues --   -1.01616  -1.01494  -0.83461  -0.83235  -0.76908
 Alpha  occ. eigenvalues --   -0.73364  -0.71739  -0.68377  -0.63960  -0.63491
 Alpha  occ. eigenvalues --   -0.59899  -0.56798  -0.54208  -0.51398  -0.50376
 Alpha  occ. eigenvalues --   -0.48822  -0.46463  -0.45599  -0.41229  -0.34715
 Alpha  occ. eigenvalues --   -0.34041
 Alpha virt. eigenvalues --    0.03059   0.03492   0.03739   0.04222   0.04650
 Alpha virt. eigenvalues --    0.05212   0.05966   0.06669   0.07011   0.07294
 Alpha virt. eigenvalues --    0.08282   0.08903   0.09243   0.09814   0.10189

 Mulliken charges:
               1
     1  C   -0.816170
     2  B   -0.561328
     3  N    0.298611
     4  H   -0.028400
     5  H   -0.006365
     6  C    0.282485
     7  C    0.422827
     8  C    0.359285
     9  C    0.328911
    10  C    0.526777
    11  H   -0.297787
    12  H   -0.308048
    13  H   -0.216172
    14  H   -0.212928
    15  H   -0.224851
    16  Si   0.391646
    17  H   -0.085316
    18  H   -0.121304
    19  H    0.268127
 Sum of Mulliken charges =  -0.00000

 Dipole moment (field-independent basis, Debye):
    X=              0.5762    Y=              1.6816    Z=             -0.9803  Tot=              2.0300

 Test job not archived.
 1\1\GINC-SE041\SP\RHF\Aug-CC-pVDZ\C6H10B1N1Si1\OHZDE\09-Apr-2025\0\\#t
  hf aug-cc-pvdz iop(5/13=1,5/36=2,99/5=2) pseudo=read geom=check guess
 =(read,tcheck) scf=(maxcycle=1)\\title\\0,1\C,0,0.213658,-0.437174,0.2
 58814\B,0,-2.890807,0.326539,-0.267675\N,0,-2.423462,1.471149,-0.90016
 5\H,0,-1.440172,1.684227,-0.995635\H,0,-3.028992,2.166307,-1.3127\C,0,
 1.05499,-1.082199,-0.661917\C,0,2.357603,-0.639617,-0.88658\C,0,2.8499
 42,0.463297,-0.192589\C,0,2.033753,1.12018,0.72668\C,0,0.732259,0.6738
 96,0.946808\H,0,0.116034,1.194419,1.674618\H,0,0.690845,-1.947344,-1.2

 Normal termination of Gaussian 16 at Wed Apr  9 00:49:30 2025.
