 Gaussian 16, Revision C.01,

 ----------------------------------------------------------------------
 #t hf aug-cc-pvdz symm=none int=(grid=ultrafine) guess=(read,tcheck) s
 table=(opt,rrhf)
 ----------------------------------------------------------------------
 -----
 title
 -----
 Symbolic Z-matrix:
 Charge =  0 Multiplicity = 1

 SCF Done:  E(RHF) =  -491.543573232     A.U. after   13 cycles
 Normal termination of Gaussian 16 at Tue Apr  8 23:36:08 2025.
 Gaussian 16:  ES64L-G16RevC.01  3-Jul-2019

 ----------------------------------------------------------------------
 #t hf aug-cc-pvdz iop(5/13=1,5/36=2,99/5=2) pseudo=read geom=check gue
 ss=(read,tcheck) scf=(maxcycle=1)
 ----------------------------------------------------------------------
 -----
 title
 -----
 Structure from the checkpoint file:  "BDE49_nonexpt_1514_mol1.chk"
 Charge =  0 Multiplicity = 1

                         Standard orientation:
 ---------------------------------------------------------------------
 Center     Atomic      Atomic             Coordinates (Angstroms)
 Number     Number       Type             X           Y           Z
 ---------------------------------------------------------------------
      1          7           0        0.353015    0.025584   -0.275442
      2          7           0        0.894632    1.303494    0.041974
      3         15           0       -1.336732   -0.174163   -0.011046
      4          6           0        1.217578   -1.106120    0.052648
      5          1           0        2.158335   -1.019703   -0.501020
      6          1           0        0.734533   -2.040081   -0.240920
      7          1           0        1.458735   -1.160718    1.127658
      8          1           0        1.687059    1.471868   -0.573520
      9          1           0        1.244960    1.304777    1.003502
     10          1           0       -1.757575    1.022042   -0.637610
     11          1           0       -1.514064    0.367431    1.305986
 ---------------------------------------------------------------------

 SCF Done:  E(RHF) =  -491.750080472     A.U. after    2 cycles

 The electronic state is 1-A.
 Alpha  occ. eigenvalues --  -84.28559 -15.52446 -15.51904 -11.26707  -6.75330
 Alpha  occ. eigenvalues --   -4.28270  -4.27510  -4.27155  -1.27733  -1.07624
 Alpha  occ. eigenvalues --   -0.93823  -0.81205  -0.71997  -0.68893  -0.63215
 Alpha  occ. eigenvalues --   -0.59992  -0.54289  -0.50357  -0.46610  -0.40805
 Alpha  occ. eigenvalues --   -0.34616
 Alpha virt. eigenvalues --    0.03300   0.05217   0.05279   0.05658   0.06393
 Alpha virt. eigenvalues --    0.06793   0.07661   0.08805   0.10144   0.12271
 Alpha virt. eigenvalues --    0.14521   0.15274   0.15959   0.17393   0.18434

 Mulliken charges:
               1
     1  N   -0.293132
     2  N   -0.216610
     3  P   -0.373811
     4  C   -0.394666
     5  H    0.103817
     6  H    0.065349
     7  H    0.159427
     8  H    0.148135
     9  H    0.169381
    10  H    0.323743
    11  H    0.308368
 Sum of Mulliken charges =  -0.00000

 Dipole moment (field-independent basis, Debye):
    X=              1.7717    Y=             -0.4836    Z=              0.8674  Tot=              2.0311

 Test job not archived.
 1\1\GINC-SE284\SP\RHF\Aug-CC-pVDZ\C1H7N2P1\OHZDE\08-Apr-2025\0\\#t hf
 aug-cc-pvdz iop(5/13=1,5/36=2,99/5=2) pseudo=read geom=check guess=(re
 ad,tcheck) scf=(maxcycle=1)\\title\\0,1\N,0,0.353015,0.025584,-0.27544
 2\N,0,0.894632,1.303494,0.041974\P,0,-1.336732,-0.174163,-0.011046\C,0
 ,1.217579,-1.10612,0.052648\H,0,2.158336,-1.019702,-0.50102\H,0,0.7345
 34,-2.040081,-0.24092\H,0,1.458736,-1.160718,1.127658\H,0,1.687059,1.4
 71868,-0.57352\H,0,1.24496,1.304777,1.003502\H,0,-1.757575,1.022041,-0
 .63761\H,0,-1.514064,0.36743,1.305986\\Version=ES64L-G16RevC.01\State=

 Normal termination of Gaussian 16 at Tue Apr  8 23:36:11 2025.
