 Gaussian 16, Revision C.01,

 ----------------------------------------------------------------------
 #t hf aug-cc-pvdz symm=none int=(grid=ultrafine) guess=(read,tcheck) s
 table=opt
 ----------------------------------------------------------------------
 -----
 title
 -----
 Symbolic Z-matrix:
 Charge =  0 Multiplicity = 2

 SCF Done:  E(UHF) =  -1307.52155482     A.U. after   14 cycles
 Normal termination of Gaussian 16 at Tue Apr  8 23:49:16 2025.
 Gaussian 16:  ES64L-G16RevC.01  3-Jul-2019

 ----------------------------------------------------------------------
 #t hf aug-cc-pvdz iop(5/13=1,5/36=2,99/5=2) pseudo=read geom=check gue
 ss=(read,tcheck) scf=(maxcycle=1)
 ----------------------------------------------------------------------
 -----
 title
 -----
 Structure from the checkpoint file:  "BDE49_nonexpt_1823_mol2.chk"
 Charge =  0 Multiplicity = 2

                         Standard orientation:
 ---------------------------------------------------------------------
 Center     Atomic      Atomic             Coordinates (Angstroms)
 Number     Number       Type             X           Y           Z
 ---------------------------------------------------------------------
      1         14           0        0.000006    0.391836    0.462110
      2         17           0        1.699479   -0.637070   -0.109860
      3          9           0       -0.000108    1.797334   -0.303825
      4         17           0       -1.699427   -0.637149   -0.109852
 ---------------------------------------------------------------------

 SCF Done:  E(UHF) =  -1307.79091298     A.U. after    2 cycles

 The electronic state is 2-A.
 Alpha  occ. eigenvalues -- -105.59231-105.59230 -69.69516 -26.49234 -10.64258
 Alpha  occ. eigenvalues --  -10.64249  -7.81304  -7.81300  -7.80790  -7.80789
 Alpha  occ. eigenvalues --   -7.80750  -7.80748  -6.35361  -4.10807  -4.10291
 Alpha  occ. eigenvalues --   -4.10211  -1.60719  -1.10679  -1.07546  -0.79134
 Alpha  occ. eigenvalues --   -0.68447  -0.68215  -0.66305  -0.57936  -0.54319
 Alpha  occ. eigenvalues --   -0.52014  -0.50474  -0.49102  -0.40158
 Alpha virt. eigenvalues --    0.05240   0.05379   0.05629   0.06317   0.11738
 Alpha virt. eigenvalues --    0.12424   0.13361   0.13986   0.15046   0.15314
 Alpha virt. eigenvalues --    0.16042   0.18486   0.18906   0.22810   0.24679

  Beta  occ. eigenvalues -- -105.59080-105.59080 -69.68872 -26.48892 -10.64093
  Beta  occ. eigenvalues --  -10.64084  -7.80861  -7.80859  -7.80666  -7.80664
  Beta  occ. eigenvalues --   -7.80559  -7.80557  -6.34249  -4.09880  -4.09811
  Beta  occ. eigenvalues --   -4.08943  -1.59761  -1.09330  -1.06317  -0.76591
  Beta  occ. eigenvalues --   -0.67876  -0.66693  -0.63509  -0.55929  -0.52447
  Beta  occ. eigenvalues --   -0.51606  -0.49803  -0.48845
  Beta virt. eigenvalues --   -0.00947   0.05629   0.05634   0.06201   0.07658
  Beta virt. eigenvalues --    0.12398   0.12503   0.14578   0.15064   0.16083
  Beta virt. eigenvalues --    0.16999   0.17371   0.18621   0.19524   0.23261

 Mulliken charges and spin densities:
               1          2
     1  Si   1.635994   0.878591
     2  Cl  -0.451724   0.066600
     3  F   -0.732533  -0.011787
     4  Cl  -0.451737   0.066597
 Sum of Mulliken charges =  -0.00000   1.00000

 Dipole moment (field-independent basis, Debye):
    X=              0.0002    Y=             -0.0021    Z=              1.0979  Tot=              1.0979
                          Isotropic Fermi Contact Couplings
        Atom                 a.u.       MegaHertz       Gauss      10(-4) cm-1
     1  Si(29)             1.26018   -1119.95650    -399.62833    -373.57728
     2  Cl(35)             0.08923      39.12599      13.96113      13.05103
     3  F(19)              0.06576     276.68816      98.72922      92.29324
     4  Cl(35)             0.08923      39.12285      13.96001      13.04998
 --------------------------------------------------------
       Center         ----  Spin Dipole Couplings  ----
                      3XX-RR        3YY-RR        3ZZ-RR
 --------------------------------------------------------

 Normal termination of Gaussian 16 at Tue Apr  8 23:49:20 2025.
