 Gaussian 16, Revision C.01,

 ----------------------------------------------------------------------
 #t hf aug-cc-pvdz symm=none int=(grid=ultrafine) guess=(read,tcheck) s
 table=(opt,rrhf)
 ----------------------------------------------------------------------
 -----
 title
 -----
 Symbolic Z-matrix:
 Charge =  0 Multiplicity = 1

 SCF Done:  E(RHF) =  -577.203610067     A.U. after   12 cycles

 1\1\GINC-SE367\Stability\RHF\Aug-CC-pVDZ\C3H7Cl1\OHZDE\08-Apr-2025\0\\
 #t hf aug-cc-pvdz symm=none int=(grid=ultrafine) guess=(read,tcheck) s
 table=(opt,rrhf)\\title\\0,1\C,0,-0.174682,0.884446,0.311399\Cl,0,-1.4
 67174,-0.346701,-0.067622\H,0,-0.576713,1.837295,-0.028403\H,0,-0.0904
 67,0.894927,1.398047\C,0,1.151754,0.560513,-0.359802\C,0,1.823739,-0.7
 17654,0.144792\H,0,1.808828,1.420651,-0.17695\H,0,2.782912,-0.872553,-
 0.355123\H,0,2.012405,-0.666194,1.221586\H,0,1.00075,0.508867,-1.44224
 9\H,0,1.199381,-1.592908,-0.045662\\Version=ES64L-G16RevC.01\HF=-577.2

 Normal termination of Gaussian 16 at Tue Apr  8 22:30:20 2025.
 Gaussian 16:  ES64L-G16RevC.01  3-Jul-2019

 ----------------------------------------------------------------------
 #t hf aug-cc-pvdz iop(5/13=1,5/36=2,99/5=2) pseudo=read geom=check gue
 ss=(read,tcheck) scf=(maxcycle=1)
 ----------------------------------------------------------------------
 -----
 title
 -----
 Structure from the checkpoint file:  "BDE49_expt_1026_mol1.chk"
 Charge =  0 Multiplicity = 1

                         Standard orientation:
 ---------------------------------------------------------------------
 Center     Atomic      Atomic             Coordinates (Angstroms)
 Number     Number       Type             X           Y           Z
 ---------------------------------------------------------------------
      1          6           0       -0.174682    0.884446    0.311399
      2         17           0       -1.467174   -0.346701   -0.067622
      3          1           0       -0.576713    1.837295   -0.028403
      4          1           0       -0.090467    0.894927    1.398047
      5          6           0        1.151754    0.560513   -0.359802
      6          6           0        1.823739   -0.717654    0.144792
      7          1           0        1.808828    1.420651   -0.176950
      8          1           0        2.782912   -0.872553   -0.355123
      9          1           0        2.012405   -0.666194    1.221586
     10          1           0        1.000750    0.508867   -1.442249
     11          1           0        1.199381   -1.592908   -0.045662
 ---------------------------------------------------------------------

 SCF Done:  E(RHF) =  -577.413970173     A.U. after    2 cycles

 The electronic state is 1-A.
 Alpha  occ. eigenvalues -- -105.54859 -11.30457 -11.24929 -11.23130 -10.59664
 Alpha  occ. eigenvalues --   -7.76596  -7.76241  -7.76232  -1.11579  -1.02255
 Alpha  occ. eigenvalues --   -0.91686  -0.81100  -0.65472  -0.64119  -0.59495
 Alpha  occ. eigenvalues --   -0.54932  -0.52537  -0.51118  -0.49202  -0.43870
 Alpha  occ. eigenvalues --   -0.43749
 Alpha virt. eigenvalues --    0.03450   0.04049   0.04209   0.05201   0.06830
 Alpha virt. eigenvalues --    0.07243   0.07675   0.09681   0.12215   0.14322
 Alpha virt. eigenvalues --    0.14719   0.15223   0.16141   0.16275   0.16922

 Mulliken charges:
               1
     1  C   -0.465139
     2  Cl  -0.110181
     3  H    0.209927
     4  H    0.242864
     5  C   -0.372377
     6  C   -0.324989
     7  H    0.195127
     8  H    0.125552
     9  H    0.161824
    10  H    0.148159
    11  H    0.189232
 Sum of Mulliken charges =  -0.00000

 Dipole moment (field-independent basis, Debye):
    X=              1.9466    Y=              1.4708    Z=              0.3504  Tot=              2.4648

 Test job not archived.
 1\1\GINC-SE367\SP\RHF\Aug-CC-pVDZ\C3H7Cl1\OHZDE\08-Apr-2025\0\\#t hf a
 ug-cc-pvdz iop(5/13=1,5/36=2,99/5=2) pseudo=read geom=check guess=(rea
 d,tcheck) scf=(maxcycle=1)\\title\\0,1\C,0,-0.174682,0.884446,0.311399
 \Cl,0,-1.467174,-0.346701,-0.067622\H,0,-0.576713,1.837295,-0.028403\H
 ,0,-0.090467,0.894927,1.398047\C,0,1.151754,0.560513,-0.359802\C,0,1.8
 23739,-0.717654,0.144792\H,0,1.808828,1.420651,-0.17695\H,0,2.782912,-
 0.872553,-0.355123\H,0,2.012405,-0.666194,1.221586\H,0,1.00075,0.50886
 7,-1.442249\H,0,1.199381,-1.592908,-0.045662\\Version=ES64L-G16RevC.01

 Normal termination of Gaussian 16 at Tue Apr  8 22:30:23 2025.
