 Gaussian 16, Revision C.01,

 ----------------------------------------------------------------------
 #t hf aug-cc-pvdz symm=none int=(grid=ultrafine) guess=(read,tcheck) s
 table=opt
 ----------------------------------------------------------------------
 -----
 title
 -----
 Symbolic Z-matrix:
 Charge =  0 Multiplicity = 2

 SCF Done:  E(UHF) =  -177.470148649     A.U. after   15 cycles
 Normal termination of Gaussian 16 at Tue Apr  8 22:39:24 2025.
 Gaussian 16:  ES64L-G16RevC.01  3-Jul-2019

 ----------------------------------------------------------------------
 #t hf aug-cc-pvdz iop(5/13=1,5/36=2,99/5=2) pseudo=read geom=check gue
 ss=(read,tcheck) scf=(maxcycle=1)
 ----------------------------------------------------------------------
 -----
 title
 -----
 Structure from the checkpoint file:  "BDE49_expt_127_mol2.chk"
 Charge =  0 Multiplicity = 2

                         Standard orientation:
 ---------------------------------------------------------------------
 Center     Atomic      Atomic             Coordinates (Angstroms)
 Number     Number       Type             X           Y           Z
 ---------------------------------------------------------------------
      1          6           0        1.222759   -0.250935   -0.029215
      2          6           0       -0.032762    0.520938    0.064175
      3          1           0        2.134691    0.218215   -0.374546
      4          1           0        1.262983   -1.251379    0.381317
      5          1           0       -0.097290    1.285012   -0.718678
      6          1           0       -0.133146    1.026896    1.037507
      7          9           0       -1.145247   -0.322084   -0.059484
 ---------------------------------------------------------------------

 SCF Done:  E(UHF) =  -177.646149408     A.U. after    2 cycles

 The electronic state is 2-A.
 Alpha  occ. eigenvalues --  -26.44178 -11.32567 -11.25752  -1.56079  -1.04716
 Alpha  occ. eigenvalues --   -0.86184  -0.69759  -0.68753  -0.65044  -0.58912
 Alpha  occ. eigenvalues --   -0.53321  -0.53113  -0.38239
 Alpha virt. eigenvalues --    0.03608   0.04610   0.04929   0.05923   0.10982
 Alpha virt. eigenvalues --    0.12364   0.12948   0.13596   0.16544   0.16761
 Alpha virt. eigenvalues --    0.18316   0.20614   0.25036   0.25896   0.28128

  Beta  occ. eigenvalues --  -26.44104 -11.32898 -11.23311  -1.55861  -1.00415
  Beta  occ. eigenvalues --   -0.81693  -0.69062  -0.67569  -0.64304  -0.57608
  Beta  occ. eigenvalues --   -0.52337  -0.51666
  Beta virt. eigenvalues --    0.03696   0.04653   0.04941   0.05678   0.07797
  Beta virt. eigenvalues --    0.11265   0.12419   0.13692   0.16140   0.16999
  Beta virt. eigenvalues --    0.18044   0.18944   0.21009   0.25518   0.26728

 Mulliken charges and spin densities:
               1          2
     1  C   -0.117188   1.343871
     2  C    0.521279  -0.196724
     3  H    0.012807  -0.100688
     4  H    0.033207  -0.090982
     5  H    0.090539   0.013012
     6  H    0.147506   0.028357
     7  F   -0.688150   0.003153
 Sum of Mulliken charges =  -0.00000   1.00000

 Dipole moment (field-independent basis, Debye):
    X=              1.6619    Y=              1.1592    Z=              0.2635  Tot=              2.0433
                          Isotropic Fermi Contact Couplings
        Atom                 a.u.       MegaHertz       Gauss      10(-4) cm-1
     1  C(13)              0.20603     231.61635      82.64647      77.25890
     2  C(13)             -0.06056     -68.08007     -24.29266     -22.70907
     3  H(1)              -0.02459    -109.91851     -39.22166     -36.66487
     4  H(1)              -0.02363    -105.60476     -37.68241     -35.22596
     5  H(1)               0.00944      42.18519      15.05272      14.07146
     6  H(1)               0.02268     101.35789      36.16701      33.80935
     7  F(19)              0.01542      64.87264      23.14817      21.63918
 --------------------------------------------------------

 Normal termination of Gaussian 16 at Tue Apr  8 22:39:26 2025.
