 Gaussian 16, Revision C.01,

 ----------------------------------------------------------------------
 #t hf aug-cc-pvdz symm=none int=(grid=ultrafine) guess=(read,tcheck) s
 table=(opt,rrhf)
 ----------------------------------------------------------------------
 -----
 title
 -----
 Symbolic Z-matrix:
 Charge =  0 Multiplicity = 1

 SCF Done:  E(RHF) =  -587.609590608     A.U. after   20 cycles
 Normal termination of Gaussian 16 at Tue Apr  8 23:52:26 2025.
 Gaussian 16:  ES64L-G16RevC.01  3-Jul-2019

 ----------------------------------------------------------------------
 #t hf aug-cc-pvdz iop(5/13=1,5/36=2,99/5=2) pseudo=read geom=check gue
 ss=(read,tcheck) scf=(maxcycle=1)
 ----------------------------------------------------------------------
 -----
 title
 -----
 Structure from the checkpoint file:  "BDE49_nonexpt_1921_mol1.chk"
 Charge =  0 Multiplicity = 1

                         Standard orientation:
 ---------------------------------------------------------------------
 Center     Atomic      Atomic             Coordinates (Angstroms)
 Number     Number       Type             X           Y           Z
 ---------------------------------------------------------------------
      1          6           0        0.715334   -0.602115    0.217396
      2         14           0       -0.492025    0.845326   -0.000983
      3          7           0       -2.253167    0.190534    0.033905
      4          8           0       -2.362958   -1.011404   -0.040788
      5          1           0       -0.377978    1.485017   -1.326816
      6          1           0       -0.412730    1.844354    1.082435
      7          7           0        1.962231   -0.308628   -0.510894
      8          8           0        2.899445   -0.046841    0.202259
      9          1           0        0.224677   -1.450780   -0.274329
     10          1           0        0.907037   -0.807847    1.275244
 ---------------------------------------------------------------------

 SCF Done:  E(RHF) =  -587.923993811     A.U. after    2 cycles

 The electronic state is 1-A.
 Alpha  occ. eigenvalues --  -69.58908 -20.63967 -20.62675 -15.66022 -15.63192
 Alpha  occ. eigenvalues --  -11.28791  -6.25862  -4.01222  -4.01162  -4.01141
 Alpha  occ. eigenvalues --   -1.60526  -1.59966  -1.11705  -1.00069  -0.89500
 Alpha  occ. eigenvalues --   -0.78718  -0.72313  -0.71936  -0.69509  -0.68404
 Alpha  occ. eigenvalues --   -0.62656  -0.62050  -0.59025  -0.52422  -0.49992
 Alpha  occ. eigenvalues --   -0.43327  -0.40362
 Alpha virt. eigenvalues --    0.03497   0.03981   0.04510   0.04749   0.05043
 Alpha virt. eigenvalues --    0.05369   0.06627   0.07117   0.08965   0.10995
 Alpha virt. eigenvalues --    0.11893   0.12739   0.14334   0.15099   0.15431

 Mulliken charges:
               1
     1  C   -0.916780
     2  Si   1.060946
     3  N    0.539491
     4  O   -0.888361
     5  H   -0.106423
     6  H   -0.109308
     7  N    1.021535
     8  O   -0.974138
     9  H    0.217668
    10  H    0.155371
 Sum of Mulliken charges =  -0.00000

 Dipole moment (field-independent basis, Debye):
    X=              0.1031    Y=              0.3075    Z=              0.9111  Tot=              0.9671

 Test job not archived.
 1\1\GINC-SE336\SP\RHF\Aug-CC-pVDZ\C1H4N2O2Si1\OHZDE\08-Apr-2025\0\\#t
 hf aug-cc-pvdz iop(5/13=1,5/36=2,99/5=2) pseudo=read geom=check guess=
 (read,tcheck) scf=(maxcycle=1)\\title\\0,1\C,0,-0.715334,-0.602115,-0.
 217396\Si,0,0.492025,0.845326,0.000983\N,0,2.253167,0.190534,-0.033905
 \O,0,2.362958,-1.011404,0.040788\H,0,0.377978,1.485017,1.326816\H,0,0.
 41273,1.844354,-1.082435\N,0,-1.962231,-0.308628,0.510894\O,0,-2.89944
 5,-0.046841,-0.202259\H,0,-0.224677,-1.45078,0.274329\H,0,-0.907037,-0
 .807847,-1.275244\\Version=ES64L-G16RevC.01\State=1-A\HF=-587.9239938\

 Normal termination of Gaussian 16 at Tue Apr  8 23:52:30 2025.
