 Gaussian 16, Revision C.01,

 ----------------------------------------------------------------------
 #t hf aug-cc-pvdz symm=none int=(grid=ultrafine) guess=(read,tcheck) s
 table=(opt,rrhf)
 ----------------------------------------------------------------------
 -----
 title
 -----
 Symbolic Z-matrix:
 Charge =  0 Multiplicity = 1

 SCF Done:  E(RHF) =  -420.326031684     A.U. after   16 cycles
 Normal termination of Gaussian 16 at Tue Apr  8 23:21:05 2025.
 Gaussian 16:  ES64L-G16RevC.01  3-Jul-2019

 ----------------------------------------------------------------------
 #t hf aug-cc-pvdz iop(5/13=1,5/36=2,99/5=2) pseudo=read geom=check gue
 ss=(read,tcheck) scf=(maxcycle=1)
 ----------------------------------------------------------------------
 -----
 title
 -----
 Structure from the checkpoint file:  "BDE49_nonexpt_1176_mol1.chk"
 Charge =  0 Multiplicity = 1

                         Standard orientation:
 ---------------------------------------------------------------------
 Center     Atomic      Atomic             Coordinates (Angstroms)
 Number     Number       Type             X           Y           Z
 ---------------------------------------------------------------------
      1          9           0       -2.616614    0.415772    0.000000
      2          8           0       -1.746330   -0.721777    0.000001
      3          6           0       -0.431837   -0.268578    0.000000
      4          6           0       -0.063812    1.074727    0.000001
      5          7           0        0.390786   -1.293747   -0.000001
      6          6           0        1.700529   -1.023188   -0.000001
      7          6           0        1.302348    1.331200    0.000000
      8          6           0        2.208361    0.271205   -0.000001
      9          1           0       -0.801098    1.862184    0.000002
     10          1           0        1.654189    2.356406    0.000001
     11          1           0        3.277162    0.442243   -0.000001
     12          1           0        2.360871   -1.884527   -0.000002
 ---------------------------------------------------------------------

 SCF Done:  E(RHF) =  -420.736884606     A.U. after    2 cycles

 The electronic state is 1-A.
 Alpha  occ. eigenvalues --  -26.52317 -20.69863 -15.52487 -11.36950 -11.30573
 Alpha  occ. eigenvalues --  -11.28873 -11.26843 -11.26098  -1.68412  -1.40334
 Alpha  occ. eigenvalues --   -1.27565  -1.11565  -1.05145  -0.91043  -0.88526
 Alpha  occ. eigenvalues --   -0.78090  -0.73875  -0.72478  -0.70232  -0.66984
 Alpha  occ. eigenvalues --   -0.65741  -0.61324  -0.61232  -0.58507  -0.57145
 Alpha  occ. eigenvalues --   -0.53262  -0.48577  -0.42587  -0.36564
 Alpha virt. eigenvalues --    0.02872   0.03603   0.04235   0.06051   0.06522
 Alpha virt. eigenvalues --    0.08879   0.09647   0.10559   0.11199   0.12457
 Alpha virt. eigenvalues --    0.12525   0.13045   0.13067   0.13784   0.14162

 Mulliken charges:
               1
     1  F   -0.366801
     2  O   -0.815895
     3  C    0.085264
     4  C    0.716856
     5  N    0.985171
     6  C   -0.731861
     7  C    0.042124
     8  C    0.738680
     9  H   -0.138614
    10  H   -0.153547
    11  H   -0.185319
    12  H   -0.176058
 Sum of Mulliken charges =  -0.00000

 Dipole moment (field-independent basis, Debye):
    X=              3.0941    Y=              2.6625    Z=              0.0000  Tot=              4.0819

 Test job not archived.
 1\1\GINC-SE069\SP\RHF\Aug-CC-pVDZ\C5H4F1N1O1\OHZDE\08-Apr-2025\0\\#t h
 f aug-cc-pvdz iop(5/13=1,5/36=2,99/5=2) pseudo=read geom=check guess=(
 read,tcheck) scf=(maxcycle=1)\\title\\0,1\F,0,-2.616614,0.415772,0.\O,
 0,-1.74633,-0.721777,0.000001\C,0,-0.431837,-0.268578,0.\C,0,-0.063812
 ,1.074727,0.000001\N,0,0.390786,-1.293747,-0.000001\C,0,1.700529,-1.02
 3188,-0.000001\C,0,1.302348,1.3312,0.\C,0,2.208361,0.271205,-0.000001\
 H,0,-0.801098,1.862184,0.000002\H,0,1.654189,2.356406,0.000001\H,0,3.2
 77162,0.442243,-0.000001\H,0,2.360871,-1.884527,-0.000002\\Version=ES6

 Normal termination of Gaussian 16 at Tue Apr  8 23:21:10 2025.
