 Gaussian 16, Revision C.01,

 ----------------------------------------------------------------------
 #t hf aug-cc-pvdz symm=none int=(grid=ultrafine) guess=(read,tcheck) s
 table=opt
 ----------------------------------------------------------------------
 -----
 title
 -----
 Symbolic Z-matrix:
 Charge =  0 Multiplicity = 2

 SCF Done:  E(UHF) =  -839.943766518     A.U. after   22 cycles
 Normal termination of Gaussian 16 at Tue Apr  8 23:53:30 2025.
 Gaussian 16:  ES64L-G16RevC.01  3-Jul-2019

 ----------------------------------------------------------------------
 #t hf aug-cc-pvdz iop(5/13=1,5/36=2,99/5=2) pseudo=read geom=check gue
 ss=(read,tcheck) scf=(maxcycle=1)
 ----------------------------------------------------------------------
 -----
 title
 -----
 Structure from the checkpoint file:  "BDE49_nonexpt_1945_mol2.chk"
 Charge =  0 Multiplicity = 2

                         Standard orientation:
 ---------------------------------------------------------------------
 Center     Atomic      Atomic             Coordinates (Angstroms)
 Number     Number       Type             X           Y           Z
 ---------------------------------------------------------------------
      1         14           0        2.123028   -0.264313   -0.091164
      2          6           0        0.346642    0.432270    0.006733
      3          1           0        3.067629    0.670933    0.558475
      4          1           0        2.220779   -1.645983    0.435051
      5          8           0        0.118927    1.618979    0.013987
      6         16           0       -0.950671   -0.835791    0.013767
      7          6           0       -2.443743    0.208848   -0.008455
      8          1           0       -3.036248   -0.029520   -0.890564
      9          1           0       -2.108504    1.246636   -0.044284
     10          1           0       -3.024125    0.032422    0.895781
 ---------------------------------------------------------------------

 SCF Done:  E(UHF) =  -840.184721114     A.U. after    2 cycles

 The electronic state is 2-A.
 Alpha  occ. eigenvalues --  -93.96612 -69.56345 -20.56498 -11.36833 -11.27156
 Alpha  occ. eigenvalues --   -8.24837  -6.23560  -6.22651  -6.22473  -6.22290
 Alpha  occ. eigenvalues --   -3.99539  -3.98625  -3.98585  -1.50045  -1.08596
 Alpha  occ. eigenvalues --   -0.93513  -0.81871  -0.72031  -0.65517  -0.61683
 Alpha  occ. eigenvalues --   -0.61033  -0.57135  -0.56754  -0.51567  -0.48003
 Alpha  occ. eigenvalues --   -0.40381  -0.38521  -0.34848
 Alpha virt. eigenvalues --    0.03774   0.04084   0.05216   0.05393   0.06063
 Alpha virt. eigenvalues --    0.06391   0.07111   0.09023   0.09149   0.10193
 Alpha virt. eigenvalues --    0.12076   0.12625   0.13730   0.14413   0.15021

  Beta  occ. eigenvalues --  -93.96604 -69.55764 -20.55993 -11.37047 -11.27158
  Beta  occ. eigenvalues --   -8.24827  -6.22687  -6.22633  -6.22459  -6.22277
  Beta  occ. eigenvalues --   -3.98211  -3.98174  -3.97302  -1.48961  -1.08521
  Beta  occ. eigenvalues --   -0.93254  -0.79748  -0.70300  -0.65257  -0.61003
  Beta  occ. eigenvalues --   -0.60570  -0.56732  -0.54773  -0.50873  -0.47921
  Beta  occ. eigenvalues --   -0.39257  -0.37425
  Beta virt. eigenvalues --    0.00619   0.03818   0.04353   0.05346   0.05498
  Beta virt. eigenvalues --    0.06335   0.07126   0.07231   0.09431   0.10393
  Beta virt. eigenvalues --    0.11132   0.12608   0.13652   0.13950   0.15034

 Mulliken charges and spin densities:
               1          2
     1  Si   0.752152   0.990434
     2  C    0.223982  -0.120966
     3  H   -0.136634  -0.000304
     4  H   -0.163224  -0.003470
     5  O   -1.026908   0.125584
     6  S    0.445541   0.005433
     7  C   -0.698876   0.002993
     8  H    0.222652   0.000160
     9  H    0.159425  -0.000096
    10  H    0.221890   0.000234
 Sum of Mulliken charges =  -0.00000   1.00000

 Dipole moment (field-independent basis, Debye):
    X=             -0.2423    Y=             -0.9856    Z=              0.0504  Tot=              1.0162
                          Isotropic Fermi Contact Couplings
        Atom                 a.u.       MegaHertz       Gauss      10(-4) cm-1
     1  Si(29)             0.57805    -513.72912    -183.31132    -171.36159
     2  C(13)             -0.01752     -19.69470      -7.02756      -6.56945
     3  H(1)              -0.00011      -0.47298      -0.16877      -0.15777
     4  H(1)               0.00022       0.96769       0.34530       0.32279
     5  O(17)              0.03759     -22.78849      -8.13150      -7.60142
     6  S(33)              0.00391       1.34383       0.47951       0.44825
     7  C(13)             -0.00041      -0.46125      -0.16459      -0.15386
     8  H(1)               0.00067       3.00776       1.07324       1.00328

 1\1\GINC-SE365\SP\UHF\Aug-CC-pVDZ\C2H5O1S1Si1(2)\OHZDE\08-Apr-2025\0\\
 #t hf aug-cc-pvdz iop(5/13=1,5/36=2,99/5=2) pseudo=read geom=check gue
 ss=(read,tcheck) scf=(maxcycle=1)\\title\\0,2\Si,0,2.123028,-0.264313,
 -0.091164\C,0,0.346642,0.43227,0.006733\H,0,3.067629,0.670933,0.558475
 \H,0,2.220779,-1.645983,0.435051\O,0,0.118927,1.618979,0.013987\S,0,-0
 .950671,-0.835791,0.013767\C,0,-2.443743,0.208848,-0.008455\H,0,-3.036
 248,-0.02952,-0.890564\H,0,-2.108504,1.246636,-0.044284\H,0,-3.024125,
 0.032422,0.895781\\Version=ES64L-G16RevC.01\State=2-A\HF=-840.1847211\

 Normal termination of Gaussian 16 at Tue Apr  8 23:53:33 2025.
