 Gaussian 16, Revision C.01,

 ----------------------------------------------------------------------
 #t hf aug-cc-pvdz symm=none int=(grid=ultrafine) guess=(read,tcheck) s
 table=(opt,rrhf)
 ----------------------------------------------------------------------
 -----
 title
 -----
 Symbolic Z-matrix:
 Charge =  0 Multiplicity = 1

 SCF Done:  E(RHF) =  -652.064171353     A.U. after   13 cycles
 Normal termination of Gaussian 16 at Tue Apr  8 22:40:31 2025.
 Gaussian 16:  ES64L-G16RevC.01  3-Jul-2019

 ----------------------------------------------------------------------
 #t hf aug-cc-pvdz iop(5/13=1,5/36=2,99/5=2) pseudo=read geom=check gue
 ss=(read,tcheck) scf=(maxcycle=1)
 ----------------------------------------------------------------------
 -----
 title
 -----
 Structure from the checkpoint file:  "BDE49_expt_1358_mol1.chk"
 Charge =  0 Multiplicity = 1

                         Standard orientation:
 ---------------------------------------------------------------------
 Center     Atomic      Atomic             Coordinates (Angstroms)
 Number     Number       Type             X           Y           Z
 ---------------------------------------------------------------------
      1          6           0        2.075272   -0.389427    0.069663
      2          8           0        1.066982    0.528234   -0.353154
      3          1           0        2.972140   -0.139741   -0.494320
      4          1           0        1.775675   -1.418229   -0.146470
      5          1           0        2.274403   -0.283198    1.142853
      6          6           0       -0.112047    0.472695    0.339025
      7          6           0       -0.977323    1.650855   -0.037354
      8          1           0       -0.457287    2.571513    0.241035
      9          1           0       -1.935684    1.607290    0.479172
     10          1           0       -1.148490    1.654652   -1.114319
     11         17           0       -1.057450   -1.117392   -0.054550
     12          1           0        0.044624    0.372762    1.416632
 ---------------------------------------------------------------------

 SCF Done:  E(RHF) =  -652.345216028     A.U. after    2 cycles

 The electronic state is 1-A.
 Alpha  occ. eigenvalues -- -105.54065 -20.57765 -11.36881 -11.29709 -11.24501
 Alpha  occ. eigenvalues --  -10.58888  -7.75794  -7.75474  -7.75459  -1.50535
 Alpha  occ. eigenvalues --   -1.08888  -0.99692  -0.94365  -0.83458  -0.70708
 Alpha  occ. eigenvalues --   -0.66739  -0.66355  -0.60493  -0.56481  -0.55410
 Alpha  occ. eigenvalues --   -0.52832  -0.50996  -0.44655  -0.43823  -0.43710
 Alpha virt. eigenvalues --    0.03470   0.04196   0.04507   0.05348   0.06568
 Alpha virt. eigenvalues --    0.07018   0.07331   0.10461   0.11625   0.13374
 Alpha virt. eigenvalues --    0.14717   0.14838   0.15354   0.16356   0.16540

 Mulliken charges:
               1
     1  C    0.153412
     2  O   -1.288947
     3  H   -0.002943
     4  H    0.216806
     5  H    0.163819
     6  C    0.443744
     7  C   -0.359464
     8  H    0.197457
     9  H    0.168934
    10  H    0.199672
    11  Cl  -0.170256
    12  H    0.277766
 Sum of Mulliken charges =  -0.00000

 Dipole moment (field-independent basis, Debye):
    X=              1.5934    Y=              1.4668    Z=              1.3266  Tot=              2.5398

 Test job not archived.
 1\1\GINC-SE080\SP\RHF\Aug-CC-pVDZ\C3H7Cl1O1\OHZDE\08-Apr-2025\0\\#t hf
  aug-cc-pvdz iop(5/13=1,5/36=2,99/5=2) pseudo=read geom=check guess=(r
 ead,tcheck) scf=(maxcycle=1)\\title\\0,1\C,0,2.075272,-0.389427,0.0696
 63\O,0,1.066982,0.528234,-0.353154\H,0,2.97214,-0.13974,-0.49432\H,0,1
 .775675,-1.418229,-0.14647\H,0,2.274403,-0.283198,1.142853\C,0,-0.1120
 47,0.472695,0.339025\C,0,-0.977323,1.650855,-0.037354\H,0,-0.457288,2.
 571513,0.241035\H,0,-1.935684,1.60729,0.479172\H,0,-1.14849,1.654652,-
 1.114319\Cl,0,-1.05745,-1.117392,-0.05455\H,0,0.044624,0.372762,1.4166

 Normal termination of Gaussian 16 at Tue Apr  8 22:40:35 2025.
