 Gaussian 16, Revision C.01,

 ----------------------------------------------------------------------
 #t hf aug-cc-pvdz symm=none int=(grid=ultrafine) guess=(read,tcheck) s
 table=(opt,rrhf)
 ----------------------------------------------------------------------
 -----
 title
 -----
 Symbolic Z-matrix:
 Charge =  0 Multiplicity = 1

 SCF Done:  E(RHF) =  -484.840796026     A.U. after   14 cycles
 Normal termination of Gaussian 16 at Wed Apr  9 00:43:11 2025.
 Gaussian 16:  ES64L-G16RevC.01  3-Jul-2019

 ----------------------------------------------------------------------
 #t hf aug-cc-pvdz iop(5/13=1,5/36=2,99/5=2) pseudo=read geom=check gue
 ss=(read,tcheck) scf=(maxcycle=1)
 ----------------------------------------------------------------------
 -----
 title
 -----
 Structure from the checkpoint file:  "BDE49_nonexpt_730_mol1.chk"
 Charge =  0 Multiplicity = 1

                         Standard orientation:
 ---------------------------------------------------------------------
 Center     Atomic      Atomic             Coordinates (Angstroms)
 Number     Number       Type             X           Y           Z
 ---------------------------------------------------------------------
      1          5           0        2.371515    0.380718   -0.332506
      2         15           0        0.912457   -0.600778    0.212981
      3          6           0       -0.717109    0.109805   -0.367294
      4          6           0       -1.857563   -0.895916   -0.145978
      5          1           0       -2.010242   -1.091466    0.920194
      6          1           0       -1.655387   -1.850906   -0.635558
      7          6           0       -1.041949    1.477174    0.250193
      8          1           0       -2.796771   -0.499841   -0.544786
      9          1           0       -0.568046    0.235426   -1.445928
     10          1           0       -1.997330    1.852109   -0.133634
     11          1           0       -1.128119    1.406306    1.338789
     12          1           0       -0.269594    2.214366    0.022981
     13          1           0        3.367660    0.337539    0.315890
     14          1           0        2.369506    0.885985   -1.410816
     15          1           0        0.843613   -0.527813    1.619151
 ---------------------------------------------------------------------

 SCF Done:  E(RHF) =  -485.047897960     A.U. after    2 cycles

 The electronic state is 1-A.
 Alpha  occ. eigenvalues --  -84.24956 -11.25750 -11.23484 -11.23427  -7.60069
 Alpha  occ. eigenvalues --   -6.72530  -4.25287  -4.25142  -4.24374  -1.07923
 Alpha  occ. eigenvalues --   -0.94078  -0.88207  -0.78099  -0.68004  -0.62616
 Alpha  occ. eigenvalues --   -0.59781  -0.57721  -0.55047  -0.52384  -0.50151
 Alpha  occ. eigenvalues --   -0.49625  -0.46030  -0.42537  -0.31218
 Alpha virt. eigenvalues --    0.03510   0.03664   0.03992   0.04544   0.05122
 Alpha virt. eigenvalues --    0.05956   0.05991   0.06986   0.07394   0.08695
 Alpha virt. eigenvalues --    0.09290   0.09544   0.10449   0.12170   0.12722

 Mulliken charges:
               1
     1  B   -0.520150
     2  P    0.057434
     3  C   -1.122427
     4  C   -0.170700
     5  H    0.211880
     6  H    0.134750
     7  C   -0.310350
     8  H    0.144106
     9  H    0.170346
    10  H    0.154021
    11  H    0.178425
    12  H    0.120612
    13  H    0.375334
    14  H    0.335150
    15  H    0.241569
 Sum of Mulliken charges =   0.00000

 Dipole moment (field-independent basis, Debye):
    X=             -1.4511    Y=              0.5333    Z=              0.1305  Tot=              1.5515

 Test job not archived.
 1\1\GINC-SE071\SP\RHF\Aug-CC-pVDZ\C3H10B1P1\OHZDE\09-Apr-2025\0\\#t hf
  aug-cc-pvdz iop(5/13=1,5/36=2,99/5=2) pseudo=read geom=check guess=(r
 ead,tcheck) scf=(maxcycle=1)\\title\\0,1\B,0,2.371515,0.380718,-0.3325
 06\P,0,0.912457,-0.600778,0.212981\C,0,-0.717109,0.109805,-0.367294\C,
 0,-1.857563,-0.895916,-0.145978\H,0,-2.010242,-1.091466,0.920194\H,0,-
 1.655387,-1.850906,-0.635558\C,0,-1.041949,1.477174,0.250193\H,0,-2.79
 6771,-0.499841,-0.544786\H,0,-0.568046,0.235426,-1.445928\H,0,-1.99733
 ,1.852109,-0.133634\H,0,-1.128119,1.406306,1.338789\H,0,-0.269594,2.21

 Normal termination of Gaussian 16 at Wed Apr  9 00:43:15 2025.
