 Gaussian 16, Revision C.01,

 ----------------------------------------------------------------------
 #t hf aug-cc-pvdz symm=none int=(grid=ultrafine) guess=(read,tcheck) s
 table=(opt,rrhf)
 ----------------------------------------------------------------------
 -----
 title
 -----
 Symbolic Z-matrix:
 Charge =  0 Multiplicity = 1

 SCF Done:  E(RHF) =  -1958.28547850     A.U. after   11 cycles
 Normal termination of Gaussian 16 at Wed Apr  9 00:09:34 2025.
 Gaussian 16:  ES64L-G16RevC.01  3-Jul-2019

 ----------------------------------------------------------------------
 #t hf aug-cc-pvdz iop(5/13=1,5/36=2,99/5=2) pseudo=read geom=check gue
 ss=(read,tcheck) scf=(maxcycle=1)
 ----------------------------------------------------------------------
 -----
 title
 -----
 Structure from the checkpoint file:  "BDE49_nonexpt_2319_mol1.chk"
 Charge =  0 Multiplicity = 1

                         Standard orientation:
 ---------------------------------------------------------------------
 Center     Atomic      Atomic             Coordinates (Angstroms)
 Number     Number       Type             X           Y           Z
 ---------------------------------------------------------------------
      1         14           0        2.303532   -0.000078   -0.000085
      2         14           0       -0.044068   -0.000003   -0.000008
      3         17           0       -0.783230   -1.493790   -1.226027
      4          1           0        2.768567    0.228487   -1.385027
      5         17           0       -0.783054    1.808739   -0.680617
      6          1           0        2.768607    1.085026    0.890326
      7         17           0       -0.783022   -0.314867    1.906737
      8          1           0        2.768534   -1.313782    0.494420
 ---------------------------------------------------------------------

 SCF Done:  E(RHF) =  -1958.58380450     A.U. after    2 cycles

 The electronic state is 1-A.
 Alpha  occ. eigenvalues -- -105.58160-105.58160-105.58160 -69.66911 -69.55869
 Alpha  occ. eigenvalues --  -10.63181 -10.63164 -10.63164  -7.80064  -7.80055
 Alpha  occ. eigenvalues --   -7.80055  -7.79733  -7.79733  -7.79729  -7.79728
 Alpha  occ. eigenvalues --   -7.79728  -7.79726  -6.32783  -6.23065  -4.08098
 Alpha  occ. eigenvalues --   -4.08098  -4.07900  -3.98436  -3.98402  -3.98402
 Alpha  occ. eigenvalues --   -1.11204  -1.06003  -1.06003  -0.79415  -0.70360
 Alpha  occ. eigenvalues --   -0.58739  -0.58739  -0.55698  -0.52180  -0.52180
 Alpha  occ. eigenvalues --   -0.51069  -0.51069  -0.48392  -0.48392  -0.47196
 Alpha  occ. eigenvalues --   -0.43178
 Alpha virt. eigenvalues --    0.03246   0.04945   0.05601   0.05601   0.07010
 Alpha virt. eigenvalues --    0.07425   0.07425   0.08359   0.08359   0.09743
 Alpha virt. eigenvalues --    0.11345   0.11345   0.12502   0.13981   0.13981

 Mulliken charges:
               1
     1  Si   0.476847
     2  Si   1.515776
     3  Cl  -0.541476
     4  H   -0.122740
     5  Cl  -0.541474
     6  H   -0.122728
     7  Cl  -0.541471
     8  H   -0.122734
 Sum of Mulliken charges =   0.00000

 Dipole moment (field-independent basis, Debye):
    X=              2.1495    Y=             -0.0001    Z=             -0.0001  Tot=              2.1495

 Test job not archived.
 1\1\GINC-SE016\SP\RHF\Aug-CC-pVDZ\Cl3H3Si2\OHZDE\09-Apr-2025\0\\#t hf
 aug-cc-pvdz iop(5/13=1,5/36=2,99/5=2) pseudo=read geom=check guess=(re
 ad,tcheck) scf=(maxcycle=1)\\title\\0,1\Si,0,2.303532,0.000078,0.00008
 5\Si,0,-0.044068,0.000003,0.000008\Cl,0,-0.78323,1.496125,1.223176\H,0
 ,2.768567,-0.225846,1.385461\Cl,0,-0.783055,-1.807438,0.684064\H,0,2.7
 68607,-1.086722,-0.888255\Cl,0,-0.783021,0.311231,-1.907334\H,0,2.7685
 35,1.312836,-0.496923\\Version=ES64L-G16RevC.01\State=1-A\HF=-1958.583
 8045\RMSD=3.157e-03\Dipole=0.845663,0.000036,0.0000419\Quadrupole=2.13

 Normal termination of Gaussian 16 at Wed Apr  9 00:09:37 2025.
