 Gaussian 16, Revision C.01,

 ----------------------------------------------------------------------
 #t hf aug-cc-pvdz symm=none int=(grid=ultrafine) guess=(read,tcheck) s
 table=(opt,rrhf)
 ----------------------------------------------------------------------
 -----
 title
 -----
 Symbolic Z-matrix:
 Charge =  0 Multiplicity = 1

 SCF Done:  E(RHF) =  -745.616859288     A.U. after   15 cycles
 Normal termination of Gaussian 16 at Tue Apr  8 22:46:52 2025.
 Gaussian 16:  ES64L-G16RevC.01  3-Jul-2019

 ----------------------------------------------------------------------
 #t hf aug-cc-pvdz iop(5/13=1,5/36=2,99/5=2) pseudo=read geom=check gue
 ss=(read,tcheck) scf=(maxcycle=1)
 ----------------------------------------------------------------------
 -----
 title
 -----
 Structure from the checkpoint file:  "BDE49_expt_1544_mol1.chk"
 Charge =  0 Multiplicity = 1

                         Standard orientation:
 ---------------------------------------------------------------------
 Center     Atomic      Atomic             Coordinates (Angstroms)
 Number     Number       Type             X           Y           Z
 ---------------------------------------------------------------------
      1         14           0       -1.469096    0.014619   -0.010245
      2          8           0       -2.176072   -0.115027    1.465660
      3          8           0       -1.900848    1.470734   -0.625201
      4          8           0       -2.043786   -1.285375   -0.847620
      5          6           0        0.388910    0.008985   -0.010442
      6          6           0        1.119686    1.207956    0.001675
      7          6           0        2.512034    1.197943    0.028129
      8          1           0        0.587965    2.152257   -0.020372
      9          1           0       -2.791524    1.779329   -0.441351
     10          1           0       -2.438004   -0.991457    1.755907
     11          1           0       -1.687137   -1.438653   -1.725927
     12          6           0        1.102891   -1.200695   -0.001441
     13          6           0        2.495278   -1.214305    0.026416
     14          6           0        3.201634   -0.013137    0.042728
     15          1           0        3.059656    2.134046    0.035354
     16          1           0        3.028535   -2.158686    0.033671
     17          1           0        4.285959   -0.021079    0.063486
     18          1           0        0.564954   -2.143565   -0.022442
 ---------------------------------------------------------------------

 SCF Done:  E(RHF) =  -746.109000957     A.U. after    2 cycles

 The electronic state is 1-A.
 Alpha  occ. eigenvalues --  -69.59299 -20.55046 -20.54678 -20.54436 -11.25033
 Alpha  occ. eigenvalues --  -11.24966 -11.24691 -11.24464 -11.24333 -11.22810
 Alpha  occ. eigenvalues --   -6.25392  -4.00918  -4.00883  -4.00703  -1.46204
 Alpha  occ. eigenvalues --   -1.42894  -1.42163  -1.15323  -1.01814  -1.01739
 Alpha  occ. eigenvalues --   -0.83919  -0.83461  -0.77875  -0.72193  -0.70853
 Alpha  occ. eigenvalues --   -0.69975  -0.64511  -0.63857  -0.60295  -0.59992
 Alpha  occ. eigenvalues --   -0.58089  -0.55032  -0.54720  -0.52458  -0.51898
 Alpha  occ. eigenvalues --   -0.50562  -0.50151  -0.49000  -0.45848  -0.35050
 Alpha  occ. eigenvalues --   -0.34730
 Alpha virt. eigenvalues --    0.03072   0.03698   0.03858   0.05026   0.05092
 Alpha virt. eigenvalues --    0.05390   0.07037   0.07772   0.08066   0.08562
 Alpha virt. eigenvalues --    0.09043   0.10193   0.10449   0.11859   0.13166

 Mulliken charges:
               1
     1  Si   3.719777
     2  O   -1.516725
     3  O   -1.579025
     4  O   -1.527725
     5  C   -0.446613
     6  C    0.246940
     7  C    0.378344
     8  H   -0.329862
     9  H    0.430788
    10  H    0.367713
    11  H    0.382754
    12  C    0.244636
    13  C    0.367585
    14  C    0.319188
    15  H   -0.223964
    16  H   -0.224000
    17  H   -0.213736
    18  H   -0.396075
 Sum of Mulliken charges =  -0.00000

 Dipole moment (field-independent basis, Debye):
    X=              0.4169    Y=             -0.9483    Z=             -0.6258  Tot=              1.2103

 Test job not archived.
 1\1\GINC-SE110\SP\RHF\Aug-CC-pVDZ\C6H8O3Si1\OHZDE\08-Apr-2025\0\\#t hf
  aug-cc-pvdz iop(5/13=1,5/36=2,99/5=2) pseudo=read geom=check guess=(r
 ead,tcheck) scf=(maxcycle=1)\\title\\0,1\Si,0,-1.469096,0.014619,-0.01
 0245\O,0,-2.176072,-0.115027,1.46566\O,0,-1.900848,1.470734,-0.625201\
 O,0,-2.043786,-1.285375,-0.84762\C,0,0.38891,0.008985,-0.010442\C,0,1.
 119686,1.207956,0.001675\C,0,2.512034,1.197943,0.028129\H,0,0.587965,2
 .152257,-0.020372\H,0,-2.791524,1.779329,-0.441351\H,0,-2.438004,-0.99
 1457,1.755907\H,0,-1.687137,-1.438653,-1.725927\C,0,1.102891,-1.200695

 Normal termination of Gaussian 16 at Tue Apr  8 22:47:01 2025.
