 Gaussian 16, Revision C.01,

 ----------------------------------------------------------------------
 #t hf aug-cc-pvdz symm=none int=(grid=ultrafine) guess=(read,tcheck) s
 table=(opt,rrhf)
 ----------------------------------------------------------------------
 -----
 title
 -----
 Symbolic Z-matrix:
 Charge =  0 Multiplicity = 1

 SCF Done:  E(RHF) =  -1104.60993865     A.U. after   15 cycles
 Normal termination of Gaussian 16 at Wed Apr  9 00:18:43 2025.
 Gaussian 16:  ES64L-G16RevC.01  3-Jul-2019

 ----------------------------------------------------------------------
 #t hf aug-cc-pvdz iop(5/13=1,5/36=2,99/5=2) pseudo=read geom=check gue
 ss=(read,tcheck) scf=(maxcycle=1)
 ----------------------------------------------------------------------
 -----
 title
 -----
 Structure from the checkpoint file:  "BDE49_nonexpt_2567_mol1.chk"
 Charge =  0 Multiplicity = 1

                         Standard orientation:
 ---------------------------------------------------------------------
 Center     Atomic      Atomic             Coordinates (Angstroms)
 Number     Number       Type             X           Y           Z
 ---------------------------------------------------------------------
      1         17           0        2.707018    0.023202   -0.105989
      2         16           0        0.821205   -0.770642    0.409700
      3          6           0       -0.394379    0.240027   -0.546694
      4          8           0       -0.190870    1.616531   -0.505610
      5          7           0       -1.593895   -0.285812    0.062973
      6          6           0       -2.633462   -0.718334   -0.867700
      7          1           0       -2.197450   -1.346751   -1.645526
      8          1           0       -3.151384    0.128332   -1.343970
      9          1           0       -3.371923   -1.316598   -0.330012
     10          6           0       -2.104361    0.450576    1.215840
     11          1           0       -1.297104    0.652423    1.921086
     12          1           0       -2.842833   -0.166809    1.730331
     13          1           0       -2.576295    1.401593    0.931370
     14          1           0       -0.360325   -0.045087   -1.596107
     15          1           0        0.116160    1.863560    0.374836
 ---------------------------------------------------------------------

 SCF Done:  E(RHF) =  -1105.00514760     A.U. after    2 cycles

 The electronic state is 1-A.
 Alpha  occ. eigenvalues -- -105.57006 -94.00509 -20.58045 -15.52047 -11.37363
 Alpha  occ. eigenvalues --  -11.27669 -11.27468 -10.61684  -8.28174  -7.78615
 Alpha  occ. eigenvalues --   -7.78198  -7.78170  -6.25967  -6.25668  -6.25419
 Alpha  occ. eigenvalues --   -1.49501  -1.25305  -1.10326  -1.00507  -0.98707
 Alpha  occ. eigenvalues --   -0.90117  -0.84005  -0.73245  -0.70134  -0.67716
 Alpha  occ. eigenvalues --   -0.64047  -0.61021  -0.58187  -0.57096  -0.55442
 Alpha  occ. eigenvalues --   -0.54979  -0.51508  -0.50250  -0.48709  -0.44111
 Alpha  occ. eigenvalues --   -0.40904  -0.37244
 Alpha virt. eigenvalues --    0.03286   0.04133   0.04495   0.05033   0.05550
 Alpha virt. eigenvalues --    0.06202   0.06496   0.07314   0.08257   0.09811
 Alpha virt. eigenvalues --    0.11278   0.12596   0.13362   0.13948   0.14895

 Mulliken charges:
               1
     1  Cl  -0.329248
     2  S    0.547678
     3  C    0.048641
     4  O   -1.234367
     5  N    0.524314
     6  C   -0.381602
     7  H    0.104764
     8  H    0.255195
     9  H    0.103563
    10  C   -0.369301
    11  H    0.040877
    12  H    0.078214
    13  H    0.238984
    14  H    0.026560
    15  H    0.345728
 Sum of Mulliken charges =  -0.00000

 Dipole moment (field-independent basis, Debye):
    X=             -3.4051    Y=              0.2609    Z=              0.4121  Tot=              3.4398

 Test job not archived.
 1\1\GINC-SE143\SP\RHF\Aug-CC-pVDZ\C3H8Cl1N1O1S1\OHZDE\09-Apr-2025\0\\#
 t hf aug-cc-pvdz iop(5/13=1,5/36=2,99/5=2) pseudo=read geom=check gues
 s=(read,tcheck) scf=(maxcycle=1)\\title\\0,1\Cl,0,2.707018,0.023202,-0
 .105989\S,0,0.821205,-0.770642,0.4097\C,0,-0.394379,0.240027,-0.546694
 \O,0,-0.19087,1.616531,-0.50561\N,0,-1.593895,-0.285812,0.062973\C,0,-
 2.633462,-0.718334,-0.8677\H,0,-2.19745,-1.346751,-1.645526\H,0,-3.151
 384,0.128332,-1.34397\H,0,-3.371923,-1.316598,-0.330012\C,0,-2.104361,
 0.450576,1.21584\H,0,-1.297104,0.652423,1.921086\H,0,-2.842833,-0.1668

 Normal termination of Gaussian 16 at Wed Apr  9 00:18:50 2025.
