 Gaussian 16, Revision C.01,

 ----------------------------------------------------------------------
 #t hf aug-cc-pvdz symm=none int=(grid=ultrafine) guess=(read,tcheck) s
 table=(opt,rrhf)
 ----------------------------------------------------------------------
 -----
 title
 -----
 Symbolic Z-matrix:
 Charge =  0 Multiplicity = 1

 SCF Done:  E(RHF) =  -655.280595470     A.U. after   13 cycles
 Normal termination of Gaussian 16 at Tue Apr  8 22:48:00 2025.
 Gaussian 16:  ES64L-G16RevC.01  3-Jul-2019

 ----------------------------------------------------------------------
 #t hf aug-cc-pvdz iop(5/13=1,5/36=2,99/5=2) pseudo=read geom=check gue
 ss=(read,tcheck) scf=(maxcycle=1)
 ----------------------------------------------------------------------
 -----
 title
 -----
 Structure from the checkpoint file:  "BDE49_expt_1660_mol1.chk"
 Charge =  0 Multiplicity = 1

                         Standard orientation:
 ---------------------------------------------------------------------
 Center     Atomic      Atomic             Coordinates (Angstroms)
 Number     Number       Type             X           Y           Z
 ---------------------------------------------------------------------
      1          6           0        2.003969    0.928722   -0.000000
      2          6           0        0.784143   -0.017451   -0.000000
      3          6           0       -0.454456    0.893194   -0.000000
      4          6           0        0.818245   -0.895920   -1.261797
      5          1           0       -0.477697    1.523262   -0.888793
      6          1           0       -0.477698    1.523263    0.888791
      7         17           0       -2.047870    0.006078   -0.000000
      8          1           0        2.012982    1.570855   -0.885969
      9          1           0        2.930235    0.347792   -0.000000
     10          1           0        0.802973   -0.284765   -2.169675
     11          1           0       -0.037112   -1.573517   -1.296611
     12          1           0        1.730194   -1.499276   -1.278917
     13          6           0        0.818245   -0.895919    1.261798
     14          1           0        0.802972   -0.284763    2.169675
     15          1           0        1.730193   -1.499275    1.278919
     16          1           0       -0.037113   -1.573516    1.296612
     17          1           0        2.012982    1.570856    0.885968
 ---------------------------------------------------------------------

 SCF Done:  E(RHF) =  -655.576663460     A.U. after    2 cycles

 The electronic state is 1-A.
 Alpha  occ. eigenvalues -- -105.54782 -11.29998 -11.25778 -11.23526 -11.22645
 Alpha  occ. eigenvalues --  -11.22622 -10.59576  -7.76511  -7.76163  -7.76152
 Alpha  occ. eigenvalues --   -1.13796  -1.05207  -0.94494  -0.94043  -0.90033
 Alpha  occ. eigenvalues --   -0.75169  -0.65284  -0.64265  -0.61780  -0.58981
 Alpha  occ. eigenvalues --   -0.56794  -0.53956  -0.52888  -0.52794  -0.50359
 Alpha  occ. eigenvalues --   -0.48184  -0.47395  -0.43574  -0.43348
 Alpha virt. eigenvalues --    0.03380   0.03774   0.03865   0.04593   0.06129
 Alpha virt. eigenvalues --    0.06416   0.06741   0.07140   0.07580   0.09490
 Alpha virt. eigenvalues --    0.09735   0.11188   0.12491   0.13997   0.14535

 Mulliken charges:
               1
     1  C    0.258677
     2  C   -2.521755
     3  C   -0.101969
     4  C    0.134013
     5  H    0.220577
     6  H    0.220573
     7  Cl  -0.113583
     8  H    0.175732
     9  H    0.186912
    10  H    0.190584
    11  H    0.219840
    12  H    0.205115
    13  C    0.134013
    14  H    0.190584
    15  H    0.205112
    16  H    0.219843
    17  H    0.175732
 Sum of Mulliken charges =  -0.00000

 Dipole moment (field-independent basis, Debye):
    X=              2.2912    Y=              0.8148    Z=             -0.0000  Tot=              2.4317

 Test job not archived.
 1\1\GINC-SE361\SP\RHF\Aug-CC-pVDZ\C5H11Cl1\OHZDE\08-Apr-2025\0\\#t hf
 aug-cc-pvdz iop(5/13=1,5/36=2,99/5=2) pseudo=read geom=check guess=(re
 ad,tcheck) scf=(maxcycle=1)\\title\\0,1\C,0,2.003969,0.928722,0.\C,0,0
 .784143,-0.017451,0.\C,0,-0.454456,0.893194,0.\C,0,0.818245,-0.89592,-
 1.261797\H,0,-0.477697,1.523262,-0.888793\H,0,-0.477698,1.523263,0.888
 791\Cl,0,-2.04787,0.006078,0.\H,0,2.012982,1.570855,-0.885969\H,0,2.93
 0235,0.347792,0.\H,0,0.802973,-0.284765,-2.169675\H,0,-0.037112,-1.573
 517,-1.296611\H,0,1.730194,-1.499276,-1.278917\C,0,0.818245,-0.895919,

 Normal termination of Gaussian 16 at Tue Apr  8 22:48:06 2025.
