 Gaussian 16, Revision C.01,

 ----------------------------------------------------------------------
 #t hf aug-cc-pvdz symm=none int=(grid=ultrafine) guess=(read,tcheck) s
 table=(opt,rrhf)
 ----------------------------------------------------------------------
 -----
 title
 -----
 Symbolic Z-matrix:
 Charge =  0 Multiplicity = 1

 SCF Done:  E(RHF) =  -1287.83872315     A.U. after   16 cycles
 Normal termination of Gaussian 16 at Wed Apr  9 00:14:37 2025.
 Gaussian 16:  ES64L-G16RevC.01  3-Jul-2019

 ----------------------------------------------------------------------
 #t hf aug-cc-pvdz iop(5/13=1,5/36=2,99/5=2) pseudo=read geom=check gue
 ss=(read,tcheck) scf=(maxcycle=1)
 ----------------------------------------------------------------------
 -----
 title
 -----
 Structure from the checkpoint file:  "BDE49_nonexpt_240_mol1.chk"
 Charge =  0 Multiplicity = 1

                         Standard orientation:
 ---------------------------------------------------------------------
 Center     Atomic      Atomic             Coordinates (Angstroms)
 Number     Number       Type             X           Y           Z
 ---------------------------------------------------------------------
      1         17           0        2.728152   -1.127001    0.350888
      2         17           0        1.901869    1.640339   -0.420103
      3          5           0        1.393140   -0.001837   -0.015567
      4          6           0       -0.065627   -0.510954   -0.015343
      5          6           0       -1.212690    0.328195    0.064010
      6          6           0       -2.499765   -0.217906   -0.004995
      7          1           0       -3.369888    0.420349    0.056376
      8          6           0       -2.671237   -1.590836   -0.146445
      9          6           0       -0.296157   -1.896809   -0.136192
     10          1           0        0.559851   -2.557607   -0.185023
     11          6           0       -1.570618   -2.440287   -0.211029
     12          1           0       -1.704237   -3.509930   -0.316075
     13          1           0       -3.676416   -1.994616   -0.200099
     14          8           0       -0.992942    1.650971    0.234866
     15          6           0       -2.094202    2.549228    0.296198
     16          1           0       -1.655552    3.538555    0.410032
     17          1           0       -2.737040    2.335713    1.156569
     18          1           0       -2.687458    2.518421   -0.623449
 ---------------------------------------------------------------------

 SCF Done:  E(RHF) =  -1288.36485832     A.U. after    2 cycles

 The electronic state is 1-A.
 Alpha  occ. eigenvalues -- -105.56076-105.55761 -20.58452 -11.33423 -11.30613
 Alpha  occ. eigenvalues --  -11.27091 -11.26607 -11.24953 -11.24384 -11.23848
 Alpha  occ. eigenvalues --  -10.61086 -10.60785  -7.77979  -7.77704  -7.77686
 Alpha  occ. eigenvalues --   -7.77670  -7.77405  -7.77354  -7.70731  -1.51426
 Alpha  occ. eigenvalues --   -1.16557  -1.09638  -1.04218  -1.03773  -1.02843
 Alpha  occ. eigenvalues --   -0.96007  -0.86248  -0.83061  -0.75196  -0.70445
 Alpha  occ. eigenvalues --   -0.69128  -0.66913  -0.66194  -0.63780  -0.61225
 Alpha  occ. eigenvalues --   -0.59474  -0.56609  -0.54924  -0.54477  -0.53143
 Alpha  occ. eigenvalues --   -0.51436  -0.50758  -0.48328  -0.46235  -0.46086
 Alpha  occ. eigenvalues --   -0.43986  -0.36700  -0.33301
 Alpha virt. eigenvalues --    0.02760   0.03293   0.03985   0.04473   0.04587
 Alpha virt. eigenvalues --    0.05235   0.05862   0.06508   0.06743   0.07639
 Alpha virt. eigenvalues --    0.08475   0.09769   0.10915   0.11534   0.12001

 Mulliken charges:
               1
     1  Cl  -0.403140
     2  Cl  -0.344006
     3  B    0.424341
     4  C   -0.263876
     5  C    2.357861
     6  C   -0.227603
     7  H   -0.443729
     8  C    0.551301
     9  C    0.646323
    10  H   -0.359869
    11  C   -0.000792
    12  H   -0.221152
    13  H   -0.225829
    14  O   -1.989363
    15  C    0.150099
    16  H   -0.035369
    17  H    0.191513
    18  H    0.193290
 Sum of Mulliken charges =   0.00000

 Dipole moment (field-independent basis, Debye):
    X=             -4.2519    Y=              0.1527    Z=              0.0421  Tot=              4.2549

 Test job not archived.
 1\1\GINC-SE128\SP\RHF\Aug-CC-pVDZ\C7H7B1Cl2O1\OHZDE\09-Apr-2025\0\\#t
 hf aug-cc-pvdz iop(5/13=1,5/36=2,99/5=2) pseudo=read geom=check guess=
 (read,tcheck) scf=(maxcycle=1)\\title\\0,1\Cl,0,2.728152,-1.127001,0.3
 50888\Cl,0,1.901869,1.640339,-0.420103\B,0,1.39314,-0.001837,-0.015567
 \C,0,-0.065627,-0.510954,-0.015343\C,0,-1.21269,0.328195,0.06401\C,0,-
 2.499765,-0.217906,-0.004995\H,0,-3.369888,0.420349,0.056376\C,0,-2.67
 1237,-1.590836,-0.146445\C,0,-0.296157,-1.896809,-0.136192\H,0,0.55985
 1,-2.557607,-0.185023\C,0,-1.570618,-2.440287,-0.211029\H,0,-1.704237,

 Normal termination of Gaussian 16 at Wed Apr  9 00:14:49 2025.
