 Gaussian 16, Revision C.01,

 ----------------------------------------------------------------------
 #t hf aug-cc-pvdz symm=none int=(grid=ultrafine) guess=(read,tcheck) s
 table=(opt,rrhf)
 ----------------------------------------------------------------------
 -----
 title
 -----
 Symbolic Z-matrix:
 Charge =  0 Multiplicity = 1

 SCF Done:  E(RHF) =  -372.206655261     A.U. after   14 cycles
 Normal termination of Gaussian 16 at Wed Apr  9 00:33:49 2025.
 Gaussian 16:  ES64L-G16RevC.01  3-Jul-2019

 ----------------------------------------------------------------------
 #t hf aug-cc-pvdz iop(5/13=1,5/36=2,99/5=2) pseudo=read geom=check gue
 ss=(read,tcheck) scf=(maxcycle=1)
 ----------------------------------------------------------------------
 -----
 title
 -----
 Structure from the checkpoint file:  "BDE49_nonexpt_425_mol1.chk"
 Charge =  0 Multiplicity = 1

                         Standard orientation:
 ---------------------------------------------------------------------
 Center     Atomic      Atomic             Coordinates (Angstroms)
 Number     Number       Type             X           Y           Z
 ---------------------------------------------------------------------
      1          9           0       -1.709086   -1.139334   -0.030677
      2          5           0       -1.041528    0.000005    0.041273
      3          9           0       -1.709040    1.139373   -0.030703
      4          7           0        0.364913   -0.000020    0.371064
      5          7           0        1.264277   -0.000090   -0.480003
      6          6           0        2.615649    0.000036    0.088551
      7          1           0        3.134822   -0.879915   -0.302097
      8          1           0        2.602957    0.000176    1.181734
      9          1           0        3.134765    0.879923   -0.302322
 ---------------------------------------------------------------------

 SCF Done:  E(RHF) =  -372.558836080     A.U. after    2 cycles

 The electronic state is 1-A.
 Alpha  occ. eigenvalues --  -26.48875 -26.48875 -15.60398 -15.55922 -11.27735
 Alpha  occ. eigenvalues --   -7.74537  -1.64060  -1.60303  -1.38123  -1.07451
 Alpha  occ. eigenvalues --   -0.91307  -0.80584  -0.76008  -0.75829  -0.71760
 Alpha  occ. eigenvalues --   -0.67847  -0.65808  -0.64904  -0.64307  -0.63204
 Alpha  occ. eigenvalues --   -0.56952  -0.53149  -0.44070
 Alpha virt. eigenvalues --    0.03539   0.05057   0.05536   0.05583   0.05791
 Alpha virt. eigenvalues --    0.05983   0.06479   0.06923   0.12513   0.13235
 Alpha virt. eigenvalues --    0.14039   0.15245   0.16647   0.19071   0.19374

 Mulliken charges:
               1
     1  F   -0.647742
     2  B    1.197390
     3  F   -0.647747
     4  N    0.197194
     5  N   -0.224439
     6  C   -0.339788
     7  H    0.183562
     8  H    0.098005
     9  H    0.183565
 Sum of Mulliken charges =  -0.00000

 Dipole moment (field-independent basis, Debye):
    X=              2.2704    Y=              0.0001    Z=              0.2179  Tot=              2.2809

 Test job not archived.
 1\1\GINC-SE338\SP\RHF\Aug-CC-pVDZ\C1H3B1F2N2\OHZDE\09-Apr-2025\0\\#t h
 f aug-cc-pvdz iop(5/13=1,5/36=2,99/5=2) pseudo=read geom=check guess=(
 read,tcheck) scf=(maxcycle=1)\\title\\0,1\F,0,-1.709086,-1.139334,-0.0
 30677\B,0,-1.041528,0.000005,0.041273\F,0,-1.70904,1.139373,-0.030703\
 N,0,0.364913,-0.00002,0.371064\N,0,1.264277,-0.00009,-0.480003\C,0,2.6
 15649,0.000036,0.088551\H,0,3.134822,-0.879915,-0.302097\H,0,2.602957,
 0.000176,1.181734\H,0,3.134765,0.879923,-0.302322\\Version=ES64L-G16Re
 vC.01\State=1-A\HF=-372.5588361\RMSD=3.930e-02\Dipole=0.8932523,0.0000

 Normal termination of Gaussian 16 at Wed Apr  9 00:33:51 2025.
