 Gaussian 16, Revision C.01,

 ----------------------------------------------------------------------
 #t hf aug-cc-pvdz symm=none int=(grid=ultrafine) guess=(read,tcheck) s
 table=opt
 ----------------------------------------------------------------------
 -----
 title
 -----
 Symbolic Z-matrix:
 Charge =  0 Multiplicity = 2

 SCF Done:  E(UHF) =  -200.892186112     A.U. after   14 cycles
 Normal termination of Gaussian 16 at Tue Apr  8 23:34:03 2025.
 Gaussian 16:  ES64L-G16RevC.01  3-Jul-2019

 ----------------------------------------------------------------------
 #t hf aug-cc-pvdz iop(5/13=1,5/36=2,99/5=2) pseudo=read geom=check gue
 ss=(read,tcheck) scf=(maxcycle=1)
 ----------------------------------------------------------------------
 -----
 title
 -----
 Structure from the checkpoint file:  "BDE49_nonexpt_146_mol2.chk"
 Charge =  0 Multiplicity = 2

                         Standard orientation:
 ---------------------------------------------------------------------
 Center     Atomic      Atomic             Coordinates (Angstroms)
 Number     Number       Type             X           Y           Z
 ---------------------------------------------------------------------
      1          5           0        1.730854   -0.000004   -0.091348
      2          5           0        0.087146   -0.000000   -0.002146
      3          8           0       -0.555732    1.216911    0.007659
      4          8           0       -0.555737   -1.216910    0.007659
      5          1           0       -1.517259    1.175606    0.013635
      6          1           0       -1.517263   -1.175601    0.013636
      7          1           0        2.836274   -0.000002    0.317657
 ---------------------------------------------------------------------

 SCF Done:  E(UHF) =  -201.087089886     A.U. after    2 cycles

 The electronic state is 2-A.
 Alpha  occ. eigenvalues --  -20.56275 -20.56273  -7.63770  -7.61160  -1.48170
 Alpha  occ. eigenvalues --   -1.44295  -0.80384  -0.73582  -0.67486  -0.63258
 Alpha  occ. eigenvalues --   -0.57654  -0.52636  -0.50401  -0.50139  -0.30985
 Alpha virt. eigenvalues --    0.02682   0.03703   0.04341   0.05811   0.06590
 Alpha virt. eigenvalues --    0.07042   0.07887   0.09886   0.10432   0.10450
 Alpha virt. eigenvalues --    0.12944   0.14849   0.18617   0.19997   0.20886

  Beta  occ. eigenvalues --  -20.56164 -20.56162  -7.63836  -7.59715  -1.47909
  Beta  occ. eigenvalues --   -1.44008  -0.79067  -0.73533  -0.64747  -0.61280
  Beta  occ. eigenvalues --   -0.56437  -0.52533  -0.49337  -0.48858
  Beta virt. eigenvalues --    0.02681   0.04264   0.04366   0.04749   0.06713
  Beta virt. eigenvalues --    0.06830   0.07489   0.10090   0.10509   0.11152
  Beta virt. eigenvalues --    0.11509   0.13090   0.15549   0.18916   0.20204

 Mulliken charges and spin densities:
               1          2
     1  B   -1.353443   0.971783
     2  B    2.056520   0.004247
     3  O   -1.067554   0.036631
     4  O   -1.067553   0.036631
     5  H    0.467784  -0.000929
     6  H    0.467783  -0.000929
     7  H    0.496463  -0.047433
 Sum of Mulliken charges =  -0.00000   1.00000

 Dipole moment (field-independent basis, Debye):
    X=             -2.2765    Y=              0.0000    Z=              0.3682  Tot=              2.3061
                          Isotropic Fermi Contact Couplings
        Atom                 a.u.       MegaHertz       Gauss      10(-4) cm-1
     1  B(11)              0.12006     172.20909      61.44849      57.44277
     2  B(11)             -0.02178     -31.24002     -11.14721     -10.42055
     3  O(17)              0.00518      -3.14186      -1.12109      -1.04801
     4  O(17)              0.00518      -3.14183      -1.12108      -1.04800
     5  H(1)              -0.00125      -5.58612      -1.99327      -1.86333
     6  H(1)              -0.00125      -5.58613      -1.99327      -1.86333
     7  H(1)              -0.01640     -73.30479     -26.15697     -24.45185
 --------------------------------------------------------

 Normal termination of Gaussian 16 at Tue Apr  8 23:34:04 2025.
