 Gaussian 16, Revision C.01,

 ----------------------------------------------------------------------
 #t hf aug-cc-pvdz symm=none int=(grid=ultrafine) guess=(read,tcheck) s
 table=(opt,rrhf)
 ----------------------------------------------------------------------
 -----
 title
 -----
 Symbolic Z-matrix:
 Charge =  0 Multiplicity = 1

 SCF Done:  E(RHF) =  -671.698762180     A.U. after   13 cycles
 Normal termination of Gaussian 16 at Tue Apr  8 22:44:26 2025.
 Gaussian 16:  ES64L-G16RevC.01  3-Jul-2019

 ----------------------------------------------------------------------
 #t hf aug-cc-pvdz iop(5/13=1,5/36=2,99/5=2) pseudo=read geom=check gue
 ss=(read,tcheck) scf=(maxcycle=1)
 ----------------------------------------------------------------------
 -----
 title
 -----
 Structure from the checkpoint file:  "BDE49_expt_1529_mol1.chk"
 Charge =  0 Multiplicity = 1

                         Standard orientation:
 ---------------------------------------------------------------------
 Center     Atomic      Atomic             Coordinates (Angstroms)
 Number     Number       Type             X           Y           Z
 ---------------------------------------------------------------------
      1          6           0        0.000000    0.516406    0.000000
      2          9           0        1.315128    0.717604    0.000000
      3          8           0       -0.804687    1.368067    0.000000
      4         17           0       -0.317568   -1.205965    0.000000
 ---------------------------------------------------------------------

 SCF Done:  E(RHF) =  -671.968743295     A.U. after    2 cycles

 The electronic state is 1-A'.
 Alpha  occ. eigenvalues -- -105.62890 -26.54651 -20.61499 -11.51841 -10.67725
 Alpha  occ. eigenvalues --   -7.84675  -7.84239  -7.84212  -1.69491  -1.56223
 Alpha  occ. eigenvalues --   -1.14536  -0.89079  -0.77639  -0.76228  -0.75495
 Alpha  occ. eigenvalues --   -0.64658  -0.59740  -0.54146  -0.51465  -0.50550
 Alpha virt. eigenvalues --    0.06229   0.08777   0.09489   0.10107   0.11189
 Alpha virt. eigenvalues --    0.11423   0.14861   0.15398   0.19163   0.22534
 Alpha virt. eigenvalues --    0.24035   0.26044   0.27968   0.31958   0.32094

 Mulliken charges:
               1
     1  C    1.209259
     2  F   -0.512000
     3  O   -0.729468
     4  Cl   0.032209
 Sum of Mulliken charges =   0.00000

 Dipole moment (field-independent basis, Debye):
    X=              0.5633    Y=             -1.1602    Z=              0.0000  Tot=              1.2897

 Test job not archived.
 1\1\GINC-SE363\SP\RHF\Aug-CC-pVDZ\C1Cl1F1O1\OHZDE\08-Apr-2025\0\\#t hf
  aug-cc-pvdz iop(5/13=1,5/36=2,99/5=2) pseudo=read geom=check guess=(r
 ead,tcheck) scf=(maxcycle=1)\\title\\0,1\C,0,0.,0.516406,0.\F,0,1.3151
 28,0.717604,0.\O,0,-0.804687,1.368067,0.\Cl,0,-0.317568,-1.205965,0.\\
 Version=ES64L-G16RevC.01\State=1-A'\HF=-671.9687433\RMSD=5.955e-03\Dip
 ole=0.2216269,-0.4564648,0.\Quadrupole=-0.959041,-0.2917805,1.2508215,
 1.173829,0.,0.\PG=CS [SG(C1Cl1F1O1)]\\@

 Normal termination of Gaussian 16 at Tue Apr  8 22:44:27 2025.
