 Gaussian 16, Revision C.01,

 ----------------------------------------------------------------------
 #t hf aug-cc-pvdz symm=none int=(grid=ultrafine) guess=(read,tcheck) s
 table=(opt,rrhf)
 ----------------------------------------------------------------------
 -----
 title
 -----
 Symbolic Z-matrix:
 Charge =  0 Multiplicity = 1

 SCF Done:  E(RHF) =  -986.196027312     A.U. after   15 cycles
 Normal termination of Gaussian 16 at Tue Apr  8 23:32:45 2025.
 Gaussian 16:  ES64L-G16RevC.01  3-Jul-2019

 ----------------------------------------------------------------------
 #t hf aug-cc-pvdz iop(5/13=1,5/36=2,99/5=2) pseudo=read geom=check gue
 ss=(read,tcheck) scf=(maxcycle=1)
 ----------------------------------------------------------------------
 -----
 title
 -----
 Structure from the checkpoint file:  "BDE49_nonexpt_1407_mol1.chk"
 Charge =  0 Multiplicity = 1

                         Standard orientation:
 ---------------------------------------------------------------------
 Center     Atomic      Atomic             Coordinates (Angstroms)
 Number     Number       Type             X           Y           Z
 ---------------------------------------------------------------------
      1         15           0        1.083645   -1.340148    0.275384
      2         15           0       -1.083647   -1.340146   -0.275383
      3          6           0        1.608964    0.471743    0.083322
      4          6           0        0.622206    1.564499    0.459494
      5          6           0       -0.622201    1.564495   -0.459489
      6          6           0       -1.608958    0.471744   -0.083304
      7          1           0        1.149550    2.517658    0.386065
      8          1           0        0.311314    1.425947    1.501575
      9          8           0       -2.730097    0.706556    0.289998
     10          8           0        2.730091    0.706552   -0.290017
     11          1           0       -0.311309    1.425932   -1.501568
     12          1           0       -1.149543    2.517655   -0.386071
     13          1           0        1.590117   -1.711262   -0.989380
     14          1           0       -1.590119   -1.711268    0.989378
 ---------------------------------------------------------------------

 SCF Done:  E(RHF) =  -986.586054071     A.U. after    2 cycles

 The electronic state is 1-A.
 Alpha  occ. eigenvalues --  -84.30584 -84.30576 -20.56855 -20.56854 -11.37199
 Alpha  occ. eigenvalues --  -11.37198 -11.28215 -11.28204  -6.77789  -6.77771
 Alpha  occ. eigenvalues --   -4.30246  -4.30182  -4.30125  -4.30014  -4.29491
 Alpha  occ. eigenvalues --   -4.29244  -1.50342  -1.50274  -1.11673  -0.97315
 Alpha  occ. eigenvalues --   -0.96252  -0.85540  -0.77796  -0.73934  -0.68405
 Alpha  occ. eigenvalues --   -0.66920  -0.65342  -0.62229  -0.61263  -0.56675
 Alpha  occ. eigenvalues --   -0.55474  -0.54927  -0.52050  -0.48393  -0.46418
 Alpha  occ. eigenvalues --   -0.40235  -0.36711  -0.33600
 Alpha virt. eigenvalues --    0.03267   0.04154   0.04302   0.05024   0.05467
 Alpha virt. eigenvalues --    0.06434   0.07185   0.07918   0.08437   0.09696
 Alpha virt. eigenvalues --    0.10724   0.10890   0.10995   0.11846   0.12411

 Mulliken charges:
               1
     1  P   -0.094378
     2  P   -0.094380
     3  C    0.976714
     4  C   -0.490827
     5  C   -0.490807
     6  C    0.976699
     7  H    0.104028
     8  H    0.268948
     9  O   -1.278503
    10  O   -1.278507
    11  H    0.268947
    12  H    0.104026
    13  H    0.514019
    14  H    0.514020
 Sum of Mulliken charges =  -0.00000

 Dipole moment (field-independent basis, Debye):
    X=              0.0000    Y=             -0.1894    Z=              0.0000  Tot=              0.1894

 Test job not archived.
 1\1\GINC-SE120\SP\RHF\Aug-CC-pVDZ\C4H6O2P2\OHZDE\08-Apr-2025\0\\#t hf
 aug-cc-pvdz iop(5/13=1,5/36=2,99/5=2) pseudo=read geom=check guess=(re
 ad,tcheck) scf=(maxcycle=1)\\title\\0,1\P,0,-1.083645,-1.340148,-0.275
 384\P,0,1.083647,-1.340146,0.275383\C,0,-1.608964,0.471743,-0.083322\C
 ,0,-0.622206,1.564499,-0.459494\C,0,0.622201,1.564495,0.459489\C,0,1.6
 08958,0.471744,0.083304\H,0,-1.149549,2.517658,-0.386065\H,0,-0.311314
 ,1.425947,-1.501575\O,0,2.730097,0.706556,-0.289998\O,0,-2.730091,0.70
 6553,0.290017\H,0,0.311309,1.425932,1.501568\H,0,1.149544,2.517655,0.3

 Normal termination of Gaussian 16 at Tue Apr  8 23:32:52 2025.
