 Gaussian 16, Revision C.01,

 ----------------------------------------------------------------------
 #t hf aug-cc-pvdz symm=none int=(grid=ultrafine) guess=(read,tcheck) s
 table=(opt,rrhf)
 ----------------------------------------------------------------------
 -----
 title
 -----
 Symbolic Z-matrix:
 Charge =  0 Multiplicity = 1

 SCF Done:  E(RHF) =  -943.532326205     A.U. after   16 cycles
 Normal termination of Gaussian 16 at Wed Apr  9 00:21:56 2025.
 Gaussian 16:  ES64L-G16RevC.01  3-Jul-2019

 ----------------------------------------------------------------------
 #t hf aug-cc-pvdz iop(5/13=1,5/36=2,99/5=2) pseudo=read geom=check gue
 ss=(read,tcheck) scf=(maxcycle=1)
 ----------------------------------------------------------------------
 -----
 title
 -----
 Structure from the checkpoint file:  "BDE49_nonexpt_2633_mol1.chk"
 Charge =  0 Multiplicity = 1

                         Standard orientation:
 ---------------------------------------------------------------------
 Center     Atomic      Atomic             Coordinates (Angstroms)
 Number     Number       Type             X           Y           Z
 ---------------------------------------------------------------------
      1          9           0        2.516334   -0.326947   -0.400637
      2         16           0        1.200028   -1.052873    0.321154
      3          6           0       -0.034062   -0.005840   -0.477148
      4          7           0       -1.353745   -0.699315   -0.252193
      5          8           0       -1.320818   -1.600375    0.577209
      6          8           0       -2.309205   -0.309507   -0.878845
      7          7           0       -0.135279    1.398201    0.153666
      8          1           0        0.148005    0.139419   -1.538251
      9          8           0       -0.849630    1.520666    1.125430
     10          8           0        0.558664    2.238205   -0.379032
 ---------------------------------------------------------------------

 SCF Done:  E(RHF) =  -944.098475445     A.U. after    2 cycles

 The electronic state is 1-A.
 Alpha  occ. eigenvalues --  -94.10671 -26.51767 -20.65815 -20.65320 -20.64256
 Alpha  occ. eigenvalues --  -20.64101 -15.85497 -15.84300 -11.45391  -8.37810
 Alpha  occ. eigenvalues --   -6.35537  -6.35284  -6.34932  -1.73933  -1.72265
 Alpha  occ. eigenvalues --   -1.61886  -1.57857  -1.56733  -1.24549  -1.05563
 Alpha  occ. eigenvalues --   -1.05261  -0.90690  -0.86822  -0.84640  -0.81775
 Alpha  occ. eigenvalues --   -0.79641  -0.78645  -0.76493  -0.71244  -0.69716
 Alpha  occ. eigenvalues --   -0.68347  -0.59766  -0.55630  -0.54827  -0.53933
 Alpha  occ. eigenvalues --   -0.53354  -0.51179  -0.49207  -0.44375
 Alpha virt. eigenvalues --   -0.00051   0.00993   0.03442   0.04754   0.06508
 Alpha virt. eigenvalues --    0.09078   0.09904   0.11212   0.11610   0.12053
 Alpha virt. eigenvalues --    0.13885   0.14194   0.14583   0.16458   0.16714

 Mulliken charges:
               1
     1  F   -0.661441
     2  S    1.367977
     3  C   -0.994323
     4  N    2.925471
     5  O   -1.326458
     6  O   -1.402064
     7  N    2.711876
     8  H    0.079457
     9  O   -1.379083
    10  O   -1.321412
 Sum of Mulliken charges =  -0.00000

 Dipole moment (field-independent basis, Debye):
    X=              1.0671    Y=             -1.5612    Z=             -1.4752  Tot=              2.3984

 Test job not archived.
 1\1\GINC-SE162\SP\RHF\Aug-CC-pVDZ\C1H1F1N2O4S1\OHZDE\09-Apr-2025\0\\#t
  hf aug-cc-pvdz iop(5/13=1,5/36=2,99/5=2) pseudo=read geom=check guess
 =(read,tcheck) scf=(maxcycle=1)\\title\\0,1\F,0,2.516334,-0.326948,-0.
 400637\S,0,1.200028,-1.052873,0.321154\C,0,-0.034062,-0.00584,-0.47714
 8\N,0,-1.353745,-0.699315,-0.252193\O,0,-1.320818,-1.600375,0.577209\O
 ,0,-2.309205,-0.309507,-0.878845\N,0,-0.135279,1.398201,0.153666\H,0,0
 .148005,0.139419,-1.538251\O,0,-0.84963,1.520666,1.12543\O,0,0.558664,
 2.238205,-0.379032\\Version=ES64L-G16RevC.01\State=1-A\HF=-944.0984754

 Normal termination of Gaussian 16 at Wed Apr  9 00:22:01 2025.
