 Gaussian 16, Revision C.01,

 ----------------------------------------------------------------------
 #t hf aug-cc-pvdz symm=none int=(grid=ultrafine) guess=(read,tcheck) s
 table=(opt,rrhf)
 ----------------------------------------------------------------------
 -----
 title
 -----
 Symbolic Z-matrix:
 Charge =  0 Multiplicity = 1

 SCF Done:  E(RHF) =  -673.785607605     A.U. after   14 cycles
 Normal termination of Gaussian 16 at Tue Apr  8 23:19:57 2025.
 Gaussian 16:  ES64L-G16RevC.01  3-Jul-2019

 ----------------------------------------------------------------------
 #t hf aug-cc-pvdz iop(5/13=1,5/36=2,99/5=2) pseudo=read geom=check gue
 ss=(read,tcheck) scf=(maxcycle=1)
 ----------------------------------------------------------------------
 -----
 title
 -----
 Structure from the checkpoint file:  "BDE49_nonexpt_111_mol1.chk"
 Charge =  0 Multiplicity = 1

                         Standard orientation:
 ---------------------------------------------------------------------
 Center     Atomic      Atomic             Coordinates (Angstroms)
 Number     Number       Type             X           Y           Z
 ---------------------------------------------------------------------
      1          5           0        3.291200   -0.014123   -0.217252
      2          5           0        1.752971    0.047247    0.424680
      3         16           0       -0.910461   -0.135769    0.388717
      4          8           0        0.652798   -0.232035   -0.342112
      5          8           0       -1.275877    1.370572   -0.152295
      6          8           0       -1.696729   -1.089017   -0.364089
      7          1           0       -1.450846    1.328388   -1.108565
      8          1           0        3.951828   -1.008653   -0.179068
      9          1           0        3.816148    0.952887   -0.683330
     10          1           0        1.587849    0.337904    1.582319
 ---------------------------------------------------------------------

 SCF Done:  E(RHF) =  -674.115372556     A.U. after    2 cycles

 The electronic state is 1-A.
 Alpha  occ. eigenvalues --  -94.19799 -20.62381 -20.60178 -20.56130  -8.45225
 Alpha  occ. eigenvalues --   -7.62832  -7.59852  -6.43016  -6.42878  -6.42589
 Alpha  occ. eigenvalues --   -1.58251  -1.48409  -1.46729  -0.96627  -0.80216
 Alpha  occ. eigenvalues --   -0.73496  -0.70814  -0.69581  -0.66566  -0.59425
 Alpha  occ. eigenvalues --   -0.58629  -0.55003  -0.54381  -0.50630  -0.49345
 Alpha  occ. eigenvalues --   -0.45794  -0.42062
 Alpha virt. eigenvalues --    0.02863   0.03657   0.03927   0.04468   0.05505
 Alpha virt. eigenvalues --    0.06531   0.07001   0.08198   0.09183   0.09518
 Alpha virt. eigenvalues --    0.11082   0.11672   0.12457   0.13320   0.14152

 Mulliken charges:
               1
     1  B   -0.798756
     2  B    0.817681
     3  S    2.794329
     4  O   -1.211739
     5  O   -1.154108
     6  O   -1.276980
     7  H    0.370930
     8  H    0.273981
     9  H    0.282102
    10  H   -0.097440
 Sum of Mulliken charges =   0.00000

 Dipole moment (field-independent basis, Debye):
    X=              1.0886    Y=              1.5658    Z=              0.2640  Tot=              1.9252

 Test job not archived.
 1\1\GINC-SE336\SP\RHF\Aug-CC-pVDZ\B2H4O3S1\OHZDE\08-Apr-2025\0\\#t hf
 aug-cc-pvdz iop(5/13=1,5/36=2,99/5=2) pseudo=read geom=check guess=(re
 ad,tcheck) scf=(maxcycle=1)\\title\\0,1\B,0,3.2912,-0.014123,-0.217252
 \B,0,1.752971,0.047247,0.42468\S,0,-0.910461,-0.135769,0.388717\O,0,0.
 652798,-0.232035,-0.342112\O,0,-1.275877,1.370572,-0.152295\O,0,-1.696
 729,-1.089017,-0.364089\H,0,-1.450846,1.328388,-1.108565\H,0,3.951828,
 -1.008653,-0.179068\H,0,3.816148,0.952887,-0.68333\H,0,1.587849,0.3379
 04,1.582319\\Version=ES64L-G16RevC.01\State=1-A\HF=-674.1153726\RMSD=1

 Normal termination of Gaussian 16 at Tue Apr  8 23:20:00 2025.
