 Gaussian 16, Revision C.01,

 ----------------------------------------------------------------------
 #t hf aug-cc-pvdz symm=none int=(grid=ultrafine) guess=(read,tcheck) s
 table=opt
 ----------------------------------------------------------------------
 -----
 title
 -----
 Symbolic Z-matrix:
 Charge =  0 Multiplicity = 2

 SCF Done:  E(UHF) =  -710.401002155     A.U. after   54 cycles

 1\1\GINC-SE226\Stability\UHF\Aug-CC-pVDZ\C8H17S1\OHZDE\08-Apr-2025\0\\
 #t hf aug-cc-pvdz symm=none int=(grid=ultrafine) guess=(read,tcheck) s
 table=opt\\title\\0,2\C,0,-5.105129,0.453449,0.133683\C,0,-3.880928,-0
 .345067,-0.323209\H,0,-6.030321,0.032194,-0.26896\H,0,-5.043416,1.4951
 16,-0.196444\H,0,-5.189749,0.457935,1.224927\C,0,-2.558622,0.210462,0.
 218005\H,0,-3.843409,-0.360435,-1.419175\H,0,-3.988612,-1.390256,-0.00
 859\C,0,-1.327873,-0.582948,-0.234893\H,0,-2.596351,0.226364,1.315038\
 H,0,-2.450925,1.256366,-0.096887\C,0,-0.007127,-0.02474,0.306134\H,0,-

 Normal termination of Gaussian 16 at Tue Apr  8 23:22:12 2025.
 Gaussian 16:  ES64L-G16RevC.01  3-Jul-2019

 ----------------------------------------------------------------------
 #t hf aug-cc-pvdz iop(5/13=1,5/36=2,99/5=2) pseudo=read geom=check gue
 ss=(read,tcheck) scf=(maxcycle=1)
 ----------------------------------------------------------------------
 -----
 title
 -----
 Structure from the checkpoint file:  "BDE49_expt_832_mol2.chk"
 Charge =  0 Multiplicity = 2

                         Standard orientation:
 ---------------------------------------------------------------------
 Center     Atomic      Atomic             Coordinates (Angstroms)
 Number     Number       Type             X           Y           Z
 ---------------------------------------------------------------------
      1          6           0       -5.105129    0.453449    0.133683
      2          6           0       -3.880928   -0.345067   -0.323209
      3          1           0       -6.030321    0.032194   -0.268960
      4          1           0       -5.043416    1.495116   -0.196444
      5          1           0       -5.189749    0.457935    1.224927
      6          6           0       -2.558622    0.210462    0.218005
      7          1           0       -3.843409   -0.360435   -1.419175
      8          1           0       -3.988612   -1.390256   -0.008590
      9          6           0       -1.327873   -0.582948   -0.234893
     10          1           0       -2.596351    0.226364    1.315038
     11          1           0       -2.450925    1.256366   -0.096887
     12          6           0       -0.007127   -0.024740    0.306134
     13          1           0       -1.290347   -0.597968   -1.331518
     14          1           0       -1.436065   -1.629017    0.080167
     15          6           0        1.219346   -0.822455   -0.147365
     16          1           0       -0.042193   -0.006398    1.403286
     17          1           0        0.103847    1.017870   -0.016842
     18          6           0        2.551293   -0.293819    0.397910
     19          1           0        1.267776   -0.838673   -1.242104
     20          1           0        1.112654   -1.865184    0.181482
     21          6           0        3.738136   -1.195149    0.005437
     22          1           0        2.509271   -0.243188    1.491073
     23         16           0        2.941319    1.396138   -0.186261
     24          1           0        3.558755   -2.206909    0.381743
     25          1           0        4.676581   -0.833366    0.429339
     26          1           0        3.846829   -1.251061   -1.080570
 ---------------------------------------------------------------------

 SCF Done:  E(UHF) =  -710.804858099     A.U. after    2 cycles

 The electronic state is 2-A.
 Alpha  occ. eigenvalues --  -93.95753 -11.27585 -11.24203 -11.23618 -11.22912
 Alpha  occ. eigenvalues --  -11.22680 -11.22617 -11.22458 -11.22175  -8.23790
 Alpha  occ. eigenvalues --   -6.22977  -6.21198  -6.20901  -1.12329  -1.08319
 Alpha  occ. eigenvalues --   -1.03172  -0.96773  -0.95778  -0.88654  -0.81626
 Alpha  occ. eigenvalues --   -0.79244  -0.77805  -0.66542  -0.64006  -0.61624
 Alpha  occ. eigenvalues --   -0.60713  -0.59542  -0.58499  -0.56338  -0.55335
 Alpha  occ. eigenvalues --   -0.52219  -0.52166  -0.51189  -0.49224  -0.48029
 Alpha  occ. eigenvalues --   -0.47100  -0.46707  -0.45882  -0.45306  -0.42568
 Alpha  occ. eigenvalues --   -0.37188
 Alpha virt. eigenvalues --    0.03167   0.03256   0.03527   0.04173   0.04667
 Alpha virt. eigenvalues --    0.04954   0.05408   0.06418   0.06907   0.07421
 Alpha virt. eigenvalues --    0.07570   0.08591   0.09382   0.10293   0.10471

  Beta  occ. eigenvalues --  -93.94856 -11.27723 -11.24072 -11.23598 -11.22898
  Beta  occ. eigenvalues --  -11.22681 -11.22618 -11.22457 -11.22175  -8.22759
  Beta  occ. eigenvalues --   -6.20657  -6.20357  -6.19002  -1.11363  -1.07893
  Beta  occ. eigenvalues --   -1.02661  -0.96002  -0.91019  -0.87913  -0.81310
  Beta  occ. eigenvalues --   -0.79203  -0.76243  -0.66341  -0.63711  -0.61494
  Beta  occ. eigenvalues --   -0.59563  -0.59400  -0.58371  -0.56140  -0.55060
  Beta  occ. eigenvalues --   -0.52126  -0.51788  -0.50934  -0.49065  -0.47920
  Beta  occ. eigenvalues --   -0.47037  -0.46676  -0.45124  -0.44691  -0.35004
  Beta virt. eigenvalues --    0.01147   0.03196   0.03507   0.03539   0.04284
  Beta virt. eigenvalues --    0.04783   0.05076   0.05437   0.06441   0.06985
  Beta virt. eigenvalues --    0.07429   0.07664   0.08635   0.09421   0.10320

 Mulliken charges and spin densities:
               1          2
     1  C   -0.398638  -0.000092
     2  C   -0.188903   0.000398
     3  H    0.113264   0.000007
     4  H    0.161101   0.000007
     5  H    0.161391   0.000007
     6  C   -0.267762  -0.017056
     7  H    0.116548   0.000097
     8  H    0.117363  -0.000023
     9  C   -0.282291   0.017335
    10  H    0.108144  -0.001063
    11  H    0.108932  -0.001521
    12  C   -0.244770   0.007987
    13  H    0.116088  -0.001476
    14  H    0.113017   0.000965
    15  C   -0.431390  -0.008620
    16  H    0.116295   0.001232
    17  H    0.141275   0.001470
    18  C   -0.368890  -0.203307
    19  H    0.122564  -0.004947
    20  H    0.150116  -0.000003
    21  C   -0.236071   0.068589
    22  H    0.117894   0.001227
    23  S    0.152697   1.132566
    24  H    0.172957   0.008760
    25  H    0.135862  -0.006491
    26  H    0.193207   0.003951
 Sum of Mulliken charges =  -0.00000   1.00000

 Dipole moment (field-independent basis, Debye):
    X=             -0.5586    Y=             -1.8580    Z=              0.4984  Tot=              2.0031
                          Isotropic Fermi Contact Couplings
        Atom                 a.u.       MegaHertz       Gauss      10(-4) cm-1
     1  C(13)             -0.00000      -0.00365      -0.00130      -0.00122
     2  C(13)             -0.00003      -0.02953      -0.01054      -0.00985
     3  H(1)              -0.00000      -0.00047      -0.00017      -0.00016
     4  H(1)               0.00000       0.00167       0.00059       0.00056
     5  H(1)               0.00000       0.00040       0.00014       0.00014
     6  C(13)              0.00009       0.09949       0.03550       0.03319
     7  H(1)               0.00000       0.00430       0.00153       0.00143
     8  H(1)               0.00000       0.00392       0.00140       0.00131

 Normal termination of Gaussian 16 at Tue Apr  8 23:22:30 2025.
