 Gaussian 16, Revision C.01,

 ----------------------------------------------------------------------
 #t hf aug-cc-pvdz symm=none int=(grid=ultrafine) guess=(read,tcheck) s
 table=(opt,rrhf)
 ----------------------------------------------------------------------
 -----
 title
 -----
 Symbolic Z-matrix:
 Charge =  0 Multiplicity = 1

 SCF Done:  E(RHF) =  -675.433661620     A.U. after   11 cycles
 Normal termination of Gaussian 16 at Wed Apr  9 00:11:11 2025.
 Gaussian 16:  ES64L-G16RevC.01  3-Jul-2019

 ----------------------------------------------------------------------
 #t hf aug-cc-pvdz iop(5/13=1,5/36=2,99/5=2) pseudo=read geom=check gue
 ss=(read,tcheck) scf=(maxcycle=1)
 ----------------------------------------------------------------------
 -----
 title
 -----
 Structure from the checkpoint file:  "BDE49_nonexpt_2375_mol1.chk"
 Charge =  0 Multiplicity = 1

                         Standard orientation:
 ---------------------------------------------------------------------
 Center     Atomic      Atomic             Coordinates (Angstroms)
 Number     Number       Type             X           Y           Z
 ---------------------------------------------------------------------
      1         14           0       -2.067116   -0.302697    0.042565
      2         14           0        0.059819    0.712089   -0.041320
      3          1           0       -2.224947   -1.276613   -1.068604
      4          1           0       -3.129815    0.724446   -0.092102
      5          1           0       -2.269499   -1.027227    1.320767
      6          7           0        1.264826   -0.524471   -0.082601
      7          1           0        0.298674    1.529020    1.175899
      8          1           0        0.084857    1.667268   -1.190426
      9          6           0        2.696003   -0.281043    0.093948
     10          1           0        1.070445   -1.350686   -0.630588
     11          1           0        2.841623    0.507494    0.836815
     12          1           0        3.206905    0.030875   -0.827583
     13          1           0        3.194113   -1.178516    0.472914
 ---------------------------------------------------------------------

 SCF Done:  E(RHF) =  -675.607546783     A.U. after    2 cycles

 The electronic state is 1-A.
 Alpha  occ. eigenvalues --  -69.53620 -69.52113 -15.47889 -11.26453  -6.20491
 Alpha  occ. eigenvalues --   -6.19339  -3.95872  -3.95848  -3.95787  -3.94694
 Alpha  occ. eigenvalues --   -3.94689  -3.94673  -1.17055  -0.91726  -0.77482
 Alpha  occ. eigenvalues --   -0.72161  -0.65188  -0.60616  -0.59195  -0.52784
 Alpha  occ. eigenvalues --   -0.50347  -0.48582  -0.47529  -0.42113  -0.39324
 Alpha virt. eigenvalues --    0.03589   0.04109   0.04781   0.05389   0.05775
 Alpha virt. eigenvalues --    0.06470   0.06722   0.07065   0.08063   0.08989
 Alpha virt. eigenvalues --    0.09704   0.09923   0.10543   0.11167   0.12129

 Mulliken charges:
               1
     1  Si   0.274528
     2  Si   0.519598
     3  H   -0.128201
     4  H   -0.140019
     5  H   -0.113208
     6  N    0.091688
     7  H   -0.124444
     8  H   -0.148920
     9  C   -0.491095
    10  H    0.018154
    11  H    0.046051
    12  H    0.130373
    13  H    0.065494
 Sum of Mulliken charges =   0.00000

 Dipole moment (field-independent basis, Debye):
    X=              0.9735    Y=             -0.4295    Z=             -0.4771  Tot=              1.1661

 Test job not archived.
 1\1\GINC-SE097\SP\RHF\Aug-CC-pVDZ\C1H9N1Si2\OHZDE\09-Apr-2025\0\\#t hf
  aug-cc-pvdz iop(5/13=1,5/36=2,99/5=2) pseudo=read geom=check guess=(r
 ead,tcheck) scf=(maxcycle=1)\\title\\0,1\Si,0,-2.067116,-0.302697,0.04
 2565\Si,0,0.059819,0.712089,-0.04132\H,0,-2.224947,-1.276613,-1.068604
 \H,0,-3.129815,0.724446,-0.092102\H,0,-2.269499,-1.027227,1.320767\N,0
 ,1.264826,-0.524471,-0.082601\H,0,0.298674,1.52902,1.175899\H,0,0.0848
 57,1.667268,-1.190426\C,0,2.696003,-0.281043,0.093948\H,0,1.070445,-1.
 350686,-0.630588\H,0,2.841623,0.507494,0.836815\H,0,3.206905,0.030875,

 Normal termination of Gaussian 16 at Wed Apr  9 00:11:15 2025.
