 Gaussian 16, Revision C.01,

 ----------------------------------------------------------------------
 #t hf aug-cc-pvdz symm=none int=(grid=ultrafine) guess=(read,tcheck) s
 table=(opt,rrhf)
 ----------------------------------------------------------------------
 -----
 title
 -----
 Symbolic Z-matrix:
 Charge =  0 Multiplicity = 1

 SCF Done:  E(RHF) =  -613.289484431     A.U. after   16 cycles
 Normal termination of Gaussian 16 at Wed Apr  9 00:42:33 2025.
 Gaussian 16:  ES64L-G16RevC.01  3-Jul-2019

 ----------------------------------------------------------------------
 #t hf aug-cc-pvdz iop(5/13=1,5/36=2,99/5=2) pseudo=read geom=check gue
 ss=(read,tcheck) scf=(maxcycle=1)
 ----------------------------------------------------------------------
 -----
 title
 -----
 Structure from the checkpoint file:  "BDE49_nonexpt_700_mol1.chk"
 Charge =  0 Multiplicity = 1

                         Standard orientation:
 ---------------------------------------------------------------------
 Center     Atomic      Atomic             Coordinates (Angstroms)
 Number     Number       Type             X           Y           Z
 ---------------------------------------------------------------------
      1          6           0       -0.468909    1.142036   -0.273397
      2          6           0       -1.842668    1.239359   -0.090931
      3          6           0       -2.565881    0.079146    0.177500
      4          7           0       -2.001837   -1.127743    0.274586
      5          6           0       -0.680655   -1.209279    0.110994
      6          6           0        0.145527   -0.109717   -0.160448
      7          1           0       -2.347366    2.195427   -0.164626
      8          1           0       -3.642236    0.117816    0.317762
      9          1           0        0.117009    2.026678   -0.498769
     10          5           0        2.948173    0.629763    0.809861
     11          1           0       -0.253589   -2.204339    0.204919
     12         15           0        1.940141   -0.299573   -0.429845
     13          1           0        4.048609    0.241675    1.037468
     14          1           0        2.570594    1.684125    1.207991
     15          1           0        2.152381   -1.671670   -0.210789
 ---------------------------------------------------------------------

 SCF Done:  E(RHF) =  -613.611691466     A.U. after    2 cycles

 The electronic state is 1-A.
 Alpha  occ. eigenvalues --  -84.27138 -15.51220 -11.28927 -11.28606 -11.27440
 Alpha  occ. eigenvalues --  -11.26812 -11.25664  -7.61570  -6.74697  -4.27783
 Alpha  occ. eigenvalues --   -4.27428  -4.26459  -1.26579  -1.10383  -1.05111
 Alpha  occ. eigenvalues --   -0.91767  -0.88006  -0.84167  -0.73657  -0.70261
 Alpha  occ. eigenvalues --   -0.68757  -0.64372  -0.60170  -0.58740  -0.57153
 Alpha  occ. eigenvalues --   -0.53453  -0.49455  -0.48112  -0.45066  -0.42235
 Alpha  occ. eigenvalues --   -0.38368  -0.30859
 Alpha virt. eigenvalues --    0.03083   0.03403   0.03707   0.04121   0.04964
 Alpha virt. eigenvalues --    0.05381   0.05929   0.06940   0.07569   0.08123
 Alpha virt. eigenvalues --    0.09123   0.09416   0.10735   0.10796   0.11456

 Mulliken charges:
               1
     1  C    0.284345
     2  C    0.581564
     3  C   -0.795732
     4  N    0.940891
     5  C   -0.733423
     6  C    0.142021
     7  H   -0.184112
     8  H   -0.164247
     9  H   -0.222440
    10  B   -0.357640
    11  H   -0.210059
    12  P   -0.171076
    13  H    0.306750
    14  H    0.332191
    15  H    0.250968
 Sum of Mulliken charges =   0.00000

 Dipole moment (field-independent basis, Debye):
    X=              0.6217    Y=              1.7125    Z=             -0.2030  Tot=              1.8331

 Test job not archived.
 1\1\GINC-SE460\SP\RHF\Aug-CC-pVDZ\C5H7B1N1P1\OHZDE\09-Apr-2025\0\\#t h
 f aug-cc-pvdz iop(5/13=1,5/36=2,99/5=2) pseudo=read geom=check guess=(
 read,tcheck) scf=(maxcycle=1)\\title\\0,1\C,0,-0.468909,1.142036,-0.27
 3397\C,0,-1.842668,1.239359,-0.090931\C,0,-2.565881,0.079146,0.1775\N,
 0,-2.001837,-1.127743,0.274586\C,0,-0.680655,-1.209279,0.110994\C,0,0.
 145527,-0.109717,-0.160448\H,0,-2.347366,2.195427,-0.164626\H,0,-3.642
 236,0.117816,0.317762\H,0,0.117009,2.026678,-0.498769\B,0,2.948173,0.6
 29763,0.809861\H,0,-0.253589,-2.204339,0.204919\P,0,1.940141,-0.299573

 Normal termination of Gaussian 16 at Wed Apr  9 00:42:39 2025.
