 Gaussian 16, Revision C.01,

 ----------------------------------------------------------------------
 #t hf aug-cc-pvdz symm=none int=(grid=ultrafine) guess=(read,tcheck) s
 table=(opt,rrhf)
 ----------------------------------------------------------------------
 -----
 title
 -----
 Symbolic Z-matrix:
 Charge =  0 Multiplicity = 1

 SCF Done:  E(RHF) =  -940.833077443     A.U. after   16 cycles
 Normal termination of Gaussian 16 at Wed Apr  9 00:01:37 2025.
 Gaussian 16:  ES64L-G16RevC.01  3-Jul-2019

 ----------------------------------------------------------------------
 #t hf aug-cc-pvdz iop(5/13=1,5/36=2,99/5=2) pseudo=read geom=check gue
 ss=(read,tcheck) scf=(maxcycle=1)
 ----------------------------------------------------------------------
 -----
 title
 -----
 Structure from the checkpoint file:  "BDE49_nonexpt_2118_mol1.chk"
 Charge =  0 Multiplicity = 1

                         Standard orientation:
 ---------------------------------------------------------------------
 Center     Atomic      Atomic             Coordinates (Angstroms)
 Number     Number       Type             X           Y           Z
 ---------------------------------------------------------------------
      1         14           0        0.000012   -0.000046    0.453834
      2          7           0        1.535427   -0.713152   -0.281448
      3          7           0       -1.385474   -0.973219   -0.281047
      4          7           0       -0.150168    1.686347   -0.281162
      5          6           0        0.000499   -0.000082    2.282217
      6          8           0       -0.911276    1.959769   -1.188580
      7          8           0       -1.241863   -1.769078   -1.188481
      8          8           0        1.804573   -1.783648    0.268447
      9          8           0       -2.447053   -0.670531    0.268686
     10          8           0        2.152498   -0.190808   -1.189098
     11          8           0        0.642670    2.454488    0.268522
     12          1           0        0.052432   -1.027459    2.647534
     13          1           0       -0.914970    0.468773    2.647909
     14          1           0        0.864488    0.558447    2.647208
 ---------------------------------------------------------------------

 SCF Done:  E(RHF) =  -941.481804481     A.U. after    2 cycles

 The electronic state is 1-A.
 Alpha  occ. eigenvalues --  -69.72587 -20.64594 -20.64592 -20.64591 -20.63896
 Alpha  occ. eigenvalues --  -20.63896 -20.63895 -15.81165 -15.81165 -15.81136
 Alpha  occ. eigenvalues --  -11.30832  -6.38890  -4.14178  -4.14178  -4.14012
 Alpha  occ. eigenvalues --   -1.70974  -1.70685  -1.70685  -1.55244  -1.55244
 Alpha  occ. eigenvalues --   -1.55139  -1.11402  -1.03170  -1.02717  -1.02717
 Alpha  occ. eigenvalues --   -0.87690  -0.84628  -0.84627  -0.78930  -0.78744
 Alpha  occ. eigenvalues --   -0.78744  -0.77476  -0.77475  -0.77372  -0.64983
 Alpha  occ. eigenvalues --   -0.64983  -0.63405  -0.54620  -0.54619  -0.54498
 Alpha  occ. eigenvalues --   -0.52696  -0.50814  -0.50813  -0.49690  -0.48673
 Alpha  occ. eigenvalues --   -0.48672
 Alpha virt. eigenvalues --    0.00190   0.00191   0.00265   0.02322   0.04405
 Alpha virt. eigenvalues --    0.04406   0.07255   0.08044   0.08045   0.08353
 Alpha virt. eigenvalues --    0.11376   0.11890   0.11891   0.13065   0.13065

 Mulliken charges:
               1
     1  Si   1.637646
     2  N    1.932072
     3  N    1.932057
     4  N    1.932145
     5  C   -0.553424
     6  O   -1.174582
     7  O   -1.174524
     8  O   -1.247485
     9  O   -1.247507
    10  O   -1.174530
    11  O   -1.247508
    12  H    0.128580
    13  H    0.128487
    14  H    0.128571
 Sum of Mulliken charges =  -0.00000

 Dipole moment (field-independent basis, Debye):
    X=              0.0005    Y=             -0.0004    Z=              4.6950  Tot=              4.6950

 Test job not archived.
 1\1\GINC-SE364\SP\RHF\Aug-CC-pVDZ\C1H3N3O6Si1\OHZDE\09-Apr-2025\0\\#t
 hf aug-cc-pvdz iop(5/13=1,5/36=2,99/5=2) pseudo=read geom=check guess=
 (read,tcheck) scf=(maxcycle=1)\\title\\0,1\Si,0,-0.000012,0.000046,0.4
 53834\N,0,-1.534682,0.714754,-0.281448\N,0,1.386489,0.971772,-0.281047
 \N,0,0.148408,-1.686503,-0.281162\C,0,-0.000499,0.000083,2.282217\O,0,
 0.90923,-1.960719,-1.18858\O,0,1.243709,1.767781,-1.188481\O,0,-1.8027
 1,1.78553,0.268447\O,0,2.447751,0.667977,0.268686\O,0,-2.152298,0.1930
 54,-1.189098\O,0,-0.645231,-2.453816,0.268522\H,0,-0.05136,1.027513,2.

 Normal termination of Gaussian 16 at Wed Apr  9 00:01:45 2025.
