 Gaussian 16, Revision C.01,

 ----------------------------------------------------------------------
 #t hf aug-cc-pvdz symm=none int=(grid=ultrafine) guess=(read,tcheck) s
 table=(opt,rrhf)
 ----------------------------------------------------------------------
 -----
 title
 -----
 Symbolic Z-matrix:
 Charge =  0 Multiplicity = 1

 SCF Done:  E(RHF) =  -583.524837307     A.U. after   12 cycles
 Normal termination of Gaussian 16 at Wed Apr  9 00:45:28 2025.
 Gaussian 16:  ES64L-G16RevC.01  3-Jul-2019

 ----------------------------------------------------------------------
 #t hf aug-cc-pvdz iop(5/13=1,5/36=2,99/5=2) pseudo=read geom=check gue
 ss=(read,tcheck) scf=(maxcycle=1)
 ----------------------------------------------------------------------
 -----
 title
 -----
 Structure from the checkpoint file:  "BDE49_nonexpt_779_mol1.chk"
 Charge =  0 Multiplicity = 1

                         Standard orientation:
 ---------------------------------------------------------------------
 Center     Atomic      Atomic             Coordinates (Angstroms)
 Number     Number       Type             X           Y           Z
 ---------------------------------------------------------------------
      1         14           0        0.651366   -0.005857   -0.000019
      2          5           0       -1.390568    0.000481   -0.000082
      3          8           0       -2.034778   -1.202867    0.000062
      4          8           0       -2.177855    1.127407    0.000016
      5          6           0        1.291406   -0.895881   -1.539497
      6          1           0        0.975882   -0.388738   -2.456270
      7          1           0        0.908102   -1.919434   -1.580110
      8          6           0        1.291340   -0.895853    1.539506
      9          1           0        2.385062   -0.944743    1.544195
     10          1           0        0.908035   -1.919407    1.580120
     11          1           0        0.975771   -0.388693    2.456254
     12          6           0        1.303923    1.774560   -0.000024
     13          1           0        0.973288    2.327834   -0.885665
     14          1           0        2.398425    1.791533    0.000003
     15          1           0        0.973242    2.327853    0.885589
     16          1           0        2.385128   -0.944770   -1.544129
     17          1           0       -2.995742   -1.099108    0.000105
     18          1           0       -1.672427    1.943991    0.000042
 ---------------------------------------------------------------------

 SCF Done:  E(RHF) =  -583.867671282     A.U. after    2 cycles

 The electronic state is 1-A.
 Alpha  occ. eigenvalues --  -69.49911 -20.56024 -20.55174 -11.21278 -11.20632
 Alpha  occ. eigenvalues --  -11.20627  -7.62953  -6.17067  -3.92406  -3.92396
 Alpha  occ. eigenvalues --   -3.92369  -1.47911  -1.43412  -0.97312  -0.92683
 Alpha  occ. eigenvalues --   -0.92221  -0.77146  -0.73136  -0.65820  -0.60033
 Alpha  occ. eigenvalues --   -0.57122  -0.56796  -0.56313  -0.56240  -0.55419
 Alpha  occ. eigenvalues --   -0.54441  -0.54152  -0.53442  -0.48820  -0.43813
 Alpha  occ. eigenvalues --   -0.43568  -0.39859
 Alpha virt. eigenvalues --    0.03104   0.03538   0.03767   0.03915   0.06039
 Alpha virt. eigenvalues --    0.06306   0.06543   0.06699   0.06826   0.08939
 Alpha virt. eigenvalues --    0.09256   0.09378   0.09694   0.11103   0.11499

 Mulliken charges:
               1
     1  Si   2.159178
     2  B    1.714311
     3  O   -1.307419
     4  O   -1.504406
     5  C   -0.584499
     6  H   -0.069913
     7  H   -0.029465
     8  C   -0.584518
     9  H   -0.015217
    10  H   -0.029464
    11  H   -0.069914
    12  C   -0.635454
    13  H   -0.053299
    14  H   -0.040816
    15  H   -0.053317
    16  H   -0.015210
    17  H    0.544373
    18  H    0.575048
 Sum of Mulliken charges =  -0.00000

 Dipole moment (field-independent basis, Debye):
    X=              0.1946    Y=              1.2634    Z=             -0.0000  Tot=              1.2783

 Test job not archived.
 1\1\GINC-SE332\SP\RHF\Aug-CC-pVDZ\C3H11B1O2Si1\OHZDE\09-Apr-2025\0\\#t
  hf aug-cc-pvdz iop(5/13=1,5/36=2,99/5=2) pseudo=read geom=check guess
 =(read,tcheck) scf=(maxcycle=1)\\title\\0,1\Si,0,0.651366,-0.005857,-0
 .000019\B,0,-1.390568,0.000481,-0.000082\O,0,-2.034778,-1.202867,0.000
 062\O,0,-2.177855,1.127407,0.000016\C,0,1.291406,-0.895881,-1.539497\H
 ,0,0.975882,-0.388738,-2.45627\H,0,0.908102,-1.919434,-1.58011\C,0,1.2
 9134,-0.895853,1.539506\H,0,2.385062,-0.944743,1.544195\H,0,0.908035,-
 1.919407,1.58012\H,0,0.975771,-0.388693,2.456254\C,0,1.303923,1.77456,

 Normal termination of Gaussian 16 at Wed Apr  9 00:45:34 2025.
