 Gaussian 16, Revision C.01,

 ----------------------------------------------------------------------
 #t hf aug-cc-pvdz symm=none int=(grid=ultrafine) guess=(read,tcheck) s
 table=(opt,rrhf)
 ----------------------------------------------------------------------
 -----
 title
 -----
 Symbolic Z-matrix:
 Charge =  0 Multiplicity = 1

 SCF Done:  E(RHF) =  -705.591344782     A.U. after   14 cycles
 Normal termination of Gaussian 16 at Tue Apr  8 23:51:51 2025.
 Gaussian 16:  ES64L-G16RevC.01  3-Jul-2019

 ----------------------------------------------------------------------
 #t hf aug-cc-pvdz iop(5/13=1,5/36=2,99/5=2) pseudo=read geom=check gue
 ss=(read,tcheck) scf=(maxcycle=1)
 ----------------------------------------------------------------------
 -----
 title
 -----
 Structure from the checkpoint file:  "BDE49_nonexpt_1888_mol1.chk"
 Charge =  0 Multiplicity = 1

                         Standard orientation:
 ---------------------------------------------------------------------
 Center     Atomic      Atomic             Coordinates (Angstroms)
 Number     Number       Type             X           Y           Z
 ---------------------------------------------------------------------
      1          6           0        0.496089    0.920762   -0.470282
      2         14           0       -0.142960   -0.829299   -0.048841
      3          8           0        1.932596    1.164968   -0.304590
      4          6           0        2.632843    0.167212    0.194164
      5          8           0        2.177452   -0.915505    0.497973
      6          1           0        3.688571    0.436619    0.300648
      7          8           0       -1.796913   -0.698541   -0.568071
      8          1           0       -0.240895   -1.163229    1.376754
      9          1           0        0.279641   -1.904440   -0.951692
     10          6           0       -2.683342    0.128007   -0.014302
     11          8           0       -2.433981    0.972659    0.808296
     12          1           0       -3.693149   -0.054317   -0.411764
     13          1           0       -0.015414    1.651743    0.156223
     14          1           0        0.275915    1.159277   -1.512732
 ---------------------------------------------------------------------

 SCF Done:  E(RHF) =  -706.029967195     A.U. after    2 cycles

 The electronic state is 1-A.
 Alpha  occ. eigenvalues --  -69.57421 -20.62389 -20.57672 -20.57066 -20.54162
 Alpha  occ. eigenvalues --  -11.42476 -11.39503 -11.29942  -6.23721  -3.99204
 Alpha  occ. eigenvalues --   -3.99038  -3.99011  -1.58040  -1.52916  -1.48638
 Alpha  occ. eigenvalues --   -1.44336  -1.00759  -0.88726  -0.84110  -0.77985
 Alpha  occ. eigenvalues --   -0.74091  -0.72471  -0.69421  -0.69209  -0.64391
 Alpha  occ. eigenvalues --   -0.61257  -0.59424  -0.58604  -0.54211  -0.51196
 Alpha  occ. eigenvalues --   -0.49259  -0.48467  -0.46465  -0.45370  -0.44646
 Alpha virt. eigenvalues --    0.03133   0.03750   0.04723   0.05146   0.05828
 Alpha virt. eigenvalues --    0.07667   0.07986   0.08488   0.09000   0.10137
 Alpha virt. eigenvalues --    0.11150   0.11350   0.12747   0.14185   0.14771

 Mulliken charges:
               1
     1  C    0.095334
     2  Si   1.454513
     3  O   -1.149425
     4  C    1.417203
     5  O   -0.952446
     6  H    0.092866
     7  O   -1.411158
     8  H   -0.117184
     9  H   -0.110763
    10  C    1.382585
    11  O   -0.945738
    12  H    0.079525
    13  H    0.087567
    14  H    0.077120
 Sum of Mulliken charges =  -0.00000

 Dipole moment (field-independent basis, Debye):
    X=              1.8279    Y=              0.4113    Z=             -1.5717  Tot=              2.4456

 Test job not archived.
 1\1\GINC-SE058\SP\RHF\Aug-CC-pVDZ\C3H6O4Si1\OHZDE\08-Apr-2025\0\\#t hf
  aug-cc-pvdz iop(5/13=1,5/36=2,99/5=2) pseudo=read geom=check guess=(r
 ead,tcheck) scf=(maxcycle=1)\\title\\0,1\C,0,0.496089,0.920762,-0.4702
 82\Si,0,-0.14296,-0.829299,-0.048841\O,0,1.932596,1.164968,-0.30459\C,
 0,2.632843,0.167212,0.194164\O,0,2.177452,-0.915505,0.497973\H,0,3.688
 571,0.436619,0.300648\O,0,-1.796913,-0.698541,-0.568071\H,0,-0.240895,
 -1.163229,1.376754\H,0,0.279641,-1.90444,-0.951692\C,0,-2.683342,0.128
 007,-0.014302\O,0,-2.433981,0.972659,0.808296\H,0,-3.693149,-0.054317,

 Normal termination of Gaussian 16 at Tue Apr  8 23:51:57 2025.
