 Gaussian 16, Revision C.01,

 ----------------------------------------------------------------------
 #t hf aug-cc-pvdz symm=none int=(grid=ultrafine) guess=(read,tcheck) s
 table=(opt,rrhf)
 ----------------------------------------------------------------------
 -----
 title
 -----
 Symbolic Z-matrix:
 Charge =  0 Multiplicity = 1

 SCF Done:  E(RHF) =  -1359.06671530     A.U. after   11 cycles
 Normal termination of Gaussian 16 at Tue Apr  8 23:46:15 2025.
 Gaussian 16:  ES64L-G16RevC.01  3-Jul-2019

 ----------------------------------------------------------------------
 #t hf aug-cc-pvdz iop(5/13=1,5/36=2,99/5=2) pseudo=read geom=check gue
 ss=(read,tcheck) scf=(maxcycle=1)
 ----------------------------------------------------------------------
 -----
 title
 -----
 Structure from the checkpoint file:  "BDE49_nonexpt_1780_mol1.chk"
 Charge =  0 Multiplicity = 1

                         Standard orientation:
 ---------------------------------------------------------------------
 Center     Atomic      Atomic             Coordinates (Angstroms)
 Number     Number       Type             X           Y           Z
 ---------------------------------------------------------------------
      1         14           0        0.000000    0.345031    0.000000
      2         17           0        1.690510   -0.817843    0.009030
      3         17           0       -1.690510   -0.817843   -0.009031
      4          8           0       -0.082571    1.223885   -1.363927
      5          1           0        0.701695    1.697040   -1.655977
      6          8           0        0.082571    1.223884    1.363928
      7          1           0       -0.701695    1.697038    1.655979
 ---------------------------------------------------------------------

 SCF Done:  E(RHF) =  -1359.40096210     A.U. after    2 cycles

 The electronic state is 1-A.
 Alpha  occ. eigenvalues -- -105.57414-105.57413 -69.67779 -20.58215 -20.58212
 Alpha  occ. eigenvalues --  -10.62486 -10.62476  -7.79372  -7.79367  -7.79051
 Alpha  occ. eigenvalues --   -7.79047  -7.79042  -7.79037  -6.33315  -4.08796
 Alpha  occ. eigenvalues --   -4.08731  -4.08725  -1.48710  -1.46406  -1.08675
 Alpha  occ. eigenvalues --   -1.05793  -0.79915  -0.74866  -0.64043  -0.62153
 Alpha  occ. eigenvalues --   -0.61358  -0.54687  -0.54017  -0.53246  -0.50850
 Alpha  occ. eigenvalues --   -0.48705  -0.48513  -0.47514
 Alpha virt. eigenvalues --    0.03081   0.04623   0.05995   0.06238   0.07877
 Alpha virt. eigenvalues --    0.09719   0.12796   0.13388   0.14465   0.15228
 Alpha virt. eigenvalues --    0.17271   0.18578   0.18800   0.19536   0.19807

 Mulliken charges:
               1
     1  Si   2.944350
     2  Cl  -0.505891
     3  Cl  -0.505891
     4  O   -1.370338
     5  H    0.404054
     6  O   -1.370338
     7  H    0.404054
 Sum of Mulliken charges =  -0.00000

 Dipole moment (field-independent basis, Debye):
    X=             -0.0000    Y=              2.2439    Z=              0.0000  Tot=              2.2439

 Test job not archived.
 1\1\GINC-SE368\SP\RHF\Aug-CC-pVDZ\Cl2H2O2Si1\OHZDE\08-Apr-2025\0\\#t h
 f aug-cc-pvdz iop(5/13=1,5/36=2,99/5=2) pseudo=read geom=check guess=(
 read,tcheck) scf=(maxcycle=1)\\title\\0,1\Si,0,0.,0.345031,0.\Cl,0,1.6
 9051,-0.817843,0.00903\Cl,0,-1.69051,-0.817843,-0.009031\O,0,-0.082571
 ,1.223885,-1.363927\H,0,0.701695,1.69704,-1.655977\O,0,0.082571,1.2238
 84,1.363928\H,0,-0.701695,1.697038,1.655979\\Version=ES64L-G16RevC.01\
 State=1-A\HF=-1359.4009621\RMSD=5.037e-03\Dipole=0.,0.8828334,0.000000
 3\Quadrupole=-1.0336667,1.6988555,-0.6651888,0.0000024,-3.8634173,-0.0

 Normal termination of Gaussian 16 at Tue Apr  8 23:46:17 2025.
