 Gaussian 16, Revision C.01,

 ----------------------------------------------------------------------
 #t hf aug-cc-pvdz symm=none int=(grid=ultrafine) guess=(read,tcheck) s
 table=(opt,rrhf)
 ----------------------------------------------------------------------
 -----
 title
 -----
 Symbolic Z-matrix:
 Charge =  0 Multiplicity = 1

 SCF Done:  E(RHF) =  -1119.23124559     A.U. after   15 cycles
 Normal termination of Gaussian 16 at Tue Apr  8 23:34:30 2025.
 Gaussian 16:  ES64L-G16RevC.01  3-Jul-2019

 ----------------------------------------------------------------------
 #t hf aug-cc-pvdz iop(5/13=1,5/36=2,99/5=2) pseudo=read geom=check gue
 ss=(read,tcheck) scf=(maxcycle=1)
 ----------------------------------------------------------------------
 -----
 title
 -----
 Structure from the checkpoint file:  "BDE49_nonexpt_1443_mol1.chk"
 Charge =  0 Multiplicity = 1

                         Standard orientation:
 ---------------------------------------------------------------------
 Center     Atomic      Atomic             Coordinates (Angstroms)
 Number     Number       Type             X           Y           Z
 ---------------------------------------------------------------------
      1         16           0       -0.310872   -1.283920   -0.000000
      2          8           0       -0.868215   -1.718286    1.268829
      3         15           0        1.791492   -1.982754   -0.000000
      4          6           0       -0.294481    0.513735    0.000000
      5          6           0       -0.302038    1.192771    1.216865
      6          6           0       -0.302038    2.584945    1.209873
      7          6           0       -0.297787    3.278369    0.000000
      8          6           0       -0.302038    2.584945   -1.209873
      9          6           0       -0.302038    1.192771   -1.216865
     10          1           0       -0.314350    3.127137   -2.148118
     11          1           0       -0.328809    0.635384   -2.144596
     12          1           0       -0.328809    0.635384    2.144596
     13          1           0       -0.314350    3.127137    2.148118
     14          1           0       -0.299752    4.362338    0.000000
     15          8           0       -0.868215   -1.718286   -1.268829
     16          1           0        2.190802   -1.097995    1.033184
     17          1           0        2.190802   -1.097995   -1.033184
 ---------------------------------------------------------------------

 SCF Done:  E(RHF) =  -1119.72016022     A.U. after    2 cycles

 The electronic state is 1-A'.
 Alpha  occ. eigenvalues --  -94.19087 -84.32504 -20.53786 -20.53779 -11.29064
 Alpha  occ. eigenvalues --  -11.27815 -11.27811 -11.27521 -11.26957 -11.26944
 Alpha  occ. eigenvalues --   -8.44458  -6.79534  -6.42550  -6.42314  -6.42240
 Alpha  occ. eigenvalues --   -4.31699  -4.31667  -4.31159  -1.55257  -1.43714
 Alpha  occ. eigenvalues --   -1.18993  -1.07064  -1.04860  -0.97221  -0.88624
 Alpha  occ. eigenvalues --   -0.86783  -0.81475  -0.74873  -0.68936  -0.68088
 Alpha  occ. eigenvalues --   -0.65932  -0.65296  -0.63742  -0.63133  -0.55967
 Alpha  occ. eigenvalues --   -0.55107  -0.54547  -0.53657  -0.49435  -0.48454
 Alpha  occ. eigenvalues --   -0.46382  -0.43301  -0.39860  -0.37374  -0.36544
 Alpha virt. eigenvalues --    0.02656   0.03230   0.03361   0.04522   0.05212
 Alpha virt. eigenvalues --    0.05701   0.06879   0.07508   0.08203   0.08370
 Alpha virt. eigenvalues --    0.08913   0.10117   0.10705   0.12096   0.12801

 Mulliken charges:
               1
     1  S    3.786622
     2  O   -1.705796
     3  P   -0.405604
     4  C    0.576296
     5  C   -0.562405
     6  C    0.509501
     7  C   -0.067380
     8  C    0.509501
     9  C   -0.562405
    10  H   -0.212314
    11  H   -0.251758
    12  H   -0.251758
    13  H   -0.212314
    14  H   -0.202398
    15  O   -1.705796
    16  H    0.379004
    17  H    0.379004
 Sum of Mulliken charges =   0.00000

 Dipole moment (field-independent basis, Debye):
    X=              3.9681    Y=              4.2485    Z=              0.0000  Tot=              5.8134

 Test job not archived.
 1\1\GINC-SE173\SP\RHF\Aug-CC-pVDZ\C6H7O2P1S1\OHZDE\08-Apr-2025\0\\#t h
 f aug-cc-pvdz iop(5/13=1,5/36=2,99/5=2) pseudo=read geom=check guess=(
 read,tcheck) scf=(maxcycle=1)\\title\\0,1\S,0,0.310872,-1.28392,0.\O,0
 ,0.868215,-1.718286,-1.268829\P,0,-1.791492,-1.982754,0.\C,0,0.294481,
 0.513735,0.\C,0,0.302038,1.192771,-1.216865\C,0,0.302038,2.584945,-1.2
 09873\C,0,0.297787,3.278369,0.\C,0,0.302038,2.584945,1.209873\C,0,0.30
 2038,1.192771,1.216865\H,0,0.31435,3.127137,2.148118\H,0,0.328809,0.63
 5384,2.144596\H,0,0.328809,0.635384,-2.144596\H,0,0.31435,3.127137,-2.

 Normal termination of Gaussian 16 at Tue Apr  8 23:34:36 2025.
