 Gaussian 16, Revision C.01,

 ----------------------------------------------------------------------
 #t hf aug-cc-pvdz symm=none int=(grid=ultrafine) guess=(read,tcheck) s
 table=(opt,rrhf)
 ----------------------------------------------------------------------
 -----
 title
 -----
 Symbolic Z-matrix:
 Charge =  0 Multiplicity = 1

 SCF Done:  E(RHF) =  -593.880405312     A.U. after   12 cycles

 1\1\GINC-SE048\Stability\RHF\Aug-CC-pVDZ\C5H12S1\OHZDE\08-Apr-2025\0\\
 #t hf aug-cc-pvdz symm=none int=(grid=ultrafine) guess=(read,tcheck) s
 table=(opt,rrhf)\\title\\0,1\C,0,-0.423922,-1.019483,0.548441\C,0,0.87
 5837,-0.24162,0.781681\C,0,1.801063,-0.171099,-0.437222\H,0,1.408643,-
 0.725067,1.6115\H,0,0.643622,0.772768,1.126352\C,0,3.086033,0.616394,-
 0.167128\H,0,1.25881,0.280443,-1.273464\H,0,2.055822,-1.191073,-0.7509
 81\H,0,2.86435,1.651285,0.112144\H,0,3.728336,0.643384,-1.051367\H,0,3
 .663663,0.170827,0.649077\S,0,-1.610043,-0.273355,-0.635669\H,0,-0.954

 Normal termination of Gaussian 16 at Tue Apr  8 22:46:13 2025.
 Gaussian 16:  ES64L-G16RevC.01  3-Jul-2019

 ----------------------------------------------------------------------
 #t hf aug-cc-pvdz iop(5/13=1,5/36=2,99/5=2) pseudo=read geom=check gue
 ss=(read,tcheck) scf=(maxcycle=1)
 ----------------------------------------------------------------------
 -----
 title
 -----
 Structure from the checkpoint file:  "BDE49_expt_1567_mol1.chk"
 Charge =  0 Multiplicity = 1

                         Standard orientation:
 ---------------------------------------------------------------------
 Center     Atomic      Atomic             Coordinates (Angstroms)
 Number     Number       Type             X           Y           Z
 ---------------------------------------------------------------------
      1          6           0       -0.423922   -1.019483    0.548441
      2          6           0        0.875837   -0.241620    0.781681
      3          6           0        1.801063   -0.171099   -0.437222
      4          1           0        1.408643   -0.725067    1.611500
      5          1           0        0.643622    0.772768    1.126352
      6          6           0        3.086033    0.616394   -0.167128
      7          1           0        1.258810    0.280443   -1.273464
      8          1           0        2.055822   -1.191073   -0.750981
      9          1           0        2.864350    1.651285    0.112144
     10          1           0        3.728336    0.643384   -1.051367
     11          1           0        3.663663    0.170827    0.649077
     12         16           0       -1.610043   -0.273355   -0.635669
     13          1           0       -0.954664   -1.183463    1.490350
     14          1           0       -0.205829   -2.005757    0.128540
     15          6           0       -2.254223    1.111305    0.358401
     16          1           0       -1.478775    1.843455    0.587153
     17          1           0       -2.709509    0.748486    1.282151
     18          1           0       -3.022503    1.595417   -0.245794
 ---------------------------------------------------------------------

 SCF Done:  E(RHF) =  -594.163338823     A.U. after    2 cycles

 The electronic state is 1-A.
 Alpha  occ. eigenvalues --  -93.93427 -11.26324 -11.26063 -11.23416 -11.22558
 Alpha  occ. eigenvalues --  -11.22300  -8.21485  -6.19315  -6.19154  -6.18942
 Alpha  occ. eigenvalues --   -1.10174  -1.04749  -0.97815  -0.89674  -0.82950
 Alpha  occ. eigenvalues --   -0.77863  -0.64676  -0.62025  -0.60134  -0.59402
 Alpha  occ. eigenvalues --   -0.58219  -0.55376  -0.54095  -0.49404  -0.48922
 Alpha  occ. eigenvalues --   -0.48102  -0.47077  -0.42675  -0.34084
 Alpha virt. eigenvalues --    0.03477   0.03546   0.03895   0.04376   0.05734
 Alpha virt. eigenvalues --    0.05795   0.06585   0.06944   0.08139   0.08862
 Alpha virt. eigenvalues --    0.09423   0.09502   0.11975   0.12695   0.13305

 Mulliken charges:
               1
     1  C   -0.405063
     2  C   -0.292199
     3  C   -0.416589
     4  H    0.137512
     5  H    0.112355
     6  C   -0.382174
     7  H    0.176268
     8  H    0.117646
     9  H    0.159085
    10  H    0.116617
    11  H    0.169068
    12  S    0.414097
    13  H    0.142855
    14  H    0.174473
    15  C   -0.715578
    16  H    0.179079
    17  H    0.173790
    18  H    0.138759
 Sum of Mulliken charges =   0.00000

 Dipole moment (field-independent basis, Debye):
    X=              0.5599    Y=              0.5002    Z=              1.6059  Tot=              1.7727

 Test job not archived.
 1\1\GINC-SE048\SP\RHF\Aug-CC-pVDZ\C5H12S1\OHZDE\08-Apr-2025\0\\#t hf a
 ug-cc-pvdz iop(5/13=1,5/36=2,99/5=2) pseudo=read geom=check guess=(rea
 d,tcheck) scf=(maxcycle=1)\\title\\0,1\C,0,-0.423922,-1.019483,0.54844
 1\C,0,0.875837,-0.24162,0.781681\C,0,1.801063,-0.171099,-0.437222\H,0,
 1.408643,-0.725067,1.6115\H,0,0.643622,0.772768,1.126352\C,0,3.086033,
 0.616394,-0.167128\H,0,1.25881,0.280443,-1.273464\H,0,2.055822,-1.1910
 73,-0.750981\H,0,2.86435,1.651285,0.112144\H,0,3.728336,0.643384,-1.05
 1367\H,0,3.663663,0.170827,0.649077\S,0,-1.610043,-0.273355,-0.635669\

 Normal termination of Gaussian 16 at Tue Apr  8 22:46:20 2025.
