 Gaussian 16, Revision C.01,

 ----------------------------------------------------------------------
 #t hf aug-cc-pvdz symm=none int=(grid=ultrafine) guess=(read,tcheck) s
 table=(opt,rrhf)
 ----------------------------------------------------------------------
 -----
 title
 -----
 Symbolic Z-matrix:
 Charge =  0 Multiplicity = 1

 SCF Done:  E(RHF) =  -182.556591885     A.U. after   13 cycles

 1\1\GINC-SE102\Stability\RHF\Aug-CC-pVDZ\C4H11B1\OHZDE\09-Apr-2025\0\\
 #t hf aug-cc-pvdz symm=none int=(grid=ultrafine) guess=(read,tcheck) s
 table=(opt,rrhf)\\title\\0,1\B,0,-1.105794,1.439337,-0.301141\C,0,-0.6
 24048,0.12269,0.370621\H,0,-1.14885,0.302641,1.341023\C,0,0.88083,0.03
 9645,0.707134\C,0,1.785828,-0.082149,-0.524437\H,0,1.062084,-0.814522,
 1.371461\H,0,1.166336,0.934721,1.269558\H,0,1.576195,-0.990114,-1.0962
 28\H,0,2.8398,-0.114742,-0.235273\C,0,-1.198854,-1.188165,-0.197803\H,
 0,-2.284919,-1.129639,-0.302722\H,0,-0.966648,-2.041392,0.448131\H,0,-

 Normal termination of Gaussian 16 at Wed Apr  9 00:24:16 2025.
 Gaussian 16:  ES64L-G16RevC.01  3-Jul-2019

 ----------------------------------------------------------------------
 #t hf aug-cc-pvdz iop(5/13=1,5/36=2,99/5=2) pseudo=read geom=check gue
 ss=(read,tcheck) scf=(maxcycle=1)
 ----------------------------------------------------------------------
 -----
 title
 -----
 Structure from the checkpoint file:  "BDE49_nonexpt_269_mol1.chk"
 Charge =  0 Multiplicity = 1

                         Standard orientation:
 ---------------------------------------------------------------------
 Center     Atomic      Atomic             Coordinates (Angstroms)
 Number     Number       Type             X           Y           Z
 ---------------------------------------------------------------------
      1          5           0       -1.105794    1.439337   -0.301141
      2          6           0       -0.624048    0.122690    0.370621
      3          1           0       -1.148850    0.302641    1.341023
      4          6           0        0.880830    0.039645    0.707134
      5          6           0        1.785828   -0.082149   -0.524437
      6          1           0        1.062084   -0.814522    1.371461
      7          1           0        1.166336    0.934721    1.269558
      8          1           0        1.576195   -0.990114   -1.096228
      9          1           0        2.839800   -0.114742   -0.235273
     10          6           0       -1.198854   -1.188165   -0.197803
     11          1           0       -2.284919   -1.129639   -0.302722
     12          1           0       -0.966648   -2.041392    0.448131
     13          1           0       -0.790188   -1.407425   -1.187921
     14          1           0        1.654219    0.773084   -1.195832
     15          1           0       -0.487376    2.453560   -0.166289
     16          1           0       -2.154216    1.485022   -0.873291
 ---------------------------------------------------------------------

 SCF Done:  E(RHF) =  -182.763784565     A.U. after    2 cycles

 The electronic state is 1-A.
 Alpha  occ. eigenvalues --  -11.22804 -11.22340 -11.22251 -11.21485  -7.58777
 Alpha  occ. eigenvalues --   -1.07421  -0.98015  -0.88072  -0.79923  -0.67311
 Alpha  occ. eigenvalues --   -0.62689  -0.61077  -0.57780  -0.54398  -0.54147
 Alpha  occ. eigenvalues --   -0.51351  -0.48549  -0.47165  -0.45189  -0.43399
 Alpha virt. eigenvalues --    0.03318   0.03524   0.03733   0.04006   0.05717
 Alpha virt. eigenvalues --    0.06053   0.06396   0.06741   0.06944   0.09554
 Alpha virt. eigenvalues --    0.09673   0.10074   0.10930   0.11344   0.13151

 Mulliken charges:
               1
     1  B   -0.734253
     2  C   -0.401953
     3  H    0.288477
     4  C   -0.208362
     5  C   -0.342527
     6  H    0.127613
     7  H    0.098497
     8  H    0.148153
     9  H    0.108717
    10  C   -0.341625
    11  H    0.079082
    12  H    0.168042
    13  H    0.166803
    14  H    0.168413
    15  H    0.337066
    16  H    0.337857
 Sum of Mulliken charges =   0.00000

 Dipole moment (field-independent basis, Debye):
    X=              0.1635    Y=             -0.4155    Z=              0.3605  Tot=              0.5739

 Test job not archived.
 1\1\GINC-SE102\SP\RHF\Aug-CC-pVDZ\C4H11B1\OHZDE\09-Apr-2025\0\\#t hf a
 ug-cc-pvdz iop(5/13=1,5/36=2,99/5=2) pseudo=read geom=check guess=(rea
 d,tcheck) scf=(maxcycle=1)\\title\\0,1\B,0,-1.105794,1.439337,-0.30114
 1\C,0,-0.624048,0.12269,0.370621\H,0,-1.14885,0.302641,1.341023\C,0,0.
 88083,0.039645,0.707134\C,0,1.785828,-0.082149,-0.524437\H,0,1.062084,
 -0.814522,1.371461\H,0,1.166336,0.934721,1.269558\H,0,1.576195,-0.9901
 14,-1.096228\H,0,2.8398,-0.114742,-0.235273\C,0,-1.198854,-1.188165,-0
 .197803\H,0,-2.284919,-1.129639,-0.302722\H,0,-0.966648,-2.041392,0.44

 Normal termination of Gaussian 16 at Wed Apr  9 00:24:21 2025.
