 Gaussian 16, Revision C.01,

 ----------------------------------------------------------------------
 #t hf aug-cc-pvdz symm=none int=(grid=ultrafine) guess=(read,tcheck) s
 table=opt
 ----------------------------------------------------------------------
 -----
 title
 -----
 Symbolic Z-matrix:
 Charge =  0 Multiplicity = 2

 SCF Done:  E(UHF) =  -369.655977040     A.U. after   17 cycles
 Normal termination of Gaussian 16 at Wed Apr  9 00:42:17 2025.
 Gaussian 16:  ES64L-G16RevC.01  3-Jul-2019

 ----------------------------------------------------------------------
 #t hf aug-cc-pvdz iop(5/13=1,5/36=2,99/5=2) pseudo=read geom=check gue
 ss=(read,tcheck) scf=(maxcycle=1)
 ----------------------------------------------------------------------
 -----
 title
 -----
 Structure from the checkpoint file:  "BDE49_nonexpt_667_mol2.chk"
 Charge =  0 Multiplicity = 2

                         Standard orientation:
 ---------------------------------------------------------------------
 Center     Atomic      Atomic             Coordinates (Angstroms)
 Number     Number       Type             X           Y           Z
 ---------------------------------------------------------------------
      1          8           0        2.058508    0.406900   -0.000380
      2          8           0       -0.180493    1.288387    0.049610
      3          6           0        1.569116   -0.954232   -0.040833
      4          6           0        0.177338   -1.022322   -0.659873
      5          6           0       -0.810485   -0.038496   -0.005332
      6          6           0       -2.063238    0.131841   -0.859474
      7          6           0       -1.173112   -0.432101    1.428217
      8          5           0        1.162036    1.415645    0.047255
      9          1           0        1.579782   -1.348226    0.979550
     10          1           0        2.285655   -1.528571   -0.630055
     11          1           0       -0.210623   -2.043502   -0.582057
     12          1           0        0.251410   -0.784312   -1.726109
     13          1           0       -2.605494   -0.814097   -0.945787
     14          1           0       -1.797161    0.474538   -1.861628
     15          1           0       -2.725941    0.873986   -0.409555
     16          1           0       -0.284891   -0.535069    2.055278
     17          1           0       -1.807351    0.337522    1.872244
     18          1           0       -1.717385   -1.380940    1.441776
 ---------------------------------------------------------------------

 SCF Done:  E(UHF) =  -370.035567493     A.U. after    2 cycles

 The electronic state is 2-A.
 Alpha  occ. eigenvalues --  -20.55167 -20.54747 -11.31343 -11.30326 -11.24954
 Alpha  occ. eigenvalues --  -11.23668 -11.23357  -7.64850  -1.48566  -1.44347
 Alpha  occ. eigenvalues --   -1.10347  -1.01276  -0.95459  -0.88935  -0.80841
 Alpha  occ. eigenvalues --   -0.71147  -0.68578  -0.67893  -0.64149  -0.62718
 Alpha  occ. eigenvalues --   -0.60078  -0.58316  -0.55683  -0.54236  -0.53732
 Alpha  occ. eigenvalues --   -0.53396  -0.52088  -0.47453  -0.45698  -0.44420
 Alpha  occ. eigenvalues --   -0.33591
 Alpha virt. eigenvalues --    0.03057   0.03560   0.03592   0.04379   0.05787
 Alpha virt. eigenvalues --    0.05944   0.06246   0.06361   0.06547   0.09024
 Alpha virt. eigenvalues --    0.09421   0.09481   0.09677   0.11407   0.13533

  Beta  occ. eigenvalues --  -20.55051 -20.54645 -11.31198 -11.30185 -11.24977
  Beta  occ. eigenvalues --  -11.23679 -11.23367  -7.62710  -1.48039  -1.43973
  Beta  occ. eigenvalues --   -1.10018  -1.01023  -0.95461  -0.88421  -0.79580
  Beta  occ. eigenvalues --   -0.70932  -0.67868  -0.67213  -0.63828  -0.62351
  Beta  occ. eigenvalues --   -0.60001  -0.58194  -0.55333  -0.54092  -0.53314
  Beta  occ. eigenvalues --   -0.53109  -0.51496  -0.47277  -0.45554  -0.44848
  Beta virt. eigenvalues --    0.03059   0.03573   0.03586   0.04143   0.05715
  Beta virt. eigenvalues --    0.05847   0.06164   0.06389   0.06400   0.09057
  Beta virt. eigenvalues --    0.09432   0.09553   0.09690   0.10048   0.12717

 Mulliken charges and spin densities:
               1          2
     1  O   -1.101786  -0.097136
     2  O   -1.010716  -0.171810
     3  C    0.769376   0.071297
     4  C   -0.078752  -0.052825
     5  C   -0.618394   0.088876
     6  C    0.090616   0.001383
     7  C    0.007460  -0.005293
     8  B    0.179604   1.167796
     9  H    0.136123  -0.001282
    10  H    0.056966  -0.001673
    11  H    0.176633   0.004647
    12  H    0.124383  -0.007360
    13  H    0.278566   0.001233
    14  H    0.203559   0.001928
    15  H    0.196573   0.000103
    16  H    0.120666  -0.001979
    17  H    0.231174   0.000518
    18  H    0.237949   0.001578
 Sum of Mulliken charges =  -0.00000   1.00000

 Dipole moment (field-independent basis, Debye):
    X=             -1.7117    Y=             -3.3915    Z=             -0.1610  Tot=              3.8024
                          Isotropic Fermi Contact Couplings
        Atom                 a.u.       MegaHertz       Gauss      10(-4) cm-1
     1  O(17)              0.14394     -87.25409     -31.13443     -29.10483
     2  O(17)              0.13726     -83.20622     -29.69005     -27.75461
     3  C(13)              0.02527      28.41301      10.13847       9.47756
     4  C(13)             -0.00445      -5.00093      -1.78446      -1.66813
     5  C(13)              0.02446      27.49961       9.81254       9.17288
     6  C(13)             -0.00183      -2.05403      -0.73293      -0.68515
     7  C(13)             -0.00170      -1.90984      -0.68148      -0.63705
     8  B(11)              0.44461     637.73431     227.55946     212.72527

 Normal termination of Gaussian 16 at Wed Apr  9 00:42:27 2025.
