 Gaussian 16, Revision C.01,

 ----------------------------------------------------------------------
 #t hf aug-cc-pvdz symm=none int=(grid=ultrafine) guess=(read,tcheck) s
 table=(opt,rrhf)
 ----------------------------------------------------------------------
 -----
 title
 -----
 Symbolic Z-matrix:
 Charge =  0 Multiplicity = 1

 SCF Done:  E(RHF) =  -1454.78562887     A.U. after   15 cycles
 Normal termination of Gaussian 16 at Tue Apr  8 23:48:04 2025.
 Gaussian 16:  ES64L-G16RevC.01  3-Jul-2019

 ----------------------------------------------------------------------
 #t hf aug-cc-pvdz iop(5/13=1,5/36=2,99/5=2) pseudo=read geom=check gue
 ss=(read,tcheck) scf=(maxcycle=1)
 ----------------------------------------------------------------------
 -----
 title
 -----
 Structure from the checkpoint file:  "BDE49_nonexpt_1795_mol1.chk"
 Charge =  0 Multiplicity = 1

                         Standard orientation:
 ---------------------------------------------------------------------
 Center     Atomic      Atomic             Coordinates (Angstroms)
 Number     Number       Type             X           Y           Z
 ---------------------------------------------------------------------
      1          6           0        2.567316    0.000194    1.317571
      2          6           0        1.193441    0.000181    1.123138
      3          6           0        3.398392    0.000016    0.196745
      4          7           0        2.946373   -0.000167   -1.059339
      5          6           0        1.621309   -0.000178   -1.231677
      6          6           0        0.687366   -0.000010   -0.185357
      7          1           0        2.993177    0.000340    2.313747
      8          1           0        0.523346    0.000319    1.976342
      9          1           0        1.287247   -0.000328   -2.266493
     10         14           0       -1.125739   -0.000053   -0.575129
     11         17           0       -2.046779    1.671983    0.230179
     12         17           0       -2.046769   -1.671952    0.230475
     13          1           0        4.478568    0.000021    0.314199
     14          1           0       -1.363248   -0.000186   -2.024247
 ---------------------------------------------------------------------

 SCF Done:  E(RHF) =  -1455.22132436     A.U. after    2 cycles

 The electronic state is 1-A.
 Alpha  occ. eigenvalues -- -105.57194-105.57194 -69.63238 -15.52127 -11.30604
 Alpha  occ. eigenvalues --  -11.30308 -11.28984 -11.26529 -11.25878 -10.62206
 Alpha  occ. eigenvalues --  -10.62191  -7.79092  -7.79084  -7.78775  -7.78771
 Alpha  occ. eigenvalues --   -7.78771  -7.78766  -6.29461  -4.04872  -4.04785
 Alpha  occ. eigenvalues --   -4.04681  -1.27692  -1.11372  -1.08615  -1.05426
 Alpha  occ. eigenvalues --   -1.04972  -0.89532  -0.88972  -0.76652  -0.72611
 Alpha  occ. eigenvalues --   -0.71079  -0.65581  -0.61241  -0.60361  -0.58537
 Alpha  occ. eigenvalues --   -0.56934  -0.56204  -0.54259  -0.49547  -0.49008
 Alpha  occ. eigenvalues --   -0.47584  -0.47205  -0.45505  -0.42063  -0.37805
 Alpha virt. eigenvalues --    0.02979   0.03901   0.04114   0.04886   0.05409
 Alpha virt. eigenvalues --    0.05872   0.05876   0.07818   0.08349   0.08697
 Alpha virt. eigenvalues --    0.09799   0.10719   0.11516   0.11867   0.12602

 Mulliken charges:
               1
     1  C    0.659576
     2  C    0.695882
     3  C   -0.795123
     4  N    0.971526
     5  C   -0.624253
     6  C   -0.256027
     7  H   -0.180174
     8  H   -0.272913
     9  H   -0.253506
    10  Si   1.507011
    11  Cl  -0.595741
    12  Cl  -0.595749
    13  H   -0.160255
    14  H   -0.100254
 Sum of Mulliken charges =   0.00000

 Dipole moment (field-independent basis, Debye):
    X=              1.0047    Y=              0.0003    Z=              1.3416  Tot=              1.6761

 Test job not archived.
 1\1\GINC-SE453\SP\RHF\Aug-CC-pVDZ\C5H5Cl2N1Si1\OHZDE\08-Apr-2025\0\\#t
  hf aug-cc-pvdz iop(5/13=1,5/36=2,99/5=2) pseudo=read geom=check guess
 =(read,tcheck) scf=(maxcycle=1)\\title\\0,1\C,0,2.567316,0.000194,1.31
 7571\C,0,1.193441,0.000181,1.123138\C,0,3.398392,0.000016,0.196745\N,0
 ,2.946373,-0.000167,-1.059339\C,0,1.621309,-0.000178,-1.231677\C,0,0.6
 87366,-0.00001,-0.185357\H,0,2.993177,0.00034,2.313747\H,0,0.523346,0.
 000319,1.976342\H,0,1.287247,-0.000328,-2.266493\Si,0,-1.125739,-0.000
 053,-0.575129\Cl,0,-2.046779,1.671983,0.230179\Cl,0,-2.046769,-1.67195

 Normal termination of Gaussian 16 at Tue Apr  8 23:48:11 2025.
