 Gaussian 16, Revision C.01,

 ----------------------------------------------------------------------
 #t hf aug-cc-pvdz symm=none int=(grid=ultrafine) guess=(read,tcheck) s
 table=opt
 ----------------------------------------------------------------------
 -----
 title
 -----
 Symbolic Z-matrix:
 Charge =  0 Multiplicity = 2

 SCF Done:  E(UHF) =  -1396.22124352     A.U. after   20 cycles
 Normal termination of Gaussian 16 at Tue Apr  8 23:46:24 2025.
 Gaussian 16:  ES64L-G16RevC.01  3-Jul-2019

 ----------------------------------------------------------------------
 #t hf aug-cc-pvdz iop(5/13=1,5/36=2,99/5=2) pseudo=read geom=check gue
 ss=(read,tcheck) scf=(maxcycle=1)
 ----------------------------------------------------------------------
 -----
 title
 -----
 Structure from the checkpoint file:  "BDE49_nonexpt_1765_mol2.chk"
 Charge =  0 Multiplicity = 2

                         Standard orientation:
 ---------------------------------------------------------------------
 Center     Atomic      Atomic             Coordinates (Angstroms)
 Number     Number       Type             X           Y           Z
 ---------------------------------------------------------------------
      1          6           0       -1.512251   -0.403976    0.019648
      2          8           0       -1.911999   -1.530326    0.026688
      3         14           0        0.315198   -0.021380    0.607258
      4          8           0       -2.297727    0.644086   -0.299843
      5         17           0        0.781069    1.898566   -0.106967
      6         17           0        1.578533   -1.407129   -0.252193
      7          1           0       -1.774682    1.458658   -0.328541
 ---------------------------------------------------------------------

 SCF Done:  E(UHF) =  -1396.58110311     A.U. after    2 cycles

 The electronic state is 2-A.
 Alpha  occ. eigenvalues -- -105.60436-105.59759 -69.67165 -20.62649 -20.57037
 Alpha  occ. eigenvalues --  -11.41686 -10.65387 -10.64733  -7.82344  -7.81978
 Alpha  occ. eigenvalues --   -7.81929  -7.81716  -7.81314  -7.81242  -6.33417
 Alpha  occ. eigenvalues --   -4.09045  -4.08407  -4.08253  -1.56952  -1.48732
 Alpha  occ. eigenvalues --   -1.11465  -1.07991  -0.88211  -0.81743  -0.70062
 Alpha  occ. eigenvalues --   -0.68710  -0.65137  -0.60441  -0.58551  -0.55617
 Alpha  occ. eigenvalues --   -0.53489  -0.51669  -0.50187  -0.49769  -0.46131
 Alpha  occ. eigenvalues --   -0.39073
 Alpha virt. eigenvalues --    0.03583   0.04340   0.04797   0.05630   0.07764
 Alpha virt. eigenvalues --    0.08259   0.10426   0.11197   0.11760   0.11946
 Alpha virt. eigenvalues --    0.12691   0.14713   0.15337   0.16146   0.16524

  Beta  occ. eigenvalues -- -105.60333-105.59646 -69.66564 -20.62597 -20.56859
  Beta  occ. eigenvalues --  -11.41434 -10.65274 -10.64610  -7.82109  -7.81875
  Beta  occ. eigenvalues --   -7.81744  -7.81455  -7.81183  -7.81061  -6.32433
  Beta  occ. eigenvalues --   -4.08017  -4.07907  -4.07024  -1.56684  -1.48359
  Beta  occ. eigenvalues --   -1.10397  -1.07132  -0.87170  -0.80060  -0.68944
  Beta  occ. eigenvalues --   -0.66735  -0.64880  -0.59570  -0.57386  -0.53434
  Beta  occ. eigenvalues --   -0.52919  -0.50783  -0.49585  -0.49270  -0.44006
  Beta virt. eigenvalues --   -0.02501   0.03925   0.04912   0.05297   0.05858
  Beta virt. eigenvalues --    0.08527   0.09373   0.11036   0.11823   0.12086
  Beta virt. eigenvalues --    0.12942   0.13325   0.15383   0.16131   0.16614

 Mulliken charges and spin densities:
               1          2
     1  C    1.265393   0.053248
     2  O   -0.997784   0.040173
     3  Si   1.344330   0.800708
     4  O   -1.091042   0.010684
     5  Cl  -0.516964   0.043665
     6  Cl  -0.448733   0.050774
     7  H    0.444801   0.000750
 Sum of Mulliken charges =  -0.00000   1.00000

 Dipole moment (field-independent basis, Debye):
    X=              1.4957    Y=              2.4384    Z=              1.0145  Tot=              3.0352
                          Isotropic Fermi Contact Couplings
        Atom                 a.u.       MegaHertz       Gauss      10(-4) cm-1
     1  C(13)              0.06859      77.11165      27.51535      25.72168
     2  O(17)              0.01291      -7.82493      -2.79213      -2.61012
     3  Si(29)             0.95519    -848.90812    -302.91153    -283.16527
     4  O(17)              0.00271      -1.64057      -0.58540      -0.54724
     5  Cl(35)             0.05987      26.25227       9.36746       8.75681
     6  Cl(35)             0.05989      26.25815       9.36956       8.75878
     7  H(1)               0.00006       0.27116       0.09676       0.09045
 --------------------------------------------------------

 Normal termination of Gaussian 16 at Tue Apr  8 23:46:28 2025.
