 Gaussian 16, Revision C.01,

 ----------------------------------------------------------------------
 #t hf aug-cc-pvdz symm=none int=(grid=ultrafine) guess=(read,tcheck) s
 table=(opt,rrhf)
 ----------------------------------------------------------------------
 -----
 title
 -----
 Symbolic Z-matrix:
 Charge =  0 Multiplicity = 1

 SCF Done:  E(RHF) =  -529.465004558     A.U. after   14 cycles
 Normal termination of Gaussian 16 at Tue Apr  8 22:40:25 2025.
 Gaussian 16:  ES64L-G16RevC.01  3-Jul-2019

 ----------------------------------------------------------------------
 #t hf aug-cc-pvdz iop(5/13=1,5/36=2,99/5=2) pseudo=read geom=check gue
 ss=(read,tcheck) scf=(maxcycle=1)
 ----------------------------------------------------------------------
 -----
 title
 -----
 Structure from the checkpoint file:  "BDE49_expt_1324_mol1.chk"
 Charge =  0 Multiplicity = 1

                         Standard orientation:
 ---------------------------------------------------------------------
 Center     Atomic      Atomic             Coordinates (Angstroms)
 Number     Number       Type             X           Y           Z
 ---------------------------------------------------------------------
      1          6           0        2.356701    0.135319    0.000010
      2          7           0        0.991859   -0.274000    0.000050
      3          1           0        2.573025    0.733098   -0.889938
      4          1           0        3.006144   -0.741209   -0.000664
      5          1           0        2.573308    0.731898    0.890685
      6          6           0       -0.178043   -0.092634   -0.000161
      7         16           0       -1.760465    0.058632    0.000030
 ---------------------------------------------------------------------

 SCF Done:  E(RHF) =  -529.656256811     A.U. after    2 cycles

 The electronic state is 1-A.
 Alpha  occ. eigenvalues --  -93.93740 -15.55276 -11.38059 -11.31908  -8.22008
 Alpha  occ. eigenvalues --   -6.19914  -6.19472  -6.19453  -1.30157  -1.08060
 Alpha  occ. eigenvalues --   -1.02576  -0.76777  -0.67195  -0.67178  -0.60463
 Alpha  occ. eigenvalues --   -0.55132  -0.55029  -0.37477  -0.36980
 Alpha virt. eigenvalues --    0.02581   0.04922   0.05004   0.06938   0.08224
 Alpha virt. eigenvalues --    0.09876   0.11397   0.11883   0.13286   0.13539
 Alpha virt. eigenvalues --    0.14167   0.14499   0.15901   0.17267   0.18206

 Mulliken charges:
               1
     1  C   -0.279995
     2  N    0.570804
     3  H    0.154377
     4  H    0.116408
     5  H    0.154470
     6  C   -0.946213
     7  S    0.230149
 Sum of Mulliken charges =  -0.00000

 Dipole moment (field-independent basis, Debye):
    X=              3.5176    Y=              0.5987    Z=             -0.0002  Tot=              3.5682

 Test job not archived.
 1\1\GINC-SE109\SP\RHF\Aug-CC-pVDZ\C2H3N1S1\OHZDE\08-Apr-2025\0\\#t hf
 aug-cc-pvdz iop(5/13=1,5/36=2,99/5=2) pseudo=read geom=check guess=(re
 ad,tcheck) scf=(maxcycle=1)\\title\\0,1\C,0,2.356701,0.135319,0.00001\
 N,0,0.991859,-0.274,0.00005\H,0,2.573025,0.733098,-0.889938\H,0,3.0061
 44,-0.741209,-0.000664\H,0,2.573308,0.731898,0.890685\C,0,-0.178043,-0
 .092634,-0.000161\S,0,-1.760465,0.058632,0.00003\\Version=ES64L-G16Rev
 C.01\State=1-A\HF=-529.6562568\RMSD=1.260e-02\Dipole=1.3839305,0.23554
 31,-0.0000875\Quadrupole=3.1231739,-1.5921992,-1.5309747,0.6651431,-0.

 Normal termination of Gaussian 16 at Tue Apr  8 22:40:28 2025.
