 Gaussian 16, Revision C.01,

 ----------------------------------------------------------------------
 #t hf aug-cc-pvdz symm=none int=(grid=ultrafine) guess=(read,tcheck) s
 table=(opt,rrhf)
 ----------------------------------------------------------------------
 -----
 title
 -----
 Symbolic Z-matrix:
 Charge =  0 Multiplicity = 1

 SCF Done:  E(RHF) =  -515.809009767     A.U. after   12 cycles
 Normal termination of Gaussian 16 at Tue Apr  8 22:45:32 2025.
 Gaussian 16:  ES64L-G16RevC.01  3-Jul-2019

 ----------------------------------------------------------------------
 #t hf aug-cc-pvdz iop(5/13=1,5/36=2,99/5=2) pseudo=read geom=check gue
 ss=(read,tcheck) scf=(maxcycle=1)
 ----------------------------------------------------------------------
 -----
 title
 -----
 Structure from the checkpoint file:  "BDE49_expt_1547_mol1.chk"
 Charge =  0 Multiplicity = 1

                         Standard orientation:
 ---------------------------------------------------------------------
 Center     Atomic      Atomic             Coordinates (Angstroms)
 Number     Number       Type             X           Y           Z
 ---------------------------------------------------------------------
      1         16           0       -1.751441    0.016062    0.000000
      2          6           0        0.000000    0.596137    0.000000
      3          6           0        0.942601   -0.608399    0.000000
      4          1           0        0.168551    1.209200    0.887623
      5          1           0        0.168551    1.209200   -0.887623
      6          1           0       -2.326424    1.230657    0.000000
      7          6           0        2.416100   -0.188140    0.000000
      8          1           0        0.735264   -1.229163   -0.877925
      9          1           0        0.735264   -1.229163    0.877925
     10          1           0        2.659473    0.409028   -0.883908
     11          1           0        3.070698   -1.063378    0.000000
     12          1           0        2.659473    0.409028    0.883908
 ---------------------------------------------------------------------

 SCF Done:  E(RHF) =  -516.003752945     A.U. after    2 cycles

 The electronic state is 1-A'.
 Alpha  occ. eigenvalues --  -93.94422 -11.27031 -11.24178 -11.23296  -8.22492
 Alpha  occ. eigenvalues --   -6.20346  -6.20202  -6.19973  -1.09523  -1.00765
 Alpha  occ. eigenvalues --   -0.89378  -0.80921  -0.65542  -0.60162  -0.59547
 Alpha  occ. eigenvalues --   -0.56694  -0.51380  -0.49267  -0.49034  -0.45472
 Alpha  occ. eigenvalues --   -0.36118
 Alpha virt. eigenvalues --    0.03677   0.03752   0.04362   0.04650   0.06504
 Alpha virt. eigenvalues --    0.07150   0.07690   0.08079   0.10772   0.11525
 Alpha virt. eigenvalues --    0.12972   0.14731   0.15590   0.15975   0.16624

 Mulliken charges:
               1
     1  S    0.057282
     2  C   -0.619615
     3  C   -0.298299
     4  H    0.110746
     5  H    0.110746
     6  H    0.315313
     7  C   -0.439156
     8  H    0.160614
     9  H    0.160614
    10  H    0.160850
    11  H    0.120056
    12  H    0.160850
 Sum of Mulliken charges =  -0.00000

 Dipole moment (field-independent basis, Debye):
    X=              1.4602    Y=              1.1280    Z=             -0.0000  Tot=              1.8451

 Test job not archived.
 1\1\GINC-SE096\SP\RHF\Aug-CC-pVDZ\C3H8S1\OHZDE\08-Apr-2025\0\\#t hf au
 g-cc-pvdz iop(5/13=1,5/36=2,99/5=2) pseudo=read geom=check guess=(read
 ,tcheck) scf=(maxcycle=1)\\title\\0,1\S,0,-1.751441,0.016062,0.\C,0,0.
 ,0.596137,0.\C,0,0.942601,-0.608399,0.\H,0,0.168551,1.2092,0.887623\H,
 0,0.168551,1.2092,-0.887623\H,0,-2.326424,1.230657,0.\C,0,2.4161,-0.18
 814,0.\H,0,0.735264,-1.229163,-0.877925\H,0,0.735264,-1.229163,0.87792
 5\H,0,2.659473,0.409028,-0.883908\H,0,3.070698,-1.063378,0.\H,0,2.6594
 73,0.409028,0.883908\\Version=ES64L-G16RevC.01\State=1-A'\HF=-516.0037

 Normal termination of Gaussian 16 at Tue Apr  8 22:45:36 2025.
