 Gaussian 16, Revision C.01,

 ----------------------------------------------------------------------
 #t hf aug-cc-pvdz symm=none int=(grid=ultrafine) guess=(read,tcheck) s
 table=(opt,rrhf)
 ----------------------------------------------------------------------
 -----
 title
 -----
 Symbolic Z-matrix:
 Charge =  0 Multiplicity = 1

 SCF Done:  E(RHF) =  -460.950112727     A.U. after   14 cycles
 Normal termination of Gaussian 16 at Wed Apr  9 00:39:38 2025.
 Gaussian 16:  ES64L-G16RevC.01  3-Jul-2019

 ----------------------------------------------------------------------
 #t hf aug-cc-pvdz iop(5/13=1,5/36=2,99/5=2) pseudo=read geom=check gue
 ss=(read,tcheck) scf=(maxcycle=1)
 ----------------------------------------------------------------------
 -----
 title
 -----
 Structure from the checkpoint file:  "BDE49_nonexpt_595_mol1.chk"
 Charge =  0 Multiplicity = 1

                         Standard orientation:
 ---------------------------------------------------------------------
 Center     Atomic      Atomic             Coordinates (Angstroms)
 Number     Number       Type             X           Y           Z
 ---------------------------------------------------------------------
      1          6           0        2.055442    1.303861   -0.250968
      2          6           0        0.713485    0.951998   -0.376916
      3          6           0        3.014982    0.349848    0.075445
      4          6           0        2.614279   -0.971403    0.271697
      5          6           0        1.275388   -1.328138    0.167693
      6          6           0        0.298854   -0.371036   -0.150626
      7          1           0        0.971436   -2.355248    0.342803
      8          1           0        4.058540    0.626971    0.164338
      9          1           0        3.348739   -1.730639    0.517147
     10          1           0        2.351377    2.331140   -0.433548
     11          1           0       -0.005299    1.693377   -0.705958
     12          5           0       -2.230854    0.003366    0.040079
     13          8           0       -2.239201    1.269264    0.572715
     14          8           0       -3.428402   -0.611309   -0.221222
     15          1           0       -4.169432   -0.065144    0.055288
     16          1           0       -1.372757    1.576402    0.854423
     17          7           0       -1.046935   -0.748560   -0.253473
     18          1           0       -1.193544   -1.728194   -0.450467
 ---------------------------------------------------------------------

 SCF Done:  E(RHF) =  -461.418446108     A.U. after    2 cycles

 The electronic state is 1-A.
 Alpha  occ. eigenvalues --  -20.55577 -20.54874 -15.50144 -11.29469 -11.25237
 Alpha  occ. eigenvalues --  -11.25184 -11.24269 -11.24194 -11.23866  -7.65168
 Alpha  occ. eigenvalues --   -1.47820  -1.43710  -1.22818  -1.13974  -1.02431
 Alpha  occ. eigenvalues --   -1.00399  -0.85253  -0.84700  -0.77792  -0.74972
 Alpha  occ. eigenvalues --   -0.72945  -0.70620  -0.66782  -0.64086  -0.62185
 Alpha  occ. eigenvalues --   -0.60553  -0.58660  -0.56285  -0.55326  -0.53797
 Alpha  occ. eigenvalues --   -0.53015  -0.51055  -0.49084  -0.46701  -0.35524
 Alpha  occ. eigenvalues --   -0.32414
 Alpha virt. eigenvalues --    0.03290   0.03593   0.03765   0.04725   0.05212
 Alpha virt. eigenvalues --    0.05493   0.06615   0.07480   0.07582   0.08506
 Alpha virt. eigenvalues --    0.09035   0.09883   0.10890   0.11223   0.12610

 Mulliken charges:
               1
     1  C    0.298294
     2  C    0.710009
     3  C    0.060420
     4  C    0.406416
     5  C    0.433360
     6  C   -1.847570
     7  H   -0.318886
     8  H   -0.217049
     9  H   -0.219938
    10  H   -0.233018
    11  H   -0.375314
    12  B    1.424400
    13  O   -1.311619
    14  O   -1.324917
    15  H    0.482707
    16  H    0.622583
    17  N    1.448582
    18  H   -0.038460
 Sum of Mulliken charges =   0.00000

 Dipole moment (field-independent basis, Debye):
    X=              1.0791    Y=              0.1550    Z=              0.5456  Tot=              1.2191

 Test job not archived.
 1\1\GINC-SE165\SP\RHF\Aug-CC-pVDZ\C6H8B1N1O2\OHZDE\09-Apr-2025\0\\#t h
 f aug-cc-pvdz iop(5/13=1,5/36=2,99/5=2) pseudo=read geom=check guess=(
 read,tcheck) scf=(maxcycle=1)\\title\\0,1\C,0,2.055442,1.303861,-0.250
 968\C,0,0.713485,0.951998,-0.376916\C,0,3.014982,0.349848,0.075445\C,0
 ,2.614279,-0.971403,0.271697\C,0,1.275388,-1.328138,0.167693\C,0,0.298
 854,-0.371036,-0.150626\H,0,0.971436,-2.355248,0.342803\H,0,4.05854,0.
 626971,0.164338\H,0,3.348739,-1.730639,0.517147\H,0,2.351377,2.33114,-
 0.433548\H,0,-0.005299,1.693377,-0.705958\B,0,-2.230854,0.003366,0.040

 Normal termination of Gaussian 16 at Wed Apr  9 00:39:48 2025.
