 Gaussian 16, Revision C.01,

 ----------------------------------------------------------------------
 #t hf aug-cc-pvdz symm=none int=(grid=ultrafine) guess=(read,tcheck) s
 table=(opt,rrhf)
 ----------------------------------------------------------------------
 -----
 title
 -----
 Symbolic Z-matrix:
 Charge =  0 Multiplicity = 1

 SCF Done:  E(RHF) =  -271.976322593     A.U. after   15 cycles
 Normal termination of Gaussian 16 at Wed Apr  9 00:27:00 2025.
 Gaussian 16:  ES64L-G16RevC.01  3-Jul-2019

 ----------------------------------------------------------------------
 #t hf aug-cc-pvdz iop(5/13=1,5/36=2,99/5=2) pseudo=read geom=check gue
 ss=(read,tcheck) scf=(maxcycle=1)
 ----------------------------------------------------------------------
 -----
 title
 -----
 Structure from the checkpoint file:  "BDE49_nonexpt_279_mol1.chk"
 Charge =  0 Multiplicity = 1

                         Standard orientation:
 ---------------------------------------------------------------------
 Center     Atomic      Atomic             Coordinates (Angstroms)
 Number     Number       Type             X           Y           Z
 ---------------------------------------------------------------------
      1          6           0        1.171116   -1.145775    0.000000
      2          6           0       -0.066781   -1.773490    0.000000
      3          6           0       -1.221561   -0.980699    0.000000
      4          7           0       -1.206120    0.346081    0.000000
      5          6           0       -0.000000    0.978386    0.000000
      6          6           0        1.201007    0.246532    0.000000
      7          1           0       -0.149947   -2.854438    0.000000
      8          1           0       -2.202212   -1.450355    0.000000
      9          1           0        2.145705    0.777966    0.000000
     10          1           0        2.088419   -1.723950    0.000000
     11          5           0        0.005814    2.527578    0.000000
     12          1           0       -1.018292    3.130228    0.000000
     13          1           0        1.047410    3.110374    0.000000
 ---------------------------------------------------------------------

 SCF Done:  E(RHF) =  -272.254617795     A.U. after    2 cycles

 The electronic state is 1-A'.
 Alpha  occ. eigenvalues --  -15.51260 -11.28313 -11.26966 -11.26361 -11.26020
 Alpha  occ. eigenvalues --  -11.25859  -7.59485  -1.25672  -1.09721  -1.04105
 Alpha  occ. eigenvalues --   -0.88330  -0.87338  -0.75441  -0.69826  -0.68503
 Alpha  occ. eigenvalues --   -0.64229  -0.60526  -0.57430  -0.56182  -0.50802
 Alpha  occ. eigenvalues --   -0.48767  -0.44685  -0.40750  -0.36476
 Alpha virt. eigenvalues --    0.02739   0.03001   0.03624   0.04259   0.04989
 Alpha virt. eigenvalues --    0.05356   0.05879   0.07332   0.08433   0.08861
 Alpha virt. eigenvalues --    0.10650   0.11327   0.12793   0.13071   0.13655

 Mulliken charges:
               1
     1  C    0.112422
     2  C    0.683185
     3  C   -0.738662
     4  N    1.143831
     5  C   -1.011824
     6  C    0.680712
     7  H   -0.176473
     8  H   -0.197170
     9  H   -0.241664
    10  H   -0.162967
    11  B   -0.587730
    12  H    0.298887
    13  H    0.197453
 Sum of Mulliken charges =  -0.00000

 Dipole moment (field-independent basis, Debye):
    X=              2.2451    Y=             -2.4598    Z=              0.0000  Tot=              3.3304

 Test job not archived.
 1\1\GINC-SE455\SP\RHF\Aug-CC-pVDZ\C5H6B1N1\OHZDE\09-Apr-2025\0\\#t hf
 aug-cc-pvdz iop(5/13=1,5/36=2,99/5=2) pseudo=read geom=check guess=(re
 ad,tcheck) scf=(maxcycle=1)\\title\\0,1\C,0,1.171116,-1.145775,0.\C,0,
 -0.066781,-1.77349,0.\C,0,-1.221561,-0.980699,0.\N,0,-1.20612,0.346081
 ,0.\C,0,0.,0.978386,0.\C,0,1.201007,0.246532,0.\H,0,-0.149947,-2.85443
 8,0.\H,0,-2.202212,-1.450355,0.\H,0,2.145705,0.777966,0.\H,0,2.088419,
 -1.72395,0.\B,0,0.005814,2.527578,0.\H,0,-1.018292,3.130228,0.\H,0,1.0
 4741,3.110374,0.\\Version=ES64L-G16RevC.01\State=1-A'\HF=-272.2546178\

 Normal termination of Gaussian 16 at Wed Apr  9 00:27:04 2025.
