 Gaussian 16, Revision C.01,

 ----------------------------------------------------------------------
 #t hf aug-cc-pvdz symm=none int=(grid=ultrafine) guess=(read,tcheck) s
 table=(opt,rrhf)
 ----------------------------------------------------------------------
 -----
 title
 -----
 Symbolic Z-matrix:
 Charge =  0 Multiplicity = 1

 SCF Done:  E(RHF) =  -233.172235522     A.U. after   14 cycles
 Normal termination of Gaussian 16 at Wed Apr  9 00:36:02 2025.
 Gaussian 16:  ES64L-G16RevC.01  3-Jul-2019

 ----------------------------------------------------------------------
 #t hf aug-cc-pvdz iop(5/13=1,5/36=2,99/5=2) pseudo=read geom=check gue
 ss=(read,tcheck) scf=(maxcycle=1)
 ----------------------------------------------------------------------
 -----
 title
 -----
 Structure from the checkpoint file:  "BDE49_nonexpt_511_mol1.chk"
 Charge =  0 Multiplicity = 1

                         Standard orientation:
 ---------------------------------------------------------------------
 Center     Atomic      Atomic             Coordinates (Angstroms)
 Number     Number       Type             X           Y           Z
 ---------------------------------------------------------------------
      1          1           0       -2.868262   -0.219781    0.000164
      2          5           0       -1.835955   -0.816825   -0.000146
      3          1           0       -1.827317   -2.004678    0.000148
      4          6           0       -0.497802   -0.045237   -0.000038
      5          7           0        0.534745   -0.831585   -0.000016
      6          8           0        1.730040   -0.129193    0.000053
      7          1           0        2.391885   -0.829973    0.000050
      8          6           0       -0.362017    1.457072    0.000026
      9          1           0       -1.341515    1.933844   -0.000010
     10          1           0        0.200226    1.794199   -0.876026
     11          1           0        0.200131    1.794135    0.876164
 ---------------------------------------------------------------------

 SCF Done:  E(RHF) =  -233.409723758     A.U. after    2 cycles

 The electronic state is 1-A.
 Alpha  occ. eigenvalues --  -20.59850 -15.58635 -11.26163 -11.23786  -7.60119
 Alpha  occ. eigenvalues --   -1.51962  -1.18284  -0.98645  -0.82565  -0.73103
 Alpha  occ. eigenvalues --   -0.69775  -0.63778  -0.62582  -0.57038  -0.55833
 Alpha  occ. eigenvalues --   -0.52436  -0.49039  -0.46414  -0.41005
 Alpha virt. eigenvalues --    0.02634   0.03727   0.04095   0.05192   0.05743
 Alpha virt. eigenvalues --    0.05786   0.06979   0.07592   0.08097   0.10991
 Alpha virt. eigenvalues --    0.12904   0.14586   0.14628   0.15238   0.17091

 Mulliken charges:
               1
     1  H    0.165638
     2  B   -0.356065
     3  H    0.271356
     4  C   -0.744444
     5  N    1.282624
     6  O   -1.110311
     7  H    0.301952
     8  C   -0.378947
     9  H    0.047703
    10  H    0.260253
    11  H    0.260241
 Sum of Mulliken charges =   0.00000

 Dipole moment (field-independent basis, Debye):
    X=              0.2176    Y=              0.9626    Z=             -0.0005  Tot=              0.9869

 Test job not archived.
 1\1\GINC-SE097\SP\RHF\Aug-CC-pVDZ\C2H6B1N1O1\OHZDE\09-Apr-2025\0\\#t h
 f aug-cc-pvdz iop(5/13=1,5/36=2,99/5=2) pseudo=read geom=check guess=(
 read,tcheck) scf=(maxcycle=1)\\title\\0,1\H,0,-2.868262,-0.219781,0.00
 0164\B,0,-1.835955,-0.816825,-0.000146\H,0,-1.827317,-2.004678,0.00014
 8\C,0,-0.497802,-0.045237,-0.000038\N,0,0.534745,-0.831585,-0.000016\O
 ,0,1.73004,-0.129193,0.000053\H,0,2.391885,-0.829973,0.00005\C,0,-0.36
 2017,1.457072,0.000026\H,0,-1.341515,1.933844,-0.00001\H,0,0.200226,1.
 794199,-0.876026\H,0,0.200131,1.794135,0.876164\\Version=ES64L-G16RevC

 Normal termination of Gaussian 16 at Wed Apr  9 00:36:05 2025.
