 Gaussian 16, Revision C.01,

 ----------------------------------------------------------------------
 #t hf aug-cc-pvdz symm=none int=(grid=ultrafine) guess=(read,tcheck) s
 table=(opt,rrhf)
 ----------------------------------------------------------------------
 -----
 title
 -----
 Symbolic Z-matrix:
 Charge =  0 Multiplicity = 1

 SCF Done:  E(RHF) =  -1100.52882699     A.U. after   12 cycles
 Normal termination of Gaussian 16 at Tue Apr  8 23:49:53 2025.
 Gaussian 16:  ES64L-G16RevC.01  3-Jul-2019

 ----------------------------------------------------------------------
 #t hf aug-cc-pvdz iop(5/13=1,5/36=2,99/5=2) pseudo=read geom=check gue
 ss=(read,tcheck) scf=(maxcycle=1)
 ----------------------------------------------------------------------
 -----
 title
 -----
 Structure from the checkpoint file:  "BDE49_nonexpt_182_mol1.chk"
 Charge =  0 Multiplicity = 1

                         Standard orientation:
 ---------------------------------------------------------------------
 Center     Atomic      Atomic             Coordinates (Angstroms)
 Number     Number       Type             X           Y           Z
 ---------------------------------------------------------------------
      1         17           0       -0.926119    1.683439    0.095284
      2         17           0       -2.513821   -0.825929   -0.435603
      3          5           0       -1.031303   -0.080205    0.180304
      4          6           0        0.083241   -0.954802    0.835903
      5          6           0        1.526781   -0.419733    0.840797
      6          1           0       -0.259802   -1.084736    1.876582
      7          6           0        2.178427   -0.415441   -0.547688
      8          1           0        2.131301   -1.037451    1.514467
      9          1           0        1.544818    0.593780    1.255006
     10          6           0        3.620254    0.098622   -0.530733
     11          1           0        1.581956    0.201315   -1.230399
     12          1           0        2.156824   -1.432860   -0.956884
     13          1           0        3.668194    1.127763   -0.162168
     14          1           0        4.060051    0.083441   -1.531384
     15          1           0        4.251572   -0.515677    0.118868
     16          1           0        0.048368   -1.964088    0.410142
 ---------------------------------------------------------------------

 SCF Done:  E(RHF) =  -1100.88149096     A.U. after    2 cycles

 The electronic state is 1-A.
 Alpha  occ. eigenvalues -- -105.57314-105.57198 -11.23934 -11.23442 -11.23315
 Alpha  occ. eigenvalues --  -11.22726 -10.62331 -10.62201  -7.79225  -7.79098
 Alpha  occ. eigenvalues --   -7.78949  -7.78905  -7.78824  -7.78777  -7.70915
 Alpha  occ. eigenvalues --   -1.11368  -1.07920  -1.05287  -0.99613  -0.88405
 Alpha  occ. eigenvalues --   -0.80657  -0.68820  -0.64969  -0.61198  -0.60785
 Alpha  occ. eigenvalues --   -0.59089  -0.57123  -0.53833  -0.52640  -0.51335
 Alpha  occ. eigenvalues --   -0.49534  -0.48133  -0.47870  -0.47311  -0.45943
 Alpha  occ. eigenvalues --   -0.45479
 Alpha virt. eigenvalues --    0.03409   0.03698   0.03776   0.04066   0.05953
 Alpha virt. eigenvalues --    0.06193   0.06411   0.06950   0.07605   0.08781
 Alpha virt. eigenvalues --    0.08843   0.09079   0.09974   0.12146   0.12752

 Mulliken charges:
               1
     1  Cl  -0.351788
     2  Cl  -0.407123
     3  B    0.741509
     4  C   -0.225468
     5  C   -0.306373
     6  H    0.254069
     7  C   -0.308826
     8  H    0.132244
     9  H    0.140945
    10  C   -0.414530
    11  H    0.106944
    12  H    0.109855
    13  H    0.167865
    14  H    0.118916
    15  H    0.166385
    16  H    0.075378
 Sum of Mulliken charges =  -0.00000

 Dipole moment (field-independent basis, Debye):
    X=              1.4882    Y=             -0.8807    Z=              0.6932  Tot=              1.8631

 Test job not archived.
 1\1\GINC-SE284\SP\RHF\Aug-CC-pVDZ\C4H9B1Cl2\OHZDE\08-Apr-2025\0\\#t hf
  aug-cc-pvdz iop(5/13=1,5/36=2,99/5=2) pseudo=read geom=check guess=(r
 ead,tcheck) scf=(maxcycle=1)\\title\\0,1\Cl,0,-0.926119,1.683439,0.095
 284\Cl,0,-2.513821,-0.825929,-0.435603\B,0,-1.031303,-0.080205,0.18030
 4\C,0,0.083241,-0.954802,0.835903\C,0,1.526781,-0.419733,0.840797\H,0,
 -0.259802,-1.084736,1.876582\C,0,2.178427,-0.415441,-0.547688\H,0,2.13
 1301,-1.037451,1.514467\H,0,1.544818,0.59378,1.255006\C,0,3.620254,0.0
 98622,-0.530733\H,0,1.581956,0.201315,-1.230399\H,0,2.156824,-1.43286,

 Normal termination of Gaussian 16 at Tue Apr  8 23:49:59 2025.
