 Gaussian 16, Revision C.01,

 ----------------------------------------------------------------------
 #t hf aug-cc-pvdz symm=none int=(grid=ultrafine) guess=(read,tcheck) s
 table=(opt,rrhf)
 ----------------------------------------------------------------------
 -----
 title
 -----
 Symbolic Z-matrix:
 Charge =  0 Multiplicity = 1

 SCF Done:  E(RHF) =  -444.271717728     A.U. after   11 cycles
 Normal termination of Gaussian 16 at Wed Apr  9 00:03:30 2025.
 Gaussian 16:  ES64L-G16RevC.01  3-Jul-2019

 ----------------------------------------------------------------------
 #t hf aug-cc-pvdz iop(5/13=1,5/36=2,99/5=2) pseudo=read geom=check gue
 ss=(read,tcheck) scf=(maxcycle=1)
 ----------------------------------------------------------------------
 -----
 title
 -----
 Structure from the checkpoint file:  "BDE49_nonexpt_2178_mol1.chk"
 Charge =  0 Multiplicity = 1

                         Standard orientation:
 ---------------------------------------------------------------------
 Center     Atomic      Atomic             Coordinates (Angstroms)
 Number     Number       Type             X           Y           Z
 ---------------------------------------------------------------------
      1         14           0        0.002780    0.065364    0.354935
      2          8           0       -0.117174    1.586988   -0.303002
      3          1           0        0.563019    2.231570   -0.097890
      4          6           0       -1.532567   -0.842429   -0.191614
      5          1           0       -1.570923   -0.920493   -1.281900
      6          1           0       -2.433230   -0.320835    0.142247
      7          6           0        1.563019   -0.809231   -0.208611
      8          1           0        1.577949   -0.935431   -1.295284
      9          1           0        1.630803   -1.802445    0.247577
     10          1           0        2.462867   -0.256477    0.079119
     11          1           0       -1.555192   -1.855280    0.221950
     12          1           0        0.040471    0.158353    1.840449
 ---------------------------------------------------------------------

 SCF Done:  E(RHF) =  -444.473329077     A.U. after    2 cycles

 The electronic state is 1-A.
 Alpha  occ. eigenvalues --  -69.54103 -20.53777 -11.21330 -11.20988  -6.20744
 Alpha  occ. eigenvalues --   -3.96223  -3.96071  -3.96047  -1.42286  -0.96485
 Alpha  occ. eigenvalues --   -0.93214  -0.73143  -0.63301  -0.57700  -0.57103
 Alpha  occ. eigenvalues --   -0.55095  -0.54789  -0.52006  -0.51559  -0.44609
 Alpha  occ. eigenvalues --   -0.43289
 Alpha virt. eigenvalues --    0.03311   0.04161   0.04590   0.04791   0.06924
 Alpha virt. eigenvalues --    0.06941   0.07497   0.07931   0.09039   0.09939
 Alpha virt. eigenvalues --    0.11067   0.13291   0.15568   0.16307   0.16659

 Mulliken charges:
               1
     1  Si   2.495324
     2  O   -1.468159
     3  H    0.424838
     4  C   -0.618848
     5  H    0.103508
     6  H   -0.031149
     7  C   -0.623902
     8  H    0.054581
     9  H    0.014604
    10  H   -0.041301
    11  H    0.006797
    12  H   -0.316294
 Sum of Mulliken charges =   0.00000

 Dipole moment (field-independent basis, Debye):
    X=              1.0989    Y=             -0.2869    Z=              0.2416  Tot=              1.1612

 Test job not archived.
 1\1\GINC-SE094\SP\RHF\Aug-CC-pVDZ\C2H8O1Si1\OHZDE\09-Apr-2025\0\\#t hf
  aug-cc-pvdz iop(5/13=1,5/36=2,99/5=2) pseudo=read geom=check guess=(r
 ead,tcheck) scf=(maxcycle=1)\\title\\0,1\Si,0,0.00278,0.065364,0.35493
 5\O,0,-0.117175,1.586988,-0.303002\H,0,0.563018,2.23157,-0.09789\C,0,-
 1.532567,-0.84243,-0.191614\H,0,-1.570923,-0.920494,-1.2819\H,0,-2.433
 23,-0.320836,0.142247\C,0,1.563019,-0.80923,-0.208611\H,0,1.577949,-0.
 93543,-1.295284\H,0,1.630804,-1.802444,0.247577\H,0,2.462867,-0.256476
 ,0.079119\H,0,-1.555191,-1.855281,0.22195\H,0,0.040471,0.158353,1.8404

 Normal termination of Gaussian 16 at Wed Apr  9 00:03:33 2025.
