 Gaussian 16, Revision C.01,

 ----------------------------------------------------------------------
 #t hf aug-cc-pvdz symm=none int=(grid=ultrafine) guess=(read,tcheck) s
 table=(opt,rrhf)
 ----------------------------------------------------------------------
 -----
 title
 -----
 Symbolic Z-matrix:
 Charge =  0 Multiplicity = 1

 SCF Done:  E(RHF) =  -997.084334921     A.U. after   12 cycles

 1\1\GINC-SE016\Stability\RHF\Aug-CC-pVDZ\C2H4Cl2\OHZDE\08-Apr-2025\0\\
 #t hf aug-cc-pvdz symm=none int=(grid=ultrafine) guess=(read,tcheck) s
 table=(opt,rrhf)\\title\\0,1\C,0,0.,0.342838,0.429515\C,0,0.,1.742466,
 -0.143942\Cl,0,1.481563,-0.561929,-0.070217\Cl,0,-1.481563,-0.561929,-
 0.070217\H,0,0.,0.328023,1.514716\H,0,0.,1.711735,-1.233839\H,0,0.8893
 9,2.27701,0.196524\H,0,-0.88939,2.27701,0.196524\\Version=ES64L-G16Rev
 C.01\HF=-997.0843349\RMSD=3.983e-09\Dipole=0.,0.8740561,0.3413264\Quad
 rupole=-2.0555508,1.1831734,0.8723774,0.,0.,0.3267421\PG=Unknown\\@

 Normal termination of Gaussian 16 at Tue Apr  8 22:29:38 2025.
 Gaussian 16:  ES64L-G16RevC.01  3-Jul-2019

 ----------------------------------------------------------------------
 #t hf aug-cc-pvdz iop(5/13=1,5/36=2,99/5=2) pseudo=read geom=check gue
 ss=(read,tcheck) scf=(maxcycle=1)
 ----------------------------------------------------------------------
 -----
 title
 -----
 Structure from the checkpoint file:  "BDE49_expt_1017_mol1.chk"
 Charge =  0 Multiplicity = 1

                         Standard orientation:
 ---------------------------------------------------------------------
 Center     Atomic      Atomic             Coordinates (Angstroms)
 Number     Number       Type             X           Y           Z
 ---------------------------------------------------------------------
      1          6           0       -0.210220    0.507768    0.000000
      2          6           0        0.968456    1.455678    0.000000
      3         17           0       -0.210220   -0.525835    1.481563
      4         17           0       -0.210220   -0.525835   -1.481563
      5          1           0       -1.167316    1.019479    0.000000
      6          1           0        1.907642    0.901828    0.000000
      7          1           0        0.928873    2.088203    0.889390
      8          1           0        0.928873    2.088203   -0.889390
 ---------------------------------------------------------------------

 SCF Done:  E(RHF) =  -997.322483166     A.U. after    2 cycles

 The electronic state is 1-A'.
 Alpha  occ. eigenvalues -- -105.57452-105.57451 -11.38279 -11.26355 -10.62275
 Alpha  occ. eigenvalues --  -10.62274  -7.79214  -7.79211  -7.78821  -7.78818
 Alpha  occ. eigenvalues --   -7.78814  -7.78812  -1.17010  -1.04429  -1.00059
 Alpha  occ. eigenvalues --   -0.83612  -0.67409  -0.63719  -0.60992  -0.55891
 Alpha  occ. eigenvalues --   -0.54429  -0.47711  -0.47492  -0.45403  -0.44995
 Alpha virt. eigenvalues --    0.03483   0.04498   0.05337   0.06151   0.08379
 Alpha virt. eigenvalues --    0.09490   0.11699   0.13566   0.13854   0.14097
 Alpha virt. eigenvalues --    0.16517   0.16944   0.16960   0.17783   0.18708

 Mulliken charges:
               1
     1  C   -0.833711
     2  C   -0.053019
     3  Cl  -0.006996
     4  Cl  -0.006996
     5  H    0.299531
     6  H    0.211084
     7  H    0.195054
     8  H    0.195054
 Sum of Mulliken charges =  -0.00000

 Dipole moment (field-independent basis, Debye):
    X=              0.3080    Y=              2.3528    Z=              0.0000  Tot=              2.3729

 Test job not archived.
 1\1\GINC-SE016\SP\RHF\Aug-CC-pVDZ\C2H4Cl2\OHZDE\08-Apr-2025\0\\#t hf a
 ug-cc-pvdz iop(5/13=1,5/36=2,99/5=2) pseudo=read geom=check guess=(rea
 d,tcheck) scf=(maxcycle=1)\\title\\0,1\C,0,0.,0.342838,0.429515\C,0,0.
 ,1.742466,-0.143942\Cl,0,1.481563,-0.561929,-0.070217\Cl,0,-1.481563,-
 0.561929,-0.070217\H,0,0.,0.328023,1.514716\H,0,0.,1.711735,-1.233839\
 H,0,0.88939,2.27701,0.196524\H,0,-0.88939,2.27701,0.196524\\Version=ES
 64L-G16RevC.01\State=1-A'\HF=-997.3224832\RMSD=6.493e-03\Dipole=0.,0.8
 688651,0.3414729\Quadrupole=-2.0365438,1.1946959,0.8418479,0.,0.,0.326

 Normal termination of Gaussian 16 at Tue Apr  8 22:29:40 2025.
