 Gaussian 16, Revision C.01,

 ----------------------------------------------------------------------
 #t hf aug-cc-pvdz symm=none int=(grid=ultrafine) guess=(read,tcheck) s
 table=(opt,rrhf)
 ----------------------------------------------------------------------
 -----
 title
 -----
 Symbolic Z-matrix:
 Charge =  0 Multiplicity = 1

 SCF Done:  E(RHF) =  -571.632660334     A.U. after   14 cycles
 Normal termination of Gaussian 16 at Wed Apr  9 00:01:31 2025.
 Gaussian 16:  ES64L-G16RevC.01  3-Jul-2019

 ----------------------------------------------------------------------
 #t hf aug-cc-pvdz iop(5/13=1,5/36=2,99/5=2) pseudo=read geom=check gue
 ss=(read,tcheck) scf=(maxcycle=1)
 ----------------------------------------------------------------------
 -----
 title
 -----
 Structure from the checkpoint file:  "BDE49_nonexpt_2148_mol1.chk"
 Charge =  0 Multiplicity = 1

                         Standard orientation:
 ---------------------------------------------------------------------
 Center     Atomic      Atomic             Coordinates (Angstroms)
 Number     Number       Type             X           Y           Z
 ---------------------------------------------------------------------
      1          7           0       -1.212198    0.116602    0.000157
      2          8           0       -1.233866    1.343737   -0.000119
      3          8           0       -2.207096   -0.604393   -0.000121
      4         14           0        0.443913   -0.715906    0.000039
      5          6           0        1.776039    0.288177    0.777811
      6          6           0        1.775973    0.288234   -0.777774
      7          1           0        2.604348   -0.217649    1.264361
      8          1           0        1.494865    1.220009    1.256999
      9          1           0        1.494759    1.220105   -1.256866
     10          1           0        2.604243   -0.217551   -1.264432
     11          1           0        0.288010   -2.171652   -0.000009
 ---------------------------------------------------------------------

 SCF Done:  E(RHF) =  -571.941705184     A.U. after    2 cycles

 The electronic state is 1-A.
 Alpha  occ. eigenvalues --  -69.59102 -20.59556 -20.59298 -15.76155 -11.26042
 Alpha  occ. eigenvalues --  -11.26004  -6.26186  -4.01641  -4.01499  -4.01400
 Alpha  occ. eigenvalues --   -1.65810  -1.50030  -1.08624  -0.99375  -0.84574
 Alpha  occ. eigenvalues --   -0.81527  -0.74236  -0.72731  -0.69476  -0.65760
 Alpha  occ. eigenvalues --   -0.60343  -0.54765  -0.50164  -0.47909  -0.45578
 Alpha  occ. eigenvalues --   -0.44880  -0.39542
 Alpha virt. eigenvalues --    0.02974   0.03486   0.04576   0.04710   0.04775
 Alpha virt. eigenvalues --    0.06499   0.07089   0.07125   0.09368   0.10348
 Alpha virt. eigenvalues --    0.12333   0.12785   0.13443   0.14422   0.14633

 Mulliken charges:
               1
     1  N    1.753204
     2  O   -1.161906
     3  O   -1.204626
     4  Si   1.034742
     5  C   -0.065590
     6  C   -0.065628
     7  H   -0.074190
     8  H   -0.042310
     9  H   -0.042300
    10  H   -0.074197
    11  H   -0.057198
 Sum of Mulliken charges =  -0.00000

 Dipole moment (field-independent basis, Debye):
    X=              4.0049    Y=             -1.5894    Z=              0.0003  Tot=              4.3087

 Test job not archived.
 1\1\GINC-SE343\SP\RHF\Aug-CC-pVDZ\C2H5N1O2Si1\OHZDE\09-Apr-2025\0\\#t
 hf aug-cc-pvdz iop(5/13=1,5/36=2,99/5=2) pseudo=read geom=check guess=
 (read,tcheck) scf=(maxcycle=1)\\title\\0,1\N,0,-1.212198,0.116602,0.00
 0157\O,0,-1.233866,1.343737,-0.000119\O,0,-2.207096,-0.604393,-0.00012
 1\Si,0,0.443913,-0.715906,0.000039\C,0,1.776039,0.288177,0.777811\C,0,
 1.775973,0.288234,-0.777774\H,0,2.604348,-0.217649,1.264361\H,0,1.4948
 65,1.220009,1.256999\H,0,1.494759,1.220105,-1.256866\H,0,2.604243,-0.2
 17551,-1.264432\H,0,0.28801,-2.171652,-0.000009\\Version=ES64L-G16RevC

 Normal termination of Gaussian 16 at Wed Apr  9 00:01:34 2025.
