 Gaussian 16, Revision C.01,

 ----------------------------------------------------------------------
 #t hf aug-cc-pvdz symm=none int=(grid=ultrafine) guess=(read,tcheck) s
 table=(opt,rrhf)
 ----------------------------------------------------------------------
 -----
 title
 -----
 Symbolic Z-matrix:
 Charge =  0 Multiplicity = 1

 SCF Done:  E(RHF) =  -840.764278748     A.U. after   15 cycles
 Normal termination of Gaussian 16 at Tue Apr  8 23:19:43 2025.
 Gaussian 16:  ES64L-G16RevC.01  3-Jul-2019

 ----------------------------------------------------------------------
 #t hf aug-cc-pvdz iop(5/13=1,5/36=2,99/5=2) pseudo=read geom=check gue
 ss=(read,tcheck) scf=(maxcycle=1)
 ----------------------------------------------------------------------
 -----
 title
 -----
 Structure from the checkpoint file:  "BDE49_nonexpt_1073_mol1.chk"
 Charge =  0 Multiplicity = 1

                         Standard orientation:
 ---------------------------------------------------------------------
 Center     Atomic      Atomic             Coordinates (Angstroms)
 Number     Number       Type             X           Y           Z
 ---------------------------------------------------------------------
      1         17           0       -2.157297   -0.594532   -0.268877
      2          8           0       -0.490183   -0.438523   -0.726046
      3          6           0        0.392746    0.051669    0.344376
      4          8           0        0.072772    1.332900    0.711263
      5          8           0        1.616634    0.060756   -0.320840
      6          6           0        0.149481    2.333061   -0.316401
      7          1           0       -0.291739    3.228115    0.118450
      8          1           0       -0.420047    2.028556   -1.196408
      9          1           0        1.187051    2.524046   -0.594490
     10          6           0        2.202208   -1.193091   -0.683719
     11          1           0        3.050145   -0.947199   -1.321246
     12          1           0        1.497603   -1.814441   -1.238765
     13          1           0        2.563827   -1.732393    0.197199
     14          6           0        0.340251   -0.818406    1.588884
     15          1           0       -0.606166   -0.666335    2.104020
     16          1           0        1.152250   -0.520331    2.253337
     17          1           0        0.439221   -1.873434    1.334963
 ---------------------------------------------------------------------

 SCF Done:  E(RHF) =  -841.228249064     A.U. after    2 cycles

 The electronic state is 1-A.
 Alpha  occ. eigenvalues -- -105.61321 -20.61924 -20.56646 -20.56186 -11.41598
 Alpha  occ. eigenvalues --  -11.29451 -11.28148 -11.23998 -10.65530  -7.82516
 Alpha  occ. eigenvalues --   -7.81997  -7.81972  -1.55163  -1.45628  -1.44086
 Alpha  occ. eigenvalues --   -1.04929  -1.01703  -0.96179  -0.93308  -0.80171
 Alpha  occ. eigenvalues --   -0.72323  -0.71640  -0.69389  -0.64433  -0.62934
 Alpha  occ. eigenvalues --   -0.60107  -0.58927  -0.57921  -0.56808  -0.55815
 Alpha  occ. eigenvalues --   -0.54046  -0.51171  -0.49309  -0.47565  -0.44931
 Alpha  occ. eigenvalues --   -0.44107  -0.43563
 Alpha virt. eigenvalues --    0.03612   0.04241   0.04405   0.04906   0.05942
 Alpha virt. eigenvalues --    0.06540   0.06926   0.07101   0.08154   0.09491
 Alpha virt. eigenvalues --    0.10615   0.12887   0.13351   0.14097   0.14563

 Mulliken charges:
               1
     1  Cl   0.190318
     2  O   -1.426777
     3  C    3.322526
     4  O   -1.590006
     5  O   -1.676780
     6  C    0.030737
     7  H   -0.015920
     8  H    0.195069
     9  H    0.179198
    10  C    0.141198
    11  H   -0.009952
    12  H    0.181706
    13  H    0.150180
    14  C   -0.272952
    15  H    0.129838
    16  H    0.237288
    17  H    0.234330
 Sum of Mulliken charges =  -0.00000

 Dipole moment (field-independent basis, Debye):
    X=              1.5445    Y=             -0.6830    Z=              0.2412  Tot=              1.7059

 Test job not archived.
 1\1\GINC-SE166\SP\RHF\Aug-CC-pVDZ\C4H9Cl1O3\OHZDE\08-Apr-2025\0\\#t hf
  aug-cc-pvdz iop(5/13=1,5/36=2,99/5=2) pseudo=read geom=check guess=(r
 ead,tcheck) scf=(maxcycle=1)\\title\\0,1\Cl,0,-2.157297,-0.594532,-0.2
 68877\O,0,-0.490183,-0.438523,-0.726046\C,0,0.392746,0.051669,0.344376
 \O,0,0.072772,1.3329,0.711263\O,0,1.616634,0.060756,-0.32084\C,0,0.149
 481,2.333061,-0.316401\H,0,-0.29174,3.228115,0.11845\H,0,-0.420047,2.0
 28556,-1.196408\H,0,1.18705,2.524046,-0.59449\C,0,2.202208,-1.193091,-
 0.683719\H,0,3.050145,-0.947198,-1.321246\H,0,1.497603,-1.814441,-1.23

 Normal termination of Gaussian 16 at Tue Apr  8 23:19:51 2025.
