 Gaussian 16, Revision C.01,

 ----------------------------------------------------------------------
 #t hf aug-cc-pvdz symm=none int=(grid=ultrafine) guess=(read,tcheck) s
 table=(opt,rrhf)
 ----------------------------------------------------------------------
 -----
 title
 -----
 Symbolic Z-matrix:
 Charge =  0 Multiplicity = 1

 SCF Done:  E(RHF) =  -552.477192499     A.U. after   12 cycles
 Normal termination of Gaussian 16 at Tue Apr  8 23:37:18 2025.
 Gaussian 16:  ES64L-G16RevC.01  3-Jul-2019

 ----------------------------------------------------------------------
 #t hf aug-cc-pvdz iop(5/13=1,5/36=2,99/5=2) pseudo=read geom=check gue
 ss=(read,tcheck) scf=(maxcycle=1)
 ----------------------------------------------------------------------
 -----
 title
 -----
 Structure from the checkpoint file:  "BDE49_nonexpt_1529_mol1.chk"
 Charge =  0 Multiplicity = 1

                         Standard orientation:
 ---------------------------------------------------------------------
 Center     Atomic      Atomic             Coordinates (Angstroms)
 Number     Number       Type             X           Y           Z
 ---------------------------------------------------------------------
      1          7           0       -1.763164    0.928617   -0.614016
      2          6           0        0.352429   -0.534160    0.421309
      3          6           0        1.150638    0.751993    0.790927
      4          6           0        1.234112   -0.663762   -0.855666
      5          6           0        2.257798    0.300841   -0.199131
      6          1           0        0.745488   -0.202384   -1.717362
      7          1           0        1.574014   -1.663552   -1.131856
      8          1           0        2.704947    1.067205   -0.835571
      9          1           0        3.057550   -0.242555    0.310077
     10          1           0        1.421790    0.887452    1.839940
     11          1           0        0.649626    1.655174    0.434021
     12         15           0       -1.487385   -0.553648    0.207255
     13          1           0        0.580902   -1.340762    1.127466
     14          1           0       -1.790553   -0.209181    1.558512
     15          1           0       -1.699281    1.802303   -0.109285
     16          1           0       -2.561422    0.921225   -1.231296
 ---------------------------------------------------------------------

 SCF Done:  E(RHF) =  -552.753489240     A.U. after    2 cycles

 The electronic state is 1-A.
 Alpha  occ. eigenvalues --  -84.27987 -15.49074 -11.23318 -11.22980 -11.22709
 Alpha  occ. eigenvalues --  -11.22600  -6.74716  -4.27500  -4.27214  -4.26485
 Alpha  occ. eigenvalues --   -1.16329  -1.12412  -0.91930  -0.89757  -0.80793
 Alpha  occ. eigenvalues --   -0.74282  -0.70011  -0.65881  -0.62568  -0.58110
 Alpha  occ. eigenvalues --   -0.54555  -0.53079  -0.50743  -0.46527  -0.45639
 Alpha  occ. eigenvalues --   -0.45109  -0.40371  -0.32366
 Alpha virt. eigenvalues --    0.03498   0.03971   0.04309   0.04527   0.05888
 Alpha virt. eigenvalues --    0.06400   0.06681   0.07021   0.07942   0.09151
 Alpha virt. eigenvalues --    0.10606   0.10990   0.11739   0.14009   0.14195

 Mulliken charges:
               1
     1  N   -0.039346
     2  C   -0.223471
     3  C   -0.282208
     4  C   -0.332438
     5  C    0.024210
     6  H    0.094694
     7  H    0.035761
     8  H    0.034033
     9  H    0.044857
    10  H    0.025075
    11  H    0.034195
    12  P    0.220888
    13  H    0.021511
    14  H    0.345023
    15  H   -0.018769
    16  H    0.015987
 Sum of Mulliken charges =  -0.00000

 Dipole moment (field-independent basis, Debye):
    X=              0.0202    Y=              0.9525    Z=              0.5438  Tot=              1.0970

 Test job not archived.
 1\1\GINC-SE099\SP\RHF\Aug-CC-pVDZ\C4H10N1P1\OHZDE\08-Apr-2025\0\\#t hf
  aug-cc-pvdz iop(5/13=1,5/36=2,99/5=2) pseudo=read geom=check guess=(r
 ead,tcheck) scf=(maxcycle=1)\\title\\0,1\N,0,-1.763164,0.928617,-0.614
 016\C,0,0.352429,-0.53416,0.421309\C,0,1.150638,0.751993,0.790927\C,0,
 1.234112,-0.663762,-0.855666\C,0,2.257798,0.300841,-0.199131\H,0,0.745
 488,-0.202384,-1.717362\H,0,1.574014,-1.663552,-1.131856\H,0,2.704947,
 1.067205,-0.835571\H,0,3.05755,-0.242555,0.310077\H,0,1.42179,0.887452
 ,1.83994\H,0,0.649626,1.655174,0.434021\P,0,-1.487385,-0.553648,0.2072

 Normal termination of Gaussian 16 at Tue Apr  8 23:37:25 2025.
