 Gaussian 16, Revision C.01,

 ----------------------------------------------------------------------
 #t hf aug-cc-pvdz symm=none int=(grid=ultrafine) guess=(read,tcheck) s
 table=(opt,rrhf)
 ----------------------------------------------------------------------
 -----
 title
 -----
 Symbolic Z-matrix:
 Charge =  0 Multiplicity = 1

 SCF Done:  E(RHF) =  -556.979608359     A.U. after   19 cycles
 Normal termination of Gaussian 16 at Tue Apr  8 23:24:41 2025.
 Gaussian 16:  ES64L-G16RevC.01  3-Jul-2019

 ----------------------------------------------------------------------
 #t hf aug-cc-pvdz iop(5/13=1,5/36=2,99/5=2) pseudo=read geom=check gue
 ss=(read,tcheck) scf=(maxcycle=1)
 ----------------------------------------------------------------------
 -----
 title
 -----
 Structure from the checkpoint file:  "BDE49_nonexpt_1180_mol1.chk"
 Charge =  0 Multiplicity = 1

                         Standard orientation:
 ---------------------------------------------------------------------
 Center     Atomic      Atomic             Coordinates (Angstroms)
 Number     Number       Type             X           Y           Z
 ---------------------------------------------------------------------
      1          9           0        2.326268   -1.833087    0.739333
      2          6           0        1.299790    0.014530   -0.239779
      3          8           0        2.138032   -0.987530   -0.552563
      4          6           0       -0.108278   -0.224798   -0.135647
      5          6           0       -0.664287   -1.520544   -0.213008
      6          1           0        0.001925   -2.364360   -0.333343
      7          6           0       -2.026416   -1.692087   -0.115502
      8          1           0       -2.449603   -2.688357   -0.174575
      9          6           0       -2.882619   -0.582540    0.064429
     10          1           0       -3.952642   -0.738416    0.139752
     11          6           0       -2.364084    0.687441    0.146418
     12          1           0       -3.017487    1.541817    0.286559
     13          6           0       -0.965166    0.902111    0.049897
     14          6           0       -0.392559    2.199394    0.130277
     15          1           0       -1.053116    3.049486    0.265390
     16          6           0        0.968670    2.392720    0.041804
     17          1           0        1.383831    3.391329    0.105667
     18          6           0        1.825966    1.289845   -0.119083
     19          1           0        2.900329    1.410080   -0.181780
 ---------------------------------------------------------------------

 SCF Done:  E(RHF) =  -557.530504155     A.U. after    2 cycles

 The electronic state is 1-A.
 Alpha  occ. eigenvalues --  -26.47613 -20.68817 -11.31575 -11.27657 -11.27431
 Alpha  occ. eigenvalues --  -11.27063 -11.26837 -11.26437 -11.26035 -11.25853
 Alpha  occ. eigenvalues --  -11.25706 -11.25332  -1.60278  -1.40352  -1.19262
 Alpha  occ. eigenvalues --   -1.12941  -1.05871  -1.03305  -0.99511  -0.88049
 Alpha  occ. eigenvalues --   -0.87396  -0.83278  -0.74685  -0.74600  -0.72048
 Alpha  occ. eigenvalues --   -0.68308  -0.66999  -0.65114  -0.63534  -0.62767
 Alpha  occ. eigenvalues --   -0.61592  -0.59355  -0.57987  -0.56520  -0.55251
 Alpha  occ. eigenvalues --   -0.53836  -0.51368  -0.49681  -0.47268  -0.40632
 Alpha  occ. eigenvalues --   -0.34824  -0.31582
 Alpha virt. eigenvalues --    0.02823   0.02903   0.03041   0.03765   0.04502
 Alpha virt. eigenvalues --    0.05304   0.07171   0.07793   0.08046   0.08319
 Alpha virt. eigenvalues --    0.10188   0.10461   0.11129   0.11677   0.12118

 Mulliken charges:
               1
     1  F   -0.404756
     2  C    0.919306
     3  O   -1.303111
     4  C    0.946351
     5  C    0.223245
     6  H   -0.324468
     7  C    0.041898
     8  H   -0.223710
     9  C   -0.098394
    10  H   -0.235729
    11  C    0.285140
    12  H   -0.296151
    13  C    1.312395
    14  C   -0.093865
    15  H   -0.300512
    16  C    0.203124
    17  H   -0.218190
    18  C   -0.135003
    19  H   -0.297568
 Sum of Mulliken charges =  -0.00000

 Dipole moment (field-independent basis, Debye):
    X=             -2.3586    Y=              2.6033    Z=             -0.3264  Tot=              3.5280

 Test job not archived.
 1\1\GINC-SE060\SP\RHF\Aug-CC-pVDZ\C10H7F1O1\OHZDE\08-Apr-2025\0\\#t hf
  aug-cc-pvdz iop(5/13=1,5/36=2,99/5=2) pseudo=read geom=check guess=(r
 ead,tcheck) scf=(maxcycle=1)\\title\\0,1\F,0,2.326268,-1.833087,0.7393
 33\C,0,1.29979,0.01453,-0.239779\O,0,2.138032,-0.98753,-0.552563\C,0,-
 0.108278,-0.224798,-0.135647\C,0,-0.664287,-1.520544,-0.213008\H,0,0.0
 01925,-2.36436,-0.333343\C,0,-2.026416,-1.692087,-0.115502\H,0,-2.4496
 03,-2.688357,-0.174575\C,0,-2.882619,-0.58254,0.064429\H,0,-3.952642,-
 0.738416,0.139752\C,0,-2.364084,0.687441,0.146418\H,0,-3.017487,1.5418

 Normal termination of Gaussian 16 at Tue Apr  8 23:24:54 2025.
