 Gaussian 16, Revision C.01,

 ----------------------------------------------------------------------
 #t hf aug-cc-pvdz symm=none int=(grid=ultrafine) guess=(read,tcheck) s
 table=opt
 ----------------------------------------------------------------------
 -----
 title
 -----
 Symbolic Z-matrix:
 Charge =  0 Multiplicity = 2

 SCF Done:  E(UHF) =  -680.482545516     A.U. after   16 cycles
 Normal termination of Gaussian 16 at Tue Apr  8 23:54:29 2025.
 Gaussian 16:  ES64L-G16RevC.01  3-Jul-2019

 ----------------------------------------------------------------------
 #t hf aug-cc-pvdz iop(5/13=1,5/36=2,99/5=2) pseudo=read geom=check gue
 ss=(read,tcheck) scf=(maxcycle=1)
 ----------------------------------------------------------------------
 -----
 title
 -----
 Structure from the checkpoint file:  "BDE49_nonexpt_1955_mol3.chk"
 Charge =  0 Multiplicity = 2

                         Standard orientation:
 ---------------------------------------------------------------------
 Center     Atomic      Atomic             Coordinates (Angstroms)
 Number     Number       Type             X           Y           Z
 ---------------------------------------------------------------------
      1          6           0       -2.246198   -0.004726   -0.044850
      2         15           0        0.350419   -0.035370    0.109977
      3          8           0        0.679842   -1.131475   -0.994472
      4          8           0        1.354300    1.137673   -0.276723
      5          1           0        1.276667   -1.810905   -0.658727
      6          1           0        1.442579    1.785756    0.432241
      7          8           0        0.366802   -0.481332    1.502331
      8          8           0       -1.041574    0.554438   -0.426098
      9          1           0       -2.275309   -0.532287    0.898693
     10          1           0       -3.098009    0.481904   -0.493076
 ---------------------------------------------------------------------

 SCF Done:  E(UHF) =  -680.860903796     A.U. after    2 cycles

 The electronic state is 2-A.
 Alpha  occ. eigenvalues --  -84.46934 -20.60429 -20.60389 -20.60227 -20.51750
 Alpha  occ. eigenvalues --  -11.31468  -6.91790  -4.45981  -4.45272  -4.45208
 Alpha  occ. eigenvalues --   -1.57684  -1.50219  -1.48930  -1.40225  -0.97820
 Alpha  occ. eigenvalues --   -0.85266  -0.75384  -0.73891  -0.68483  -0.67388
 Alpha  occ. eigenvalues --   -0.63854  -0.62302  -0.58411  -0.56815  -0.54695
 Alpha  occ. eigenvalues --   -0.53166  -0.47180  -0.47114  -0.37231
 Alpha virt. eigenvalues --    0.03389   0.04479   0.04680   0.06261   0.09400
 Alpha virt. eigenvalues --    0.09934   0.10777   0.11800   0.13733   0.14966
 Alpha virt. eigenvalues --    0.16996   0.18258   0.18625   0.19595   0.20315

  Beta  occ. eigenvalues --  -84.46935 -20.60436 -20.60389 -20.59837 -20.51760
  Beta  occ. eigenvalues --  -11.28908  -6.91790  -4.45977  -4.45271  -4.45210
  Beta  occ. eigenvalues --   -1.57235  -1.49239  -1.48933  -1.40204  -0.92976
  Beta  occ. eigenvalues --   -0.82812  -0.75022  -0.72882  -0.67885  -0.66610
  Beta  occ. eigenvalues --   -0.63233  -0.58381  -0.57208  -0.56691  -0.53685
  Beta  occ. eigenvalues --   -0.52649  -0.47187  -0.46988
  Beta virt. eigenvalues --    0.03423   0.04569   0.04681   0.06315   0.07710
  Beta virt. eigenvalues --    0.09476   0.10264   0.11599   0.12935   0.14893
  Beta virt. eigenvalues --    0.17272   0.17413   0.18384   0.19472   0.19839

 Mulliken charges and spin densities:
               1          2
     1  C    0.398003   1.191106
     2  P    4.123242  -0.004138
     3  O   -1.206307   0.001689
     4  O   -1.207945  -0.002047
     5  H    0.323069   0.000221
     6  H    0.335436   0.000739
     7  O   -1.382688   0.000954
     8  O   -1.463337  -0.001675
     9  H    0.078211  -0.097794
    10  H    0.002316  -0.089054
 Sum of Mulliken charges =  -0.00000   1.00000

 Dipole moment (field-independent basis, Debye):
    X=              0.0471    Y=              0.5296    Z=             -0.5194  Tot=              0.7433
                          Isotropic Fermi Contact Couplings
        Atom                 a.u.       MegaHertz       Gauss      10(-4) cm-1
     1  C(13)              0.24254     272.65587      97.29039      90.94821
     2  P(31)             -0.00172      -3.10840      -1.10915      -1.03685
     3  O(17)              0.00007      -0.04206      -0.01501      -0.01403
     4  O(17)             -0.00143       0.86445       0.30846       0.28835
     5  H(1)               0.00024       1.08450       0.38698       0.36175
     6  H(1)               0.00005       0.23608       0.08424       0.07875
     7  O(17)             -0.00128       0.77884       0.27791       0.25979
     8  O(17)              0.02985     -18.09400      -6.45639      -6.03551

 Normal termination of Gaussian 16 at Tue Apr  8 23:54:33 2025.
