 Gaussian 16, Revision C.01,

 ----------------------------------------------------------------------
 #t hf aug-cc-pvdz symm=none int=(grid=ultrafine) guess=(read,tcheck) s
 table=opt
 ----------------------------------------------------------------------
 -----
 title
 -----
 Symbolic Z-matrix:
 Charge =  0 Multiplicity = 2

 SCF Done:  E(UHF) =  -433.683550555     A.U. after   27 cycles
 Normal termination of Gaussian 16 at Wed Apr  9 00:52:09 2025.
 Gaussian 16:  ES64L-G16RevC.01  3-Jul-2019

 ----------------------------------------------------------------------
 #t hf aug-cc-pvdz iop(5/13=1,5/36=2,99/5=2) pseudo=read geom=check gue
 ss=(read,tcheck) scf=(maxcycle=1)
 ----------------------------------------------------------------------
 -----
 title
 -----
 Structure from the checkpoint file:  "BDE49_nonexpt_958_mol2.chk"
 Charge =  0 Multiplicity = 2

                         Standard orientation:
 ---------------------------------------------------------------------
 Center     Atomic      Atomic             Coordinates (Angstroms)
 Number     Number       Type             X           Y           Z
 ---------------------------------------------------------------------
      1          7           0       -0.000129   -1.255560   -0.283018
      2          6           0        1.047077   -0.442811    0.040747
      3          8           0        2.220136   -0.412619    0.033542
      4          6           0       -1.047216   -0.442460    0.040253
      5          7           0        0.000011    0.642411    0.465587
      6          8           0       -2.220281   -0.412341    0.033688
      7          9           0        0.000314    1.800372   -0.255758
 ---------------------------------------------------------------------

 SCF Done:  E(UHF) =  -434.087334489     A.U. after    2 cycles

 The electronic state is 2-A.
 Alpha  occ. eigenvalues --  -26.57849 -20.61465 -20.61462 -15.74861 -15.62396
 Alpha  occ. eigenvalues --  -11.47849 -11.47751  -1.71086  -1.57587  -1.56523
 Alpha  occ. eigenvalues --   -1.42596  -1.20639  -0.96347  -0.88708  -0.85319
 Alpha  occ. eigenvalues --   -0.82230  -0.76087  -0.73080  -0.72582  -0.67924
 Alpha  occ. eigenvalues --   -0.66074  -0.62115  -0.61717  -0.55587  -0.51055
 Alpha  occ. eigenvalues --   -0.50794
 Alpha virt. eigenvalues --    0.05601   0.07366   0.08389   0.08471   0.09147
 Alpha virt. eigenvalues --    0.09540   0.09923   0.10079   0.10517   0.14906
 Alpha virt. eigenvalues --    0.16403   0.18067   0.19392   0.20383   0.21595

  Beta  occ. eigenvalues --  -26.57653 -20.61623 -20.61620 -15.72051 -15.60328
  Beta  occ. eigenvalues --  -11.48093 -11.47995  -1.69644  -1.57748  -1.56868
  Beta  occ. eigenvalues --   -1.38260  -1.12615  -0.95715  -0.84374  -0.83671
  Beta  occ. eigenvalues --   -0.76285  -0.75691  -0.73015  -0.68238  -0.67726
  Beta  occ. eigenvalues --   -0.62707  -0.58811  -0.57160  -0.49363  -0.46764
  Beta virt. eigenvalues --   -0.08860   0.05686   0.08041   0.08350   0.08532
  Beta virt. eigenvalues --    0.08560   0.09229   0.10074   0.10371   0.10506
  Beta virt. eigenvalues --    0.15100   0.17746   0.18517   0.19508   0.20516

 Mulliken charges and spin densities:
               1          2
     1  N    0.496947   0.559165
     2  C    0.578922  -0.102864
     3  O   -0.936882  -0.024920
     4  C    0.578816  -0.102852
     5  N    0.823482   0.695754
     6  O   -0.936875  -0.024969
     7  F   -0.604411   0.000685
 Sum of Mulliken charges =  -0.00000   1.00000

 Dipole moment (field-independent basis, Debye):
    X=              0.0003    Y=              0.7410    Z=              0.5472  Tot=              0.9211
                          Isotropic Fermi Contact Couplings
        Atom                 a.u.       MegaHertz       Gauss      10(-4) cm-1
     1  N(14)              0.14099      45.55294      16.25442      15.19482
     2  C(13)             -0.07947     -89.34135     -31.87922     -29.80107
     3  O(17)             -0.01387       8.40848       3.00035       2.80477
     4  C(13)             -0.07950     -89.37317     -31.89057     -29.81168
     5  N(14)              0.20423      65.98914      23.54657      22.01161
     6  O(17)             -0.01389       8.41862       3.00397       2.80815
     7  F(19)              0.04466     187.91098      67.05131      62.68036
 --------------------------------------------------------

 Normal termination of Gaussian 16 at Wed Apr  9 00:52:12 2025.
