 Gaussian 16, Revision C.01,

 ----------------------------------------------------------------------
 #t hf aug-cc-pvdz symm=none int=(grid=ultrafine) guess=(read,tcheck) s
 table=(opt,rrhf)
 ----------------------------------------------------------------------
 -----
 title
 -----
 Symbolic Z-matrix:
 Charge =  0 Multiplicity = 1

 SCF Done:  E(RHF) =  -636.660794835     A.U. after   15 cycles
 Normal termination of Gaussian 16 at Wed Apr  9 00:44:33 2025.
 Gaussian 16:  ES64L-G16RevC.01  3-Jul-2019

 ----------------------------------------------------------------------
 #t hf aug-cc-pvdz iop(5/13=1,5/36=2,99/5=2) pseudo=read geom=check gue
 ss=(read,tcheck) scf=(maxcycle=1)
 ----------------------------------------------------------------------
 -----
 title
 -----
 Structure from the checkpoint file:  "BDE49_nonexpt_737_mol1.chk"
 Charge =  0 Multiplicity = 1

                         Standard orientation:
 ---------------------------------------------------------------------
 Center     Atomic      Atomic             Coordinates (Angstroms)
 Number     Number       Type             X           Y           Z
 ---------------------------------------------------------------------
      1          6           0       -1.051348    0.127297   -0.229450
      2          5           0        1.959467    0.073343    0.107534
      3          6           0        3.107201   -0.840165    0.674087
      4          1           0        2.991908   -0.859003    1.768445
      5          1           0        4.099140   -0.412773    0.489111
      6          1           0        3.101682   -1.879384    0.336731
      7          8           0       -1.138672    1.324790   -0.372540
      8          6           0       -2.192323   -0.720247    0.324057
      9          6           0        2.058418    1.634730    0.148808
     10          1           0        2.572780    1.953525   -0.770960
     11          1           0        2.675696    1.991264    0.980080
     12          1           0        1.094544    2.147626    0.150598
     13          6           0       -3.482811    0.068088    0.538422
     14          1           0       -1.840550   -1.165501    1.262761
     15          1           0       -2.347009   -1.564575   -0.358017
     16          1           0       -3.321114    0.902901    1.222157
     17          1           0       -4.259147   -0.577245    0.956013
     18          1           0       -3.849231    0.483393   -0.402428
     19         15           0        0.492612   -0.773744   -0.788963
     20          1           0        0.369345   -1.997321   -0.092941
 ---------------------------------------------------------------------

 SCF Done:  E(RHF) =  -637.019262431     A.U. after    2 cycles

 The electronic state is 1-A.
 Alpha  occ. eigenvalues --  -84.25951 -20.54199 -11.34898 -11.25385 -11.23130
 Alpha  occ. eigenvalues --  -11.21520 -11.20223  -7.60613  -6.73493  -4.26274
 Alpha  occ. eigenvalues --   -4.26144  -4.25278  -1.47765  -1.06316  -0.98785
 Alpha  occ. eigenvalues --   -0.93282  -0.92976  -0.85435  -0.73598  -0.65642
 Alpha  occ. eigenvalues --   -0.64243  -0.63264  -0.59828  -0.57790  -0.56971
 Alpha  occ. eigenvalues --   -0.55357  -0.54302  -0.53935  -0.53027  -0.52069
 Alpha  occ. eigenvalues --   -0.49626  -0.47929  -0.44652  -0.37887  -0.33013
 Alpha virt. eigenvalues --    0.03022   0.03624   0.03886   0.04288   0.05260
 Alpha virt. eigenvalues --    0.05480   0.05621   0.06699   0.07168   0.07982
 Alpha virt. eigenvalues --    0.08285   0.08473   0.08952   0.09716   0.10583

 Mulliken charges:
               1
     1  C    0.722056
     2  B    1.001897
     3  C   -0.385634
     4  H    0.152233
     5  H   -0.000904
     6  H   -0.056358
     7  O   -1.302677
     8  C   -0.583864
     9  C   -0.320875
    10  H    0.144611
    11  H    0.016024
    12  H    0.021424
    13  C   -0.313522
    14  H    0.234475
    15  H    0.235043
    16  H    0.181420
    17  H    0.136830
    18  H    0.165965
    19  P   -0.406492
    20  H    0.358345
 Sum of Mulliken charges =   0.00000

 Dipole moment (field-independent basis, Debye):
    X=              0.4138    Y=             -2.2422    Z=              1.1953  Tot=              2.5744

 Test job not archived.
 1\1\GINC-SE184\SP\RHF\Aug-CC-pVDZ\C5H12B1O1P1\OHZDE\09-Apr-2025\0\\#t
 hf aug-cc-pvdz iop(5/13=1,5/36=2,99/5=2) pseudo=read geom=check guess=
 (read,tcheck) scf=(maxcycle=1)\\title\\0,1\C,0,-1.051348,0.127297,-0.2
 2945\B,0,1.959467,0.073343,0.107534\C,0,3.107201,-0.840165,0.674087\H,
 0,2.991908,-0.859003,1.768445\H,0,4.09914,-0.412773,0.489111\H,0,3.101
 682,-1.879384,0.336731\O,0,-1.138672,1.32479,-0.37254\C,0,-2.192323,-0
 .720247,0.324057\C,0,2.058418,1.63473,0.148808\H,0,2.57278,1.953525,-0
 .77096\H,0,2.675696,1.991264,0.98008\H,0,1.094544,2.147626,0.150598\C,

 Normal termination of Gaussian 16 at Wed Apr  9 00:44:41 2025.
