 Gaussian 16, Revision C.01,

 ----------------------------------------------------------------------
 #t hf aug-cc-pvdz symm=none int=(grid=ultrafine) guess=(read,tcheck) s
 table=(opt,rrhf)
 ----------------------------------------------------------------------
 -----
 title
 -----
 Symbolic Z-matrix:
 Charge =  0 Multiplicity = 1

 SCF Done:  E(RHF) =  -536.967829548     A.U. after   13 cycles

 1\1\GINC-SE059\Stability\RHF\Aug-CC-pVDZ\C2H3Cl1\OHZDE\08-Apr-2025\0\\
 #t hf aug-cc-pvdz symm=none int=(grid=ultrafine) guess=(read,tcheck) s
 table=(opt,rrhf)\\title\\0,1\C,0,-0.577735,0.503288,0.000008\C,0,-1.63
 9866,-0.284724,0.000013\H,0,-2.629441,0.157,0.000041\Cl,0,1.065432,-0.
 099299,-0.000011\H,0,-0.615935,1.583968,0.00003\H,0,-1.561363,-1.36427
 5,0.\\Version=ES64L-G16RevC.01\HF=-536.9678295\RMSD=1.947e-09\Dipole=-
 0.6741628,0.1817277,0.0000161\Quadrupole=0.9839503,1.1716875,-2.155637
 7,-0.0867618,-0.0000605,0.0000486\PG=Unknown\\@

 Normal termination of Gaussian 16 at Tue Apr  8 22:42:25 2025.
 Gaussian 16:  ES64L-G16RevC.01  3-Jul-2019

 ----------------------------------------------------------------------
 #t hf aug-cc-pvdz iop(5/13=1,5/36=2,99/5=2) pseudo=read geom=check gue
 ss=(read,tcheck) scf=(maxcycle=1)
 ----------------------------------------------------------------------
 -----
 title
 -----
 Structure from the checkpoint file:  "BDE49_expt_142_mol1.chk"
 Charge =  0 Multiplicity = 1

                         Standard orientation:
 ---------------------------------------------------------------------
 Center     Atomic      Atomic             Coordinates (Angstroms)
 Number     Number       Type             X           Y           Z
 ---------------------------------------------------------------------
      1          6           0       -0.577735    0.503288    0.000008
      2          6           0       -1.639866   -0.284724    0.000013
      3          1           0       -2.629441    0.157000    0.000041
      4         17           0        1.065432   -0.099299   -0.000011
      5          1           0       -0.615935    1.583968    0.000030
      6          1           0       -1.561363   -1.364275   -0.000000
 ---------------------------------------------------------------------

 SCF Done:  E(RHF) =  -537.126982386     A.U. after    2 cycles

 The electronic state is 1-A.
 Alpha  occ. eigenvalues -- -105.57303 -11.31461 -11.26031 -10.62122  -7.79076
 Alpha  occ. eigenvalues --   -7.78677  -7.78672  -1.13154  -1.00514  -0.79797
 Alpha  occ. eigenvalues --   -0.67450  -0.62978  -0.53887  -0.51974  -0.46477
 Alpha  occ. eigenvalues --   -0.38387
 Alpha virt. eigenvalues --    0.03647   0.04569   0.05328   0.09091   0.09102
 Alpha virt. eigenvalues --    0.12262   0.12344   0.14762   0.15758   0.16400
 Alpha virt. eigenvalues --    0.16812   0.18537   0.18718   0.18940   0.21419

 Mulliken charges:
               1
     1  C   -0.003333
     2  C    0.237412
     3  H   -0.022226
     4  Cl  -0.193607
     5  H   -0.038720
     6  H    0.020475
 Sum of Mulliken charges =  -0.00000

 Dipole moment (field-independent basis, Debye):
    X=             -1.7193    Y=              0.4585    Z=              0.0000  Tot=              1.7794

 Test job not archived.
 1\1\GINC-SE059\SP\RHF\Aug-CC-pVDZ\C2H3Cl1\OHZDE\08-Apr-2025\0\\#t hf a
 ug-cc-pvdz iop(5/13=1,5/36=2,99/5=2) pseudo=read geom=check guess=(rea
 d,tcheck) scf=(maxcycle=1)\\title\\0,1\C,0,-0.577735,0.503288,0.000008
 \C,0,-1.639866,-0.284724,0.000013\H,0,-2.629441,0.157,0.000041\Cl,0,1.
 065432,-0.099299,-0.000011\H,0,-0.615935,1.583968,0.00003\H,0,-1.56136
 3,-1.364275,0.\\Version=ES64L-G16RevC.01\State=1-A\HF=-537.1269824\RMS
 D=1.033e-02\Dipole=-0.6764442,0.1803809,0.0000162\Quadrupole=1.0622271
 ,1.1802545,-2.2424816,-0.0808699,-0.0000623,0.0000498\PG=C01 [X(C2H3Cl

 Normal termination of Gaussian 16 at Tue Apr  8 22:42:27 2025.
