 Gaussian 16, Revision C.01,

 ----------------------------------------------------------------------
 #t hf aug-cc-pvdz symm=none int=(grid=ultrafine) guess=(read,tcheck) s
 table=(opt,rrhf)
 ----------------------------------------------------------------------
 -----
 title
 -----
 Symbolic Z-matrix:
 Charge =  0 Multiplicity = 1

 SCF Done:  E(RHF) =  -702.469755154     A.U. after   15 cycles
 Normal termination of Gaussian 16 at Wed Apr  9 00:41:20 2025.
 Gaussian 16:  ES64L-G16RevC.01  3-Jul-2019

 ----------------------------------------------------------------------
 #t hf aug-cc-pvdz iop(5/13=1,5/36=2,99/5=2) pseudo=read geom=check gue
 ss=(read,tcheck) scf=(maxcycle=1)
 ----------------------------------------------------------------------
 -----
 title
 -----
 Structure from the checkpoint file:  "BDE49_nonexpt_633_mol1.chk"
 Charge =  0 Multiplicity = 1

                         Standard orientation:
 ---------------------------------------------------------------------
 Center     Atomic      Atomic             Coordinates (Angstroms)
 Number     Number       Type             X           Y           Z
 ---------------------------------------------------------------------
      1          9           0        0.431874   -2.354205    0.000004
      2          9           0        0.378614    2.382859   -0.000008
      3          9           0       -3.621410   -0.020881    0.000012
      4          8           0        2.793662    1.199366   -0.000010
      5          8           0        2.865501   -1.132857   -0.000003
      6          6           0        0.543719    0.019134   -0.000003
      7          6           0       -0.217842   -1.153894    0.000003
      8          6           0       -2.278006   -0.008498    0.000007
      9          6           0       -0.230623    1.189808   -0.000003
     10          6           0       -1.599631   -1.217407    0.000008
     11          1           0       -2.121142   -2.163949    0.000012
     12          6           0       -1.618680    1.208789    0.000002
     13          1           0       -2.160295    2.144326    0.000001
     14          5           0        2.125852    0.014888   -0.000009
     15          1           0        2.337547   -1.936242    0.000002
     16          1           0        3.746012    1.051805   -0.000010
 ---------------------------------------------------------------------

 SCF Done:  E(RHF) =  -703.141634709     A.U. after    2 cycles

 The electronic state is 1-A.
 Alpha  occ. eigenvalues --  -26.51333 -26.50579 -26.49255 -20.56121 -20.55697
 Alpha  occ. eigenvalues --  -11.38036 -11.37860 -11.37659 -11.27364 -11.27061
 Alpha  occ. eigenvalues --  -11.25755  -7.65996  -1.64041  -1.63658  -1.62668
 Alpha  occ. eigenvalues --   -1.48731  -1.44331  -1.19679  -1.06041  -1.05934
 Alpha  occ. eigenvalues --   -0.90007  -0.89393  -0.80240  -0.79009  -0.77608
 Alpha  occ. eigenvalues --   -0.74875  -0.72067  -0.71470  -0.71280  -0.69796
 Alpha  occ. eigenvalues --   -0.69710  -0.68702  -0.65871  -0.64945  -0.61524
 Alpha  occ. eigenvalues --   -0.58917  -0.58354  -0.57684  -0.55442  -0.52763
 Alpha  occ. eigenvalues --   -0.51802  -0.49431  -0.38119  -0.37634
 Alpha virt. eigenvalues --    0.03423   0.04002   0.04417   0.04925   0.05496
 Alpha virt. eigenvalues --    0.06344   0.07501   0.07728   0.09147   0.09614
 Alpha virt. eigenvalues --    0.09754   0.11621   0.12278   0.13238   0.13553

 Mulliken charges:
               1
     1  F   -1.073839
     2  F   -1.052202
     3  F   -0.975208
     4  O   -1.318136
     5  O   -1.522243
     6  C   -0.540407
     7  C    1.543352
     8  C    1.505338
     9  C    1.662828
    10  C   -0.231686
    11  H   -0.167081
    12  C   -0.242288
    13  H   -0.150216
    14  B    1.328883
    15  H    0.722813
    16  H    0.510094
 Sum of Mulliken charges =  -0.00000

 Dipole moment (field-independent basis, Debye):
    X=             -0.5524    Y=             -1.1692    Z=             -0.0000  Tot=              1.2931

 Test job not archived.
 1\1\GINC-SE336\SP\RHF\Aug-CC-pVDZ\C6H4B1F3O2\OHZDE\09-Apr-2025\0\\#t h
 f aug-cc-pvdz iop(5/13=1,5/36=2,99/5=2) pseudo=read geom=check guess=(
 read,tcheck) scf=(maxcycle=1)\\title\\0,1\F,0,-0.431874,-2.354205,-0.0
 00004\F,0,-0.378614,2.382859,0.000008\F,0,3.62141,-0.020881,-0.000012\
 O,0,-2.793662,1.199366,0.00001\O,0,-2.865501,-1.132857,0.000003\C,0,-0
 .543719,0.019134,0.000003\C,0,0.217842,-1.153894,-0.000003\C,0,2.27800
 6,-0.008498,-0.000007\C,0,0.230623,1.189808,0.000003\C,0,1.599631,-1.2
 17407,-0.000008\H,0,2.121142,-2.163949,-0.000012\C,0,1.61868,1.208789,

 Normal termination of Gaussian 16 at Wed Apr  9 00:41:29 2025.
