 Gaussian 16, Revision C.01,

 ----------------------------------------------------------------------
 #t hf aug-cc-pvdz symm=none int=(grid=ultrafine) guess=(read,tcheck) s
 table=(opt,rrhf)
 ----------------------------------------------------------------------
 -----
 title
 -----
 Symbolic Z-matrix:
 Charge =  0 Multiplicity = 1

 SCF Done:  E(RHF) =  -608.179758611     A.U. after   15 cycles
 Normal termination of Gaussian 16 at Tue Apr  8 23:33:21 2025.
 Gaussian 16:  ES64L-G16RevC.01  3-Jul-2019

 ----------------------------------------------------------------------
 #t hf aug-cc-pvdz iop(5/13=1,5/36=2,99/5=2) pseudo=read geom=check gue
 ss=(read,tcheck) scf=(maxcycle=1)
 ----------------------------------------------------------------------
 -----
 title
 -----
 Structure from the checkpoint file:  "BDE49_nonexpt_1453_mol1.chk"
 Charge =  0 Multiplicity = 1

                         Standard orientation:
 ---------------------------------------------------------------------
 Center     Atomic      Atomic             Coordinates (Angstroms)
 Number     Number       Type             X           Y           Z
 ---------------------------------------------------------------------
      1          6           0        0.598973    0.437412    0.018998
      2         15           0        2.137177   -0.623905   -0.122914
      3          8           0       -0.509673   -0.327036    0.026703
      4          8           0        0.603148    1.639801    0.000265
      5          6           0       -1.780384    0.382927    0.002401
      6          6           0       -2.878922   -0.658659   -0.011082
      7          1           0       -1.803302    1.021504   -0.883269
      8          1           0       -1.833264    1.027666    0.882265
      9          1           0       -2.801102   -1.296010   -0.894363
     10          1           0       -3.854951   -0.166646   -0.026487
     11          1           0       -2.826835   -1.291391    0.877403
     12          1           0        1.771906   -1.581268    0.852889
     13          1           0        2.904081    0.172521    0.757637
 ---------------------------------------------------------------------

 SCF Done:  E(RHF) =  -608.493410744     A.U. after    2 cycles

 The electronic state is 1-A.
 Alpha  occ. eigenvalues --  -84.29411 -20.59530 -20.54336 -11.39634 -11.30446
 Alpha  occ. eigenvalues --  -11.24120  -6.76578  -4.29116  -4.28886  -4.28186
 Alpha  occ. eigenvalues --   -1.54661  -1.45807  -1.05354  -0.93518  -0.85968
 Alpha  occ. eigenvalues --   -0.78791  -0.69196  -0.68883  -0.65697  -0.59649
 Alpha  occ. eigenvalues --   -0.56786  -0.55864  -0.52649  -0.52434  -0.50773
 Alpha  occ. eigenvalues --   -0.46022  -0.43343  -0.36640
 Alpha virt. eigenvalues --    0.03565   0.04157   0.04661   0.04785   0.06214
 Alpha virt. eigenvalues --    0.07220   0.07753   0.08660   0.09916   0.10788
 Alpha virt. eigenvalues --    0.12145   0.12487   0.13298   0.15055   0.15466

 Mulliken charges:
               1
     1  C    0.989039
     2  P   -0.334807
     3  O   -1.104163
     4  O   -1.061710
     5  C    0.505415
     6  C   -0.513351
     7  H    0.118351
     8  H    0.115657
     9  H    0.171245
    10  H    0.170463
    11  H    0.168500
    12  H    0.404616
    13  H    0.370744
 Sum of Mulliken charges =  -0.00000

 Dipole moment (field-independent basis, Debye):
    X=             -1.1996    Y=             -1.7314    Z=              0.4299  Tot=              2.1498

 Test job not archived.
 1\1\GINC-SE074\SP\RHF\Aug-CC-pVDZ\C3H7O2P1\OHZDE\08-Apr-2025\0\\#t hf
 aug-cc-pvdz iop(5/13=1,5/36=2,99/5=2) pseudo=read geom=check guess=(re
 ad,tcheck) scf=(maxcycle=1)\\title\\0,1\C,0,0.598973,0.437412,0.018998
 \P,0,2.137177,-0.623905,-0.122914\O,0,-0.509673,-0.327036,0.026703\O,0
 ,0.603148,1.639801,0.000265\C,0,-1.780384,0.382927,0.002401\C,0,-2.878
 922,-0.658659,-0.011082\H,0,-1.803302,1.021504,-0.883269\H,0,-1.833264
 ,1.027666,0.882265\H,0,-2.801102,-1.29601,-0.894363\H,0,-3.854951,-0.1
 66645,-0.026487\H,0,-2.826835,-1.291391,0.877403\H,0,1.771906,-1.58126

 Normal termination of Gaussian 16 at Tue Apr  8 23:33:25 2025.
