 Gaussian 16, Revision C.01,

 ----------------------------------------------------------------------
 #t hf aug-cc-pvdz symm=none int=(grid=ultrafine) guess=(read,tcheck) s
 table=opt
 ----------------------------------------------------------------------
 -----
 title
 -----
 Symbolic Z-matrix:
 Charge =  0 Multiplicity = 2

 SCF Done:  E(UHF) =  -820.395270457     A.U. after   18 cycles
 Normal termination of Gaussian 16 at Wed Apr  9 00:20:43 2025.
 Gaussian 16:  ES64L-G16RevC.01  3-Jul-2019

 ----------------------------------------------------------------------
 #t hf aug-cc-pvdz iop(5/13=1,5/36=2,99/5=2) pseudo=read geom=check gue
 ss=(read,tcheck) scf=(maxcycle=1)
 ----------------------------------------------------------------------
 -----
 title
 -----
 Structure from the checkpoint file:  "BDE49_nonexpt_261_mol2.chk"
 Charge =  0 Multiplicity = 2

                         Standard orientation:
 ---------------------------------------------------------------------
 Center     Atomic      Atomic             Coordinates (Angstroms)
 Number     Number       Type             X           Y           Z
 ---------------------------------------------------------------------
      1         17           0        2.117977   -0.006213    0.018471
      2          9           0       -1.288245    1.082116   -0.649165
      3          9           0       -0.775903   -1.033830   -0.799275
      4          9           0       -1.724009   -0.282216    1.003071
      5          6           0       -0.817359    0.017812    0.049441
      6          5           0        0.598391    0.420823    0.679535
 ---------------------------------------------------------------------

 SCF Done:  E(UHF) =  -820.794997391     A.U. after    2 cycles

 The electronic state is 2-A.
 Alpha  occ. eigenvalues -- -105.61494 -26.51562 -26.51372 -26.51247 -11.51816
 Alpha  occ. eigenvalues --  -10.66533  -7.83454  -7.83133  -7.83068  -7.72847
 Alpha  occ. eigenvalues --   -1.71732  -1.61879  -1.61733  -1.12989  -0.98189
 Alpha  occ. eigenvalues --   -0.84913  -0.81239  -0.81175  -0.69375  -0.69271
 Alpha  occ. eigenvalues --   -0.68899  -0.64444  -0.64405  -0.62702  -0.57792
 Alpha  occ. eigenvalues --   -0.54890  -0.53621  -0.39965
 Alpha virt. eigenvalues --    0.01898   0.04703   0.05189   0.05847   0.05937
 Alpha virt. eigenvalues --    0.11417   0.12126   0.12862   0.14487   0.16048
 Alpha virt. eigenvalues --    0.16705   0.19817   0.20466   0.22402   0.23607

  Beta  occ. eigenvalues -- -105.61430 -26.51577 -26.51399 -26.51118 -11.51653
  Beta  occ. eigenvalues --  -10.66459  -7.83356  -7.83120  -7.82872  -7.70698
  Beta  occ. eigenvalues --   -1.71621  -1.61916  -1.61510  -1.12051  -0.97363
  Beta  occ. eigenvalues --   -0.83822  -0.81132  -0.80866  -0.69267  -0.69001
  Beta  occ. eigenvalues --   -0.66365  -0.64429  -0.64226  -0.62631  -0.56275
  Beta  occ. eigenvalues --   -0.53730  -0.51679
  Beta virt. eigenvalues --    0.02466   0.03996   0.05052   0.05647   0.07071
  Beta virt. eigenvalues --    0.08074   0.12185   0.12213   0.13217   0.15081
  Beta virt. eigenvalues --    0.16071   0.16855   0.20231   0.21283   0.22884

 Mulliken charges and spin densities:
               1          2
     1  Cl  -0.099773  -0.002283
     2  F   -0.703282  -0.000248
     3  F   -0.741784   0.014945
     4  F   -0.677241  -0.010610
     5  C    2.010124   0.004909
     6  B    0.211958   0.993287
 Sum of Mulliken charges =   0.00000   1.00000

 Dipole moment (field-independent basis, Debye):
    X=              1.4224    Y=              0.2019    Z=              0.5088  Tot=              1.5241
                          Isotropic Fermi Contact Couplings
        Atom                 a.u.       MegaHertz       Gauss      10(-4) cm-1
     1  Cl(35)             0.06124      26.84960       9.58061       8.95606
     2  F(19)             -0.00339     -14.26319      -5.08946      -4.75769
     3  F(19)              0.02119      89.16514      31.81634      29.74229
     4  F(19)             -0.00406     -17.09451      -6.09975      -5.70211
     5  C(13)              0.04323      48.60377      17.34303      16.21247
     6  B(11)              0.36370     521.67299     186.14590     174.01138
 --------------------------------------------------------
       Center         ----  Spin Dipole Couplings  ----

 Normal termination of Gaussian 16 at Wed Apr  9 00:20:46 2025.
