 Gaussian 16, Revision C.01,

 ----------------------------------------------------------------------
 #t hf aug-cc-pvdz symm=none int=(grid=ultrafine) guess=(read,tcheck) s
 table=(opt,rrhf)
 ----------------------------------------------------------------------
 -----
 title
 -----
 Symbolic Z-matrix:
 Charge =  0 Multiplicity = 1

 SCF Done:  E(RHF) =  -272.367010437     A.U. after   13 cycles
 Normal termination of Gaussian 16 at Wed Apr  9 00:38:38 2025.
 Gaussian 16:  ES64L-G16RevC.01  3-Jul-2019

 ----------------------------------------------------------------------
 #t hf aug-cc-pvdz iop(5/13=1,5/36=2,99/5=2) pseudo=read geom=check gue
 ss=(read,tcheck) scf=(maxcycle=1)
 ----------------------------------------------------------------------
 -----
 title
 -----
 Structure from the checkpoint file:  "BDE49_nonexpt_590_mol1.chk"
 Charge =  0 Multiplicity = 1

                         Standard orientation:
 ---------------------------------------------------------------------
 Center     Atomic      Atomic             Coordinates (Angstroms)
 Number     Number       Type             X           Y           Z
 ---------------------------------------------------------------------
      1          6           0       -1.589578    0.231965   -0.000018
      2          5           0        0.937101   -0.021649   -0.000035
      3          6           0        2.099446   -1.083168   -0.000001
      4          1           0        1.774775   -2.127778    0.000011
      5          1           0        2.748050   -0.931348    0.871792
      6          1           0        2.748070   -0.931375   -0.871784
      7          6           0        1.245193    1.529828   -0.000006
      8          1           0        2.318743    1.732447   -0.000001
      9          1           0        0.819517    2.032897    0.876038
     10          1           0        0.819517    2.032931   -0.876030
     11          8           0       -2.691608   -0.260621    0.000057
     12          7           0       -0.413467   -0.501114   -0.000024
     13          1           0       -1.422604    1.321389    0.000035
     14          1           0       -0.594806   -1.499896   -0.000016
 ---------------------------------------------------------------------

 SCF Done:  E(RHF) =  -272.651864744     A.U. after    2 cycles

 The electronic state is 1-A.
 Alpha  occ. eigenvalues --  -20.53258 -15.52334 -11.36846 -11.21740 -11.21540
 Alpha  occ. eigenvalues --   -7.60855  -1.47631  -1.22528  -0.98487  -0.94703
 Alpha  occ. eigenvalues --   -0.86910  -0.78240  -0.69867  -0.63546  -0.60384
 Alpha  occ. eigenvalues --   -0.59949  -0.56591  -0.55176  -0.55000  -0.53728
 Alpha  occ. eigenvalues --   -0.48132  -0.45285  -0.43701
 Alpha virt. eigenvalues --    0.03043   0.03863   0.03984   0.04238   0.06081
 Alpha virt. eigenvalues --    0.06634   0.06753   0.07898   0.08180   0.09847
 Alpha virt. eigenvalues --    0.10041   0.10380   0.10941   0.13640   0.14180

 Mulliken charges:
               1
     1  C    0.522135
     2  B    0.560915
     3  C   -0.396983
     4  H   -0.096593
     5  H    0.132494
     6  H    0.132514
     7  C   -0.426963
     8  H   -0.135452
     9  H    0.142170
    10  H    0.142176
    11  O   -1.067679
    12  N    0.392563
    13  H    0.050878
    14  H    0.047824
 Sum of Mulliken charges =  -0.00000

 Dipole moment (field-independent basis, Debye):
    X=              3.2609    Y=              0.6344    Z=             -0.0001  Tot=              3.3220

 Test job not archived.
 1\1\GINC-SE177\SP\RHF\Aug-CC-pVDZ\C3H8B1N1O1\OHZDE\09-Apr-2025\0\\#t h
 f aug-cc-pvdz iop(5/13=1,5/36=2,99/5=2) pseudo=read geom=check guess=(
 read,tcheck) scf=(maxcycle=1)\\title\\0,1\C,0,-1.589578,0.231965,-0.00
 0018\B,0,0.937101,-0.021649,-0.000035\C,0,2.099446,-1.083168,-0.000001
 \H,0,1.774775,-2.127778,0.000011\H,0,2.74805,-0.931348,0.871792\H,0,2.
 74807,-0.931375,-0.871784\C,0,1.245193,1.529828,-0.000006\H,0,2.318743
 ,1.732447,-0.000001\H,0,0.819517,2.032897,0.876038\H,0,0.819517,2.0329
 31,-0.87603\O,0,-2.691608,-0.260622,0.000057\N,0,-0.413467,-0.501114,-

 Normal termination of Gaussian 16 at Wed Apr  9 00:38:42 2025.
