 Gaussian 16, Revision C.01,

 ----------------------------------------------------------------------
 #t hf aug-cc-pvdz symm=none int=(grid=ultrafine) guess=(read,tcheck) s
 table=(opt,rrhf)
 ----------------------------------------------------------------------
 -----
 title
 -----
 Symbolic Z-matrix:
 Charge =  0 Multiplicity = 1

 SCF Done:  E(RHF) =  -383.000528183     A.U. after   11 cycles
 Normal termination of Gaussian 16 at Tue Apr  8 23:57:19 2025.
 Gaussian 16:  ES64L-G16RevC.01  3-Jul-2019

 ----------------------------------------------------------------------
 #t hf aug-cc-pvdz iop(5/13=1,5/36=2,99/5=2) pseudo=read geom=check gue
 ss=(read,tcheck) scf=(maxcycle=1)
 ----------------------------------------------------------------------
 -----
 title
 -----
 Structure from the checkpoint file:  "BDE49_nonexpt_2046_mol1.chk"
 Charge =  0 Multiplicity = 1

                         Standard orientation:
 ---------------------------------------------------------------------
 Center     Atomic      Atomic             Coordinates (Angstroms)
 Number     Number       Type             X           Y           Z
 ---------------------------------------------------------------------
      1         14           0       -1.028253    0.000001   -0.000003
      2          6           0        0.825377   -0.000004    0.000015
      3          7           0        1.980680    0.000001   -0.000005
      4          1           0       -1.473814   -0.975561   -1.011052
      5          1           0       -1.473812    1.363383   -0.339331
      6          1           0       -1.473860   -0.387823    1.350368
 ---------------------------------------------------------------------

 SCF Done:  E(RHF) =  -383.121748331     A.U. after    2 cycles

 The electronic state is 1-A.
 Alpha  occ. eigenvalues --  -69.58469 -15.53163 -11.26937  -6.25446  -4.00911
 Alpha  occ. eigenvalues --   -4.00788  -4.00788  -1.23944  -0.84019  -0.65969
 Alpha  occ. eigenvalues --   -0.58838  -0.55189  -0.55189  -0.50109  -0.50109
 Alpha virt. eigenvalues --    0.02947   0.04470   0.04756   0.04756   0.07568
 Alpha virt. eigenvalues --    0.07568   0.09961   0.10644   0.10644   0.13847
 Alpha virt. eigenvalues --    0.14544   0.14544   0.15149   0.18860   0.18861

 Mulliken charges:
               1
     1  Si   1.088889
     2  C   -1.204174
     3  N    0.689226
     4  H   -0.191312
     5  H   -0.191312
     6  H   -0.191317
 Sum of Mulliken charges =   0.00000

 Dipole moment (field-independent basis, Debye):
    X=             -4.3760    Y=              0.0000    Z=              0.0000  Tot=              4.3760

 Test job not archived.
 1\1\GINC-SE080\SP\RHF\Aug-CC-pVDZ\C1H3N1Si1\OHZDE\08-Apr-2025\0\\#t hf
  aug-cc-pvdz iop(5/13=1,5/36=2,99/5=2) pseudo=read geom=check guess=(r
 ead,tcheck) scf=(maxcycle=1)\\title\\0,1\Si,0,1.028253,-0.000001,-0.00
 0003\C,0,-0.825377,0.000004,0.000015\N,0,-1.98068,-0.000001,-0.000005\
 H,0,1.473814,0.977351,-1.009322\H,0,1.473812,-1.362779,-0.341747\H,0,1
 .47386,0.38543,1.351053\\Version=ES64L-G16RevC.01\State=1-A\HF=-383.12
 17483\RMSD=1.399e-02\Dipole=1.7216582,-0.0000017,0.000005\Quadrupole=-
 3.4309933,1.7155055,1.7154878,-0.0000179,-0.0000419,-0.0000013\PG=C01

 Normal termination of Gaussian 16 at Tue Apr  8 23:57:20 2025.
