 Gaussian 16, Revision C.01,

 ----------------------------------------------------------------------
 #t hf aug-cc-pvdz symm=none int=(grid=ultrafine) guess=(read,tcheck) s
 table=(opt,rrhf)
 ----------------------------------------------------------------------
 -----
 title
 -----
 Symbolic Z-matrix:
 Charge =  0 Multiplicity = 1

 SCF Done:  E(RHF) =  -673.181755928     A.U. after   14 cycles
 Normal termination of Gaussian 16 at Tue Apr  8 23:38:17 2025.
 Gaussian 16:  ES64L-G16RevC.01  3-Jul-2019

 ----------------------------------------------------------------------
 #t hf aug-cc-pvdz iop(5/13=1,5/36=2,99/5=2) pseudo=read geom=check gue
 ss=(read,tcheck) scf=(maxcycle=1)
 ----------------------------------------------------------------------
 -----
 title
 -----
 Structure from the checkpoint file:  "BDE49_nonexpt_1581_mol1.chk"
 Charge =  0 Multiplicity = 1

                         Standard orientation:
 ---------------------------------------------------------------------
 Center     Atomic      Atomic             Coordinates (Angstroms)
 Number     Number       Type             X           Y           Z
 ---------------------------------------------------------------------
      1         15           0       -0.647213    0.299511   -0.659484
      2          7           0        0.889823   -0.608443   -0.332497
      3          9           0        1.005849   -0.852234    1.066604
      4          9           0        1.903481    0.355743   -0.539302
      5          6           0       -0.671509    1.497566    0.742546
      6          1           0        0.130957    2.222870    0.599490
      7          1           0       -0.555004    1.009463    1.710026
      8          1           0       -1.624301    2.032541    0.710483
      9          6           0       -1.767354   -1.025477   -0.035422
     10          1           0       -1.678421   -1.903904   -0.677314
     11          1           0       -2.793160   -0.655545   -0.108359
     12          1           0       -1.551438   -1.303098    0.996950
 ---------------------------------------------------------------------

 SCF Done:  E(RHF) =  -673.547343785     A.U. after    2 cycles

 The electronic state is 1-A.
 Alpha  occ. eigenvalues --  -84.32051 -26.49618 -26.49215 -15.69342 -11.25686
 Alpha  occ. eigenvalues --  -11.25348  -6.78904  -4.31615  -4.31138  -4.30498
 Alpha  occ. eigenvalues --   -1.64573  -1.56392  -1.11933  -1.01548  -0.96603
 Alpha  occ. eigenvalues --   -0.81247  -0.74367  -0.73711  -0.69227  -0.65118
 Alpha  occ. eigenvalues --   -0.61686  -0.60687  -0.59605  -0.58519  -0.58005
 Alpha  occ. eigenvalues --   -0.56990  -0.49081  -0.47466  -0.35966
 Alpha virt. eigenvalues --    0.03343   0.04309   0.05042   0.05436   0.06990
 Alpha virt. eigenvalues --    0.07214   0.07726   0.09328   0.11556   0.12459
 Alpha virt. eigenvalues --    0.14782   0.15034   0.15402   0.15953   0.16641

 Mulliken charges:
               1
     1  P    1.188296
     2  N    0.927868
     3  F   -0.661843
     4  F   -0.620487
     5  C   -0.846283
     6  H    0.122000
     7  H    0.155706
     8  H    0.155746
     9  C   -0.838081
    10  H    0.117745
    11  H    0.153583
    12  H    0.145750
 Sum of Mulliken charges =  -0.00000

 Dipole moment (field-independent basis, Debye):
    X=             -3.2315    Y=              1.0208    Z=              0.6412  Tot=              3.4491

 Test job not archived.
 1\1\GINC-SE435\SP\RHF\Aug-CC-pVDZ\C2H6F2N1P1\OHZDE\08-Apr-2025\0\\#t h
 f aug-cc-pvdz iop(5/13=1,5/36=2,99/5=2) pseudo=read geom=check guess=(
 read,tcheck) scf=(maxcycle=1)\\title\\0,1\P,0,-0.647213,0.299511,-0.65
 9484\N,0,0.889823,-0.608443,-0.332497\F,0,1.005849,-0.852234,1.066604\
 F,0,1.903481,0.355743,-0.539302\C,0,-0.671509,1.497566,0.742546\H,0,0.
 130957,2.22287,0.59949\H,0,-0.555004,1.009463,1.710026\H,0,-1.624301,2
 .032541,0.710483\C,0,-1.767354,-1.025477,-0.035422\H,0,-1.678422,-1.90
 3904,-0.677314\H,0,-2.79316,-0.655544,-0.108359\H,0,-1.551438,-1.30309

 Normal termination of Gaussian 16 at Tue Apr  8 23:38:21 2025.
