 Gaussian 16, Revision C.01,

 ----------------------------------------------------------------------
 #t hf aug-cc-pvdz symm=none int=(grid=ultrafine) guess=(read,tcheck) s
 table=(opt,rrhf)
 ----------------------------------------------------------------------
 -----
 title
 -----
 Symbolic Z-matrix:
 Charge =  0 Multiplicity = 1

 SCF Done:  E(RHF) =  -653.683752165     A.U. after   14 cycles
 Normal termination of Gaussian 16 at Wed Apr  9 00:21:59 2025.
 Gaussian 16:  ES64L-G16RevC.01  3-Jul-2019

 ----------------------------------------------------------------------
 #t hf aug-cc-pvdz iop(5/13=1,5/36=2,99/5=2) pseudo=read geom=check gue
 ss=(read,tcheck) scf=(maxcycle=1)
 ----------------------------------------------------------------------
 -----
 title
 -----
 Structure from the checkpoint file:  "BDE49_nonexpt_2638_mol1.chk"
 Charge =  0 Multiplicity = 1

                         Standard orientation:
 ---------------------------------------------------------------------
 Center     Atomic      Atomic             Coordinates (Angstroms)
 Number     Number       Type             X           Y           Z
 ---------------------------------------------------------------------
      1          9           0       -1.522083   -0.790303    0.981628
      2         16           0       -0.972163   -0.721699   -0.607663
      3          6           0        0.195658    0.663006   -0.414073
      4          6           0        1.381438    0.315600    0.503295
      5          6           0       -0.529412    1.944229    0.009628
      6          1           0       -0.987550    1.811004    0.991678
      7          1           0       -1.316413    2.205325   -0.699551
      8          1           0        0.177227    2.777044    0.071503
      9          1           0        0.550673    0.763514   -1.451312
     10          6           0        2.320143   -0.762487   -0.039371
     11          1           0        0.982101    0.014615    1.476637
     12          1           0        1.946195    1.239589    0.673492
     13          1           0        1.792704   -1.705221   -0.198958
     14          1           0        3.138011   -0.949753    0.660745
     15          1           0        2.763440   -0.458287   -0.993147
 ---------------------------------------------------------------------

 SCF Done:  E(RHF) =  -654.007804303     A.U. after    2 cycles

 The electronic state is 1-A.
 Alpha  occ. eigenvalues --  -94.02193 -26.45775 -11.28848 -11.24399 -11.23991
 Alpha  occ. eigenvalues --  -11.23035  -8.29504  -6.27314  -6.26984  -6.26727
 Alpha  occ. eigenvalues --   -1.55526  -1.12108  -1.01309  -0.96187  -0.87402
 Alpha  occ. eigenvalues --   -0.79355  -0.67466  -0.64588  -0.63675  -0.61557
 Alpha  occ. eigenvalues --   -0.60641  -0.59394  -0.57589  -0.53887  -0.51331
 Alpha  occ. eigenvalues --   -0.50268  -0.49223  -0.45578  -0.37171
 Alpha virt. eigenvalues --    0.03298   0.03686   0.03902   0.05140   0.06290
 Alpha virt. eigenvalues --    0.06664   0.06749   0.07679   0.08069   0.09754
 Alpha virt. eigenvalues --    0.10300   0.12601   0.13812   0.14515   0.15265

 Mulliken charges:
               1
     1  F   -0.713278
     2  S    0.877630
     3  C   -0.768275
     4  C   -0.302745
     5  C   -0.289200
     6  H    0.241954
     7  H    0.132379
     8  H    0.155432
     9  H    0.253087
    10  C   -0.360551
    11  H    0.145463
    12  H    0.138247
    13  H    0.194592
    14  H    0.127246
    15  H    0.168019
 Sum of Mulliken charges =  -0.00000

 Dipole moment (field-independent basis, Debye):
    X=              1.8707    Y=              1.6135    Z=             -0.8827  Tot=              2.6234

 Test job not archived.
 1\1\GINC-SE332\SP\RHF\Aug-CC-pVDZ\C4H9F1S1\OHZDE\09-Apr-2025\0\\#t hf
 aug-cc-pvdz iop(5/13=1,5/36=2,99/5=2) pseudo=read geom=check guess=(re
 ad,tcheck) scf=(maxcycle=1)\\title\\0,1\F,0,-1.522083,-0.790302,0.9816
 28\S,0,-0.972163,-0.721699,-0.607663\C,0,0.195658,0.663006,-0.414073\C
 ,0,1.381438,0.3156,0.503295\C,0,-0.529411,1.944229,0.009628\H,0,-0.987
 549,1.811004,0.991678\H,0,-1.316412,2.205326,-0.699551\H,0,0.177228,2.
 777044,0.071503\H,0,0.550673,0.763514,-1.451312\C,0,2.320143,-0.762488
 ,-0.039371\H,0,0.982101,0.014615,1.476637\H,0,1.946195,1.239588,0.6734

 Normal termination of Gaussian 16 at Wed Apr  9 00:22:03 2025.
