 Gaussian 16, Revision C.01,

 ----------------------------------------------------------------------
 #t hf aug-cc-pvdz symm=none int=(grid=ultrafine) guess=(read,tcheck) s
 table=(opt,rrhf)
 ----------------------------------------------------------------------
 -----
 title
 -----
 Symbolic Z-matrix:
 Charge =  0 Multiplicity = 1

 SCF Done:  E(RHF) =  -1103.46611334     A.U. after   15 cycles
 Normal termination of Gaussian 16 at Wed Apr  9 00:18:33 2025.
 Gaussian 16:  ES64L-G16RevC.01  3-Jul-2019

 ----------------------------------------------------------------------
 #t hf aug-cc-pvdz iop(5/13=1,5/36=2,99/5=2) pseudo=read geom=check gue
 ss=(read,tcheck) scf=(maxcycle=1)
 ----------------------------------------------------------------------
 -----
 title
 -----
 Structure from the checkpoint file:  "BDE49_nonexpt_2566_mol1.chk"
 Charge =  0 Multiplicity = 1

                         Standard orientation:
 ---------------------------------------------------------------------
 Center     Atomic      Atomic             Coordinates (Angstroms)
 Number     Number       Type             X           Y           Z
 ---------------------------------------------------------------------
      1         17           0        2.586230   -0.252890    0.000420
      2         16           0        0.890760    0.904228    0.017032
      3          6           0       -0.386032   -0.455834   -0.024896
      4          8           0       -0.065139   -1.614150   -0.006139
      5          7           0       -1.655351    0.031916   -0.075540
      6          6           0       -2.766907   -0.909775    0.038652
      7          1           0       -2.378580   -1.920364   -0.055844
      8          1           0       -3.493830   -0.722282   -0.756417
      9          1           0       -3.266878   -0.805996    1.008109
     10          6           0       -1.975101    1.448847    0.001399
     11          1           0       -1.188471    2.049355   -0.460603
     12          1           0       -2.121745    1.785195    1.034072
     13          1           0       -2.891756    1.635924   -0.562015
 ---------------------------------------------------------------------

 SCF Done:  E(RHF) =  -1103.85458844     A.U. after    2 cycles

 The electronic state is 1-A.
 Alpha  occ. eigenvalues -- -105.58633 -94.02129 -20.53713 -15.55349 -11.40781
 Alpha  occ. eigenvalues --  -11.29985 -11.28455 -10.63329  -8.29892  -7.80284
 Alpha  occ. eigenvalues --   -7.79804  -7.79776  -6.27694  -6.27438  -6.27177
 Alpha  occ. eigenvalues --   -1.49444  -1.28276  -1.12880  -1.01399  -0.99927
 Alpha  occ. eigenvalues --   -0.93166  -0.77933  -0.70819  -0.69787  -0.69624
 Alpha  occ. eigenvalues --   -0.61177  -0.59751  -0.59336  -0.57946  -0.57269
 Alpha  occ. eigenvalues --   -0.54168  -0.51483  -0.47300  -0.42666  -0.42305
 Alpha  occ. eigenvalues --   -0.38538
 Alpha virt. eigenvalues --    0.02798   0.04082   0.04193   0.05239   0.05985
 Alpha virt. eigenvalues --    0.06312   0.07353   0.08187   0.09716   0.11701
 Alpha virt. eigenvalues --    0.12237   0.13164   0.13625   0.14350   0.14651

 Mulliken charges:
               1
     1  Cl  -0.241512
     2  S    0.393380
     3  C   -0.077991
     4  O   -1.023334
     5  N    0.801454
     6  C   -0.302576
     7  H    0.006099
     8  H    0.156328
     9  H    0.218737
    10  C   -0.388331
    11  H    0.140605
    12  H    0.186264
    13  H    0.130878
 Sum of Mulliken charges =  -0.00000

 Dipole moment (field-independent basis, Debye):
    X=             -3.9992    Y=              2.4404    Z=              0.0881  Tot=              4.6858

 Test job not archived.
 1\1\GINC-SE016\SP\RHF\Aug-CC-pVDZ\C3H6Cl1N1O1S1\OHZDE\09-Apr-2025\0\\#
 t hf aug-cc-pvdz iop(5/13=1,5/36=2,99/5=2) pseudo=read geom=check gues
 s=(read,tcheck) scf=(maxcycle=1)\\title\\0,1\Cl,0,2.58623,-0.25289,0.0
 0042\S,0,0.89076,0.904228,0.017032\C,0,-0.386032,-0.455834,-0.024896\O
 ,0,-0.065139,-1.61415,-0.006139\N,0,-1.655351,0.031916,-0.07554\C,0,-2
 .766907,-0.909775,0.038652\H,0,-2.37858,-1.920364,-0.055844\H,0,-3.493
 83,-0.722282,-0.756417\H,0,-3.266878,-0.805996,1.008109\C,0,-1.975101,
 1.448847,0.001399\H,0,-1.188471,2.049355,-0.460603\H,0,-2.121745,1.785

 Normal termination of Gaussian 16 at Wed Apr  9 00:18:38 2025.
