 Gaussian 16, Revision C.01,

 ----------------------------------------------------------------------
 #t hf aug-cc-pvdz symm=none int=(grid=ultrafine) guess=(read,tcheck) s
 table=(opt,rrhf)
 ----------------------------------------------------------------------
 -----
 title
 -----
 Symbolic Z-matrix:
 Charge =  0 Multiplicity = 1

 SCF Done:  E(RHF) =  -970.343988005     A.U. after   14 cycles
 Normal termination of Gaussian 16 at Wed Apr  9 00:16:33 2025.
 Gaussian 16:  ES64L-G16RevC.01  3-Jul-2019

 ----------------------------------------------------------------------
 #t hf aug-cc-pvdz iop(5/13=1,5/36=2,99/5=2) pseudo=read geom=check gue
 ss=(read,tcheck) scf=(maxcycle=1)
 ----------------------------------------------------------------------
 -----
 title
 -----
 Structure from the checkpoint file:  "BDE49_nonexpt_2554_mol1.chk"
 Charge =  0 Multiplicity = 1

                         Standard orientation:
 ---------------------------------------------------------------------
 Center     Atomic      Atomic             Coordinates (Angstroms)
 Number     Number       Type             X           Y           Z
 ---------------------------------------------------------------------
      1         17           0        1.700857   -0.335855   -0.000003
      2         16           0       -0.046183    0.776316    0.000003
      3          6           0       -1.288970   -0.529813    0.000002
      4          8           0       -2.448326   -0.248422   -0.000003
      5          1           0       -0.855206   -1.545268    0.000006
 ---------------------------------------------------------------------

 SCF Done:  E(RHF) =  -970.587876505     A.U. after    2 cycles

 The electronic state is 1-A.
 Alpha  occ. eigenvalues -- -105.61274 -94.04208 -20.59252 -11.41043 -10.65971
 Alpha  occ. eigenvalues --   -8.32067  -7.82913  -7.82459  -7.82416  -6.29841
 Alpha  occ. eigenvalues --   -6.29604  -6.29332  -1.53131  -1.15656  -1.00084
 Alpha  occ. eigenvalues --   -0.84619  -0.71232  -0.66824  -0.59976  -0.55596
 Alpha  occ. eigenvalues --   -0.53742  -0.51158  -0.44218  -0.40461
 Alpha virt. eigenvalues --    0.03300   0.04000   0.06974   0.07450   0.10144
 Alpha virt. eigenvalues --    0.11027   0.11418   0.12736   0.13695   0.14336
 Alpha virt. eigenvalues --    0.15230   0.15875   0.17684   0.21756   0.23248

 Mulliken charges:
               1
     1  Cl  -0.259741
     2  S    0.493507
     3  C    0.431754
     4  O   -0.901997
     5  H    0.236476
 Sum of Mulliken charges =  -0.00000

 Dipole moment (field-independent basis, Debye):
    X=              1.1152    Y=             -0.8580    Z=              0.0000  Tot=              1.4071

 Test job not archived.
 1\1\GINC-SE460\SP\RHF\Aug-CC-pVDZ\C1H1Cl1O1S1\OHZDE\09-Apr-2025\0\\#t
 hf aug-cc-pvdz iop(5/13=1,5/36=2,99/5=2) pseudo=read geom=check guess=
 (read,tcheck) scf=(maxcycle=1)\\title\\0,1\Cl,0,1.700857,-0.335855,-0.
 000003\S,0,-0.046183,0.776316,0.000003\C,0,-1.28897,-0.529813,0.000002
 \O,0,-2.448326,-0.248422,-0.000003\H,0,-0.855206,-1.545268,0.000006\\V
 ersion=ES64L-G16RevC.01\State=1-A\HF=-970.5878765\RMSD=6.251e-03\Dipol
 e=0.4387394,-0.3375717,0.0000045\Quadrupole=-3.7225481,3.1601178,0.562
 4303,0.1627379,-0.0000202,-0.000001\PG=C01 [X(C1H1Cl1O1S1)]\\@

 Normal termination of Gaussian 16 at Wed Apr  9 00:16:35 2025.
