 Gaussian 16, Revision C.01,

 ----------------------------------------------------------------------
 #t hf aug-cc-pvdz symm=none int=(grid=ultrafine) guess=(read,tcheck) s
 table=opt
 ----------------------------------------------------------------------
 -----
 title
 -----
 Symbolic Z-matrix:
 Charge =  0 Multiplicity = 2

 SCF Done:  E(UHF) =  -680.646574080     A.U. after   21 cycles
 Normal termination of Gaussian 16 at Tue Apr  8 23:25:19 2025.
 Gaussian 16:  ES64L-G16RevC.01  3-Jul-2019

 ----------------------------------------------------------------------
 #t hf aug-cc-pvdz iop(5/13=1,5/36=2,99/5=2) pseudo=read geom=check gue
 ss=(read,tcheck) scf=(maxcycle=1)
 ----------------------------------------------------------------------
 -----
 title
 -----
 Structure from the checkpoint file:  "BDE49_nonexpt_1238_mol2.chk"
 Charge =  0 Multiplicity = 2

                         Standard orientation:
 ---------------------------------------------------------------------
 Center     Atomic      Atomic             Coordinates (Angstroms)
 Number     Number       Type             X           Y           Z
 ---------------------------------------------------------------------
      1          8           0       -2.800482   -0.825813   -0.178736
      2         15           0        2.101222   -1.080740   -0.240656
      3          7           0       -0.610198   -1.009654    0.524230
      4          7           0        0.244117    0.963763   -0.233793
      5          6           0        0.604831   -0.222912    0.552587
      6          6           0       -1.692840   -0.369119   -0.014669
      7          6           0       -1.211244    1.045104   -0.324198
      8          6           0        0.921488    2.188651    0.151740
      9          1           0       -0.655741   -1.977421    0.803230
     10          1           0       -1.551184    1.359945   -1.313323
     11          1           0       -1.653106    1.726915    0.423357
     12          1           0        0.705223    2.970826   -0.578888
     13          1           0        0.615103    2.550927    1.149343
     14          1           0        2.002248    2.032160    0.156115
     15          1           0        1.374858   -1.412750   -1.416153
     16          1           0        0.877284    0.037895    1.590241
 ---------------------------------------------------------------------

 SCF Done:  E(UHF) =  -681.032932258     A.U. after    2 cycles

 The electronic state is 2-A.
 Alpha  occ. eigenvalues --  -84.29012 -20.51715 -15.53913 -15.51792 -11.36569
 Alpha  occ. eigenvalues --  -11.33058 -11.28377 -11.27683  -6.76221  -4.28978
 Alpha  occ. eigenvalues --   -4.28417  -4.27824  -1.46640  -1.31013  -1.20331
 Alpha  occ. eigenvalues --   -1.03358  -0.98751  -0.88149  -0.84816  -0.82585
 Alpha  occ. eigenvalues --   -0.73421  -0.70011  -0.65494  -0.64603  -0.63628
 Alpha  occ. eigenvalues --   -0.60939  -0.59732  -0.56882  -0.54905  -0.51097
 Alpha  occ. eigenvalues --   -0.44408  -0.43178  -0.42759  -0.36870  -0.34399
 Alpha virt. eigenvalues --    0.03167   0.04071   0.04486   0.04677   0.05174
 Alpha virt. eigenvalues --    0.05540   0.06635   0.07439   0.08215   0.09707
 Alpha virt. eigenvalues --    0.10636   0.12279   0.12536   0.13009   0.14150

  Beta  occ. eigenvalues --  -84.28327 -20.51707 -15.53843 -15.51652 -11.36567
  Beta  occ. eigenvalues --  -11.33225 -11.28370 -11.27678  -6.75353  -4.27914
  Beta  occ. eigenvalues --   -4.27392  -4.25628  -1.46618  -1.30829  -1.20111
  Beta  occ. eigenvalues --   -1.03026  -0.98389  -0.86599  -0.84649  -0.78702
  Beta  occ. eigenvalues --   -0.73274  -0.69250  -0.65374  -0.64387  -0.63543
  Beta  occ. eigenvalues --   -0.60799  -0.59565  -0.56723  -0.54765  -0.50922
  Beta  occ. eigenvalues --   -0.43470  -0.42815  -0.42013  -0.35829
  Beta virt. eigenvalues --    0.02192   0.03258   0.04206   0.04580   0.05077
  Beta virt. eigenvalues --    0.05270   0.05900   0.06729   0.07555   0.08874
  Beta virt. eigenvalues --    0.09997   0.10818   0.12560   0.12852   0.13649

 Mulliken charges and spin densities:
               1          2
     1  O   -1.303333   0.001578
     2  P    0.272754   1.307359
     3  N    0.731361   0.025808
     4  N    0.673001  -0.094517
     5  C   -1.103345  -0.059046
     6  C    0.688632  -0.008968
     7  C   -0.337542  -0.022793
     8  C   -0.484947   0.038198
     9  H    0.020629  -0.010758
    10  H    0.085956   0.000531
    11  H    0.229155  -0.000437
    12  H    0.076556   0.001507
    13  H    0.188835   0.002455
    14  H    0.065751   0.000004
    15  H    0.225338  -0.179691
    16  H   -0.028801  -0.001230
 Sum of Mulliken charges =  -0.00000   1.00000

 Dipole moment (field-independent basis, Debye):
    X=              2.9638    Y=              1.7155    Z=              1.2081  Tot=              3.6313
                          Isotropic Fermi Contact Couplings
        Atom                 a.u.       MegaHertz       Gauss      10(-4) cm-1
     1  O(17)              0.00075      -0.45712      -0.16311      -0.15248
     2  P(31)              0.19508     353.31144     126.07031     117.85201
     3  N(14)              0.02380       7.68880       2.74356       2.56471
     4  N(14)              0.05566      17.98448       6.41731       5.99898
     5  C(13)             -0.02939     -33.03477     -11.78763     -11.01921
     6  C(13)             -0.00057      -0.64510      -0.23019      -0.21518
     7  C(13)              0.00143       1.60203       0.57164       0.53438
     8  C(13)             -0.00009      -0.09772      -0.03487      -0.03260

 Normal termination of Gaussian 16 at Tue Apr  8 23:25:26 2025.
