 Gaussian 16, Revision C.01,

 ----------------------------------------------------------------------
 #t hf aug-cc-pvdz symm=none int=(grid=ultrafine) guess=(read,tcheck) s
 table=(opt,rrhf)
 ----------------------------------------------------------------------
 -----
 title
 -----
 Symbolic Z-matrix:
 Charge =  0 Multiplicity = 1

 SCF Done:  E(RHF) =  -882.581707248     A.U. after   17 cycles
 Normal termination of Gaussian 16 at Tue Apr  8 23:35:11 2025.
 Gaussian 16:  ES64L-G16RevC.01  3-Jul-2019

 ----------------------------------------------------------------------
 #t hf aug-cc-pvdz iop(5/13=1,5/36=2,99/5=2) pseudo=read geom=check gue
 ss=(read,tcheck) scf=(maxcycle=1)
 ----------------------------------------------------------------------
 -----
 title
 -----
 Structure from the checkpoint file:  "BDE49_nonexpt_1470_mol1.chk"
 Charge =  0 Multiplicity = 1

                         Standard orientation:
 ---------------------------------------------------------------------
 Center     Atomic      Atomic             Coordinates (Angstroms)
 Number     Number       Type             X           Y           Z
 ---------------------------------------------------------------------
      1          7           0       -1.370973   -0.643218    0.360798
      2          6           0       -0.588296    0.348408    1.095029
      3         15           0        1.371666    0.659360   -1.045082
      4          7           0       -2.642309   -0.294658   -0.074212
      5          1           0       -1.383677   -1.602439    0.680669
      6          7           0        2.446243   -0.378857    0.086240
      7          8           0       -2.883794    0.899494   -0.179290
      8          8           0       -3.386414   -1.220609   -0.349549
      9          8           0        2.578734   -0.022482    1.250020
     10          8           0        3.016335   -1.319965   -0.436701
     11          6           0        0.169214    1.327465    0.188116
     12          1           0        0.118099   -0.213261    1.706597
     13          1           0        0.720846    2.036802    0.810339
     14          1           0       -0.544182    1.912474   -0.401265
     15          1           0       -1.240840    0.917669    1.764008
     16          1           0        0.639632   -0.471260   -1.468604
 ---------------------------------------------------------------------

 SCF Done:  E(RHF) =  -883.149845470     A.U. after    2 cycles

 The electronic state is 1-A.
 Alpha  occ. eigenvalues --  -84.35731 -20.60803 -20.60602 -20.60476 -20.60271
 Alpha  occ. eigenvalues --  -15.84170 -15.78337 -15.60926 -11.32567 -11.28954
 Alpha  occ. eigenvalues --   -6.82521  -4.35160  -4.34779  -4.34196  -1.70181
 Alpha  occ. eigenvalues --   -1.67668  -1.53690  -1.51771  -1.32454  -1.11301
 Alpha  occ. eigenvalues --   -1.04149  -0.98216  -0.90672  -0.85189  -0.83619
 Alpha  occ. eigenvalues --   -0.80306  -0.78451  -0.75591  -0.74948  -0.74071
 Alpha  occ. eigenvalues --   -0.71027  -0.65990  -0.63212  -0.58952  -0.53493
 Alpha  occ. eigenvalues --   -0.53192  -0.50967  -0.50304  -0.49335  -0.47910
 Alpha  occ. eigenvalues --   -0.47218  -0.46285  -0.40361
 Alpha virt. eigenvalues --    0.02981   0.03411   0.04113   0.04735   0.04937
 Alpha virt. eigenvalues --    0.05386   0.05884   0.06154   0.07738   0.09614
 Alpha virt. eigenvalues --    0.09825   0.10904   0.12002   0.12646   0.13544

 Mulliken charges:
               1
     1  N    0.261221
     2  C   -0.482642
     3  P    0.583800
     4  N    2.109780
     5  H    0.230999
     6  N    2.008659
     7  O   -1.313770
     8  O   -1.211290
     9  O   -1.267256
    10  O   -1.298464
    11  C   -0.705065
    12  H    0.108044
    13  H    0.217705
    14  H    0.228045
    15  H    0.151812
    16  H    0.378422
 Sum of Mulliken charges =  -0.00000

 Dipole moment (field-independent basis, Debye):
    X=             -0.4134    Y=              1.7753    Z=              0.5973  Tot=              1.9182

 Test job not archived.
 1\1\GINC-SE398\SP\RHF\Aug-CC-pVDZ\C2H6N3O4P1\OHZDE\08-Apr-2025\0\\#t h
 f aug-cc-pvdz iop(5/13=1,5/36=2,99/5=2) pseudo=read geom=check guess=(
 read,tcheck) scf=(maxcycle=1)\\title\\0,1\N,0,1.370973,0.643218,0.3607
 98\C,0,0.588296,-0.348408,1.095029\P,0,-1.371666,-0.65936,-1.045082\N,
 0,2.642309,0.294658,-0.074212\H,0,1.383677,1.602439,0.680669\N,0,-2.44
 6243,0.378857,0.08624\O,0,2.883794,-0.899494,-0.17929\O,0,3.386414,1.2
 20609,-0.349549\O,0,-2.578734,0.022482,1.25002\O,0,-3.016335,1.319965,
 -0.436701\C,0,-0.169214,-1.327465,0.188116\H,0,-0.118099,0.213261,1.70

 Normal termination of Gaussian 16 at Tue Apr  8 23:35:19 2025.
