 Gaussian 16, Revision C.01,

 ----------------------------------------------------------------------
 #t hf aug-cc-pvdz symm=none int=(grid=ultrafine) guess=(read,tcheck) s
 table=(opt,rrhf)
 ----------------------------------------------------------------------
 -----
 title
 -----
 Symbolic Z-matrix:
 Charge =  0 Multiplicity = 1

 SCF Done:  E(RHF) =  -347.844697008     A.U. after   14 cycles
 Normal termination of Gaussian 16 at Tue Apr  8 22:33:39 2025.
 Gaussian 16:  ES64L-G16RevC.01  3-Jul-2019

 ----------------------------------------------------------------------
 #t hf aug-cc-pvdz iop(5/13=1,5/36=2,99/5=2) pseudo=read geom=check gue
 ss=(read,tcheck) scf=(maxcycle=1)
 ----------------------------------------------------------------------
 -----
 title
 -----
 Structure from the checkpoint file:  "BDE49_expt_105_mol1.chk"
 Charge =  0 Multiplicity = 1

                         Standard orientation:
 ---------------------------------------------------------------------
 Center     Atomic      Atomic             Coordinates (Angstroms)
 Number     Number       Type             X           Y           Z
 ---------------------------------------------------------------------
      1          6           0       -2.650305    0.214326   -0.000000
      2          6           0       -1.779164    1.302728    0.000042
      3          6           0       -0.402234    1.098966    0.000037
      4          6           0        0.136720   -0.194091   -0.000009
      5          6           0       -0.750292   -1.274591   -0.000050
      6          6           0       -2.130329   -1.076707   -0.000046
      7          1           0       -0.354441   -2.285524   -0.000087
      8          1           0       -2.173642    2.313095    0.000078
      9          1           0        0.259168    1.959022    0.000070
     10          1           0       -2.797239   -1.932027   -0.000079
     11          1           0       -3.722876    0.372698    0.000003
     12          6           0        1.641238   -0.426805   -0.000012
     13          6           0        2.309246    0.131375   -1.269497
     14          1           0        1.859001   -0.291591   -2.170993
     15          1           0        3.377638   -0.104480   -1.278711
     16          1           0        2.208718    1.219319   -1.325495
     17          6           0        2.309234    0.131268    1.269526
     18          1           0        1.793683   -1.512171   -0.000057
     19          1           0        3.377626   -0.104587    1.278731
     20          1           0        1.858980   -0.291775    2.170982
     21          1           0        2.208703    1.219207    1.325615
 ---------------------------------------------------------------------

 SCF Done:  E(RHF) =  -348.216034752     A.U. after    2 cycles

 The electronic state is 1-A.
 Alpha  occ. eigenvalues --  -11.24207 -11.24163 -11.24007 -11.23961 -11.23625
 Alpha  occ. eigenvalues --  -11.23529 -11.23518 -11.22484 -11.22482  -1.15581
 Alpha  occ. eigenvalues --   -1.08096  -1.01161  -0.99296  -0.93157  -0.85136
 Alpha  occ. eigenvalues --   -0.83041  -0.77830  -0.70384  -0.65652  -0.63666
 Alpha  occ. eigenvalues --   -0.61025  -0.60085  -0.58989  -0.57540  -0.54435
 Alpha  occ. eigenvalues --   -0.54045  -0.50658  -0.50630  -0.48316  -0.47485
 Alpha  occ. eigenvalues --   -0.47188  -0.34206  -0.33297
 Alpha virt. eigenvalues --    0.03378   0.03446   0.03786   0.04274   0.04821
 Alpha virt. eigenvalues --    0.05051   0.06273   0.07260   0.07438   0.07763
 Alpha virt. eigenvalues --    0.08193   0.10347   0.10844   0.11208   0.12194

 Mulliken charges:
               1
     1  C    0.101167
     2  C   -0.069185
     3  C    0.302451
     4  C    1.639995
     5  C    0.119157
     6  C    0.202770
     7  H   -0.344284
     8  H   -0.235818
     9  H   -0.343123
    10  H   -0.229265
    11  H   -0.229901
    12  C   -1.506085
    13  C   -0.195845
    14  H    0.136406
    15  H    0.127199
    16  H    0.200473
    17  C   -0.195848
    18  H    0.055657
    19  H    0.127198
    20  H    0.136407
    21  H    0.200473
 Sum of Mulliken charges =  -0.00000

 Dipole moment (field-independent basis, Debye):
    X=              0.3834    Y=             -0.0896    Z=             -0.0000  Tot=              0.3938

 Test job not archived.
 1\1\GINC-SE457\SP\RHF\Aug-CC-pVDZ\C9H12\OHZDE\08-Apr-2025\0\\#t hf aug
 -cc-pvdz iop(5/13=1,5/36=2,99/5=2) pseudo=read geom=check guess=(read,
 tcheck) scf=(maxcycle=1)\\title\\0,1\C,0,-2.650305,0.214326,0.\C,0,-1.
 779164,1.302728,0.000042\C,0,-0.402234,1.098966,0.000037\C,0,0.13672,-
 0.194091,-0.000009\C,0,-0.750292,-1.274591,-0.00005\C,0,-2.130329,-1.0
 76707,-0.000046\H,0,-0.354441,-2.285524,-0.000087\H,0,-2.173642,2.3130
 95,0.000078\H,0,0.259168,1.959022,0.00007\H,0,-2.797239,-1.932027,-0.0
 00079\H,0,-3.722876,0.372698,0.000003\C,0,1.641238,-0.426805,-0.000012

 Normal termination of Gaussian 16 at Tue Apr  8 22:33:50 2025.
