 Gaussian 16, Revision C.01,

 ----------------------------------------------------------------------
 #t hf aug-cc-pvdz symm=none int=(grid=ultrafine) guess=(read,tcheck) s
 table=(opt,rrhf)
 ----------------------------------------------------------------------
 -----
 title
 -----
 Symbolic Z-matrix:
 Charge =  0 Multiplicity = 1

 SCF Done:  E(RHF) =  -235.163553949     A.U. after   13 cycles
 Normal termination of Gaussian 16 at Wed Apr  9 00:49:30 2025.
 Gaussian 16:  ES64L-G16RevC.01  3-Jul-2019

 ----------------------------------------------------------------------
 #t hf aug-cc-pvdz iop(5/13=1,5/36=2,99/5=2) pseudo=read geom=check gue
 ss=(read,tcheck) scf=(maxcycle=1)
 ----------------------------------------------------------------------
 -----
 title
 -----
 Structure from the checkpoint file:  "BDE49_nonexpt_89_mol1.chk"
 Charge =  0 Multiplicity = 1

                         Standard orientation:
 ---------------------------------------------------------------------
 Center     Atomic      Atomic             Coordinates (Angstroms)
 Number     Number       Type             X           Y           Z
 ---------------------------------------------------------------------
      1          5           0       -0.700575    0.815264    0.444412
      2          5           0        0.700574    0.815263   -0.444415
      3          6           0        1.888039   -0.068293   -0.093898
      4          7           0        2.782236   -0.745829    0.192398
      5          6           0       -1.888040   -0.068292    0.093896
      6          7           0       -2.782238   -0.745825   -0.192400
      7          1           0        0.821412    1.554254   -1.371640
      8          1           0       -0.821387    1.554201    1.371685
 ---------------------------------------------------------------------

 SCF Done:  E(RHF) =  -235.384599198     A.U. after    2 cycles

 The electronic state is 1-A.
 Alpha  occ. eigenvalues --  -15.55481 -15.55475 -11.28859 -11.28857  -7.66938
 Alpha  occ. eigenvalues --   -7.66910  -1.25923  -1.25919  -0.89664  -0.82897
 Alpha  occ. eigenvalues --   -0.67409  -0.64953  -0.61325  -0.60892  -0.58499
 Alpha  occ. eigenvalues --   -0.53546  -0.53523  -0.53187  -0.48486
 Alpha virt. eigenvalues --   -0.01308  -0.01220   0.03009   0.03204   0.04304
 Alpha virt. eigenvalues --    0.04637   0.06289   0.06602   0.06957   0.08426
 Alpha virt. eigenvalues --    0.11737   0.11804   0.12798   0.13150   0.13170

 Mulliken charges:
               1
     1  B    0.069580
     2  B    0.069593
     3  C   -1.154784
     4  N    0.813992
     5  C   -1.154786
     6  N    0.813994
     7  H    0.271203
     8  H    0.271208
 Sum of Mulliken charges =  -0.00000

 Dipole moment (field-independent basis, Debye):
    X=             -0.0000    Y=              4.2694    Z=             -0.0000  Tot=              4.2694

 Test job not archived.
 1\1\GINC-SE229\SP\RHF\Aug-CC-pVDZ\C2H2B2N2\OHZDE\09-Apr-2025\0\\#t hf
 aug-cc-pvdz iop(5/13=1,5/36=2,99/5=2) pseudo=read geom=check guess=(re
 ad,tcheck) scf=(maxcycle=1)\\title\\0,1\B,0,0.700575,0.815264,-0.44441
 2\B,0,-0.700574,0.815263,0.444415\C,0,-1.888039,-0.068293,0.093898\N,0
 ,-2.782236,-0.745829,-0.192398\C,0,1.88804,-0.068292,-0.093896\N,0,2.7
 82238,-0.745825,0.1924\H,0,-0.821412,1.554254,1.37164\H,0,0.821387,1.5
 54201,-1.371685\\Version=ES64L-G16RevC.01\State=1-A\HF=-235.3845992\RM
 SD=2.097e-02\Dipole=0.0000057,1.6797257,0.0000099\Quadrupole=-11.48574

 Normal termination of Gaussian 16 at Wed Apr  9 00:49:34 2025.
