 Gaussian 16, Revision C.01,

 ----------------------------------------------------------------------
 #t hf aug-cc-pvdz symm=none int=(grid=ultrafine) guess=(read,tcheck) s
 table=opt
 ----------------------------------------------------------------------
 -----
 title
 -----
 Symbolic Z-matrix:
 Charge =  0 Multiplicity = 2

 SCF Done:  E(UHF) =  -647.903680419     A.U. after   20 cycles
 Normal termination of Gaussian 16 at Tue Apr  8 23:19:55 2025.
 Gaussian 16:  ES64L-G16RevC.01  3-Jul-2019

 ----------------------------------------------------------------------
 #t hf aug-cc-pvdz iop(5/13=1,5/36=2,99/5=2) pseudo=read geom=check gue
 ss=(read,tcheck) scf=(maxcycle=1)
 ----------------------------------------------------------------------
 -----
 title
 -----
 Structure from the checkpoint file:  "BDE49_nonexpt_111_mol2.chk"
 Charge =  0 Multiplicity = 2

                         Standard orientation:
 ---------------------------------------------------------------------
 Center     Atomic      Atomic             Coordinates (Angstroms)
 Number     Number       Type             X           Y           Z
 ---------------------------------------------------------------------
      1          5           0        2.276797    0.084206   -0.158387
      2         16           0       -0.401865    0.175960   -0.417945
      3          8           0        1.126004   -0.412653    0.291257
      4          8           0       -1.241295   -1.129641    0.076389
      5          8           0       -0.762044    1.312378    0.398353
      6          1           0       -1.266370   -1.158615    1.048681
      7          1           0        3.330903   -0.238453    0.302376
 ---------------------------------------------------------------------

 SCF Done:  E(UHF) =  -648.201501723     A.U. after    2 cycles

 The electronic state is 2-A.
 Alpha  occ. eigenvalues --  -94.21159 -20.63464 -20.60711 -20.57588  -8.46551
 Alpha  occ. eigenvalues --   -7.66008  -6.44330  -6.44204  -6.43888  -1.59275
 Alpha  occ. eigenvalues --   -1.49424  -1.47838  -0.97919  -0.79604  -0.74000
 Alpha  occ. eigenvalues --   -0.70253  -0.64741  -0.62241  -0.61815  -0.56423
 Alpha  occ. eigenvalues --   -0.55025  -0.50192  -0.45917  -0.34528
 Alpha virt. eigenvalues --    0.03672   0.04301   0.05319   0.05752   0.07347
 Alpha virt. eigenvalues --    0.08318   0.09955   0.11744   0.12300   0.12969
 Alpha virt. eigenvalues --    0.13728   0.18388   0.18626   0.19503   0.20241

  Beta  occ. eigenvalues --  -94.21118 -20.63463 -20.60660 -20.57578  -8.46495
  Beta  occ. eigenvalues --   -7.64205  -6.44286  -6.44092  -6.43848  -1.59164
  Beta  occ. eigenvalues --   -1.49344  -1.47555  -0.97579  -0.78831  -0.73092
  Beta  occ. eigenvalues --   -0.69910  -0.62356  -0.61981  -0.59898  -0.55711
  Beta  occ. eigenvalues --   -0.54791  -0.49968  -0.45149
  Beta virt. eigenvalues --    0.03645   0.04168   0.04969   0.05512   0.07447
  Beta virt. eigenvalues --    0.07840   0.09634   0.10197   0.12212   0.13225
  Beta virt. eigenvalues --    0.14862   0.15985   0.18476   0.18809   0.19940

 Mulliken charges and spin densities:
               1          2
     1  B   -0.064847   0.987990
     2  S    2.738956   0.011984
     3  O   -0.949505  -0.038059
     4  O   -1.087642   0.000279
     5  O   -1.249683   0.000444
     6  H    0.373906   0.000522
     7  H    0.238813   0.036839
 Sum of Mulliken charges =  -0.00000   1.00000

 Dipole moment (field-independent basis, Debye):
    X=             -0.2253    Y=             -1.6562    Z=              0.1435  Tot=              1.6776
                          Isotropic Fermi Contact Couplings
        Atom                 a.u.       MegaHertz       Gauss      10(-4) cm-1
     1  B(11)              0.28571     409.81730     146.23301     136.70034
     2  S(33)              0.05243      18.00995       6.42640       6.00747
     3  O(17)             -0.00691       4.18963       1.49496       1.39751
     4  O(17)             -0.00163       0.98947       0.35307       0.33005
     5  O(17)              0.00100      -0.60491      -0.21585      -0.20178
     6  H(1)              -0.00010      -0.44162      -0.15758      -0.14731
     7  H(1)               0.02379     106.33874      37.94431      35.47079
 --------------------------------------------------------

 Normal termination of Gaussian 16 at Tue Apr  8 23:19:58 2025.
