 Gaussian 16, Revision C.01,

 ----------------------------------------------------------------------
 #t hf aug-cc-pvdz symm=none int=(grid=ultrafine) guess=(read,tcheck) s
 table=opt
 ----------------------------------------------------------------------
 -----
 title
 -----
 Symbolic Z-matrix:
 Charge =  0 Multiplicity = 2

 SCF Done:  E(UHF) =  -458.969122858     A.U. after   18 cycles
 Normal termination of Gaussian 16 at Tue Apr  8 23:28:10 2025.
 Gaussian 16:  ES64L-G16RevC.01  3-Jul-2019

 ----------------------------------------------------------------------
 #t hf aug-cc-pvdz iop(5/13=1,5/36=2,99/5=2) pseudo=read geom=check gue
 ss=(read,tcheck) scf=(maxcycle=1)
 ----------------------------------------------------------------------
 -----
 title
 -----
 Structure from the checkpoint file:  "BDE49_nonexpt_1316_mol2.chk"
 Charge =  0 Multiplicity = 2

                         Standard orientation:
 ---------------------------------------------------------------------
 Center     Atomic      Atomic             Coordinates (Angstroms)
 Number     Number       Type             X           Y           Z
 ---------------------------------------------------------------------
      1          6           0        1.445511   -0.802199    0.240571
      2         15           0       -0.000000    0.082723   -0.512490
      3          1           0        1.368998   -0.858831    1.328952
      4          1           0        2.364101   -0.274538   -0.025584
      5          1           0        1.506036   -1.811160   -0.173677
      6          6           0       -1.445508   -0.802204    0.240571
      7          1           0       -1.506028   -1.811166   -0.173677
      8          1           0       -2.364100   -0.274548   -0.025585
      9          1           0       -1.368995   -0.858836    1.328952
     10          6           0       -0.000003    1.642043    0.300922
     11          1           0        0.921342    2.211200    0.367793
     12          1           0       -0.921352    2.211196    0.367794
 ---------------------------------------------------------------------

 SCF Done:  E(UHF) =  -459.146851753     A.U. after    2 cycles

 The electronic state is 2-A.
 Alpha  occ. eigenvalues --  -84.26306 -11.24250 -11.23532 -11.23525  -6.73453
 Alpha  occ. eigenvalues --   -4.25966  -4.25881  -4.25180  -1.03656  -0.94285
 Alpha  occ. eigenvalues --   -0.93972  -0.72471  -0.60561  -0.59436  -0.58808
 Alpha  occ. eigenvalues --   -0.56090  -0.55175  -0.48743  -0.45543  -0.42773
 Alpha  occ. eigenvalues --   -0.27934
 Alpha virt. eigenvalues --    0.03966   0.04229   0.04241   0.05316   0.06350
 Alpha virt. eigenvalues --    0.06631   0.07488   0.08673   0.09130   0.11883
 Alpha virt. eigenvalues --    0.12573   0.14177   0.14995   0.16590   0.16708

  Beta  occ. eigenvalues --  -84.26329 -11.23378 -11.23371 -11.22030  -6.73479
  Beta  occ. eigenvalues --   -4.26095  -4.25969  -4.25086  -1.01977  -0.93956
  Beta  occ. eigenvalues --   -0.88187  -0.71027  -0.59448  -0.58994  -0.58609
  Beta  occ. eigenvalues --   -0.56024  -0.54824  -0.46794  -0.44787  -0.31187
  Beta virt. eigenvalues --    0.03565   0.04260   0.04284   0.05262   0.06366
  Beta virt. eigenvalues --    0.06650   0.07504   0.07812   0.08812   0.09138
  Beta virt. eigenvalues --    0.12605   0.13449   0.14953   0.15210   0.16720

 Mulliken charges and spin densities:
               1          2
     1  C   -0.790778   0.047463
     2  P    1.443902  -0.176940
     3  H    0.133923   0.008222
     4  H    0.111029  -0.002379
     5  H    0.133437  -0.006186
     6  C   -0.790778   0.047462
     7  H    0.133439  -0.006186
     8  H    0.111028  -0.002379
     9  H    0.133923   0.008222
    10  C   -0.534108   1.242183
    11  H   -0.042509  -0.079741
    12  H   -0.042506  -0.079741
 Sum of Mulliken charges =  -0.00000   1.00000

 Dipole moment (field-independent basis, Debye):
    X=              0.0000    Y=             -0.3314    Z=              0.8834  Tot=              0.9436
                          Isotropic Fermi Contact Couplings
        Atom                 a.u.       MegaHertz       Gauss      10(-4) cm-1
     1  C(13)              0.03753      42.19314      15.05556      14.07412
     2  P(31)              0.01931      34.96975      12.47808      11.66465
     3  H(1)              -0.00028      -1.26697      -0.45209      -0.42262
     4  H(1)              -0.00123      -5.47634      -1.95410      -1.82671
     5  H(1)              -0.00108      -4.84122      -1.72747      -1.61486
     6  C(13)              0.03753      42.19302      15.05552      14.07408
     7  H(1)              -0.00108      -4.84122      -1.72747      -1.61486
     8  H(1)              -0.00123      -5.47633      -1.95409      -1.82671

 Normal termination of Gaussian 16 at Tue Apr  8 23:28:14 2025.
