 Gaussian 16, Revision C.01,

 ----------------------------------------------------------------------
 #t hf aug-cc-pvdz symm=none int=(grid=ultrafine) guess=(read,tcheck) s
 table=opt
 ----------------------------------------------------------------------
 -----
 title
 -----
 Symbolic Z-matrix:
 Charge =  0 Multiplicity = 2

 SCF Done:  E(UHF) =  -1259.78125089     A.U. after   15 cycles
 Normal termination of Gaussian 16 at Tue Apr  8 22:58:35 2025.
 Gaussian 16:  ES64L-G16RevC.01  3-Jul-2019

 ----------------------------------------------------------------------
 #t hf aug-cc-pvdz iop(5/13=1,5/36=2,99/5=2) pseudo=read geom=check gue
 ss=(read,tcheck) scf=(maxcycle=1)
 ----------------------------------------------------------------------
 -----
 title
 -----
 Structure from the checkpoint file:  "BDE49_expt_1949_mol2.chk"
 Charge =  0 Multiplicity = 2

                         Standard orientation:
 ---------------------------------------------------------------------
 Center     Atomic      Atomic             Coordinates (Angstroms)
 Number     Number       Type             X           Y           Z
 ---------------------------------------------------------------------
      1         15           0        0.000000   -0.000000    0.898605
      2         17           0        0.000000    1.621502   -0.396443
      3         17           0       -0.000000   -1.621502   -0.396443
 ---------------------------------------------------------------------

 SCF Done:  E(UHF) =  -1259.97299294     A.U. after    2 cycles

 The electronic state is 2-B1.
 Alpha  occ. eigenvalues -- -105.59160-105.59160 -84.39762 -10.64084 -10.64073
 Alpha  occ. eigenvalues --   -7.80926  -7.80917  -7.80735  -7.80734  -7.80563
 Alpha  occ. eigenvalues --   -7.80561  -6.86286  -4.38196  -4.37537  -4.37007
 Alpha  occ. eigenvalues --   -1.12668  -1.06413  -0.81247  -0.58243  -0.55693
 Alpha  occ. eigenvalues --   -0.54801  -0.50585  -0.47725  -0.44452  -0.34430
 Alpha virt. eigenvalues --    0.05549   0.06057   0.08038   0.09641   0.12148
 Alpha virt. eigenvalues --    0.12783   0.13933   0.14430   0.15609   0.15827
 Alpha virt. eigenvalues --    0.16732   0.19422   0.26481   0.27174   0.27450

  Beta  occ. eigenvalues -- -105.59078-105.59078 -84.39040 -10.63997 -10.63985
  Beta  occ. eigenvalues --   -7.80934  -7.80925  -7.80526  -7.80525  -7.80348
  Beta  occ. eigenvalues --   -7.80347  -6.85367  -4.37030  -4.36704  -4.34589
  Beta  occ. eigenvalues --   -1.11053  -1.05819  -0.75460  -0.57552  -0.54404
  Beta  occ. eigenvalues --   -0.51594  -0.48426  -0.47719  -0.42345
  Beta virt. eigenvalues --    0.02277   0.06329   0.06433   0.08284   0.11757
  Beta virt. eigenvalues --    0.12825   0.12847   0.14447   0.14939   0.15677
  Beta virt. eigenvalues --    0.16291   0.18174   0.19506   0.26563   0.28611

 Mulliken charges and spin densities:
               1          2
     1  P    0.857704   0.991313
     2  Cl  -0.428852   0.004344
     3  Cl  -0.428852   0.004344
 Sum of Mulliken charges =  -0.00000   1.00000

 Dipole moment (field-independent basis, Debye):
    X=              0.0000    Y=             -0.0000    Z=              1.5846  Tot=              1.5846
                          Isotropic Fermi Contact Couplings
        Atom                 a.u.       MegaHertz       Gauss      10(-4) cm-1
     1  P(31)              0.27219     492.95734     175.89944     164.43287
     2  Cl(35)             0.04486      19.67046       7.01891       6.56136
     3  Cl(35)             0.04486      19.67046       7.01891       6.56136
 --------------------------------------------------------
       Center         ----  Spin Dipole Couplings  ----
                      3XX-RR        3YY-RR        3ZZ-RR
 --------------------------------------------------------
     1   Atom        3.972135     -1.800252     -2.171883

 Normal termination of Gaussian 16 at Tue Apr  8 22:58:37 2025.
