 Gaussian 16, Revision C.01,

 ----------------------------------------------------------------------
 #t hf aug-cc-pvdz symm=none int=(grid=ultrafine) guess=(read,tcheck) s
 table=(opt,rrhf)
 ----------------------------------------------------------------------
 -----
 title
 -----
 Symbolic Z-matrix:
 Charge =  0 Multiplicity = 1

 SCF Done:  E(RHF) =  -779.202961547     A.U. after   10 cycles

 1\1\GINC-SE080\Stability\RHF\Aug-CC-pVDZ\F2H4Si2\OHZDE\09-Apr-2025\0\\
 #t hf aug-cc-pvdz symm=none int=(grid=ultrafine) guess=(read,tcheck) s
 table=(opt,rrhf)\\title\\0,1\Si,0,-1.045253,-0.554395,0.\Si,0,1.045254
 ,0.554395,0.\F,0,2.200515,-0.581823,0.\H,0,1.227141,1.389424,1.208061\
 H,0,1.227139,1.389424,-1.20806\F,0,-2.200516,0.581823,-0.000001\H,0,-1
 .22714,-1.389423,1.208061\H,0,-1.227138,-1.389424,-1.20806\\Version=ES
 64L-G16RevC.01\HF=-779.2029615\RMSD=6.130e-09\Dipole=0.0000036,-0.0000
 016,-0.0000007\Quadrupole=-3.9429773,1.7135063,2.2294711,3.0951325,-0.

 Normal termination of Gaussian 16 at Wed Apr  9 00:08:29 2025.
 Gaussian 16:  ES64L-G16RevC.01  3-Jul-2019

 ----------------------------------------------------------------------
 #t hf aug-cc-pvdz iop(5/13=1,5/36=2,99/5=2) pseudo=read geom=check gue
 ss=(read,tcheck) scf=(maxcycle=1)
 ----------------------------------------------------------------------
 -----
 title
 -----
 Structure from the checkpoint file:  "BDE49_nonexpt_2305_mol1.chk"
 Charge =  0 Multiplicity = 1

                         Standard orientation:
 ---------------------------------------------------------------------
 Center     Atomic      Atomic             Coordinates (Angstroms)
 Number     Number       Type             X           Y           Z
 ---------------------------------------------------------------------
      1         14           0       -1.045253   -0.554395    0.000000
      2         14           0        1.045254    0.554395    0.000000
      3          9           0        2.200515   -0.581823    0.000000
      4          1           0        1.227141    1.389424    1.208061
      5          1           0        1.227139    1.389424   -1.208060
      6          9           0       -2.200516    0.581823   -0.000001
      7          1           0       -1.227140   -1.389423    1.208061
      8          1           0       -1.227138   -1.389424   -1.208060
 ---------------------------------------------------------------------

 SCF Done:  E(RHF) =  -779.452038826     A.U. after    2 cycles

 The electronic state is 1-A.
 Alpha  occ. eigenvalues --  -69.58971 -69.58971 -26.45706 -26.45706  -6.25630
 Alpha  occ. eigenvalues --   -6.25619  -4.01052  -4.01051  -4.00864  -4.00835
 Alpha  occ. eigenvalues --   -4.00825  -4.00788  -1.56648  -1.56605  -0.80636
 Alpha  occ. eigenvalues --   -0.75454  -0.65360  -0.65224  -0.65199  -0.64670
 Alpha  occ. eigenvalues --   -0.63786  -0.60573  -0.51024  -0.49109  -0.42847
 Alpha virt. eigenvalues --    0.03751   0.04224   0.04371   0.05809   0.07119
 Alpha virt. eigenvalues --    0.07632   0.07805   0.08924   0.09856   0.10244
 Alpha virt. eigenvalues --    0.10846   0.14504   0.14783   0.16092   0.16383

 Mulliken charges:
               1
     1  Si   1.123005
     2  Si   1.123007
     3  F   -0.808846
     4  H   -0.157081
     5  H   -0.157080
     6  F   -0.808845
     7  H   -0.157080
     8  H   -0.157080
 Sum of Mulliken charges =   0.00000

 Dipole moment (field-independent basis, Debye):
    X=              0.0000    Y=             -0.0000    Z=             -0.0000  Tot=              0.0000

 Test job not archived.
 1\1\GINC-SE080\SP\RHF\Aug-CC-pVDZ\F2H4Si2\OHZDE\09-Apr-2025\0\\#t hf a
 ug-cc-pvdz iop(5/13=1,5/36=2,99/5=2) pseudo=read geom=check guess=(rea
 d,tcheck) scf=(maxcycle=1)\\title\\0,1\Si,0,-1.045253,-0.554395,0.\Si,
 0,1.045254,0.554395,0.\F,0,2.200515,-0.581823,0.\H,0,1.227141,1.389424
 ,1.208061\H,0,1.227139,1.389424,-1.20806\F,0,-2.200516,0.581823,-0.000
 001\H,0,-1.22714,-1.389423,1.208061\H,0,-1.227138,-1.389424,-1.20806\\
 Version=ES64L-G16RevC.01\State=1-A\HF=-779.4520388\RMSD=3.406e-03\Dipo
 le=0.0000035,-0.0000016,-0.0000007\Quadrupole=-3.5868538,1.5659249,2.0

 Normal termination of Gaussian 16 at Wed Apr  9 00:08:31 2025.
