 Gaussian 16, Revision C.01,

 ----------------------------------------------------------------------
 #t hf aug-cc-pvdz symm=none int=(grid=ultrafine) guess=(read,tcheck) s
 table=(opt,rrhf)
 ----------------------------------------------------------------------
 -----
 title
 -----
 Symbolic Z-matrix:
 Charge =  0 Multiplicity = 1

 SCF Done:  E(RHF) =  -158.330127667     A.U. after   13 cycles
 Normal termination of Gaussian 16 at Wed Apr  9 00:35:49 2025.
 Gaussian 16:  ES64L-G16RevC.01  3-Jul-2019

 ----------------------------------------------------------------------
 #t hf aug-cc-pvdz iop(5/13=1,5/36=2,99/5=2) pseudo=read geom=check gue
 ss=(read,tcheck) scf=(maxcycle=1)
 ----------------------------------------------------------------------
 -----
 title
 -----
 Structure from the checkpoint file:  "BDE49_nonexpt_507_mol1.chk"
 Charge =  0 Multiplicity = 1

                         Standard orientation:
 ---------------------------------------------------------------------
 Center     Atomic      Atomic             Coordinates (Angstroms)
 Number     Number       Type             X           Y           Z
 ---------------------------------------------------------------------
      1          1           0       -2.261439   -1.292854    0.000118
      2          1           0       -2.963340    0.651085    0.000140
      3          5           0       -2.055730   -0.122546   -0.000099
      4          6           0       -0.586044    0.389603   -0.000022
      5          7           0        0.376659   -0.458387   -0.000009
      6          1           0       -0.356040    1.469880    0.000013
      7          6           0        1.736372    0.040581    0.000043
      8          1           0        2.254672   -0.362805    0.876029
      9          1           0        1.811487    1.137804    0.000065
     10          1           0        2.254730   -0.362773   -0.875925
 ---------------------------------------------------------------------

 SCF Done:  E(RHF) =  -158.496606729     A.U. after    2 cycles

 The electronic state is 1-A.
 Alpha  occ. eigenvalues --  -15.52464 -11.26328 -11.25965  -7.60009  -1.23342
 Alpha  occ. eigenvalues --   -0.97836  -0.81668  -0.71299  -0.67006  -0.60616
 Alpha  occ. eigenvalues --   -0.60499  -0.51738  -0.49107  -0.44691  -0.44030
 Alpha virt. eigenvalues --    0.02269   0.03650   0.04176   0.05024   0.06053
 Alpha virt. eigenvalues --    0.06122   0.06516   0.06959   0.10244   0.10517
 Alpha virt. eigenvalues --    0.12159   0.12399   0.14206   0.15519   0.16350

 Mulliken charges:
               1
     1  H    0.254712
     2  H    0.196638
     3  B   -0.290908
     4  C   -0.709940
     5  N    0.598017
     6  H   -0.009899
     7  C   -0.421067
     8  H    0.127794
     9  H    0.126857
    10  H    0.127796
 Sum of Mulliken charges =  -0.00000

 Dipole moment (field-independent basis, Debye):
    X=              0.6158    Y=              1.8352    Z=             -0.0003  Tot=              1.9357

 Test job not archived.
 1\1\GINC-SE457\SP\RHF\Aug-CC-pVDZ\C2H6B1N1\OHZDE\09-Apr-2025\0\\#t hf
 aug-cc-pvdz iop(5/13=1,5/36=2,99/5=2) pseudo=read geom=check guess=(re
 ad,tcheck) scf=(maxcycle=1)\\title\\0,1\H,0,-2.261439,-1.292854,0.0001
 18\H,0,-2.96334,0.651085,0.00014\B,0,-2.05573,-0.122546,-0.000099\C,0,
 -0.586044,0.389603,-0.000022\N,0,0.376659,-0.458387,-0.000009\H,0,-0.3
 5604,1.46988,0.000013\C,0,1.736372,0.040581,0.000043\H,0,2.254672,-0.3
 62805,0.876029\H,0,1.811487,1.137804,0.000065\H,0,2.25473,-0.362773,-0
 .875925\\Version=ES64L-G16RevC.01\State=1-A\HF=-158.4966067\RMSD=1.147

 Normal termination of Gaussian 16 at Wed Apr  9 00:35:51 2025.
