 Gaussian 16, Revision C.01,

 ----------------------------------------------------------------------
 #t hf aug-cc-pvdz symm=none int=(grid=ultrafine) guess=(read,tcheck) s
 table=(opt,rrhf)
 ----------------------------------------------------------------------
 -----
 title
 -----
 Symbolic Z-matrix:
 Charge =  0 Multiplicity = 1

 SCF Done:  E(RHF) =  -585.107039487     A.U. after   16 cycles
 Normal termination of Gaussian 16 at Wed Apr  9 00:49:22 2025.
 Gaussian 16:  ES64L-G16RevC.01  3-Jul-2019

 ----------------------------------------------------------------------
 #t hf aug-cc-pvdz iop(5/13=1,5/36=2,99/5=2) pseudo=read geom=check gue
 ss=(read,tcheck) scf=(maxcycle=1)
 ----------------------------------------------------------------------
 -----
 title
 -----
 Structure from the checkpoint file:  "BDE49_nonexpt_860_mol1.chk"
 Charge =  0 Multiplicity = 1

                         Standard orientation:
 ---------------------------------------------------------------------
 Center     Atomic      Atomic             Coordinates (Angstroms)
 Number     Number       Type             X           Y           Z
 ---------------------------------------------------------------------
      1          6           0       -0.141476   -0.149572   -0.098702
      2          6           0       -1.036904   -1.172942   -0.451164
      3          6           0       -2.415037   -0.982717   -0.377418
      4          6           0       -2.929275    0.237351    0.056842
      5          6           0       -2.059585    1.264654    0.417891
      6          6           0       -0.682454    1.069976    0.344157
      7          5           0        2.204214   -0.645611    1.774666
      8          1           0       -3.087309   -1.784991   -0.661768
      9          1           0       -4.001781    0.387087    0.113563
     10          1           0       -2.453965    2.216291    0.757376
     11          1           0       -0.023366    1.883662    0.631478
     12          1           0       -0.652726   -2.127199   -0.796929
     13         14           0        1.731969   -0.423361   -0.169169
     14          6           0        2.602969    1.017463   -1.020619
     15          1           0        2.428743    1.957155   -0.489288
     16          1           0        2.248206    1.136395   -2.047947
     17          1           0        3.684017    0.852510   -1.054294
     18          1           0        2.393566    0.305791    2.471730
     19          1           0        2.211394   -1.713871    2.305203
     20          1           0        1.955156   -1.662994   -0.960004
 ---------------------------------------------------------------------

 SCF Done:  E(RHF) =  -585.450458524     A.U. after    2 cycles

 The electronic state is 1-A.
 Alpha  occ. eigenvalues --  -69.50845 -11.24694 -11.24616 -11.24535 -11.24381
 Alpha  occ. eigenvalues --  -11.24312 -11.23088 -11.21611  -7.59900  -6.18053
 Alpha  occ. eigenvalues --   -3.93410  -3.93384  -3.93350  -1.15147  -1.01646
 Alpha  occ. eigenvalues --   -1.01555  -0.94930  -0.83260  -0.83126  -0.74827
 Alpha  occ. eigenvalues --   -0.70751  -0.65440  -0.63989  -0.62775  -0.59952
 Alpha  occ. eigenvalues --   -0.57041  -0.56244  -0.54599  -0.51293  -0.50527
 Alpha  occ. eigenvalues --   -0.50132  -0.45603  -0.44989  -0.41379  -0.34656
 Alpha  occ. eigenvalues --   -0.33925
 Alpha virt. eigenvalues --    0.02597   0.03221   0.03398   0.03986   0.04168
 Alpha virt. eigenvalues --    0.04722   0.05529   0.06159   0.06562   0.07331
 Alpha virt. eigenvalues --    0.07731   0.07786   0.09464   0.10068   0.10147

 Mulliken charges:
               1
     1  C   -0.395437
     2  C   -0.012008
     3  C    0.461183
     4  C    0.294237
     5  C    0.366472
     6  C    0.512661
     7  B   -1.209483
     8  H   -0.223279
     9  H   -0.213865
    10  H   -0.226560
    11  H   -0.373393
    12  H   -0.353416
    13  Si   1.134078
    14  C   -0.614322
    15  H    0.129798
    16  H   -0.032390
    17  H    0.002771
    18  H    0.477815
    19  H    0.496864
    20  H   -0.221725
 Sum of Mulliken charges =  -0.00000

 Dipole moment (field-independent basis, Debye):
    X=             -0.1114    Y=              0.4755    Z=             -0.1329  Tot=              0.5061

 Test job not archived.
 1\1\GINC-SE340\SP\RHF\Aug-CC-pVDZ\C7H11B1Si1\OHZDE\09-Apr-2025\0\\#t h
 f aug-cc-pvdz iop(5/13=1,5/36=2,99/5=2) pseudo=read geom=check guess=(
 read,tcheck) scf=(maxcycle=1)\\title\\0,1\C,0,-0.141476,-0.149572,-0.0
 98702\C,0,-1.036904,-1.172942,-0.451164\C,0,-2.415037,-0.982717,-0.377
 418\C,0,-2.929275,0.237351,0.056842\C,0,-2.059585,1.264654,0.417891\C,
 0,-0.682454,1.069976,0.344157\B,0,2.204214,-0.645611,1.774666\H,0,-3.0
 87309,-1.784991,-0.661768\H,0,-4.001781,0.387087,0.113563\H,0,-2.45396
 5,2.216291,0.757376\H,0,-0.023366,1.883662,0.631478\H,0,-0.652726,-2.1

 Normal termination of Gaussian 16 at Wed Apr  9 00:49:31 2025.
