 Gaussian 16, Revision C.01,

 ----------------------------------------------------------------------
 #t hf aug-cc-pvdz symm=none int=(grid=ultrafine) guess=(read,tcheck) s
 table=(opt,rrhf)
 ----------------------------------------------------------------------
 -----
 title
 -----
 Symbolic Z-matrix:
 Charge =  0 Multiplicity = 1

 SCF Done:  E(RHF) =  -691.101124833     A.U. after   12 cycles
 Normal termination of Gaussian 16 at Tue Apr  8 22:40:47 2025.
 Gaussian 16:  ES64L-G16RevC.01  3-Jul-2019

 ----------------------------------------------------------------------
 #t hf aug-cc-pvdz iop(5/13=1,5/36=2,99/5=2) pseudo=read geom=check gue
 ss=(read,tcheck) scf=(maxcycle=1)
 ----------------------------------------------------------------------
 -----
 title
 -----
 Structure from the checkpoint file:  "BDE49_expt_1364_mol1.chk"
 Charge =  0 Multiplicity = 1

                         Standard orientation:
 ---------------------------------------------------------------------
 Center     Atomic      Atomic             Coordinates (Angstroms)
 Number     Number       Type             X           Y           Z
 ---------------------------------------------------------------------
      1          6           0       -2.244142   -0.559640    0.000001
      2          8           0       -1.108759    0.298191    0.000001
      3          6           0        0.121897   -0.397822   -0.000000
      4          6           0        1.212568    0.659471   -0.000000
      5          6           0       -3.493414    0.301285    0.000002
      6          1           0        0.215589   -1.037585   -0.888901
      7          1           0        0.215590   -1.037586    0.888900
      8         17           0        2.847657   -0.119422   -0.000002
      9          1           0        1.154039    1.282518    0.889792
     10          1           0        1.154039    1.282518   -0.889792
     11          1           0       -2.219315   -1.210069    0.887174
     12          1           0       -2.219316   -1.210069   -0.887172
     13          1           0       -3.516649    0.940346    0.885382
     14          1           0       -4.388882   -0.325546    0.000003
     15          1           0       -3.516651    0.940346   -0.885377
 ---------------------------------------------------------------------

 SCF Done:  E(RHF) =  -691.426171118     A.U. after    2 cycles

 The electronic state is 1-A.
 Alpha  occ. eigenvalues -- -105.55611 -20.55483 -11.30430 -11.30037 -11.29327
 Alpha  occ. eigenvalues --  -11.23219 -10.60400  -7.77341  -7.76975  -7.76964
 Alpha  occ. eigenvalues --   -1.47220  -1.11281  -1.03561  -0.95909  -0.84734
 Alpha  occ. eigenvalues --   -0.84484  -0.70142  -0.68047  -0.64272  -0.62886
 Alpha  occ. eigenvalues --   -0.57184  -0.56149  -0.54771  -0.52455  -0.51501
 Alpha  occ. eigenvalues --   -0.49016  -0.44507  -0.44411  -0.42843
 Alpha virt. eigenvalues --    0.03601   0.03947   0.03990   0.04561   0.06304
 Alpha virt. eigenvalues --    0.06582   0.07138   0.07271   0.09601   0.10004
 Alpha virt. eigenvalues --    0.11191   0.13181   0.14044   0.15154   0.15194

 Mulliken charges:
               1
     1  C    0.353878
     2  O   -1.349466
     3  C    0.627237
     4  C   -0.617935
     5  C   -0.554818
     6  H    0.184017
     7  H    0.184017
     8  Cl  -0.073671
     9  H    0.218762
    10  H    0.218763
    11  H    0.151857
    12  H    0.151858
    13  H    0.177190
    14  H    0.151124
    15  H    0.177188
 Sum of Mulliken charges =  -0.00000

 Dipole moment (field-independent basis, Debye):
    X=             -2.3603    Y=             -0.3886    Z=              0.0000  Tot=              2.3921

 Test job not archived.
 1\1\GINC-SE457\SP\RHF\Aug-CC-pVDZ\C4H9Cl1O1\OHZDE\08-Apr-2025\0\\#t hf
  aug-cc-pvdz iop(5/13=1,5/36=2,99/5=2) pseudo=read geom=check guess=(r
 ead,tcheck) scf=(maxcycle=1)\\title\\0,1\C,0,-2.244142,-0.55964,0.0000
 01\O,0,-1.108759,0.298191,0.000001\C,0,0.121897,-0.397822,0.\C,0,1.212
 568,0.659471,0.\C,0,-3.493414,0.301285,0.000002\H,0,0.215589,-1.037585
 ,-0.888901\H,0,0.21559,-1.037586,0.8889\Cl,0,2.847657,-0.119422,-0.000
 002\H,0,1.154039,1.282518,0.889792\H,0,1.154039,1.282518,-0.889792\H,0
 ,-2.219315,-1.210069,0.887174\H,0,-2.219316,-1.210069,-0.887172\H,0,-3

 Normal termination of Gaussian 16 at Tue Apr  8 22:40:52 2025.
