 Gaussian 16, Revision C.01,

 ----------------------------------------------------------------------
 #t hf aug-cc-pvdz symm=none int=(grid=ultrafine) guess=(read,tcheck) s
 table=(opt,rrhf)
 ----------------------------------------------------------------------
 -----
 title
 -----
 Symbolic Z-matrix:
 Charge =  0 Multiplicity = 1

 SCF Done:  E(RHF) =  -809.722732534     A.U. after   15 cycles
 Normal termination of Gaussian 16 at Tue Apr  8 23:27:15 2025.
 Gaussian 16:  ES64L-G16RevC.01  3-Jul-2019

 ----------------------------------------------------------------------
 #t hf aug-cc-pvdz iop(5/13=1,5/36=2,99/5=2) pseudo=read geom=check gue
 ss=(read,tcheck) scf=(maxcycle=1)
 ----------------------------------------------------------------------
 -----
 title
 -----
 Structure from the checkpoint file:  "BDE49_nonexpt_1305_mol1.chk"
 Charge =  0 Multiplicity = 1

                         Standard orientation:
 ---------------------------------------------------------------------
 Center     Atomic      Atomic             Coordinates (Angstroms)
 Number     Number       Type             X           Y           Z
 ---------------------------------------------------------------------
      1          6           0       -0.494614   -0.642706   -0.788011
      2          7           0       -1.718197   -0.051654   -0.128395
      3         15           0        1.086303   -0.069875   -0.052515
      4          1           0       -0.522945   -0.326730   -1.831877
      5          1           0       -0.582345   -1.723368   -0.716330
      6          8           0       -2.632083   -0.800158    0.134824
      7          8           0       -1.714983    1.162607    0.077603
      8          8           0        2.267215   -0.688144   -0.648850
      9          8           0        1.033550    1.510038   -0.178284
     10          1           0        0.138756    1.849990    0.009266
     11          8           0        0.803949   -0.423075    1.485867
     12          1           0        1.605871   -0.624098    1.984227
 ---------------------------------------------------------------------

 SCF Done:  E(RHF) =  -810.223798844     A.U. after    2 cycles

 The electronic state is 1-A.
 Alpha  occ. eigenvalues --  -84.46126 -20.63474 -20.62240 -20.61742 -20.60644
 Alpha  occ. eigenvalues --  -20.52805 -15.82599 -11.34843  -6.91368  -4.45541
 Alpha  occ. eigenvalues --   -4.44910  -4.44038  -1.70840  -1.55790  -1.54452
 Alpha  occ. eigenvalues --   -1.49741  -1.41370  -1.15866  -0.94374  -0.87398
 Alpha  occ. eigenvalues --   -0.81511  -0.79557  -0.78231  -0.76420  -0.69404
 Alpha  occ. eigenvalues --   -0.67093  -0.65223  -0.62682  -0.57284  -0.55546
 Alpha  occ. eigenvalues --   -0.54458  -0.52997  -0.52411  -0.48705  -0.48297
 Alpha  occ. eigenvalues --   -0.47539
 Alpha virt. eigenvalues --    0.02593   0.03095   0.04564   0.05263   0.06080
 Alpha virt. eigenvalues --    0.08409   0.09464   0.10635   0.11094   0.12757
 Alpha virt. eigenvalues --    0.13432   0.14507   0.15820   0.16547   0.18115

 Mulliken charges:
               1
     1  C   -0.847787
     2  N    2.467590
     3  P    4.210743
     4  H    0.171350
     5  H    0.081686
     6  O   -1.291289
     7  O   -1.378419
     8  O   -1.459982
     9  O   -1.434450
    10  H    0.482212
    11  O   -1.394853
    12  H    0.393200
 Sum of Mulliken charges =  -0.00000

 Dipole moment (field-independent basis, Debye):
    X=             -0.6440    Y=             -0.4971    Z=              0.5096  Tot=              0.9600

 Test job not archived.
 1\1\GINC-SE333\SP\RHF\Aug-CC-pVDZ\C1H4N1O5P1\OHZDE\08-Apr-2025\0\\#t h
 f aug-cc-pvdz iop(5/13=1,5/36=2,99/5=2) pseudo=read geom=check guess=(
 read,tcheck) scf=(maxcycle=1)\\title\\0,1\C,0,-0.494614,-0.642706,-0.7
 88011\N,0,-1.718197,-0.051654,-0.128395\P,0,1.086303,-0.069875,-0.0525
 15\H,0,-0.522945,-0.32673,-1.831877\H,0,-0.582345,-1.723368,-0.71633\O
 ,0,-2.632083,-0.800158,0.134824\O,0,-1.714983,1.162607,0.077603\O,0,2.
 267215,-0.688144,-0.64885\O,0,1.03355,1.510038,-0.178284\H,0,0.138756,
 1.84999,0.009266\O,0,0.803949,-0.423075,1.485867\H,0,1.605871,-0.62409

 Normal termination of Gaussian 16 at Tue Apr  8 23:27:21 2025.
