 Gaussian 16, Revision C.01,

 ----------------------------------------------------------------------
 #t hf aug-cc-pvdz symm=none int=(grid=ultrafine) guess=(read,tcheck) s
 table=opt
 ----------------------------------------------------------------------
 -----
 title
 -----
 Symbolic Z-matrix:
 Charge =  0 Multiplicity = 2

 SCF Done:  E(UHF) =  -133.652739681     A.U. after   16 cycles
 Normal termination of Gaussian 16 at Tue Apr  8 22:37:24 2025.
 Gaussian 16:  ES64L-G16RevC.01  3-Jul-2019

 ----------------------------------------------------------------------
 #t hf aug-cc-pvdz iop(5/13=1,5/36=2,99/5=2) pseudo=read geom=check gue
 ss=(read,tcheck) scf=(maxcycle=1)
 ----------------------------------------------------------------------
 -----
 title
 -----
 Structure from the checkpoint file:  "BDE49_expt_1195_mol2.chk"
 Charge =  0 Multiplicity = 2

                         Standard orientation:
 ---------------------------------------------------------------------
 Center     Atomic      Atomic             Coordinates (Angstroms)
 Number     Number       Type             X           Y           Z
 ---------------------------------------------------------------------
      1          6           0       -0.059674    0.520529   -0.124468
      2          6           0        1.252101   -0.176069    0.017426
      3          1           0        1.307130   -1.064953   -0.625075
      4          1           0        1.444807   -0.520095    1.048095
      5          1           0        2.074375    0.483702   -0.268190
      6          7           0       -1.221674   -0.231992    0.107929
      7          1           0       -0.136490    1.563498    0.165633
      8          1           0       -1.210285   -1.153327   -0.314136
      9          1           0       -2.082377    0.248360   -0.119573
 ---------------------------------------------------------------------

 SCF Done:  E(UHF) =  -133.798634869     A.U. after    2 cycles

 The electronic state is 2-A.
 Alpha  occ. eigenvalues --  -15.49845 -11.25085 -11.22500  -1.20067  -0.99789
 Alpha  occ. eigenvalues --   -0.83253  -0.71531  -0.64352  -0.59946  -0.54568
 Alpha  occ. eigenvalues --   -0.52605  -0.51328  -0.30426
 Alpha virt. eigenvalues --    0.03554   0.04788   0.04842   0.06031   0.06978
 Alpha virt. eigenvalues --    0.07546   0.11747   0.12560   0.14274   0.15110
 Alpha virt. eigenvalues --    0.16274   0.17014   0.17391   0.19648   0.20100

  Beta  occ. eigenvalues --  -15.49403 -11.22768 -11.22708  -1.17944  -0.97831
  Beta  occ. eigenvalues --   -0.79473  -0.70957  -0.62612  -0.55727  -0.54006
  Beta  occ. eigenvalues --   -0.51371  -0.45969
  Beta virt. eigenvalues --    0.03578   0.04795   0.04879   0.06064   0.06997
  Beta virt. eigenvalues --    0.07556   0.10194   0.12628   0.14342   0.14910
  Beta virt. eigenvalues --    0.15228   0.16862   0.17364   0.18514   0.19993

 Mulliken charges and spin densities:
               1          2
     1  C   -0.365054   1.158413
     2  C   -0.429629  -0.204612
     3  H    0.134400   0.007875
     4  H    0.212869   0.046843
     5  H    0.147390  -0.002034
     6  N    0.265515   0.080554
     7  H   -0.112044  -0.073042
     8  H    0.055627  -0.002846
     9  H    0.090926  -0.011151
 Sum of Mulliken charges =   0.00000   1.00000

 Dipole moment (field-independent basis, Debye):
    X=             -0.3001    Y=             -0.1256    Z=             -0.6948  Tot=              0.7672
                          Isotropic Fermi Contact Couplings
        Atom                 a.u.       MegaHertz       Gauss      10(-4) cm-1
     1  C(13)              0.24684     277.49249      99.01622      92.56153
     2  C(13)             -0.04168     -46.86090     -16.72113     -15.63111
     3  H(1)               0.00861      38.47988      13.73058      12.83551
     4  H(1)               0.02190      97.91130      34.93719      32.65970
     5  H(1)               0.00288      12.87763       4.59506       4.29552
     6  N(14)              0.02575       8.32102       2.96915       2.77559
     7  H(1)              -0.01669     -74.60439     -26.62070     -24.88535
     8  H(1)               0.00176       7.84761       2.80022       2.61768

 Normal termination of Gaussian 16 at Tue Apr  8 22:37:25 2025.
