 Gaussian 16, Revision C.01,

 ----------------------------------------------------------------------
 #t hf aug-cc-pvdz symm=none int=(grid=ultrafine) guess=(read,tcheck) s
 table=opt
 ----------------------------------------------------------------------
 -----
 title
 -----
 Symbolic Z-matrix:
 Charge =  0 Multiplicity = 2

 SCF Done:  E(UHF) =  -446.806979883     A.U. after   15 cycles
 Normal termination of Gaussian 16 at Tue Apr  8 23:45:48 2025.
 Gaussian 16:  ES64L-G16RevC.01  3-Jul-2019

 ----------------------------------------------------------------------
 #t hf aug-cc-pvdz iop(5/13=1,5/36=2,99/5=2) pseudo=read geom=check gue
 ss=(read,tcheck) scf=(maxcycle=1)
 ----------------------------------------------------------------------
 -----
 title
 -----
 Structure from the checkpoint file:  "BDE49_nonexpt_1748_mol2.chk"
 Charge =  0 Multiplicity = 2

                         Standard orientation:
 ---------------------------------------------------------------------
 Center     Atomic      Atomic             Coordinates (Angstroms)
 Number     Number       Type             X           Y           Z
 ---------------------------------------------------------------------
      1         14           0        0.475116   -0.001757   -0.403419
      2          6           0       -1.114974   -0.764397    0.302972
      3          6           0       -2.423703   -0.051165   -0.074803
      4          1           0       -1.004707   -0.787640    1.397327
      5          1           0       -1.155515   -1.812930   -0.013568
      6          1           0       -2.428837    0.988353    0.265466
      7          1           0       -3.292276   -0.543639    0.372660
      8          1           0       -2.572654   -0.040596   -1.158300
      9          6           0        1.968785   -1.042556    0.109791
     10          1           0        2.070652   -1.060683    1.202293
     11          1           0        2.895690   -0.637061   -0.304554
     12          1           0        1.871824   -2.075684   -0.234341
     13          6           0        0.692998    1.781638    0.189882
     14          1           0        0.752971    1.818295    1.285173
     15          1           0       -0.139829    2.416933   -0.121867
     16          1           0        1.612427    2.218140   -0.209480
 ---------------------------------------------------------------------

 SCF Done:  E(UHF) =  -447.016745807     A.U. after    2 cycles

 The electronic state is 2-A.
 Alpha  occ. eigenvalues --  -69.51516 -11.22686 -11.21691 -11.21314 -11.21303
 Alpha  occ. eigenvalues --   -6.18598  -3.94504  -3.93640  -3.93624  -1.02328
 Alpha  occ. eigenvalues --   -0.96009  -0.92845  -0.84205  -0.65560  -0.60960
 Alpha  occ. eigenvalues --   -0.57961  -0.56886  -0.56127  -0.54922  -0.54466
 Alpha  occ. eigenvalues --   -0.51649  -0.49689  -0.44307  -0.42412  -0.30289
 Alpha virt. eigenvalues --    0.03663   0.03877   0.03996   0.04059   0.06114
 Alpha virt. eigenvalues --    0.06250   0.06671   0.06864   0.07134   0.08894
 Alpha virt. eigenvalues --    0.09385   0.09905   0.10430   0.10875   0.14060

  Beta  occ. eigenvalues --  -69.50995 -11.22687 -11.21608 -11.21247 -11.21227
  Beta  occ. eigenvalues --   -6.17807  -3.93294  -3.93281  -3.92451  -1.01976
  Beta  occ. eigenvalues --   -0.95321  -0.92515  -0.83873  -0.62456  -0.60490
  Beta  occ. eigenvalues --   -0.57546  -0.56154  -0.55547  -0.54392  -0.54260
  Beta  occ. eigenvalues --   -0.51464  -0.49425  -0.43500  -0.41574
  Beta virt. eigenvalues --    0.03024   0.03910   0.04023   0.04106   0.05959
  Beta virt. eigenvalues --    0.06254   0.06554   0.06703   0.07005   0.08526
  Beta virt. eigenvalues --    0.08918   0.09457   0.09976   0.10643   0.11118

 Mulliken charges and spin densities:
               1          2
     1  Si   1.785270   1.026314
     2  C   -0.486462  -0.053918
     3  C   -0.554120   0.040774
     4  H    0.127918   0.006022
     5  H    0.004806  -0.011130
     6  H    0.132202  -0.000716
     7  H    0.116175  -0.002912
     8  H    0.140212  -0.000705
     9  C   -0.699137  -0.000606
    10  H    0.096394   0.010808
    11  H   -0.009542  -0.011288
    12  H   -0.012912  -0.006673
    13  C   -0.702453   0.012432
    14  H    0.095739   0.012274
    15  H   -0.009606  -0.013003
    16  H   -0.024484  -0.007674
 Sum of Mulliken charges =  -0.00000   1.00000

 Dipole moment (field-independent basis, Debye):
    X=              0.0124    Y=             -0.0646    Z=              0.6844  Tot=              0.6876
                          Isotropic Fermi Contact Couplings
        Atom                 a.u.       MegaHertz       Gauss      10(-4) cm-1
     1  Si(29)             0.54033    -480.20741    -171.34995    -160.17995
     2  C(13)              0.01843      20.71850       7.39287       6.91095
     3  C(13)              0.00079       0.88733       0.31662       0.29598
     4  H(1)               0.00699      31.25010      11.15081      10.42391
     5  H(1)              -0.00015      -0.67287      -0.24010      -0.22445
     6  H(1)              -0.00006      -0.27641      -0.09863      -0.09220
     7  H(1)              -0.00044      -1.96296      -0.70043      -0.65477
     8  H(1)              -0.00024      -1.07496      -0.38357      -0.35857

 Normal termination of Gaussian 16 at Tue Apr  8 23:45:53 2025.
