 Gaussian 16, Revision C.01,

 ----------------------------------------------------------------------
 #t hf aug-cc-pvdz symm=none int=(grid=ultrafine) guess=(read,tcheck) s
 table=(opt,rrhf)
 ----------------------------------------------------------------------
 -----
 title
 -----
 Symbolic Z-matrix:
 Charge =  0 Multiplicity = 1

 SCF Done:  E(RHF) =  -664.262053127     A.U. after   13 cycles
 Normal termination of Gaussian 16 at Tue Apr  8 23:35:44 2025.
 Gaussian 16:  ES64L-G16RevC.01  3-Jul-2019

 ----------------------------------------------------------------------
 #t hf aug-cc-pvdz iop(5/13=1,5/36=2,99/5=2) pseudo=read geom=check gue
 ss=(read,tcheck) scf=(maxcycle=1)
 ----------------------------------------------------------------------
 -----
 title
 -----
 Structure from the checkpoint file:  "BDE49_nonexpt_1496_mol1.chk"
 Charge =  0 Multiplicity = 1

                         Standard orientation:
 ---------------------------------------------------------------------
 Center     Atomic      Atomic             Coordinates (Angstroms)
 Number     Number       Type             X           Y           Z
 ---------------------------------------------------------------------
      1         15           0       -0.585337    1.117281   -0.233173
      2          7           0       -1.260430   -0.480867    0.267462
      3          8           0       -2.528978   -0.157469    0.847515
      4          8           0       -1.513073   -1.212712   -0.923881
      5          6           0        1.150736    0.558982   -0.570723
      6          6           0        1.902404   -0.133167    0.573042
      7          1           0        1.686321    1.456512   -0.905012
      8          1           0        1.085104   -0.098036   -1.444772
      9          6           0        3.294499   -0.619722    0.156907
     10          1           0        1.304260   -0.974795    0.930621
     11          1           0        1.992715    0.562610    1.414813
     12          1           0        3.231048   -1.346579   -0.658496
     13          1           0        3.808641   -1.102563    0.992525
     14          1           0        3.921912    0.209408   -0.185402
     15          1           0       -2.659231   -0.868072    1.487891
     16          1           0       -2.132455   -0.673433   -1.448124
     17          1           0       -0.384666    1.566685    1.096889
 ---------------------------------------------------------------------

 SCF Done:  E(RHF) =  -664.642037093     A.U. after    2 cycles

 The electronic state is 1-A.
 Alpha  occ. eigenvalues --  -84.29929 -20.59405 -20.59023 -15.61246 -11.24387
 Alpha  occ. eigenvalues --  -11.23471 -11.22669  -6.76759  -4.29629  -4.29165
 Alpha  occ. eigenvalues --   -4.28573  -1.53987  -1.44249  -1.08452  -1.04595
 Alpha  occ. eigenvalues --   -0.94843  -0.83667  -0.79887  -0.74757  -0.66961
 Alpha  occ. eigenvalues --   -0.65948  -0.63039  -0.62531  -0.58963  -0.55267
 Alpha  occ. eigenvalues --   -0.54838  -0.50422  -0.49436  -0.48864  -0.48265
 Alpha  occ. eigenvalues --   -0.46000  -0.44848  -0.34424
 Alpha virt. eigenvalues --    0.03930   0.04073   0.04226   0.04588   0.05929
 Alpha virt. eigenvalues --    0.06371   0.06871   0.07478   0.08162   0.09092
 Alpha virt. eigenvalues --    0.10558   0.11003   0.12076   0.13412   0.15667

 Mulliken charges:
               1
     1  P    0.461820
     2  N    1.102237
     3  O   -1.045959
     4  O   -1.152963
     5  C   -0.689683
     6  C   -0.448654
     7  H    0.147764
     8  H    0.199986
     9  C   -0.375024
    10  H    0.188214
    11  H    0.119198
    12  H    0.157898
    13  H    0.124808
    14  H    0.152903
    15  H    0.320828
    16  H    0.393326
    17  H    0.343300
 Sum of Mulliken charges =   0.00000

 Dipole moment (field-independent basis, Debye):
    X=              0.6209    Y=              0.7304    Z=              0.2566  Tot=              0.9924

 Test job not archived.
 1\1\GINC-SE403\SP\RHF\Aug-CC-pVDZ\C3H10N1O2P1\OHZDE\08-Apr-2025\0\\#t
 hf aug-cc-pvdz iop(5/13=1,5/36=2,99/5=2) pseudo=read geom=check guess=
 (read,tcheck) scf=(maxcycle=1)\\title\\0,1\P,0,-0.585337,1.117281,-0.2
 33173\N,0,-1.26043,-0.480867,0.267462\O,0,-2.528978,-0.157469,0.847515
 \O,0,-1.513073,-1.212712,-0.923881\C,0,1.150736,0.558982,-0.570723\C,0
 ,1.902404,-0.133167,0.573042\H,0,1.686321,1.456512,-0.905012\H,0,1.085
 104,-0.098036,-1.444772\C,0,3.294499,-0.619722,0.156907\H,0,1.30426,-0
 .974795,0.930621\H,0,1.992715,0.56261,1.414813\H,0,3.231048,-1.346579,

 Normal termination of Gaussian 16 at Tue Apr  8 23:35:50 2025.
