 Gaussian 16, Revision C.01,

 ----------------------------------------------------------------------
 #t hf aug-cc-pvdz symm=none int=(grid=ultrafine) guess=(read,tcheck) s
 table=(opt,rrhf)
 ----------------------------------------------------------------------
 -----
 title
 -----
 Symbolic Z-matrix:
 Charge =  0 Multiplicity = 1

 SCF Done:  E(RHF) =  -724.704948448     A.U. after   16 cycles

 1\1\GINC-SE086\Stability\RHF\Aug-CC-pVDZ\C10H9P1\OHZDE\08-Apr-2025\0\\
 #t hf aug-cc-pvdz symm=none int=(grid=ultrafine) guess=(read,tcheck) s
 table=(opt,rrhf)\\title\\0,1\C,0,-1.690151,-1.555752,-0.001781\C,0,-3.
 012411,-1.183471,0.002458\C,0,-3.369149,0.185333,0.006117\C,0,-2.39584
 5,1.155094,0.005836\C,0,-1.021555,0.804149,0.002431\C,0,-0.660049,-0.5
 79041,-0.002504\H,0,-1.415429,-2.60548,-0.004591\H,0,-3.789775,-1.9392
 21,0.002986\H,0,-4.416392,0.465761,0.009227\H,0,-2.667336,2.20565,0.00
 8333\C,0,0.714819,-0.932151,0.001842\C,0,1.705947,0.026464,0.000166\C,

 Normal termination of Gaussian 16 at Tue Apr  8 23:28:16 2025.
 Gaussian 16:  ES64L-G16RevC.01  3-Jul-2019

 ----------------------------------------------------------------------
 #t hf aug-cc-pvdz iop(5/13=1,5/36=2,99/5=2) pseudo=read geom=check gue
 ss=(read,tcheck) scf=(maxcycle=1)
 ----------------------------------------------------------------------
 -----
 title
 -----
 Structure from the checkpoint file:  "BDE49_nonexpt_1273_mol1.chk"
 Charge =  0 Multiplicity = 1

                         Standard orientation:
 ---------------------------------------------------------------------
 Center     Atomic      Atomic             Coordinates (Angstroms)
 Number     Number       Type             X           Y           Z
 ---------------------------------------------------------------------
      1          6           0       -1.690151   -1.555752   -0.001781
      2          6           0       -3.012411   -1.183471    0.002458
      3          6           0       -3.369149    0.185333    0.006117
      4          6           0       -2.395845    1.155094    0.005836
      5          6           0       -1.021555    0.804149    0.002431
      6          6           0       -0.660049   -0.579041   -0.002504
      7          1           0       -1.415429   -2.605480   -0.004591
      8          1           0       -3.789775   -1.939221    0.002986
      9          1           0       -4.416392    0.465761    0.009227
     10          1           0       -2.667336    2.205650    0.008333
     11          6           0        0.714819   -0.932151    0.001842
     12          6           0        1.705947    0.026464    0.000166
     13          6           0        0.014201    1.774460   -0.001722
     14          6           0        1.333489    1.399987   -0.014332
     15          1           0       -0.253219    2.826161   -0.004879
     16          1           0        2.106237    2.161657   -0.037734
     17         15           0        3.503719   -0.380901   -0.086819
     18          1           0        0.972171   -1.986208    0.012367
     19          1           0        3.376716   -1.786753    0.037603
     20          1           0        3.815462   -0.198483    1.287916
 ---------------------------------------------------------------------

 SCF Done:  E(RHF) =  -725.141095866     A.U. after    2 cycles

 The electronic state is 1-A.
 Alpha  occ. eigenvalues --  -84.27768 -11.25672 -11.25485 -11.25416 -11.25175
 Alpha  occ. eigenvalues --  -11.25072 -11.24983 -11.24932 -11.24920 -11.24823
 Alpha  occ. eigenvalues --  -11.24807  -6.74837  -4.27782  -4.27303  -4.26707
 Alpha  occ. eigenvalues --   -1.18392  -1.11890  -1.05765  -1.02032  -0.99128
 Alpha  occ. eigenvalues --   -0.89310  -0.86068  -0.82793  -0.81582  -0.71964
 Alpha  occ. eigenvalues --   -0.71012  -0.67958  -0.63831  -0.62388  -0.60594
 Alpha  occ. eigenvalues --   -0.59839  -0.56054  -0.55047  -0.52881  -0.50673
 Alpha  occ. eigenvalues --   -0.49702  -0.47919  -0.45815  -0.40150  -0.36521
 Alpha  occ. eigenvalues --   -0.32225  -0.29933
 Alpha virt. eigenvalues --    0.03251   0.03295   0.03666   0.04568   0.04849
 Alpha virt. eigenvalues --    0.06254   0.06536   0.06924   0.07520   0.08473
 Alpha virt. eigenvalues --    0.08834   0.09381   0.10076   0.11003   0.11203

 Mulliken charges:
               1
     1  C    0.058441
     2  C   -0.222323
     3  C   -0.171576
     4  C    0.183890
     5  C    0.907970
     6  C    1.699944
     7  H   -0.305581
     8  H   -0.240714
     9  H   -0.236859
    10  H   -0.305705
    11  C   -0.457941
    12  C    0.522570
    13  C    0.157192
    14  C   -0.756773
    15  H   -0.332810
    16  H   -0.265150
    17  P   -0.651634
    18  H   -0.309058
    19  H    0.271436
    20  H    0.454680
 Sum of Mulliken charges =  -0.00000

 Dipole moment (field-independent basis, Debye):
    X=             -0.8691    Y=             -0.1182    Z=              0.3422  Tot=              0.9415

 Test job not archived.
 1\1\GINC-SE086\SP\RHF\Aug-CC-pVDZ\C10H9P1\OHZDE\08-Apr-2025\0\\#t hf a
 ug-cc-pvdz iop(5/13=1,5/36=2,99/5=2) pseudo=read geom=check guess=(rea
 d,tcheck) scf=(maxcycle=1)\\title\\0,1\C,0,-1.690151,-1.555752,-0.0017
 81\C,0,-3.012411,-1.183471,0.002458\C,0,-3.369149,0.185333,0.006117\C,
 0,-2.395845,1.155094,0.005836\C,0,-1.021555,0.804149,0.002431\C,0,-0.6
 60049,-0.579041,-0.002504\H,0,-1.415429,-2.60548,-0.004591\H,0,-3.7897
 75,-1.939221,0.002986\H,0,-4.416392,0.465761,0.009227\H,0,-2.667336,2.
 20565,0.008333\C,0,0.714819,-0.932151,0.001842\C,0,1.705947,0.026464,0

 Normal termination of Gaussian 16 at Tue Apr  8 23:28:31 2025.
