 Gaussian 16, Revision C.01,

 ----------------------------------------------------------------------
 #t hf aug-cc-pvdz symm=none int=(grid=ultrafine) guess=(read,tcheck) s
 table=(opt,rrhf)
 ----------------------------------------------------------------------
 -----
 title
 -----
 Symbolic Z-matrix:
 Charge =  0 Multiplicity = 1

 SCF Done:  E(RHF) =  -572.382538574     A.U. after   13 cycles
 Normal termination of Gaussian 16 at Wed Apr  9 00:20:35 2025.
 Gaussian 16:  ES64L-G16RevC.01  3-Jul-2019

 ----------------------------------------------------------------------
 #t hf aug-cc-pvdz iop(5/13=1,5/36=2,99/5=2) pseudo=read geom=check gue
 ss=(read,tcheck) scf=(maxcycle=1)
 ----------------------------------------------------------------------
 -----
 title
 -----
 Structure from the checkpoint file:  "BDE49_nonexpt_2618_mol1.chk"
 Charge =  0 Multiplicity = 1

                         Standard orientation:
 ---------------------------------------------------------------------
 Center     Atomic      Atomic             Coordinates (Angstroms)
 Number     Number       Type             X           Y           Z
 ---------------------------------------------------------------------
      1          9           0       -1.291530   -0.503397   -0.005761
      2          8           0        1.276000   -0.452694   -0.119090
      3         16           0       -0.005939    0.558209    0.015206
      4          1           0        1.510798   -0.779210    0.761286
 ---------------------------------------------------------------------

 SCF Done:  E(RHF) =  -572.603042413     A.U. after    2 cycles

 The electronic state is 1-A.
 Alpha  occ. eigenvalues --  -94.09388 -26.47989 -20.63030  -8.36030  -6.33789
 Alpha  occ. eigenvalues --   -6.33557  -6.33134  -1.58814  -1.51272  -0.98014
 Alpha  occ. eigenvalues --   -0.74776  -0.67952  -0.67196  -0.64535  -0.57029
 Alpha  occ. eigenvalues --   -0.53409  -0.39378
 Alpha virt. eigenvalues --    0.03284   0.06977   0.07741   0.10766   0.14947
 Alpha virt. eigenvalues --    0.16319   0.17784   0.20229   0.21547   0.23237
 Alpha virt. eigenvalues --    0.25437   0.28486   0.32030   0.33840   0.37392

 Mulliken charges:
               1
     1  F   -0.620509
     2  O   -1.032309
     3  S    1.251601
     4  H    0.401217
 Sum of Mulliken charges =  -0.00000

 Dipole moment (field-independent basis, Debye):
    X=              1.4364    Y=              0.2608    Z=              1.4927  Tot=              2.0879

 Test job not archived.
 1\1\GINC-SE227\SP\RHF\Aug-CC-pVDZ\F1H1O1S1\OHZDE\09-Apr-2025\0\\#t hf
 aug-cc-pvdz iop(5/13=1,5/36=2,99/5=2) pseudo=read geom=check guess=(re
 ad,tcheck) scf=(maxcycle=1)\\title\\0,1\F,0,-1.29153,-0.503397,-0.0057
 61\O,0,1.276,-0.452694,-0.11909\S,0,-0.005939,0.558209,0.015206\H,0,1.
 510798,-0.77921,0.761286\\Version=ES64L-G16RevC.01\State=1-A\HF=-572.6
 030424\RMSD=4.426e-03\Dipole=0.565123,0.1026206,0.587256\Quadrupole=-0
 .1980059,0.4224614,-0.2244555,-1.2847905,1.944551,-1.0930476\PG=C01 [X
 (F1H1O1S1)]\\@

 Normal termination of Gaussian 16 at Wed Apr  9 00:20:37 2025.
