 Gaussian 16, Revision C.01,

 ----------------------------------------------------------------------
 #t hf aug-cc-pvdz symm=none int=(grid=ultrafine) guess=(read,tcheck) s
 table=opt
 ----------------------------------------------------------------------
 -----
 title
 -----
 Symbolic Z-matrix:
 Charge =  0 Multiplicity = 2

 SCF Done:  E(UHF) =  -969.442429039     A.U. after   17 cycles
 Normal termination of Gaussian 16 at Tue Apr  8 22:55:46 2025.
 Gaussian 16:  ES64L-G16RevC.01  3-Jul-2019

 ----------------------------------------------------------------------
 #t hf aug-cc-pvdz iop(5/13=1,5/36=2,99/5=2) pseudo=read geom=check gue
 ss=(read,tcheck) scf=(maxcycle=1)
 ----------------------------------------------------------------------
 -----
 title
 -----
 Structure from the checkpoint file:  "BDE49_expt_1866_mol2.chk"
 Charge =  0 Multiplicity = 2

                         Standard orientation:
 ---------------------------------------------------------------------
 Center     Atomic      Atomic             Coordinates (Angstroms)
 Number     Number       Type             X           Y           Z
 ---------------------------------------------------------------------
      1          8           0        0.000003    0.000495    1.646595
      2         16           0        0.000050    0.000019    0.025293
      3          9           0       -1.614400    0.000051   -0.047229
      4          9           0       -0.000059    1.610702    0.082208
      5          9           0        0.000114   -0.000496   -1.579629
      6          9           0        1.614470   -0.000107   -0.047105
      7          9           0       -0.000217   -1.610625    0.083150
 ---------------------------------------------------------------------

 SCF Done:  E(UHF) =  -970.023298189     A.U. after    2 cycles

 The electronic state is 2-A.
 Alpha  occ. eigenvalues --  -94.46857 -26.55344 -26.55341 -26.54834 -26.53845
 Alpha  occ. eigenvalues --  -26.53839 -20.72393  -8.68416  -6.66439  -6.66402
 Alpha  occ. eigenvalues --   -6.66243  -1.80823  -1.68078  -1.66473  -1.65886
 Alpha  occ. eigenvalues --   -1.62032  -1.57432  -1.08145  -0.89768  -0.88489
 Alpha  occ. eigenvalues --   -0.87442  -0.81189  -0.79055  -0.78363  -0.70108
 Alpha  occ. eigenvalues --   -0.69836  -0.69337  -0.68937  -0.67944  -0.67683
 Alpha  occ. eigenvalues --   -0.66204  -0.66044  -0.65679  -0.64637  -0.61460
 Alpha virt. eigenvalues --    0.07405   0.08863   0.08894   0.09099   0.14277
 Alpha virt. eigenvalues --    0.17974   0.20061   0.20837   0.21552   0.23950
 Alpha virt. eigenvalues --    0.24552   0.24633   0.25092   0.30622   0.30756

  Beta  occ. eigenvalues --  -94.46923 -26.55163 -26.55161 -26.54828 -26.53916
  Beta  occ. eigenvalues --  -26.53910 -20.68283  -8.68510  -6.66516  -6.66432
  Beta  occ. eigenvalues --   -6.66424  -1.80152  -1.67596  -1.66666  -1.65080
  Beta  occ. eigenvalues --   -1.61967  -1.44519  -1.06727  -0.88684  -0.88574
  Beta  occ. eigenvalues --   -0.85459  -0.78997  -0.78049  -0.76560  -0.69594
  Beta  occ. eigenvalues --   -0.68932  -0.68810  -0.68035  -0.67643  -0.66605
  Beta  occ. eigenvalues --   -0.65766  -0.64578  -0.63001  -0.57740
  Beta virt. eigenvalues --    0.01297   0.07738   0.08922   0.09122   0.09605
  Beta virt. eigenvalues --    0.14695   0.18040   0.20063   0.21593   0.22622
  Beta virt. eigenvalues --    0.23962   0.24736   0.24985   0.24988   0.30833

 Mulliken charges and spin densities:
               1          2
     1  O   -0.927095   1.065037
     2  S    4.815585  -0.090478
     3  F   -0.770902  -0.004219
     4  F   -0.783721   0.016298
     5  F   -0.779278   0.001282
     6  F   -0.770848  -0.004220
     7  F   -0.783741   0.016300
 Sum of Mulliken charges =  -0.00000   1.00000

 Dipole moment (field-independent basis, Debye):
    X=              0.0008    Y=              0.0002    Z=              0.3090  Tot=              0.3090
                          Isotropic Fermi Contact Couplings
        Atom                 a.u.       MegaHertz       Gauss      10(-4) cm-1
     1  O(17)              0.23501    -142.46037     -50.83340     -47.51966
     2  S(33)             -0.11332     -38.92225     -13.88843     -12.98307
     3  F(19)             -0.00885     -37.25663     -13.29409     -12.42747
     4  F(19)              0.02532     106.52039      38.00913      35.53138
     5  F(19)             -0.00002      -0.08602      -0.03069      -0.02869
     6  F(19)             -0.00886     -37.26576     -13.29735     -12.43052
     7  F(19)              0.02532     106.52230      38.00980      35.53201
 --------------------------------------------------------

 Normal termination of Gaussian 16 at Tue Apr  8 22:55:50 2025.
