 Gaussian 16, Revision C.01,

 ----------------------------------------------------------------------
 #t hf aug-cc-pvdz symm=none int=(grid=ultrafine) guess=(read,tcheck) s
 table=(opt,rrhf)
 ----------------------------------------------------------------------
 -----
 title
 -----
 Symbolic Z-matrix:
 Charge =  0 Multiplicity = 1

 SCF Done:  E(RHF) =  -1694.73561993     A.U. after   13 cycles
 Normal termination of Gaussian 16 at Wed Apr  9 00:49:34 2025.
 Gaussian 16:  ES64L-G16RevC.01  3-Jul-2019

 ----------------------------------------------------------------------
 #t hf aug-cc-pvdz iop(5/13=1,5/36=2,99/5=2) pseudo=read geom=check gue
 ss=(read,tcheck) scf=(maxcycle=1)
 ----------------------------------------------------------------------
 -----
 title
 -----
 Structure from the checkpoint file:  "BDE49_nonexpt_878_mol1.chk"
 Charge =  0 Multiplicity = 1

                         Standard orientation:
 ---------------------------------------------------------------------
 Center     Atomic      Atomic             Coordinates (Angstroms)
 Number     Number       Type             X           Y           Z
 ---------------------------------------------------------------------
      1         16           0       -0.009374   -1.280522   -0.225903
      2          5           0        1.265059    0.027409   -0.073115
      3         16           0        1.084148    1.765825   -0.520152
      4         16           0        2.888269   -0.500550    0.564051
      5         16           0       -1.757704   -0.382922   -0.969790
      6          6           0       -2.790253   -0.191286    0.544596
      7          6           0       -2.327588    0.871703    1.531004
      8          1           0       -2.870212   -1.173599    1.012663
      9          1           0       -3.772390    0.052154    0.126081
     10          1           0       -1.330976    0.648091    1.916539
     11          1           0       -3.013806    0.909863    2.382731
     12          1           0       -2.302139    1.861123    1.069930
     13          1           0        2.579559   -1.793184    0.777090
     14          1           0       -0.193705    1.646716   -0.944371
 ---------------------------------------------------------------------

 SCF Done:  E(RHF) =  -1695.08915684     A.U. after    2 cycles

 The electronic state is 1-A.
 Alpha  occ. eigenvalues --  -93.98624 -93.98078 -93.96213 -93.95746 -11.28967
 Alpha  occ. eigenvalues --  -11.24667  -8.26510  -8.26190  -8.24490  -8.24083
 Alpha  occ. eigenvalues --   -7.68364  -6.24314  -6.24102  -6.23991  -6.23886
 Alpha  occ. eigenvalues --   -6.23767  -6.23619  -6.22325  -6.22188  -6.22008
 Alpha  occ. eigenvalues --   -6.21909  -6.21789  -6.21615  -1.12460  -1.06809
 Alpha  occ. eigenvalues --   -1.02468  -1.01109  -0.93015  -0.82655  -0.67240
 Alpha  occ. eigenvalues --   -0.65365  -0.61899  -0.58900  -0.57304  -0.54283
 Alpha  occ. eigenvalues --   -0.53331  -0.52260  -0.49908  -0.46714  -0.45830
 Alpha  occ. eigenvalues --   -0.44302  -0.38587  -0.38086  -0.37101
 Alpha virt. eigenvalues --    0.03155   0.03735   0.04264   0.04597   0.05923
 Alpha virt. eigenvalues --    0.06071   0.06247   0.07532   0.08457   0.08610
 Alpha virt. eigenvalues --    0.09589   0.10082   0.10273   0.11594   0.11760

 Mulliken charges:
               1
     1  S   -0.412059
     2  B    1.308813
     3  S   -0.626017
     4  S   -0.748891
     5  S    0.007371
     6  C   -0.728189
     7  C   -0.375188
     8  H    0.212001
     9  H    0.246529
    10  H    0.205615
    11  H    0.116004
    12  H    0.166691
    13  H    0.253481
    14  H    0.373839
 Sum of Mulliken charges =   0.00000

 Dipole moment (field-independent basis, Debye):
    X=             -2.6810    Y=             -0.2467    Z=              1.3251  Tot=              3.0008

 Test job not archived.
 1\1\GINC-SE108\SP\RHF\Aug-CC-pVDZ\C2H7B1S4\OHZDE\09-Apr-2025\0\\#t hf
 aug-cc-pvdz iop(5/13=1,5/36=2,99/5=2) pseudo=read geom=check guess=(re
 ad,tcheck) scf=(maxcycle=1)\\title\\0,1\S,0,-0.009374,-1.280522,-0.225
 903\B,0,1.265059,0.027409,-0.073115\S,0,1.084148,1.765825,-0.520152\S,
 0,2.888269,-0.50055,0.564051\S,0,-1.757704,-0.382922,-0.96979\C,0,-2.7
 90253,-0.191286,0.544596\C,0,-2.327588,0.871703,1.531004\H,0,-2.870212
 ,-1.173599,1.012663\H,0,-3.77239,0.052154,0.126081\H,0,-1.330976,0.648
 091,1.916539\H,0,-3.013806,0.909863,2.382731\H,0,-2.302139,1.861123,1.

 Normal termination of Gaussian 16 at Wed Apr  9 00:49:40 2025.
