 Gaussian 16, Revision C.01,

 ----------------------------------------------------------------------
 #t hf aug-cc-pvdz symm=none int=(grid=ultrafine) guess=(read,tcheck) s
 table=(opt,rrhf)
 ----------------------------------------------------------------------
 -----
 title
 -----
 Symbolic Z-matrix:
 Charge =  0 Multiplicity = 1

 SCF Done:  E(RHF) =  -334.075496212     A.U. after   15 cycles

 1\1\GINC-SE339\Stability\RHF\Aug-CC-pVDZ\C8H11B1\OHZDE\09-Apr-2025\0\\
 #t hf aug-cc-pvdz symm=none int=(grid=ultrafine) guess=(read,tcheck) s
 table=(opt,rrhf)\\title\\0,1\C,0,-2.551011,-0.395766,-0.295021\B,0,-1.
 374239,0.630903,-0.153189\C,0,0.131034,0.268784,-0.06231\C,0,1.094603,
 1.29742,-0.025244\C,0,0.603142,-1.059116,-0.019293\C,0,1.961412,-1.345
 366,0.053112\C,0,2.889682,-0.303765,0.087155\C,0,2.455916,1.020572,0.0
 48243\H,0,3.949947,-0.525516,0.145419\H,0,3.177912,1.829241,0.075791\H
 ,0,0.758226,2.328551,-0.055608\H,0,-0.107128,-1.878511,-0.042506\H,0,2

 Normal termination of Gaussian 16 at Wed Apr  9 00:31:00 2025.
 Gaussian 16:  ES64L-G16RevC.01  3-Jul-2019

 ----------------------------------------------------------------------
 #t hf aug-cc-pvdz iop(5/13=1,5/36=2,99/5=2) pseudo=read geom=check gue
 ss=(read,tcheck) scf=(maxcycle=1)
 ----------------------------------------------------------------------
 -----
 title
 -----
 Structure from the checkpoint file:  "BDE49_nonexpt_335_mol1.chk"
 Charge =  0 Multiplicity = 1

                         Standard orientation:
 ---------------------------------------------------------------------
 Center     Atomic      Atomic             Coordinates (Angstroms)
 Number     Number       Type             X           Y           Z
 ---------------------------------------------------------------------
      1          6           0       -2.551011   -0.395766   -0.295021
      2          5           0       -1.374239    0.630903   -0.153189
      3          6           0        0.131034    0.268784   -0.062310
      4          6           0        1.094603    1.297420   -0.025244
      5          6           0        0.603142   -1.059116   -0.019293
      6          6           0        1.961412   -1.345366    0.053112
      7          6           0        2.889682   -0.303765    0.087155
      8          6           0        2.455916    1.020572    0.048243
      9          1           0        3.949947   -0.525516    0.145419
     10          1           0        3.177912    1.829241    0.075791
     11          1           0        0.758226    2.328551   -0.055608
     12          1           0       -0.107128   -1.878511   -0.042506
     13          1           0        2.301554   -2.374646    0.084858
     14          6           0       -3.896052    0.036196    0.317753
     15          1           0       -2.286885   -1.403780    0.045055
     16          1           0       -2.681481   -0.496624   -1.388198
     17          1           0       -3.826071    0.119202    1.406363
     18          1           0       -4.693004   -0.679291    0.095579
     19          1           0       -4.206559    1.013150   -0.062523
     20          1           0       -1.647676    1.799958   -0.164653
 ---------------------------------------------------------------------

 SCF Done:  E(RHF) =  -334.429735887     A.U. after    2 cycles

 The electronic state is 1-A.
 Alpha  occ. eigenvalues --  -11.25440 -11.24985 -11.24924 -11.24339 -11.24277
 Alpha  occ. eigenvalues --  -11.22216 -11.21833 -11.20586  -7.58154  -1.15301
 Alpha  occ. eigenvalues --   -1.02734  -1.01822  -1.00985  -0.85679  -0.83562
 Alpha  occ. eigenvalues --   -0.82509  -0.72741  -0.67087  -0.64289  -0.63063
 Alpha  occ. eigenvalues --   -0.60594  -0.59840  -0.58329  -0.53468  -0.51922
 Alpha  occ. eigenvalues --   -0.51073  -0.50435  -0.49083  -0.45798  -0.44425
 Alpha  occ. eigenvalues --   -0.35095  -0.34748
 Alpha virt. eigenvalues --    0.03247   0.03334   0.03640   0.03963   0.04698
 Alpha virt. eigenvalues --    0.04830   0.05799   0.06395   0.07229   0.07391
 Alpha virt. eigenvalues --    0.07797   0.09039   0.09877   0.09947   0.10794

 Mulliken charges:
               1
     1  C   -0.453408
     2  B    0.027555
     3  C   -0.094918
     4  C    0.065474
     5  C    0.727104
     6  C    0.175196
     7  C    0.384642
     8  C    0.257365
     9  H   -0.212551
    10  H   -0.214160
    11  H   -0.346033
    12  H   -0.356202
    13  H   -0.242943
    14  C   -0.455308
    15  H    0.035242
    16  H    0.188795
    17  H    0.143710
    18  H    0.095281
    19  H    0.145666
    20  H    0.129494
 Sum of Mulliken charges =  -0.00000

 Dipole moment (field-independent basis, Debye):
    X=              0.7760    Y=             -0.5355    Z=             -0.0508  Tot=              0.9442

 Test job not archived.
 1\1\GINC-SE339\SP\RHF\Aug-CC-pVDZ\C8H11B1\OHZDE\09-Apr-2025\0\\#t hf a
 ug-cc-pvdz iop(5/13=1,5/36=2,99/5=2) pseudo=read geom=check guess=(rea
 d,tcheck) scf=(maxcycle=1)\\title\\0,1\C,0,-2.551011,-0.395766,-0.2950
 21\B,0,-1.374239,0.630903,-0.153189\C,0,0.131034,0.268784,-0.06231\C,0
 ,1.094603,1.29742,-0.025244\C,0,0.603142,-1.059116,-0.019293\C,0,1.961
 412,-1.345366,0.053112\C,0,2.889682,-0.303765,0.087155\C,0,2.455916,1.
 020572,0.048243\H,0,3.949947,-0.525516,0.145419\H,0,3.177912,1.829241,
 0.075791\H,0,0.758226,2.328551,-0.055608\H,0,-0.107128,-1.878511,-0.04

 Normal termination of Gaussian 16 at Wed Apr  9 00:31:09 2025.
