 Gaussian 16, Revision C.01,

 ----------------------------------------------------------------------
 #t hf aug-cc-pvdz symm=none int=(grid=ultrafine) guess=(read,tcheck) s
 table=opt
 ----------------------------------------------------------------------
 -----
 title
 -----
 Symbolic Z-matrix:
 Charge =  0 Multiplicity = 2

 SCF Done:  E(UHF) =  -627.957178187     A.U. after   25 cycles
 Normal termination of Gaussian 16 at Tue Apr  8 23:22:31 2025.
 Gaussian 16:  ES64L-G16RevC.01  3-Jul-2019

 ----------------------------------------------------------------------
 #t hf aug-cc-pvdz iop(5/13=1,5/36=2,99/5=2) pseudo=read geom=check gue
 ss=(read,tcheck) scf=(maxcycle=1)
 ----------------------------------------------------------------------
 -----
 title
 -----
 Structure from the checkpoint file:  "BDE49_nonexpt_1195_mol2.chk"
 Charge =  0 Multiplicity = 2

                         Standard orientation:
 ---------------------------------------------------------------------
 Center     Atomic      Atomic             Coordinates (Angstroms)
 Number     Number       Type             X           Y           Z
 ---------------------------------------------------------------------
      1         16           0        2.206702   -0.219017    0.311278
      2          6           0        0.568415    0.186350   -0.222527
      3          8           0        0.405938    1.357279   -0.490315
      4          6           0       -0.478179   -0.895982   -0.341962
      5          6           0       -1.911693   -0.368074   -0.489223
      6          1           0       -0.382303   -1.561130    0.523710
      7          1           0       -0.193899   -1.495005   -1.216176
      8          6           0       -2.458465    0.280617    0.785877
      9          1           0       -2.550806   -1.207147   -0.781047
     10          1           0       -1.940875    0.350699   -1.312387
     11          1           0       -2.453811   -0.424977    1.622685
     12          1           0       -3.488664    0.614671    0.640176
     13          1           0       -1.864847    1.151458    1.072135
 ---------------------------------------------------------------------

 SCF Done:  E(UHF) =  -628.249587981     A.U. after    2 cycles

 The electronic state is 2-A.
 Alpha  occ. eigenvalues --  -93.99440 -20.55498 -11.38178 -11.26864 -11.24711
 Alpha  occ. eigenvalues --  -11.23022  -8.27647  -6.26823  -6.25020  -6.24730
 Alpha  occ. eigenvalues --   -1.49576  -1.10607  -1.06349  -0.97118  -0.84598
 Alpha  occ. eigenvalues --   -0.74950  -0.68017  -0.65373  -0.63373  -0.60165
 Alpha  occ. eigenvalues --   -0.57817  -0.54848  -0.51737  -0.50290  -0.49904
 Alpha  occ. eigenvalues --   -0.46958  -0.42077  -0.41035
 Alpha virt. eigenvalues --    0.03263   0.03965   0.04127   0.05195   0.06707
 Alpha virt. eigenvalues --    0.07086   0.07589   0.07931   0.10972   0.11424
 Alpha virt. eigenvalues --    0.11727   0.12854   0.14419   0.14508   0.14612

  Beta  occ. eigenvalues --  -93.98517 -20.55300 -11.38289 -11.26859 -11.24698
  Beta  occ. eigenvalues --  -11.23023  -8.26586  -6.24509  -6.24151  -6.22734
  Beta  occ. eigenvalues --   -1.49047  -1.09771  -1.01675  -0.94952  -0.83929
  Beta  occ. eigenvalues --   -0.74113  -0.66684  -0.65304  -0.62363  -0.59495
  Beta  occ. eigenvalues --   -0.57469  -0.54653  -0.51023  -0.50228  -0.49848
  Beta  occ. eigenvalues --   -0.41247  -0.38799
  Beta virt. eigenvalues --   -0.01114   0.03321   0.03966   0.04279   0.05232
  Beta virt. eigenvalues --    0.06748   0.07177   0.07740   0.08098   0.11164
  Beta virt. eigenvalues --    0.11564   0.11696   0.13414   0.14592   0.14738

 Mulliken charges and spin densities:
               1          2
     1  S    0.296616   1.096697
     2  C    0.712924  -0.114233
     3  O   -1.210558   0.013887
     4  C   -0.491989   0.002731
     5  C   -0.218486  -0.001605
     6  H    0.229898   0.002192
     7  H    0.284681   0.000263
     8  C   -0.330913  -0.000162
     9  H    0.138266   0.000105
    10  H    0.153625  -0.000318
    11  H    0.162219  -0.000470
    12  H    0.121155  -0.000030
    13  H    0.152562   0.000942
 Sum of Mulliken charges =  -0.00000   1.00000

 Dipole moment (field-independent basis, Debye):
    X=             -1.2375    Y=             -2.5987    Z=              0.1508  Tot=              2.8823
                          Isotropic Fermi Contact Couplings
        Atom                 a.u.       MegaHertz       Gauss      10(-4) cm-1
     1  S(33)              0.20386      70.02005      24.98489      23.35617
     2  C(13)             -0.01781     -20.02251      -7.14453      -6.67879
     3  O(17)              0.02651     -16.07151      -5.73472      -5.36088
     4  C(13)              0.00103       1.15866       0.41344       0.38649
     5  C(13)              0.00262       2.94979       1.05256       0.98394
     6  H(1)               0.00052       2.31074       0.82453       0.77078
     7  H(1)              -0.00022      -0.96455      -0.34418      -0.32174
     8  C(13)             -0.00017      -0.19661      -0.07015      -0.06558

 Normal termination of Gaussian 16 at Tue Apr  8 23:22:35 2025.
