 Gaussian 16, Revision C.01,

 ----------------------------------------------------------------------
 #t hf aug-cc-pvdz symm=none int=(grid=ultrafine) guess=(read,tcheck) s
 table=(opt,rrhf)
 ----------------------------------------------------------------------
 -----
 title
 -----
 Symbolic Z-matrix:
 Charge =  0 Multiplicity = 1

 SCF Done:  E(RHF) =  -779.056668754     A.U. after   12 cycles
 Normal termination of Gaussian 16 at Tue Apr  8 23:43:11 2025.
 Gaussian 16:  ES64L-G16RevC.01  3-Jul-2019

 ----------------------------------------------------------------------
 #t hf aug-cc-pvdz iop(5/13=1,5/36=2,99/5=2) pseudo=read geom=check gue
 ss=(read,tcheck) scf=(maxcycle=1)
 ----------------------------------------------------------------------
 -----
 title
 -----
 Structure from the checkpoint file:  "BDE49_nonexpt_1710_mol1.chk"
 Charge =  0 Multiplicity = 1

                         Standard orientation:
 ---------------------------------------------------------------------
 Center     Atomic      Atomic             Coordinates (Angstroms)
 Number     Number       Type             X           Y           Z
 ---------------------------------------------------------------------
      1          6           0       -1.692034    0.683963    0.000128
      2         16           0       -0.511901   -0.721907   -0.000032
      3          1           0       -1.577066    1.295093    0.894483
      4          1           0       -2.686167    0.234167    0.000078
      5          1           0       -1.577063    1.295291   -0.894091
      6         15           0        1.346412    0.357418   -0.000073
      7          1           0        1.993516   -0.369766   -1.031814
      8          1           0        1.993228   -0.369311    1.032177
 ---------------------------------------------------------------------

 SCF Done:  E(RHF) =  -779.210521409     A.U. after    2 cycles

 The electronic state is 1-A.
 Alpha  occ. eigenvalues --  -93.94987 -84.30019 -11.27125  -8.23112  -6.76962
 Alpha  occ. eigenvalues --   -6.20899  -6.20756  -6.20526  -4.29074  -4.29060
 Alpha  occ. eigenvalues --   -4.28424  -1.06383  -0.91682  -0.79867  -0.60361
 Alpha  occ. eigenvalues --   -0.60148  -0.52376  -0.50418  -0.46247  -0.36065
 Alpha  occ. eigenvalues --   -0.35112
 Alpha virt. eigenvalues --    0.03796   0.04358   0.05467   0.05824   0.07160
 Alpha virt. eigenvalues --    0.07612   0.10666   0.11229   0.12367   0.14037
 Alpha virt. eigenvalues --    0.14219   0.16219   0.16608   0.17138   0.17282

 Mulliken charges:
               1
     1  C   -0.667387
     2  S   -0.212750
     3  H    0.173206
     4  H    0.170492
     5  H    0.173204
     6  P   -0.581845
     7  H    0.472548
     8  H    0.472532
 Sum of Mulliken charges =  -0.00000

 Dipole moment (field-independent basis, Debye):
    X=              0.0784    Y=              1.2723    Z=              0.0002  Tot=              1.2747

 Test job not archived.
 1\1\GINC-SE341\SP\RHF\Aug-CC-pVDZ\C1H5P1S1\OHZDE\08-Apr-2025\0\\#t hf
 aug-cc-pvdz iop(5/13=1,5/36=2,99/5=2) pseudo=read geom=check guess=(re
 ad,tcheck) scf=(maxcycle=1)\\title\\0,1\C,0,1.692034,0.683963,-0.00012
 8\S,0,0.511901,-0.721907,0.000032\H,0,1.577066,1.295093,-0.894483\H,0,
 2.686167,0.234167,-0.000078\H,0,1.577063,1.295291,0.894091\P,0,-1.3464
 12,0.357418,0.000073\H,0,-1.993516,-0.369766,1.031814\H,0,-1.993228,-0
 .369311,-1.032177\\Version=ES64L-G16RevC.01\State=1-A\HF=-779.2105214\
 RMSD=2.454e-02\Dipole=-0.0308407,0.5005605,-0.0000735\Quadrupole=2.945

 Normal termination of Gaussian 16 at Tue Apr  8 23:43:13 2025.
