 Gaussian 16, Revision C.01,

 ----------------------------------------------------------------------
 #t hf aug-cc-pvdz symm=none int=(grid=ultrafine) guess=(read,tcheck) s
 table=opt
 ----------------------------------------------------------------------
 -----
 title
 -----
 Symbolic Z-matrix:
 Charge =  0 Multiplicity = 2

 SCF Done:  E(UHF) =  -865.478201921     A.U. after   18 cycles
 Normal termination of Gaussian 16 at Wed Apr  9 00:08:03 2025.
 Gaussian 16:  ES64L-G16RevC.01  3-Jul-2019

 ----------------------------------------------------------------------
 #t hf aug-cc-pvdz iop(5/13=1,5/36=2,99/5=2) pseudo=read geom=check gue
 ss=(read,tcheck) scf=(maxcycle=1)
 ----------------------------------------------------------------------
 -----
 title
 -----
 Structure from the checkpoint file:  "BDE49_nonexpt_224_mol2.chk"
 Charge =  0 Multiplicity = 2

                         Standard orientation:
 ---------------------------------------------------------------------
 Center     Atomic      Atomic             Coordinates (Angstroms)
 Number     Number       Type             X           Y           Z
 ---------------------------------------------------------------------
      1          5           0        1.150577    0.325579    0.666904
      2         17           0        2.687287   -0.051975   -0.023672
      3          6           0       -0.285330    0.034165    0.019429
      4          8           0       -0.576160    1.242152   -0.663626
      5          8           0       -1.327201   -0.196631    0.937494
      6          8           0       -0.177374   -0.984707   -0.918863
      7          6           0       -1.149609    2.312966    0.097582
      8          1           0       -2.164628    2.069856    0.413683
      9          1           0       -1.160807    3.170972   -0.573910
     10          1           0       -0.545498    2.549825    0.978939
     11          6           0       -1.081326   -1.274329    1.834868
     12          1           0       -1.945634   -1.332308    2.494990
     13          1           0       -0.183694   -1.087206    2.440112
     14          1           0       -0.961611   -2.220499    1.298895
     15          6           0       -1.322663   -1.180336   -1.764663
     16          1           0       -1.123800   -2.096557   -2.318617
     17          1           0       -1.437706   -0.344842   -2.456932
     18          1           0       -2.233931   -1.294864   -1.172590
 ---------------------------------------------------------------------

 SCF Done:  E(UHF) =  -865.963012549     A.U. after    2 cycles

 The electronic state is 2-A.
 Alpha  occ. eigenvalues -- -105.57607 -20.56269 -20.56057 -20.55598 -11.39090
 Alpha  occ. eigenvalues --  -11.29573 -11.28743 -11.27987 -10.62596  -7.79536
 Alpha  occ. eigenvalues --   -7.79218  -7.79169  -7.67982  -1.54266  -1.44871
 Alpha  occ. eigenvalues --   -1.44305  -1.08789  -0.99812  -0.95080  -0.93657
 Alpha  occ. eigenvalues --   -0.83776  -0.74633  -0.71451  -0.71161  -0.64590
 Alpha  occ. eigenvalues --   -0.64021  -0.62526  -0.61210  -0.59766  -0.59153
 Alpha  occ. eigenvalues --   -0.56426  -0.53940  -0.51173  -0.50281  -0.49906
 Alpha  occ. eigenvalues --   -0.48406  -0.45860  -0.44237  -0.43654  -0.34759
 Alpha virt. eigenvalues --    0.03292   0.03905   0.04087   0.04211   0.05883
 Alpha virt. eigenvalues --    0.06149   0.06321   0.06490   0.06956   0.07346
 Alpha virt. eigenvalues --    0.08752   0.09522   0.09698   0.10894   0.13108

  Beta  occ. eigenvalues -- -105.57537 -20.56301 -20.56092 -20.55520 -11.38914
  Beta  occ. eigenvalues --  -11.29555 -11.28723 -11.27955 -10.62515  -7.79422
  Beta  occ. eigenvalues --   -7.79196  -7.78966  -7.65984  -1.54170  -1.44847
  Beta  occ. eigenvalues --   -1.44247  -1.07809  -0.99478  -0.94950  -0.93539
  Beta  occ. eigenvalues --   -0.82794  -0.73574  -0.71356  -0.70882  -0.64467
  Beta  occ. eigenvalues --   -0.62951  -0.61499  -0.60750  -0.59736  -0.59083
  Beta  occ. eigenvalues --   -0.55911  -0.53671  -0.50231  -0.49930  -0.48735
  Beta  occ. eigenvalues --   -0.48098  -0.45871  -0.44162  -0.42115
  Beta virt. eigenvalues --    0.03050   0.03883   0.04038   0.04221   0.05832
  Beta virt. eigenvalues --    0.06228   0.06436   0.06482   0.06972   0.07760
  Beta virt. eigenvalues --    0.08702   0.09441   0.09642   0.10288   0.11841

 Mulliken charges and spin densities:
               1          2
     1  B    0.143089   1.022711
     2  Cl  -0.296336   0.017796
     3  C    3.423948  -0.099599
     4  O   -1.545742   0.012697
     5  O   -1.549910  -0.002126
     6  O   -1.593557   0.020351
     7  C    0.129987   0.016281
     8  H    0.176453  -0.001028
     9  H   -0.037534   0.000123
    10  H    0.152129  -0.006172
    11  C    0.169377   0.021269
    12  H   -0.022291   0.000494
    13  H    0.167272  -0.013258
    14  H    0.196986  -0.000218
    15  C    0.118616   0.013446
    16  H   -0.008025   0.000063
    17  H    0.182217  -0.000952
    18  H    0.193320  -0.001876
 Sum of Mulliken charges =  -0.00000   1.00000

 Dipole moment (field-independent basis, Debye):
    X=             -1.8536    Y=             -0.2643    Z=              1.0633  Tot=              2.1532
                          Isotropic Fermi Contact Couplings
        Atom                 a.u.       MegaHertz       Gauss      10(-4) cm-1
     1  B(11)              0.32757     469.84986     167.65411     156.72504
     2  Cl(35)             0.06802      29.82336      10.64172       9.94800
     3  C(13)              0.04025      45.24915      16.14602      15.09349
     4  O(17)             -0.00445       2.69701       0.96236       0.89963
     5  O(17)             -0.00221       1.34188       0.47882       0.44760
     6  O(17)              0.03567     -21.62601      -7.71670      -7.21366
     7  C(13)              0.00363       4.08485       1.45758       1.36256
     8  H(1)               0.00022       0.98233       0.35052       0.32767

 1\1\GINC-SE461\SP\UHF\Aug-CC-pVDZ\C4H9B1Cl1O3(2)\OHZDE\09-Apr-2025\0\\
 #t hf aug-cc-pvdz iop(5/13=1,5/36=2,99/5=2) pseudo=read geom=check gue
 ss=(read,tcheck) scf=(maxcycle=1)\\title\\0,2\B,0,1.150577,0.325579,0.
 666904\Cl,0,2.687287,-0.051975,-0.023672\C,0,-0.28533,0.034165,0.01942
 9\O,0,-0.57616,1.242152,-0.663626\O,0,-1.327201,-0.196631,0.937494\O,0
 ,-0.177374,-0.984707,-0.918863\C,0,-1.149609,2.312966,0.097582\H,0,-2.
 164628,2.069856,0.413683\H,0,-1.160807,3.170972,-0.57391\H,0,-0.545498
 ,2.549825,0.978939\C,0,-1.081326,-1.274329,1.834868\H,0,-1.945634,-1.3

 Normal termination of Gaussian 16 at Wed Apr  9 00:08:11 2025.
