 Gaussian 16, Revision C.01,

 ----------------------------------------------------------------------
 #t hf aug-cc-pvdz symm=none int=(grid=ultrafine) guess=(read,tcheck) s
 table=(opt,rrhf)
 ----------------------------------------------------------------------
 -----
 title
 -----
 Symbolic Z-matrix:
 Charge =  0 Multiplicity = 1

 SCF Done:  E(RHF) =  -974.723842312     A.U. after   14 cycles
 Normal termination of Gaussian 16 at Wed Apr  9 00:16:41 2025.
 Gaussian 16:  ES64L-G16RevC.01  3-Jul-2019

 ----------------------------------------------------------------------
 #t hf aug-cc-pvdz iop(5/13=1,5/36=2,99/5=2) pseudo=read geom=check gue
 ss=(read,tcheck) scf=(maxcycle=1)
 ----------------------------------------------------------------------
 -----
 title
 -----
 Structure from the checkpoint file:  "BDE49_nonexpt_2547_mol1.chk"
 Charge =  0 Multiplicity = 1

                         Standard orientation:
 ---------------------------------------------------------------------
 Center     Atomic      Atomic             Coordinates (Angstroms)
 Number     Number       Type             X           Y           Z
 ---------------------------------------------------------------------
      1         17           0        1.840376   -0.715655    0.005171
      2         16           0        0.632044    0.943354   -0.360743
      3          6           0       -0.712423    0.666549    0.842632
      4          6           0       -1.626556   -0.531452    0.579001
      5          1           0       -0.268304    0.627437    1.838881
      6          6           0       -2.429706   -0.443077   -0.719656
      7          1           0       -2.310443   -0.606899    1.432887
      8          1           0       -1.025001   -1.445251    0.589093
      9          1           0       -3.073118    0.442625   -0.728323
     10          1           0       -3.070390   -1.320073   -0.838287
     11          1           0       -1.268009    1.610954    0.767547
     12          1           0       -1.771736   -0.388456   -1.589679
 ---------------------------------------------------------------------

 SCF Done:  E(RHF) =  -974.993528729     A.U. after    2 cycles

 The electronic state is 1-A.
 Alpha  occ. eigenvalues -- -105.57837 -94.00403 -11.28795 -11.24802 -11.23219
 Alpha  occ. eigenvalues --  -10.62536  -8.28103  -7.79474  -7.79043  -7.79009
 Alpha  occ. eigenvalues --   -6.25926  -6.25653  -6.25390  -1.13518  -1.06588
 Alpha  occ. eigenvalues --   -0.98065  -0.88927  -0.80133  -0.65049  -0.64117
 Alpha  occ. eigenvalues --   -0.59956  -0.55428  -0.52967  -0.52832  -0.50033
 Alpha  occ. eigenvalues --   -0.49652  -0.49531  -0.44101  -0.36590
 Alpha virt. eigenvalues --    0.03378   0.03812   0.04043   0.05466   0.05907
 Alpha virt. eigenvalues --    0.06837   0.07262   0.07953   0.09108   0.12462
 Alpha virt. eigenvalues --    0.13471   0.14170   0.14595   0.15175   0.15609

 Mulliken charges:
               1
     1  Cl  -0.316694
     2  S    0.421758
     3  C   -0.599968
     4  C   -0.392947
     5  H    0.180536
     6  C   -0.397439
     7  H    0.167183
     8  H    0.167988
     9  H    0.158467
    10  H    0.120710
    11  H    0.293155
    12  H    0.197252
 Sum of Mulliken charges =  -0.00000

 Dipole moment (field-independent basis, Debye):
    X=             -2.4048    Y=              0.4710    Z=              1.0171  Tot=              2.6532

 Test job not archived.
 1\1\GINC-SE333\SP\RHF\Aug-CC-pVDZ\C3H7Cl1S1\OHZDE\09-Apr-2025\0\\#t hf
  aug-cc-pvdz iop(5/13=1,5/36=2,99/5=2) pseudo=read geom=check guess=(r
 ead,tcheck) scf=(maxcycle=1)\\title\\0,1\Cl,0,1.840376,-0.715655,0.005
 171\S,0,0.632044,0.943354,-0.360743\C,0,-0.712423,0.666549,0.842632\C,
 0,-1.626556,-0.531452,0.579001\H,0,-0.268304,0.627437,1.838881\C,0,-2.
 429706,-0.443077,-0.719656\H,0,-2.310443,-0.606899,1.432887\H,0,-1.025
 001,-1.445251,0.589093\H,0,-3.073118,0.442625,-0.728323\H,0,-3.07039,-
 1.320073,-0.838287\H,0,-1.268009,1.610954,0.767547\H,0,-1.771736,-0.38

 Normal termination of Gaussian 16 at Wed Apr  9 00:16:44 2025.
