 Gaussian 16, Revision C.01,

 ----------------------------------------------------------------------
 #t hf aug-cc-pvdz symm=none int=(grid=ultrafine) guess=(read,tcheck) s
 table=opt
 ----------------------------------------------------------------------
 -----
 title
 -----
 Symbolic Z-matrix:
 Charge =  0 Multiplicity = 2

 SCF Done:  E(UHF) =  -1692.79791931     A.U. after   18 cycles
 Normal termination of Gaussian 16 at Tue Apr  8 23:43:15 2025.
 Gaussian 16:  ES64L-G16RevC.01  3-Jul-2019

 ----------------------------------------------------------------------
 #t hf aug-cc-pvdz iop(5/13=1,5/36=2,99/5=2) pseudo=read geom=check gue
 ss=(read,tcheck) scf=(maxcycle=1)
 ----------------------------------------------------------------------
 -----
 title
 -----
 Structure from the checkpoint file:  "BDE49_nonexpt_170_mol2.chk"
 Charge =  0 Multiplicity = 2

                         Standard orientation:
 ---------------------------------------------------------------------
 Center     Atomic      Atomic             Coordinates (Angstroms)
 Number     Number       Type             X           Y           Z
 ---------------------------------------------------------------------
      1         17           0       -2.681021   -0.123473   -0.239478
      2          5           0       -1.325692   -0.512266    0.730116
      3         14           0        0.598677    0.003389    0.668349
      4         17           0        1.512588   -1.548064   -0.367550
      5         17           0        0.993752    1.814497   -0.275695
      6          1           0        1.216568    0.083571    1.998820
 ---------------------------------------------------------------------

 SCF Done:  E(UHF) =  -1693.07821705     A.U. after    2 cycles

 The electronic state is 2-A.
 Alpha  occ. eigenvalues -- -105.60521-105.57768-105.57548 -69.63355 -10.65532
 Alpha  occ. eigenvalues --  -10.62770 -10.62548  -7.82412  -7.82181  -7.82092
 Alpha  occ. eigenvalues --   -7.79659  -7.79482  -7.79338  -7.79328  -7.79114
 Alpha  occ. eigenvalues --   -7.79101  -7.70281  -6.29692  -4.05069  -4.04928
 Alpha  occ. eigenvalues --   -4.04891  -1.11656  -1.08896  -1.05498  -0.77975
 Alpha  occ. eigenvalues --   -0.68397  -0.58341  -0.57582  -0.57043  -0.54029
 Alpha  occ. eigenvalues --   -0.52645  -0.49699  -0.49173  -0.47825  -0.46857
 Alpha  occ. eigenvalues --   -0.35208
 Alpha virt. eigenvalues --    0.00801   0.04125   0.04555   0.05140   0.06260
 Alpha virt. eigenvalues --    0.07295   0.07434   0.07685   0.10997   0.12596
 Alpha virt. eigenvalues --    0.12809   0.13385   0.14560   0.14850   0.16018

  Beta  occ. eigenvalues -- -105.60462-105.57766-105.57500 -69.63294 -10.65466
  Beta  occ. eigenvalues --  -10.62769 -10.62495  -7.82395  -7.82131  -7.81864
  Beta  occ. eigenvalues --   -7.79650  -7.79341  -7.79334  -7.79324  -7.79074
  Beta  occ. eigenvalues --   -7.79050  -7.68451  -6.29578  -4.05027  -4.04935
  Beta  occ. eigenvalues --   -4.04691  -1.10800  -1.08675  -1.05275  -0.75996
  Beta  occ. eigenvalues --   -0.66066  -0.57486  -0.56888  -0.56141  -0.52725
  Beta  occ. eigenvalues --   -0.51293  -0.49203  -0.48873  -0.47712  -0.45593
  Beta virt. eigenvalues --    0.02214   0.02646   0.04544   0.04732   0.06422
  Beta virt. eigenvalues --    0.06856   0.07346   0.07553   0.07990   0.11206
  Beta virt. eigenvalues --    0.12705   0.13689   0.14366   0.14710   0.15900

 Mulliken charges and spin densities:
               1          2
     1  Cl  -0.213770   0.006255
     2  B   -0.154815   1.005064
     3  Si   1.493963  -0.021436
     4  Cl  -0.519053   0.000836
     5  Cl  -0.543750   0.022870
     6  H   -0.062575  -0.013589
 Sum of Mulliken charges =  -0.00000   1.00000

 Dipole moment (field-independent basis, Debye):
    X=             -0.8562    Y=             -0.0045    Z=              1.2228  Tot=              1.4927
                          Isotropic Fermi Contact Couplings
        Atom                 a.u.       MegaHertz       Gauss      10(-4) cm-1
     1  Cl(35)             0.04452      19.52206       6.96596       6.51186
     2  B(11)              0.26143     374.99202     133.80648     125.08388
     3  Si(29)             0.14574    -129.52022     -46.21604     -43.20329
     4  Cl(35)             0.00009       0.03869       0.01380       0.01290
     5  Cl(35)             0.03170      13.90141       4.96037       4.63701
     6  H(1)              -0.00257     -11.47083      -4.09308      -3.82626
 --------------------------------------------------------
       Center         ----  Spin Dipole Couplings  ----

 Normal termination of Gaussian 16 at Tue Apr  8 23:43:18 2025.
