 Gaussian 16, Revision C.01,

 ----------------------------------------------------------------------
 #t hf aug-cc-pvdz symm=none int=(grid=ultrafine) guess=(read,tcheck) s
 table=(opt,rrhf)
 ----------------------------------------------------------------------
 -----
 title
 -----
 Symbolic Z-matrix:
 Charge =  0 Multiplicity = 1

 SCF Done:  E(RHF) =  -940.230757045     A.U. after   15 cycles
 Normal termination of Gaussian 16 at Tue Apr  8 23:43:51 2025.
 Gaussian 16:  ES64L-G16RevC.01  3-Jul-2019

 ----------------------------------------------------------------------
 #t hf aug-cc-pvdz iop(5/13=1,5/36=2,99/5=2) pseudo=read geom=check gue
 ss=(read,tcheck) scf=(maxcycle=1)
 ----------------------------------------------------------------------
 -----
 title
 -----
 Structure from the checkpoint file:  "BDE49_nonexpt_1654_mol1.chk"
 Charge =  0 Multiplicity = 1

                         Standard orientation:
 ---------------------------------------------------------------------
 Center     Atomic      Atomic             Coordinates (Angstroms)
 Number     Number       Type             X           Y           Z
 ---------------------------------------------------------------------
      1         15           0        2.587328    0.000000   -0.015028
      2          6           0        2.121303    1.433258   -1.119392
      3          6           0       -0.878251   -0.000001    0.611810
      4          6           0        2.121302   -1.433256   -1.119395
      5          1           0        2.824886   -1.469676   -1.955197
      6          1           0        1.106282   -1.362970   -1.517982
      7          1           0        2.221839   -2.367818   -0.562557
      8          1           0        1.106282    1.362973   -1.517979
      9          1           0        2.824887    1.469680   -1.955193
     10          1           0        2.221840    2.367819   -0.562551
     11          6           0       -1.522923    1.203317    0.278866
     12          6           0       -1.522923   -1.203317    0.278865
     13          6           0       -2.760468   -1.205311   -0.360905
     14          6           0       -3.381106    0.000001   -0.683097
     15          6           0       -2.760468    1.205312   -0.360904
     16          1           0       -3.242381    2.146184   -0.603341
     17          1           0       -1.059800    2.152069    0.531815
     18          1           0       -3.242383   -2.146182   -0.603343
     19          1           0       -4.345699    0.000002   -1.178426
     20          1           0       -1.059801   -2.152069    0.531813
     21         14           0        0.817020   -0.000002    1.423153
     22          1           0        0.948525   -1.211949    2.269564
     23          1           0        0.948526    1.211943    2.269567
 ---------------------------------------------------------------------

 SCF Done:  E(RHF) =  -940.638289111     A.U. after    2 cycles

 The electronic state is 1-A.
 Alpha  occ. eigenvalues --  -84.25264 -69.52914 -11.25234 -11.25232 -11.25157
 Alpha  occ. eigenvalues --  -11.24844 -11.24829 -11.23700 -11.23576 -11.23574
 Alpha  occ. eigenvalues --   -6.72424  -6.19972  -4.24807  -4.24745  -4.24176
 Alpha  occ. eigenvalues --   -3.95299  -3.95291  -3.95285  -1.15700  -1.02252
 Alpha  occ. eigenvalues --   -1.02153  -1.00474  -0.93719  -0.84091  -0.83780
 Alpha  occ. eigenvalues --   -0.77458  -0.72432  -0.67518  -0.64553  -0.63895
 Alpha  occ. eigenvalues --   -0.60457  -0.59013  -0.58478  -0.56281  -0.56194
 Alpha  occ. eigenvalues --   -0.55812  -0.51684  -0.50999  -0.48862  -0.46673
 Alpha  occ. eigenvalues --   -0.44756  -0.40751  -0.35198  -0.35169  -0.30135
 Alpha virt. eigenvalues --    0.03207   0.03365   0.03739   0.04231   0.04980
 Alpha virt. eigenvalues --    0.05195   0.05922   0.05940   0.06798   0.07376
 Alpha virt. eigenvalues --    0.08081   0.08409   0.09123   0.09319   0.09429

 Mulliken charges:
               1
     1  P    0.379539
     2  C   -0.686047
     3  C   -0.670451
     4  C   -0.686044
     5  H    0.047308
     6  H    0.098337
     7  H    0.055494
     8  H    0.098340
     9  H    0.047307
    10  H    0.055496
    11  C    0.331540
    12  C    0.331554
    13  C    0.447635
    14  C    0.330943
    15  C    0.447638
    16  H   -0.223781
    17  H   -0.349428
    18  H   -0.223781
    19  H   -0.214371
    20  H   -0.349429
    21  Si   0.999687
    22  H   -0.133743
    23  H   -0.133743
 Sum of Mulliken charges =  -0.00000

 Dipole moment (field-independent basis, Debye):
    X=             -1.2083    Y=              0.0000    Z=             -1.3841  Tot=              1.8373

 Test job not archived.
 1\1\GINC-SE419\SP\RHF\Aug-CC-pVDZ\C8H13P1Si1\OHZDE\08-Apr-2025\0\\#t h
 f aug-cc-pvdz iop(5/13=1,5/36=2,99/5=2) pseudo=read geom=check guess=(
 read,tcheck) scf=(maxcycle=1)\\title\\0,1\P,0,2.587328,0.,-0.015028\C,
 0,2.121303,1.433258,-1.119392\C,0,-0.878251,-0.000001,0.61181\C,0,2.12
 1302,-1.433256,-1.119395\H,0,2.824886,-1.469676,-1.955197\H,0,1.106282
 ,-1.36297,-1.517982\H,0,2.221839,-2.367818,-0.562557\H,0,1.106282,1.36
 2973,-1.517979\H,0,2.824887,1.46968,-1.955193\H,0,2.22184,2.367819,-0.
 562551\C,0,-1.522923,1.203317,0.278866\C,0,-1.522923,-1.203317,0.27886

 Normal termination of Gaussian 16 at Tue Apr  8 23:44:05 2025.
