 Gaussian 16, Revision C.01,

 ----------------------------------------------------------------------
 #t hf aug-cc-pvdz symm=none int=(grid=ultrafine) guess=(read,tcheck) s
 table=(opt,rrhf)
 ----------------------------------------------------------------------
 -----
 title
 -----
 Symbolic Z-matrix:
 Charge =  0 Multiplicity = 1

 SCF Done:  E(RHF) =  -984.485378833     A.U. after   11 cycles
 Normal termination of Gaussian 16 at Tue Apr  8 23:45:35 2025.
 Gaussian 16:  ES64L-G16RevC.01  3-Jul-2019

 ----------------------------------------------------------------------
 #t hf aug-cc-pvdz iop(5/13=1,5/36=2,99/5=2) pseudo=read geom=check gue
 ss=(read,tcheck) scf=(maxcycle=1)
 ----------------------------------------------------------------------
 -----
 title
 -----
 Structure from the checkpoint file:  "BDE49_nonexpt_1742_mol1.chk"
 Charge =  0 Multiplicity = 1

                         Standard orientation:
 ---------------------------------------------------------------------
 Center     Atomic      Atomic             Coordinates (Angstroms)
 Number     Number       Type             X           Y           Z
 ---------------------------------------------------------------------
      1         14           0        1.893820   -0.379826    0.401130
      2          6           0        0.186907   -0.844299   -0.218916
      3          6           0       -0.973448    0.021690    0.303541
      4          1           0        0.025723   -1.894516    0.063814
      5          1           0        0.205657   -0.828204   -1.315914
      6          6           0        3.229369   -1.508688   -0.256716
      7          1           0        3.055121   -2.536507    0.077884
      8          1           0        4.213629   -1.197316    0.101175
      9          1           0        3.247155   -1.503215   -1.349686
     10         17           0        2.332401    1.582597   -0.214596
     11          6           0       -2.345729   -0.423654   -0.217870
     12          1           0       -0.803245    1.066682    0.021962
     13          1           0       -0.982404    0.000539    1.400207
     14          6           0       -3.504871    0.436460    0.298214
     15          1           0       -2.517979   -1.470851    0.063412
     16          1           0       -2.338368   -0.401147   -1.315312
     17          6           0       -4.871391   -0.012513   -0.227240
     18          1           0       -3.330616    1.481884    0.016797
     19          1           0       -3.510022    0.414310    1.394736
     20          1           0       -4.909308    0.032785   -1.320138
     21          1           0       -5.675221    0.620144    0.158773
     22          1           0       -5.089775   -1.043633    0.067979
     23          1           0        1.920328   -0.341518    1.880537
 ---------------------------------------------------------------------

 SCF Done:  E(RHF) =  -984.863218322     A.U. after    2 cycles

 The electronic state is 1-A.
 Alpha  occ. eigenvalues -- -105.54291 -69.56254 -11.23514 -11.22750 -11.22726
 Alpha  occ. eigenvalues --  -11.22719 -11.22700 -11.22306 -10.59266  -7.76150
 Alpha  occ. eigenvalues --   -7.75868  -7.75863  -6.22953  -3.98375  -3.98212
 Alpha  occ. eigenvalues --   -3.98194  -1.08837  -1.04373  -1.01688  -0.96124
 Alpha  occ. eigenvalues --   -0.92430  -0.83160  -0.79490  -0.69206  -0.65858
 Alpha  occ. eigenvalues --   -0.61057  -0.59786  -0.58304  -0.57961  -0.56874
 Alpha  occ. eigenvalues --   -0.54431  -0.52637  -0.51247  -0.50628  -0.49486
 Alpha  occ. eigenvalues --   -0.48898  -0.47309  -0.47077  -0.46644  -0.43891
 Alpha  occ. eigenvalues --   -0.42269
 Alpha virt. eigenvalues --    0.03094   0.03487   0.03717   0.04004   0.04974
 Alpha virt. eigenvalues --    0.05342   0.05469   0.06618   0.07147   0.07490
 Alpha virt. eigenvalues --    0.08066   0.08688   0.09042   0.09891   0.10629

 Mulliken charges:
               1
     1  Si   1.756018
     2  C   -0.666788
     3  C   -0.181253
     4  H    0.087607
     5  H    0.130565
     6  C   -0.673381
     7  H    0.083731
     8  H   -0.016925
     9  H    0.118297
    10  Cl  -0.667631
    11  C   -0.250810
    12  H    0.093614
    13  H    0.066406
    14  C   -0.190478
    15  H    0.105423
    16  H    0.110049
    17  C   -0.409013
    18  H    0.120834
    19  H    0.122037
    20  H    0.163201
    21  H    0.117084
    22  H    0.161487
    23  H   -0.180075
 Sum of Mulliken charges =  -0.00000

 Dipole moment (field-independent basis, Debye):
    X=             -0.7405    Y=             -2.2958    Z=              0.0736  Tot=              2.4133

 Test job not archived.
 1\1\GINC-SE460\SP\RHF\Aug-CC-pVDZ\C6H15Cl1Si1\OHZDE\08-Apr-2025\0\\#t
 hf aug-cc-pvdz iop(5/13=1,5/36=2,99/5=2) pseudo=read geom=check guess=
 (read,tcheck) scf=(maxcycle=1)\\title\\0,1\Si,0,1.89382,-0.379826,0.40
 113\C,0,0.186907,-0.844299,-0.218916\C,0,-0.973448,0.02169,0.303541\H,
 0,0.025723,-1.894516,0.063814\H,0,0.205657,-0.828204,-1.315914\C,0,3.2
 29369,-1.508688,-0.256716\H,0,3.055121,-2.536507,0.077884\H,0,4.213629
 ,-1.197316,0.101175\H,0,3.247155,-1.503215,-1.349686\Cl,0,2.332401,1.5
 82597,-0.214596\C,0,-2.345729,-0.423654,-0.21787\H,0,-0.803245,1.06668

 Normal termination of Gaussian 16 at Tue Apr  8 23:45:48 2025.
