 Gaussian 16, Revision C.01,

 ----------------------------------------------------------------------
 #t hf aug-cc-pvdz symm=none int=(grid=ultrafine) guess=(read,tcheck) s
 table=opt
 ----------------------------------------------------------------------
 -----
 title
 -----
 Symbolic Z-matrix:
 Charge =  0 Multiplicity = 2

 SCF Done:  E(UHF) =  -585.731482082     A.U. after   18 cycles
 Normal termination of Gaussian 16 at Tue Apr  8 23:17:49 2025.
 Gaussian 16:  ES64L-G16RevC.01  3-Jul-2019

 ----------------------------------------------------------------------
 #t hf aug-cc-pvdz iop(5/13=1,5/36=2,99/5=2) pseudo=read geom=check gue
 ss=(read,tcheck) scf=(maxcycle=1)
 ----------------------------------------------------------------------
 -----
 title
 -----
 Structure from the checkpoint file:  "BDE49_nonexpt_1059_mol2.chk"
 Charge =  0 Multiplicity = 2

                         Standard orientation:
 ---------------------------------------------------------------------
 Center     Atomic      Atomic             Coordinates (Angstroms)
 Number     Number       Type             X           Y           Z
 ---------------------------------------------------------------------
      1          8           0       -0.915122    1.217626   -0.000010
      2          6           0       -0.431215    0.113005    0.000042
      3         16           0        1.308485   -0.083070   -0.000012
      4          8           0       -1.120400   -1.035408    0.000004
      5          1           0       -2.064285   -0.806647   -0.000017
 ---------------------------------------------------------------------

 SCF Done:  E(UHF) =  -585.963579723     A.U. after    2 cycles

 The electronic state is 2-A.
 Alpha  occ. eigenvalues --  -94.01519 -20.63338 -20.56382 -11.44332  -8.29710
 Alpha  occ. eigenvalues --   -6.28888  -6.27085  -6.26765  -1.58054  -1.48517
 Alpha  occ. eigenvalues --   -1.09851  -0.85671  -0.73568  -0.69985  -0.66431
 Alpha  occ. eigenvalues --   -0.59329  -0.51215  -0.50830  -0.45761  -0.42997
 Alpha virt. eigenvalues --    0.03373   0.06677   0.10011   0.10309   0.11047
 Alpha virt. eigenvalues --    0.12066   0.12081   0.13799   0.15578   0.19956
 Alpha virt. eigenvalues --    0.20886   0.21393   0.22391   0.24334   0.28647

  Beta  occ. eigenvalues --  -94.00586 -20.63317 -20.56178 -11.44450  -8.28636
  Beta  occ. eigenvalues --   -6.26590  -6.26186  -6.24740  -1.57921  -1.48102
  Beta  occ. eigenvalues --   -1.03023  -0.83630  -0.73136  -0.67990  -0.66399
  Beta  occ. eigenvalues --   -0.58303  -0.51004  -0.45845  -0.40726
  Beta virt. eigenvalues --   -0.02312   0.03427   0.06861   0.10329   0.10664
  Beta virt. eigenvalues --    0.11273   0.12038   0.13473   0.13973   0.15625
  Beta virt. eigenvalues --    0.20175   0.21002   0.21639   0.24474   0.24948

 Mulliken charges and spin densities:
               1          2
     1  O   -0.920167   0.024654
     2  C    1.117755  -0.093774
     3  S    0.434744   1.081715
     4  O   -0.990599  -0.010686
     5  H    0.358267  -0.001910
 Sum of Mulliken charges =  -0.00000   1.00000

 Dipole moment (field-independent basis, Debye):
    X=             -0.5149    Y=             -1.6481    Z=              0.0000  Tot=              1.7267
                          Isotropic Fermi Contact Couplings
        Atom                 a.u.       MegaHertz       Gauss      10(-4) cm-1
     1  O(17)              0.02266     -13.73804      -4.90207      -4.58252
     2  C(13)             -0.02165     -24.34297      -8.68618      -8.11994
     3  S(33)              0.21734      74.64895      26.63660      24.90021
     4  O(17)              0.01069      -6.48190      -2.31290      -2.16213
     5  H(1)               0.00138       6.14824       2.19385       2.05083
 --------------------------------------------------------
       Center         ----  Spin Dipole Couplings  ----
                      3XX-RR        3YY-RR        3ZZ-RR

 Normal termination of Gaussian 16 at Tue Apr  8 23:17:51 2025.
