 Gaussian 16, Revision C.01,

 ----------------------------------------------------------------------
 #t hf aug-cc-pvdz symm=none int=(grid=ultrafine) guess=(read,tcheck) s
 table=(opt,rrhf)
 ----------------------------------------------------------------------
 -----
 title
 -----
 Symbolic Z-matrix:
 Charge =  0 Multiplicity = 1

 SCF Done:  E(RHF) =  -270.065888601     A.U. after   14 cycles

 1\1\GINC-SE070\Stability\RHF\Aug-CC-pVDZ\C5H10O1\OHZDE\08-Apr-2025\0\\
 #t hf aug-cc-pvdz symm=none int=(grid=ultrafine) guess=(read,tcheck) s
 table=(opt,rrhf)\\title\\0,1\C,0,-0.127626,-0.91749,-0.234809\C,0,-1.5
 29182,-0.37421,-0.52327\C,0,-2.165748,0.337937,0.674336\H,0,-2.168545,
 -1.205394,-0.838297\H,0,-1.467211,0.318065,-1.367219\H,0,-2.249945,-0.
 33314,1.535742\H,0,-3.171635,0.689965,0.430781\H,0,-1.573908,1.20563,0
 .972879\C,0,0.954738,0.150699,-0.112305\H,0,0.197538,-1.589848,-1.0409
 33\H,0,-0.118858,-1.534906,0.672754\O,0,0.762949,1.301802,-0.433733\C,

 Normal termination of Gaussian 16 at Tue Apr  8 22:34:47 2025.
 Gaussian 16:  ES64L-G16RevC.01  3-Jul-2019

 ----------------------------------------------------------------------
 #t hf aug-cc-pvdz iop(5/13=1,5/36=2,99/5=2) pseudo=read geom=check gue
 ss=(read,tcheck) scf=(maxcycle=1)
 ----------------------------------------------------------------------
 -----
 title
 -----
 Structure from the checkpoint file:  "BDE49_expt_1088_mol1.chk"
 Charge =  0 Multiplicity = 1

                         Standard orientation:
 ---------------------------------------------------------------------
 Center     Atomic      Atomic             Coordinates (Angstroms)
 Number     Number       Type             X           Y           Z
 ---------------------------------------------------------------------
      1          6           0       -0.127626   -0.917490   -0.234809
      2          6           0       -1.529182   -0.374210   -0.523270
      3          6           0       -2.165748    0.337937    0.674336
      4          1           0       -2.168545   -1.205394   -0.838297
      5          1           0       -1.467211    0.318065   -1.367219
      6          1           0       -2.249945   -0.333140    1.535742
      7          1           0       -3.171635    0.689965    0.430781
      8          1           0       -1.573908    1.205630    0.972879
      9          6           0        0.954738    0.150699   -0.112305
     10          1           0        0.197538   -1.589848   -1.040933
     11          1           0       -0.118858   -1.534906    0.672754
     12          8           0        0.762949    1.301802   -0.433733
     13          6           0        2.297551   -0.310243    0.426254
     14          1           0        2.207223   -0.512344    1.499100
     15          1           0        3.043673    0.468500    0.272974
     16          1           0        2.619677   -1.241092   -0.049145
 ---------------------------------------------------------------------

 SCF Done:  E(RHF) =  -270.354434358     A.U. after    2 cycles

 The electronic state is 1-A.
 Alpha  occ. eigenvalues --  -20.53226 -11.33774 -11.24567 -11.24484 -11.23119
 Alpha  occ. eigenvalues --  -11.21995  -1.46766  -1.07980  -1.01885  -0.94502
 Alpha  occ. eigenvalues --   -0.82889  -0.73667  -0.66942  -0.64219  -0.62872
 Alpha  occ. eigenvalues --   -0.59694  -0.58814  -0.55757  -0.55166  -0.50560
 Alpha  occ. eigenvalues --   -0.49316  -0.48503  -0.47884  -0.40473
 Alpha virt. eigenvalues --    0.03216   0.03665   0.03875   0.04682   0.06039
 Alpha virt. eigenvalues --    0.06272   0.06526   0.07618   0.07965   0.09168
 Alpha virt. eigenvalues --    0.11180   0.13014   0.13752   0.14297   0.14892

 Mulliken charges:
               1
     1  C   -0.451006
     2  C   -0.216775
     3  C   -0.340341
     4  H    0.130145
     5  H    0.166153
     6  H    0.157765
     7  H    0.112733
     8  H    0.161276
     9  C    1.183964
    10  H    0.230487
    11  H    0.192223
    12  O   -1.370206
    13  C   -0.589193
    14  H    0.264526
    15  H    0.136555
    16  H    0.231693
 Sum of Mulliken charges =  -0.00000

 Dipole moment (field-independent basis, Debye):
    X=              0.4036    Y=             -2.8273    Z=              0.7074  Tot=              2.9423

 Test job not archived.
 1\1\GINC-SE070\SP\RHF\Aug-CC-pVDZ\C5H10O1\OHZDE\08-Apr-2025\0\\#t hf a
 ug-cc-pvdz iop(5/13=1,5/36=2,99/5=2) pseudo=read geom=check guess=(rea
 d,tcheck) scf=(maxcycle=1)\\title\\0,1\C,0,-0.127626,-0.91749,-0.23480
 9\C,0,-1.529182,-0.37421,-0.52327\C,0,-2.165748,0.337937,0.674336\H,0,
 -2.168545,-1.205394,-0.838297\H,0,-1.467211,0.318065,-1.367219\H,0,-2.
 249945,-0.33314,1.535742\H,0,-3.171635,0.689965,0.430781\H,0,-1.573908
 ,1.20563,0.972879\C,0,0.954738,0.150699,-0.112305\H,0,0.197538,-1.5898
 48,-1.040933\H,0,-0.118858,-1.534906,0.672754\O,0,0.762949,1.301802,-0

 Normal termination of Gaussian 16 at Tue Apr  8 22:34:51 2025.
