 Gaussian 16, Revision C.01,

 ----------------------------------------------------------------------
 #t hf aug-cc-pvdz symm=none int=(grid=ultrafine) guess=(read,tcheck) s
 table=(opt,rrhf)
 ----------------------------------------------------------------------
 -----
 title
 -----
 Symbolic Z-matrix:
 Charge =  0 Multiplicity = 1

 SCF Done:  E(RHF) =  -984.470600251     A.U. after   12 cycles
 Normal termination of Gaussian 16 at Tue Apr  8 23:45:33 2025.
 Gaussian 16:  ES64L-G16RevC.01  3-Jul-2019

 ----------------------------------------------------------------------
 #t hf aug-cc-pvdz iop(5/13=1,5/36=2,99/5=2) pseudo=read geom=check gue
 ss=(read,tcheck) scf=(maxcycle=1)
 ----------------------------------------------------------------------
 -----
 title
 -----
 Structure from the checkpoint file:  "BDE49_nonexpt_1731_mol1.chk"
 Charge =  0 Multiplicity = 1

                         Standard orientation:
 ---------------------------------------------------------------------
 Center     Atomic      Atomic             Coordinates (Angstroms)
 Number     Number       Type             X           Y           Z
 ---------------------------------------------------------------------
      1         14           0        2.793374   -0.704893    0.314699
      2          6           0        1.084674   -1.096557   -0.341006
      3         17           0        3.338666    1.251134   -0.194136
      4          6           0       -0.060510   -0.239171    0.227677
      5          1           0        0.906115   -2.158794   -0.121055
      6          1           0        1.113312   -1.016570   -1.434431
      7          6           0       -1.437111   -0.622655   -0.330847
      8          1           0        0.133092    0.817540    0.012576
      9          1           0       -0.078717   -0.328692    1.320738
     10          6           0       -2.581721    0.228036    0.230497
     11          1           0       -1.631656   -1.681522   -0.116785
     12          1           0       -1.418649   -0.531559   -1.424370
     13          6           0       -3.958494   -0.150278   -0.327816
     14          1           0       -2.384524    1.286594    0.017556
     15          1           0       -2.598810    0.137007    1.324373
     16          6           0       -5.096359    0.703987    0.238139
     17          1           0       -4.155519   -1.208097   -0.115311
     18          1           0       -3.941684   -0.058426   -1.420561
     19          1           0       -5.161322    0.605768    1.326294
     20          1           0       -6.062925    0.409608   -0.179656
     21          1           0       -4.945639    1.764010    0.011229
     22          1           0        3.813774   -1.595565   -0.275680
     23          1           0        2.845713   -0.782256    1.789741
 ---------------------------------------------------------------------

 SCF Done:  E(RHF) =  -984.847423902     A.U. after    2 cycles

 The electronic state is 1-A.
 Alpha  occ. eigenvalues -- -105.54957 -69.57056 -11.23963 -11.23339 -11.23021
 Alpha  occ. eigenvalues --  -11.22831 -11.22709 -11.22334 -10.59949  -7.76835
 Alpha  occ. eigenvalues --   -7.76539  -7.76533  -6.23762  -3.99197  -3.99034
 Alpha  occ. eigenvalues --   -3.99020  -1.09603  -1.05290  -1.03677  -0.96980
 Alpha  occ. eigenvalues --   -0.88499  -0.81427  -0.79514  -0.71759  -0.66530
 Alpha  occ. eigenvalues --   -0.62696  -0.60041  -0.58697  -0.57473  -0.55421
 Alpha  occ. eigenvalues --   -0.52993  -0.52345  -0.52029  -0.50942  -0.49054
 Alpha  occ. eigenvalues --   -0.48300  -0.47453  -0.47003  -0.46754  -0.44702
 Alpha  occ. eigenvalues --   -0.42827
 Alpha virt. eigenvalues --    0.03103   0.03370   0.03600   0.04096   0.04775
 Alpha virt. eigenvalues --    0.05242   0.05355   0.06408   0.06933   0.07634
 Alpha virt. eigenvalues --    0.07930   0.08800   0.09160   0.09849   0.10625

 Mulliken charges:
               1
     1  Si   1.167799
     2  C   -0.749455
     3  Cl  -0.597429
     4  C   -0.173007
     5  H    0.122482
     6  H    0.153879
     7  C   -0.133601
     8  H    0.128629
     9  H    0.091455
    10  C   -0.253999
    11  H    0.099868
    12  H    0.099659
    13  C   -0.196459
    14  H    0.108854
    15  H    0.112310
    16  C   -0.405886
    17  H    0.120297
    18  H    0.120587
    19  H    0.158591
    20  H    0.115092
    21  H    0.161246
    22  H   -0.133345
    23  H   -0.117569
 Sum of Mulliken charges =  -0.00000

 Dipole moment (field-independent basis, Debye):
    X=             -1.5141    Y=             -1.8230    Z=              0.1170  Tot=              2.3726

 Test job not archived.
 1\1\GINC-SE419\SP\RHF\Aug-CC-pVDZ\C6H15Cl1Si1\OHZDE\08-Apr-2025\0\\#t
 hf aug-cc-pvdz iop(5/13=1,5/36=2,99/5=2) pseudo=read geom=check guess=
 (read,tcheck) scf=(maxcycle=1)\\title\\0,1\Si,0,2.793374,-0.704893,0.3
 14699\C,0,1.084674,-1.096557,-0.341006\Cl,0,3.338666,1.251134,-0.19413
 6\C,0,-0.06051,-0.239171,0.227677\H,0,0.906115,-2.158794,-0.121055\H,0
 ,1.113312,-1.01657,-1.434431\C,0,-1.437111,-0.622655,-0.330847\H,0,0.1
 33092,0.81754,0.012576\H,0,-0.078717,-0.328692,1.320738\C,0,-2.581721,
 0.228036,0.230497\H,0,-1.631656,-1.681522,-0.116785\H,0,-1.418649,-0.5

 Normal termination of Gaussian 16 at Tue Apr  8 23:45:45 2025.
