 Gaussian 16, Revision C.01,

 ----------------------------------------------------------------------
 #t hf aug-cc-pvdz symm=none int=(grid=ultrafine) guess=(read,tcheck) s
 table=(opt,rrhf)
 ----------------------------------------------------------------------
 -----
 title
 -----
 Symbolic Z-matrix:
 Charge =  0 Multiplicity = 1

 SCF Done:  E(RHF) =  -867.778392904     A.U. after   16 cycles
 Normal termination of Gaussian 16 at Tue Apr  8 23:37:33 2025.
 Gaussian 16:  ES64L-G16RevC.01  3-Jul-2019

 ----------------------------------------------------------------------
 #t hf aug-cc-pvdz iop(5/13=1,5/36=2,99/5=2) pseudo=read geom=check gue
 ss=(read,tcheck) scf=(maxcycle=1)
 ----------------------------------------------------------------------
 -----
 title
 -----
 Structure from the checkpoint file:  "BDE49_nonexpt_1515_mol1.chk"
 Charge =  0 Multiplicity = 1

                         Standard orientation:
 ---------------------------------------------------------------------
 Center     Atomic      Atomic             Coordinates (Angstroms)
 Number     Number       Type             X           Y           Z
 ---------------------------------------------------------------------
      1         15           0       -0.202652    0.062110   -0.865971
      2          7           0       -1.299444    1.342536    0.035899
      3          7           0       -0.626493   -1.397799   -0.065395
      4          8           0       -1.092445    2.511785   -0.229222
      5          8           0       -2.161470    0.934916    0.813268
      6          8           0       -0.745167   -1.420032    1.330237
      7          8           0       -1.787804   -1.954455   -0.661922
      8          6           0        1.310565    0.500271    0.100849
      9          6           0        2.531551   -0.327190   -0.331556
     10          1           0        1.110373    0.372735    1.167322
     11          1           0        1.475081    1.564842   -0.093446
     12          6           0        3.802364    0.097315    0.411462
     13          1           0        2.684573   -0.220758   -1.411288
     14          1           0        2.333151   -1.386670   -0.147025
     15          1           0        4.040871    1.147708    0.220600
     16          1           0        4.658375   -0.503287    0.093804
     17          1           0        3.688074   -0.028673    1.491837
     18          1           0       -1.564762   -2.890267   -0.751710
     19          1           0       -1.476169   -0.800524    1.522532
 ---------------------------------------------------------------------

 SCF Done:  E(RHF) =  -868.345126775     A.U. after    2 cycles

 The electronic state is 1-A.
 Alpha  occ. eigenvalues --  -84.37307 -20.61665 -20.60888 -20.60238 -20.59648
 Alpha  occ. eigenvalues --  -15.77255 -15.63728 -11.27189 -11.26066 -11.24365
 Alpha  occ. eigenvalues --   -6.83754  -4.36602  -4.36303  -4.35479  -1.66892
 Alpha  occ. eigenvalues --   -1.56560  -1.51010  -1.46800  -1.13391  -1.08010
 Alpha  occ. eigenvalues --   -1.00605  -0.95618  -0.86032  -0.82949  -0.77929
 Alpha  occ. eigenvalues --   -0.77201  -0.74975  -0.73470  -0.69017  -0.67405
 Alpha  occ. eigenvalues --   -0.65393  -0.63681  -0.60342  -0.57667  -0.55720
 Alpha  occ. eigenvalues --   -0.52106  -0.51249  -0.51105  -0.50348  -0.49840
 Alpha  occ. eigenvalues --   -0.48330  -0.45844  -0.44547  -0.39733
 Alpha virt. eigenvalues --    0.03216   0.03588   0.03989   0.04213   0.05461
 Alpha virt. eigenvalues --    0.05590   0.06867   0.07150   0.07862   0.08197
 Alpha virt. eigenvalues --    0.08958   0.09546   0.11073   0.12741   0.13290

 Mulliken charges:
               1
     1  P    0.956056
     2  N    2.109324
     3  N    1.369528
     4  O   -1.347561
     5  O   -1.278150
     6  O   -1.215287
     7  O   -1.090134
     8  C   -0.543420
     9  C   -0.338186
    10  H    0.144277
    11  H    0.164573
    12  C   -0.388301
    13  H    0.136596
    14  H    0.151318
    15  H    0.148212
    16  H    0.130833
    17  H    0.162726
    18  H    0.318468
    19  H    0.409128
 Sum of Mulliken charges =  -0.00000

 Dipole moment (field-independent basis, Debye):
    X=              3.3001    Y=             -2.3570    Z=             -1.1613  Tot=              4.2184

 Test job not archived.
 1\1\GINC-SE329\SP\RHF\Aug-CC-pVDZ\C3H9N2O4P1\OHZDE\08-Apr-2025\0\\#t h
 f aug-cc-pvdz iop(5/13=1,5/36=2,99/5=2) pseudo=read geom=check guess=(
 read,tcheck) scf=(maxcycle=1)\\title\\0,1\P,0,-0.202652,0.06211,-0.865
 971\N,0,-1.299444,1.342536,0.035899\N,0,-0.626493,-1.397799,-0.065395\
 O,0,-1.092445,2.511785,-0.229222\O,0,-2.16147,0.934916,0.813268\O,0,-0
 .745167,-1.420032,1.330237\O,0,-1.787804,-1.954455,-0.661922\C,0,1.310
 565,0.500271,0.100849\C,0,2.531551,-0.32719,-0.331556\H,0,1.110373,0.3
 72735,1.167322\H,0,1.475081,1.564842,-0.093446\C,0,3.802364,0.097315,0

 Normal termination of Gaussian 16 at Tue Apr  8 23:37:43 2025.
