 Gaussian 16, Revision C.01,

 ----------------------------------------------------------------------
 #t hf aug-cc-pvdz symm=none int=(grid=ultrafine) guess=(read,tcheck) s
 table=opt
 ----------------------------------------------------------------------
 -----
 title
 -----
 Symbolic Z-matrix:
 Charge =  0 Multiplicity = 2

 SCF Done:  E(UHF) =  -591.778744339     A.U. after   19 cycles
 Normal termination of Gaussian 16 at Wed Apr  9 00:35:55 2025.
 Gaussian 16:  ES64L-G16RevC.01  3-Jul-2019

 ----------------------------------------------------------------------
 #t hf aug-cc-pvdz iop(5/13=1,5/36=2,99/5=2) pseudo=read geom=check gue
 ss=(read,tcheck) scf=(maxcycle=1)
 ----------------------------------------------------------------------
 -----
 title
 -----
 Structure from the checkpoint file:  "BDE49_nonexpt_474_mol2.chk"
 Charge =  0 Multiplicity = 2

                         Standard orientation:
 ---------------------------------------------------------------------
 Center     Atomic      Atomic             Coordinates (Angstroms)
 Number     Number       Type             X           Y           Z
 ---------------------------------------------------------------------
      1          1           0       -2.465564    1.037358   -1.080982
      2          5           0       -1.561665    0.279145   -1.062732
      3         15           0       -0.087526   -0.022880    0.038541
      4          8           0       -0.654577   -0.788858    1.168385
      5          8           0        1.119720   -0.779191   -0.728370
      6          1           0        0.977032   -1.733057   -0.762674
      7          8           0        0.659976    1.364578    0.322258
      8          1           0        1.608798    1.270942    0.481017
 ---------------------------------------------------------------------

 SCF Done:  E(UHF) =  -592.066340938     A.U. after    2 cycles

 The electronic state is 2-A.
 Alpha  occ. eigenvalues --  -84.42792 -20.60049 -20.59994 -20.50830  -7.66737
 Alpha  occ. eigenvalues --   -6.88181  -4.42255  -4.41537  -4.40661  -1.54111
 Alpha  occ. eigenvalues --   -1.47620  -1.39046  -0.88707  -0.76647  -0.73461
 Alpha  occ. eigenvalues --   -0.66383  -0.63156  -0.59354  -0.57689  -0.55533
 Alpha  occ. eigenvalues --   -0.50530  -0.46829  -0.44616  -0.37071
 Alpha virt. eigenvalues --    0.01597   0.03344   0.04406   0.04915   0.06471
 Alpha virt. eigenvalues --    0.07546   0.09126   0.10143   0.11972   0.12906
 Alpha virt. eigenvalues --    0.13988   0.16287   0.18923   0.19554   0.21021

  Beta  occ. eigenvalues --  -84.42792 -20.60073 -20.59925 -20.50759  -7.64926
  Beta  occ. eigenvalues --   -6.88178  -4.42256  -4.41499  -4.40680  -1.54026
  Beta  occ. eigenvalues --   -1.47550  -1.38874  -0.87568  -0.75964  -0.70273
  Beta  occ. eigenvalues --   -0.65948  -0.62454  -0.58832  -0.57576  -0.55411
  Beta  occ. eigenvalues --   -0.50010  -0.45772  -0.43682
  Beta virt. eigenvalues --    0.02553   0.03068   0.03758   0.04969   0.05905
  Beta virt. eigenvalues --    0.07706   0.08413   0.09355   0.10255   0.12089
  Beta virt. eigenvalues --    0.13322   0.15160   0.16487   0.19544   0.19945

 Mulliken charges and spin densities:
               1          2
     1  H    0.346435  -0.033906
     2  B   -0.420585   1.034618
     3  P    3.258295  -0.001993
     4  O   -1.391639   0.016406
     5  O   -1.250851  -0.007618
     6  H    0.373804  -0.002236
     7  O   -1.273558  -0.011087
     8  H    0.358100   0.005817
 Sum of Mulliken charges =   0.00000   1.00000

 Dipole moment (field-independent basis, Debye):
    X=              1.6369    Y=              0.5750    Z=             -2.5655  Tot=              3.0971
                          Isotropic Fermi Contact Couplings
        Atom                 a.u.       MegaHertz       Gauss      10(-4) cm-1
     1  H(1)              -0.00758     -33.88311     -12.09034     -11.30219
     2  B(11)              0.21797     312.65529     111.56318     104.29058
     3  P(31)             -0.00041      -0.74283      -0.26506      -0.24778
     4  O(17)              0.00522      -3.16617      -1.12977      -1.05612
     5  O(17)             -0.00564       3.41643       1.21907       1.13960
     6  H(1)               0.00008       0.37496       0.13379       0.12507
     7  O(17)              0.03493     -21.17589      -7.55608      -7.06352
     8  H(1)               0.00273      12.20508       4.35508       4.07118

 Normal termination of Gaussian 16 at Wed Apr  9 00:35:58 2025.
