 Gaussian 16, Revision C.01,

 ----------------------------------------------------------------------
 #t hf aug-cc-pvdz symm=none int=(grid=ultrafine) guess=(read,tcheck) s
 table=opt
 ----------------------------------------------------------------------
 -----
 title
 -----
 Symbolic Z-matrix:
 Charge =  0 Multiplicity = 2

 SCF Done:  E(UHF) =  -440.298552774     A.U. after   22 cycles

 1\1\GINC-SE100\Stability\UHF\Aug-CC-pVDZ\H3O2Si1\OHZDE\08-Apr-2025\0\\
 #t hf aug-cc-pvdz symm=none int=(grid=ultrafine) guess=(read,tcheck) s
 table=opt\\title\\0,2\Si,0,1.050446,-0.034813,-0.023577\O,0,-0.453801,
 0.701004,-0.014419\H,0,1.373152,-0.674293,1.275734\H,0,1.171118,-1.001
 665,-1.144469\O,0,-1.459068,-0.397366,0.126608\H,0,-1.94757,-0.265767,
 -0.698695\\Version=ES64L-G16RevC.01\HF=-440.2985528\S2=0.80003\S2-1=0.
 \S2A=0.750387\RMSD=8.443e-09\Dipole=0.0875988,-0.2477596,-0.5359707\Qu
 adrupole=1.8709548,-1.7743671,-0.0965877,0.2786044,2.4348954,0.292132\

 Normal termination of Gaussian 16 at Tue Apr  8 23:50:52 2025.
 Gaussian 16:  ES64L-G16RevC.01  3-Jul-2019

 ----------------------------------------------------------------------
 #t hf aug-cc-pvdz iop(5/13=1,5/36=2,99/5=2) pseudo=read geom=check gue
 ss=(read,tcheck) scf=(maxcycle=1)
 ----------------------------------------------------------------------
 -----
 title
 -----
 Structure from the checkpoint file:  "BDE49_nonexpt_1886_mol2.chk"
 Charge =  0 Multiplicity = 2

                         Standard orientation:
 ---------------------------------------------------------------------
 Center     Atomic      Atomic             Coordinates (Angstroms)
 Number     Number       Type             X           Y           Z
 ---------------------------------------------------------------------
      1         14           0        1.050446   -0.034813   -0.023577
      2          8           0       -0.453801    0.701004   -0.014419
      3          1           0        1.373152   -0.674293    1.275734
      4          1           0        1.171118   -1.001665   -1.144469
      5          8           0       -1.459068   -0.397366    0.126608
      6          1           0       -1.947570   -0.265767   -0.698695
 ---------------------------------------------------------------------

 SCF Done:  E(UHF) =  -440.471165599     A.U. after    2 cycles

 The electronic state is 2-A.
 Alpha  occ. eigenvalues --  -69.57962 -20.63636 -20.60471  -6.24680  -4.00613
 Alpha  occ. eigenvalues --   -3.99827  -3.99635  -1.56746  -1.28979  -0.75858
 Alpha  occ. eigenvalues --   -0.71382  -0.62314  -0.61420  -0.53867  -0.49432
 Alpha  occ. eigenvalues --   -0.46303  -0.35400
 Alpha virt. eigenvalues --    0.03617   0.04941   0.05876   0.06230   0.07475
 Alpha virt. eigenvalues --    0.09105   0.13168   0.14283   0.16481   0.17951
 Alpha virt. eigenvalues --    0.18571   0.19316   0.21490   0.24329   0.25366

  Beta  occ. eigenvalues --  -69.57393 -20.62587 -20.61197  -6.23802  -3.99451
  Beta  occ. eigenvalues --   -3.99261  -3.98476  -1.55973  -1.28549  -0.73045
  Beta  occ. eigenvalues --   -0.70922  -0.60740  -0.59979  -0.53138  -0.48879
  Beta  occ. eigenvalues --   -0.45980
  Beta virt. eigenvalues --    0.01962   0.03708   0.05217   0.06262   0.06988
  Beta virt. eigenvalues --    0.09237   0.09563   0.14001   0.15735   0.17168
  Beta virt. eigenvalues --    0.18799   0.20212   0.21278   0.23309   0.25078

 Mulliken charges and spin densities:
               1          2
     1  Si   1.272171   0.971517
     2  O   -0.753772  -0.288017
     3  H   -0.199011   0.036569
     4  H   -0.216654   0.029005
     5  O   -0.595081   0.265131
     6  H    0.492348  -0.014204
 Sum of Mulliken charges =  -0.00000   1.00000

 Dipole moment (field-independent basis, Debye):
    X=              0.1666    Y=             -0.6464    Z=             -1.3213  Tot=              1.4804
                          Isotropic Fermi Contact Couplings
        Atom                 a.u.       MegaHertz       Gauss      10(-4) cm-1
     1  Si(29)             0.65555    -582.60224    -207.88697    -194.33519
     2  O(17)              0.07419     -44.97215     -16.04718     -15.00109
     3  H(1)               0.01076      48.10243      17.16414      16.04524
     4  H(1)               0.00921      41.17785      14.69328      13.73545
     5  O(17)              0.04418     -26.78064      -9.55600      -8.93306
     6  H(1)              -0.00462     -20.63809      -7.36418      -6.88413
 --------------------------------------------------------
       Center         ----  Spin Dipole Couplings  ----

 Normal termination of Gaussian 16 at Tue Apr  8 23:50:54 2025.
