 Gaussian 16, Revision C.01,

 ----------------------------------------------------------------------
 #t hf aug-cc-pvdz symm=none int=(grid=ultrafine) guess=(read,tcheck) s
 table=(opt,rrhf)
 ----------------------------------------------------------------------
 -----
 title
 -----
 Symbolic Z-matrix:
 Charge =  0 Multiplicity = 1

 SCF Done:  E(RHF) =  -760.981707943     A.U. after   15 cycles
 Normal termination of Gaussian 16 at Tue Apr  8 23:20:56 2025.
 Gaussian 16:  ES64L-G16RevC.01  3-Jul-2019

 ----------------------------------------------------------------------
 #t hf aug-cc-pvdz iop(5/13=1,5/36=2,99/5=2) pseudo=read geom=check gue
 ss=(read,tcheck) scf=(maxcycle=1)
 ----------------------------------------------------------------------
 -----
 title
 -----
 Structure from the checkpoint file:  "BDE49_nonexpt_1152_mol1.chk"
 Charge =  0 Multiplicity = 1

                         Standard orientation:
 ---------------------------------------------------------------------
 Center     Atomic      Atomic             Coordinates (Angstroms)
 Number     Number       Type             X           Y           Z
 ---------------------------------------------------------------------
      1          9           0       -2.050995    0.049789    0.036546
      2          8           0       -0.966010   -0.550027   -0.701550
      3         16           0        0.475457   -0.130369    0.090487
      4          8           0        1.406697   -0.820826   -0.750409
      5          6           0        0.506497    1.623546   -0.216289
      6          8           0        0.341663   -0.372587    1.491405
      7          1           0        0.556586    1.779723   -1.291724
      8          1           0        1.394084    2.012430    0.282802
      9          1           0       -0.396813    2.051892    0.214395
 ---------------------------------------------------------------------

 SCF Done:  E(RHF) =  -761.394884992     A.U. after    2 cycles

 The electronic state is 1-A.
 Alpha  occ. eigenvalues --  -94.26694 -26.54827 -20.72305 -20.58720 -20.58666
 Alpha  occ. eigenvalues --  -11.32289  -8.51566  -6.49666  -6.49522  -6.49315
 Alpha  occ. eigenvalues --   -1.70573  -1.61031  -1.49530  -1.38901  -1.09762
 Alpha  occ. eigenvalues --   -0.89576  -0.78244  -0.75491  -0.73417  -0.70779
 Alpha  occ. eigenvalues --   -0.68403  -0.66048  -0.64257  -0.62588  -0.56523
 Alpha  occ. eigenvalues --   -0.54695  -0.53078  -0.50865  -0.50499
 Alpha virt. eigenvalues --    0.02727   0.04753   0.04931   0.08490   0.10045
 Alpha virt. eigenvalues --    0.10871   0.11308   0.12857   0.13962   0.14677
 Alpha virt. eigenvalues --    0.15051   0.16182   0.18399   0.21213   0.21906

 Mulliken charges:
               1
     1  F   -0.388013
     2  O   -0.515025
     3  S    3.686081
     4  O   -1.408348
     5  C   -0.787402
     6  O   -1.397731
     7  H    0.245270
     8  H    0.274234
     9  H    0.290934
 Sum of Mulliken charges =  -0.00000

 Dipole moment (field-independent basis, Debye):
    X=              0.1948    Y=              4.1214    Z=             -0.8793  Tot=              4.2187

 Test job not archived.
 1\1\GINC-SE173\SP\RHF\Aug-CC-pVDZ\C1H3F1O3S1\OHZDE\08-Apr-2025\0\\#t h
 f aug-cc-pvdz iop(5/13=1,5/36=2,99/5=2) pseudo=read geom=check guess=(
 read,tcheck) scf=(maxcycle=1)\\title\\0,1\F,0,-2.050995,0.049789,0.036
 546\O,0,-0.96601,-0.550027,-0.70155\S,0,0.475457,-0.130369,0.090487\O,
 0,1.406697,-0.820826,-0.750409\C,0,0.506497,1.623546,-0.216289\O,0,0.3
 41663,-0.372587,1.491405\H,0,0.556586,1.779723,-1.291724\H,0,1.394084,
 2.01243,0.282802\H,0,-0.396813,2.051892,0.214395\\Version=ES64L-G16Rev
 C.01\State=1-A\HF=-761.394885\RMSD=7.062e-03\Dipole=0.07664,1.621484,-

 Normal termination of Gaussian 16 at Tue Apr  8 23:20:59 2025.
