 Gaussian 16, Revision C.01,

 ----------------------------------------------------------------------
 #t hf aug-cc-pvdz symm=none int=(grid=ultrafine) guess=(read,tcheck) s
 table=(opt,rrhf)
 ----------------------------------------------------------------------
 -----
 title
 -----
 Symbolic Z-matrix:
 Charge =  0 Multiplicity = 1

 SCF Done:  E(RHF) =  -1517.14804290     A.U. after   13 cycles
 Normal termination of Gaussian 16 at Wed Apr  9 00:29:47 2025.
 Gaussian 16:  ES64L-G16RevC.01  3-Jul-2019

 ----------------------------------------------------------------------
 #t hf aug-cc-pvdz iop(5/13=1,5/36=2,99/5=2) pseudo=read geom=check gue
 ss=(read,tcheck) scf=(maxcycle=1)
 ----------------------------------------------------------------------
 -----
 title
 -----
 Structure from the checkpoint file:  "BDE49_nonexpt_331_mol1.chk"
 Charge =  0 Multiplicity = 1

                         Standard orientation:
 ---------------------------------------------------------------------
 Center     Atomic      Atomic             Coordinates (Angstroms)
 Number     Number       Type             X           Y           Z
 ---------------------------------------------------------------------
      1          6           0        0.092735    0.000004   -0.083058
      2          5           0       -0.968376    0.000094   -1.290080
      3         17           0        1.108666    1.474088   -0.237507
      4         17           0        1.108832   -1.473924   -0.237882
      5         17           0       -0.709298   -0.000249    1.539626
      6          8           0       -2.285377    0.000080   -1.076081
      7          1           0       -2.527885   -0.000080   -0.138433
      8          1           0       -0.543038    0.000388   -2.396197
 ---------------------------------------------------------------------

 SCF Done:  E(RHF) =  -1517.51246378     A.U. after    2 cycles

 The electronic state is 1-A.
 Alpha  occ. eigenvalues -- -105.60510-105.60263-105.60263 -20.59589 -11.43326
 Alpha  occ. eigenvalues --  -10.65322 -10.65049 -10.65048  -7.82255  -7.81996
 Alpha  occ. eigenvalues --   -7.81991  -7.81866  -7.81846  -7.81572  -7.81571
 Alpha  occ. eigenvalues --   -7.81568  -7.81567  -7.66206  -1.50060  -1.20779
 Alpha  occ. eigenvalues --   -1.07408  -1.07290  -0.87449  -0.79131  -0.70270
 Alpha  occ. eigenvalues --   -0.65796  -0.64051  -0.60280  -0.56270  -0.54270
 Alpha  occ. eigenvalues --   -0.52170  -0.51711  -0.48149  -0.48095  -0.46671
 Alpha  occ. eigenvalues --   -0.45777
 Alpha virt. eigenvalues --    0.04059   0.04646   0.04943   0.05865   0.08394
 Alpha virt. eigenvalues --    0.08473   0.08552   0.08973   0.11422   0.12027
 Alpha virt. eigenvalues --    0.12735   0.14695   0.14851   0.17098   0.17586

 Mulliken charges:
               1
     1  C   -0.888996
     2  B    1.327618
     3  Cl   0.057400
     4  Cl   0.057405
     5  Cl   0.004088
     6  O   -1.171393
     7  H    0.592527
     8  H    0.021352
 Sum of Mulliken charges =   0.00000

 Dipole moment (field-independent basis, Debye):
    X=             -0.7621    Y=             -0.0003    Z=              0.3624  Tot=              0.8438

 Test job not archived.
 1\1\GINC-SE253\SP\RHF\Aug-CC-pVDZ\C1H2B1Cl3O1\OHZDE\09-Apr-2025\0\\#t
 hf aug-cc-pvdz iop(5/13=1,5/36=2,99/5=2) pseudo=read geom=check guess=
 (read,tcheck) scf=(maxcycle=1)\\title\\0,1\C,0,-0.092735,-0.000004,-0.
 083058\B,0,0.968376,-0.000094,-1.29008\Cl,0,-1.108665,-1.474088,-0.237
 507\Cl,0,-1.108832,1.473924,-0.237882\Cl,0,0.709298,0.000249,1.539626\
 O,0,2.285377,-0.000079,-1.076081\H,0,2.527885,0.000081,-0.138433\H,0,0
 .543038,-0.000388,-2.396197\\Version=ES64L-G16RevC.01\State=1-A\HF=-15
 17.5124638\RMSD=6.903e-03\Dipole=0.2998278,0.0000998,0.1425598\Quadrup

 Normal termination of Gaussian 16 at Wed Apr  9 00:29:51 2025.
