 Gaussian 16, Revision C.01,

 ----------------------------------------------------------------------
 #t hf aug-cc-pvdz symm=none int=(grid=ultrafine) guess=(read,tcheck) s
 table=(opt,rrhf)
 ----------------------------------------------------------------------
 -----
 title
 -----
 Symbolic Z-matrix:
 Charge =  0 Multiplicity = 1

 SCF Done:  E(RHF) =  -743.087710503     A.U. after   15 cycles
 Normal termination of Gaussian 16 at Wed Apr  9 00:23:53 2025.
 Gaussian 16:  ES64L-G16RevC.01  3-Jul-2019

 ----------------------------------------------------------------------
 #t hf aug-cc-pvdz iop(5/13=1,5/36=2,99/5=2) pseudo=read geom=check gue
 ss=(read,tcheck) scf=(maxcycle=1)
 ----------------------------------------------------------------------
 -----
 title
 -----
 Structure from the checkpoint file:  "BDE49_nonexpt_2690_mol1.chk"
 Charge =  0 Multiplicity = 1

                         Standard orientation:
 ---------------------------------------------------------------------
 Center     Atomic      Atomic             Coordinates (Angstroms)
 Number     Number       Type             X           Y           Z
 ---------------------------------------------------------------------
      1          9           0       -2.516209    0.886034    0.000012
      2         16           0       -1.849283   -0.634772   -0.000009
      3          6           0       -0.141057   -0.218516   -0.000003
      4          6           0        0.325504    1.095403    0.000015
      5          6           0        0.786805   -1.265731   -0.000017
      6          6           0        2.137746   -0.939261   -0.000013
      7          6           0        1.703585    1.294076    0.000018
      8          7           0        2.609064    0.312106    0.000004
      9          1           0       -0.359373    1.931383    0.000026
     10          1           0        2.096820    2.306963    0.000032
     11          1           0        0.477340   -2.304977   -0.000032
     12          1           0        2.880660   -1.731895   -0.000024
 ---------------------------------------------------------------------

 SCF Done:  E(RHF) =  -743.483271282     A.U. after    2 cycles

 The electronic state is 1-A.
 Alpha  occ. eigenvalues --  -94.06171 -26.49353 -15.51474 -11.32021 -11.29865
 Alpha  occ. eigenvalues --  -11.29754 -11.26960 -11.26406  -8.33489  -6.31290
 Alpha  occ. eigenvalues --   -6.30988  -6.30692  -1.59584  -1.27338  -1.14625
 Alpha  occ. eigenvalues --   -1.05590  -1.01528  -0.89746  -0.85908  -0.74792
 Alpha  occ. eigenvalues --   -0.72169  -0.67906  -0.67647  -0.66705  -0.64960
 Alpha  occ. eigenvalues --   -0.62495  -0.58240  -0.55654  -0.53366  -0.47796
 Alpha  occ. eigenvalues --   -0.46529  -0.37606  -0.36520
 Alpha virt. eigenvalues --    0.03181   0.03735   0.04867   0.05032   0.06086
 Alpha virt. eigenvalues --    0.07154   0.08444   0.08767   0.09524   0.10772
 Alpha virt. eigenvalues --    0.11344   0.12053   0.12390   0.12491   0.14458

 Mulliken charges:
               1
     1  F   -0.708041
     2  S    0.939841
     3  C   -0.226524
     4  C    0.932862
     5  C    0.777473
     6  C   -1.013275
     7  C   -1.055301
     8  N    0.995293
     9  H   -0.142537
    10  H   -0.161258
    11  H   -0.171504
    12  H   -0.167029
 Sum of Mulliken charges =   0.00000

 Dipole moment (field-independent basis, Debye):
    X=             -0.8708    Y=             -1.1215    Z=             -0.0000  Tot=              1.4199

 Test job not archived.
 1\1\GINC-SE332\SP\RHF\Aug-CC-pVDZ\C5H4F1N1S1\OHZDE\09-Apr-2025\0\\#t h
 f aug-cc-pvdz iop(5/13=1,5/36=2,99/5=2) pseudo=read geom=check guess=(
 read,tcheck) scf=(maxcycle=1)\\title\\0,1\F,0,-2.516209,0.886034,0.000
 012\S,0,-1.849283,-0.634772,-0.000009\C,0,-0.141057,-0.218516,-0.00000
 3\C,0,0.325504,1.095403,0.000015\C,0,0.786805,-1.265731,-0.000017\C,0,
 2.137746,-0.939261,-0.000013\C,0,1.703585,1.294076,0.000018\N,0,2.6090
 64,0.312106,0.000004\H,0,-0.359373,1.931383,0.000026\H,0,2.09682,2.306
 963,0.000032\H,0,0.47734,-2.304977,-0.000032\H,0,2.88066,-1.731895,-0.

 Normal termination of Gaussian 16 at Wed Apr  9 00:23:58 2025.
