 Gaussian 16, Revision C.01,

 ----------------------------------------------------------------------
 #t hf aug-cc-pvdz symm=none int=(grid=ultrafine) guess=(read,tcheck) s
 table=(opt,rrhf)
 ----------------------------------------------------------------------
 -----
 title
 -----
 Symbolic Z-matrix:
 Charge =  0 Multiplicity = 1

 SCF Done:  E(RHF) =  -994.875752506     A.U. after   14 cycles
 Normal termination of Gaussian 16 at Wed Apr  9 00:15:05 2025.
 Gaussian 16:  ES64L-G16RevC.01  3-Jul-2019

 ----------------------------------------------------------------------
 #t hf aug-cc-pvdz iop(5/13=1,5/36=2,99/5=2) pseudo=read geom=check gue
 ss=(read,tcheck) scf=(maxcycle=1)
 ----------------------------------------------------------------------
 -----
 title
 -----
 Structure from the checkpoint file:  "BDE49_nonexpt_2412_mol1.chk"
 Charge =  0 Multiplicity = 1

                         Standard orientation:
 ---------------------------------------------------------------------
 Center     Atomic      Atomic             Coordinates (Angstroms)
 Number     Number       Type             X           Y           Z
 ---------------------------------------------------------------------
      1         14           0       -0.681314    1.596884   -0.410192
      2         14           0        1.568192    1.220948    0.222483
      3          6           0        2.024121   -0.631223    0.223575
      4          1           0        1.810276    1.699460    1.608412
      5          1           0        2.479968    1.966760   -0.677801
      6          7           0        1.819575   -1.369261   -0.799040
      7          8           0        1.286925   -0.610936   -1.866262
      8          1           0        1.068625   -1.276004   -2.527610
      9          6           0       -1.813283    0.232589    0.236564
     10          1           0       -0.817460    1.729068   -1.873769
     11          1           0       -1.109391    2.866287    0.238438
     12          7           0       -2.367860   -0.474059   -0.676922
     13          8           0       -3.193913   -1.481781   -0.134346
     14          1           0       -3.541336   -1.907421   -0.924650
     15          6           0        2.615228   -1.309722    1.432263
     16          1           0        1.958425   -1.200255    2.300864
     17          1           0        3.574936   -0.856266    1.699608
     18          1           0        2.768615   -2.371982    1.233528
     19          6           0       -2.030254    0.001354    1.712332
     20          1           0       -1.696642   -1.002732    1.990774
     21          1           0       -3.096487    0.056008    1.948845
     22          1           0       -1.496782    0.734430    2.319494
 ---------------------------------------------------------------------

 SCF Done:  E(RHF) =  -995.362799713     A.U. after    2 cycles

 The electronic state is 1-A.
 Alpha  occ. eigenvalues --  -69.53427 -69.53140 -20.58826 -20.58291 -15.56846
 Alpha  occ. eigenvalues --  -15.56591 -11.27527 -11.27200 -11.24654 -11.24440
 Alpha  occ. eigenvalues --   -6.20569  -6.20268  -3.95919  -3.95895  -3.95876
 Alpha  occ. eigenvalues --   -3.95616  -3.95590  -3.95570  -1.50074  -1.49443
 Alpha  occ. eigenvalues --   -1.18738  -1.18072  -0.99057  -0.98853  -0.82691
 Alpha  occ. eigenvalues --   -0.79437  -0.74863  -0.72164  -0.70213  -0.68651
 Alpha  occ. eigenvalues --   -0.64518  -0.62495  -0.62288  -0.61583  -0.57647
 Alpha  occ. eigenvalues --   -0.57567  -0.56899  -0.55612  -0.53333  -0.51595
 Alpha  occ. eigenvalues --   -0.50113  -0.47821  -0.45797  -0.43944  -0.42538
 Alpha  occ. eigenvalues --   -0.41160  -0.38775
 Alpha virt. eigenvalues --    0.03400   0.03746   0.04160   0.04511   0.05167
 Alpha virt. eigenvalues --    0.05592   0.05843   0.06015   0.06776   0.07713
 Alpha virt. eigenvalues --    0.08224   0.08499   0.08735   0.09413   0.09815

 Mulliken charges:
               1
     1  Si   0.460511
     2  Si   0.602718
     3  C   -0.808619
     4  H   -0.105171
     5  H   -0.162690
     6  N    1.271958
     7  O   -1.101916
     8  H    0.360453
     9  C   -1.165170
    10  H   -0.085869
    11  H   -0.077084
    12  N    1.355612
    13  O   -1.126282
    14  H    0.302511
    15  C   -0.607491
    16  H    0.193830
    17  H    0.211791
    18  H    0.197496
    19  C   -0.324718
    20  H    0.301373
    21  H    0.211528
    22  H    0.095229
 Sum of Mulliken charges =  -0.00000

 Dipole moment (field-independent basis, Debye):
    X=              0.2894    Y=              0.2888    Z=              1.5515  Tot=              1.6045

 Test job not archived.
 1\1\GINC-SE059\SP\RHF\Aug-CC-pVDZ\C4H12N2O2Si2\OHZDE\09-Apr-2025\0\\#t
  hf aug-cc-pvdz iop(5/13=1,5/36=2,99/5=2) pseudo=read geom=check guess
 =(read,tcheck) scf=(maxcycle=1)\\title\\0,1\Si,0,0.681314,1.596884,0.4
 10192\Si,0,-1.568192,1.220948,-0.222483\C,0,-2.024121,-0.631223,-0.223
 575\H,0,-1.810276,1.69946,-1.608412\H,0,-2.479968,1.96676,0.677801\N,0
 ,-1.819575,-1.369261,0.79904\O,0,-1.286925,-0.610936,1.866262\H,0,-1.0
 68625,-1.276004,2.52761\C,0,1.813283,0.232589,-0.236564\H,0,0.81746,1.
 729068,1.873769\H,0,1.109391,2.866287,-0.238438\N,0,2.36786,-0.474059,

 Normal termination of Gaussian 16 at Wed Apr  9 00:15:20 2025.
