 Gaussian 16, Revision C.01,

 ----------------------------------------------------------------------
 #t hf aug-cc-pvdz symm=none int=(grid=ultrafine) guess=(read,tcheck) s
 table=(opt,rrhf)
 ----------------------------------------------------------------------
 -----
 title
 -----
 Symbolic Z-matrix:
 Charge =  0 Multiplicity = 1

 SCF Done:  E(RHF) =  -525.894464572     A.U. after   13 cycles
 Normal termination of Gaussian 16 at Wed Apr  9 00:34:00 2025.
 Gaussian 16:  ES64L-G16RevC.01  3-Jul-2019

 ----------------------------------------------------------------------
 #t hf aug-cc-pvdz iop(5/13=1,5/36=2,99/5=2) pseudo=read geom=check gue
 ss=(read,tcheck) scf=(maxcycle=1)
 ----------------------------------------------------------------------
 -----
 title
 -----
 Structure from the checkpoint file:  "BDE49_nonexpt_420_mol1.chk"
 Charge =  0 Multiplicity = 1

                         Standard orientation:
 ---------------------------------------------------------------------
 Center     Atomic      Atomic             Coordinates (Angstroms)
 Number     Number       Type             X           Y           Z
 ---------------------------------------------------------------------
      1          9           0        2.718141   -0.844091    0.197862
      2          5           0        1.664694   -0.092370   -0.059739
      3          9           0        1.843647    1.128740   -0.522037
      4          8           0        0.433321   -0.655062    0.116572
      5          6           0       -0.728554    0.061093    0.186915
      6          8           0       -0.826545    1.176198    0.607098
      7          8           0       -1.707804   -0.722176   -0.250434
      8          6           0       -3.025915   -0.138178   -0.190941
      9          1           0       -3.072621    0.754576   -0.815231
     10          1           0       -3.276965    0.123676    0.837326
     11          1           0       -3.694938   -0.907408   -0.567553
 ---------------------------------------------------------------------

 SCF Done:  E(RHF) =  -526.393099312     A.U. after    2 cycles

 The electronic state is 1-A.
 Alpha  occ. eigenvalues --  -26.49445 -26.49274 -20.62176 -20.62130 -20.56302
 Alpha  occ. eigenvalues --  -11.47280 -11.31890  -7.77338  -1.65314  -1.61320
 Alpha  occ. eigenvalues --   -1.60955  -1.51794  -1.48969  -1.01536  -0.89251
 Alpha  occ. eigenvalues --   -0.81318  -0.79240  -0.77355  -0.73784  -0.72214
 Alpha  occ. eigenvalues --   -0.70740  -0.68766  -0.64902  -0.64502  -0.63340
 Alpha  occ. eigenvalues --   -0.61959  -0.60241  -0.56151  -0.53451  -0.48740
 Alpha  occ. eigenvalues --   -0.48632
 Alpha virt. eigenvalues --    0.03259   0.04711   0.05041   0.05623   0.06054
 Alpha virt. eigenvalues --    0.06410   0.07077   0.11007   0.13301   0.13693
 Alpha virt. eigenvalues --    0.14029   0.15127   0.15783   0.16951   0.18063

 Mulliken charges:
               1
     1  F   -0.710756
     2  B    1.458889
     3  F   -0.517131
     4  O   -1.160064
     5  C    2.373640
     6  O   -0.876045
     7  O   -1.108647
     8  C    0.194460
     9  H    0.168011
    10  H    0.168216
    11  H    0.009428
 Sum of Mulliken charges =   0.00000

 Dipole moment (field-independent basis, Debye):
    X=             -2.5520    Y=             -0.8407    Z=             -0.6526  Tot=              2.7650

 Test job not archived.
 1\1\GINC-SE273\SP\RHF\Aug-CC-pVDZ\C2H3B1F2O3\OHZDE\09-Apr-2025\0\\#t h
 f aug-cc-pvdz iop(5/13=1,5/36=2,99/5=2) pseudo=read geom=check guess=(
 read,tcheck) scf=(maxcycle=1)\\title\\0,1\F,0,2.718141,-0.844091,0.197
 862\B,0,1.664694,-0.09237,-0.059739\F,0,1.843647,1.12874,-0.522037\O,0
 ,0.433321,-0.655062,0.116572\C,0,-0.728554,0.061093,0.186915\O,0,-0.82
 6545,1.176198,0.607098\O,0,-1.707804,-0.722176,-0.250434\C,0,-3.025915
 ,-0.138178,-0.190941\H,0,-3.072621,0.754576,-0.815231\H,0,-3.276965,0.
 123676,0.837326\H,0,-3.694938,-0.907408,-0.567553\\Version=ES64L-G16Re

 Normal termination of Gaussian 16 at Wed Apr  9 00:34:05 2025.
