 Gaussian 16, Revision C.01,

 ----------------------------------------------------------------------
 #t hf aug-cc-pvdz symm=none int=(grid=ultrafine) guess=(read,tcheck) s
 table=(opt,rrhf)
 ----------------------------------------------------------------------
 -----
 title
 -----
 Symbolic Z-matrix:
 Charge =  0 Multiplicity = 1

 SCF Done:  E(RHF) =  -1064.83088270     A.U. after   16 cycles
 Normal termination of Gaussian 16 at Tue Apr  8 23:00:55 2025.
 Gaussian 16:  ES64L-G16RevC.01  3-Jul-2019

 ----------------------------------------------------------------------
 #t hf aug-cc-pvdz iop(5/13=1,5/36=2,99/5=2) pseudo=read geom=check gue
 ss=(read,tcheck) scf=(maxcycle=1)
 ----------------------------------------------------------------------
 -----
 title
 -----
 Structure from the checkpoint file:  "BDE49_expt_1960_mol1.chk"
 Charge =  0 Multiplicity = 1

                         Standard orientation:
 ---------------------------------------------------------------------
 Center     Atomic      Atomic             Coordinates (Angstroms)
 Number     Number       Type             X           Y           Z
 ---------------------------------------------------------------------
      1         16           0       -2.356366   -0.531322   -0.397333
      2         16           0       -1.070367   -0.195276    1.216320
      3          6           0       -2.590442    1.142334   -1.093795
      4          1           0       -3.292417    1.025416   -1.923252
      5          1           0       -1.648077    1.536350   -1.473137
      6          1           0       -3.015942    1.812840   -0.348250
      7          6           0        0.560860   -0.088931    0.470409
      8          6           0        1.255847    1.121645    0.539586
      9          6           0        1.165096   -1.206549   -0.114583
     10          6           0        2.449912   -1.105689   -0.636932
     11          6           0        2.550158    1.211791    0.028529
     12          6           0        3.146083    0.101715   -0.563546
     13          1           0        4.150231    0.173977   -0.965585
     14          1           0        2.913809   -1.973253   -1.092608
     15          1           0        0.625527   -2.144649   -0.159023
     16          1           0        0.783113    1.984729    0.993109
     17          1           0        3.086402    2.152269    0.086949
 ---------------------------------------------------------------------

 SCF Done:  E(RHF) =  -1065.23301826     A.U. after    2 cycles

 The electronic state is 1-A.
 Alpha  occ. eigenvalues --  -93.97521 -93.97022 -11.27853 -11.27034 -11.25693
 Alpha  occ. eigenvalues --  -11.25518 -11.25488 -11.25297 -11.25253  -8.25388
 Alpha  occ. eigenvalues --   -8.24923  -6.23188  -6.22998  -6.22773  -6.22728
 Alpha  occ. eigenvalues --   -6.22523  -6.22293  -1.17318  -1.10515  -1.04084
 Alpha  occ. eigenvalues --   -1.02847  -0.96473  -0.86123  -0.84654  -0.80442
 Alpha  occ. eigenvalues --   -0.71586  -0.65661  -0.64745  -0.61131  -0.60836
 Alpha  occ. eigenvalues --   -0.60379  -0.57880  -0.53714  -0.52545  -0.51748
 Alpha  occ. eigenvalues --   -0.49341  -0.46130  -0.38184  -0.36654  -0.35560
 Alpha  occ. eigenvalues --   -0.33962
 Alpha virt. eigenvalues --    0.03254   0.03540   0.03860   0.04525   0.05175
 Alpha virt. eigenvalues --    0.05758   0.06934   0.07209   0.07521   0.09013
 Alpha virt. eigenvalues --    0.09217   0.09994   0.11838   0.12309   0.13022

 Mulliken charges:
               1
     1  S    0.162085
     2  S   -0.183306
     3  C   -0.691772
     4  H    0.190474
     5  H    0.167531
     6  H    0.202991
     7  C    1.133317
     8  C   -0.381287
     9  C   -0.447780
    10  C    0.490971
    11  C    0.412976
    12  C   -0.016535
    13  H   -0.205903
    14  H   -0.214667
    15  H   -0.181971
    16  H   -0.224812
    17  H   -0.212312
 Sum of Mulliken charges =   0.00000

 Dipole moment (field-independent basis, Debye):
    X=              1.3719    Y=              1.5263    Z=             -1.5628  Tot=              2.5796

 Test job not archived.
 1\1\GINC-SE195\SP\RHF\Aug-CC-pVDZ\C7H8S2\OHZDE\08-Apr-2025\0\\#t hf au
 g-cc-pvdz iop(5/13=1,5/36=2,99/5=2) pseudo=read geom=check guess=(read
 ,tcheck) scf=(maxcycle=1)\\title\\0,1\S,0,-2.356366,0.531322,0.397333\
 S,0,-1.070367,0.195276,-1.21632\C,0,-2.590442,-1.142334,1.093795\H,0,-
 3.292417,-1.025416,1.923252\H,0,-1.648077,-1.53635,1.473137\H,0,-3.015
 942,-1.81284,0.34825\C,0,0.56086,0.088931,-0.470409\C,0,1.255847,-1.12
 1645,-0.539586\C,0,1.165096,1.206549,0.114583\C,0,2.449912,1.105689,0.
 636932\C,0,2.550158,-1.211791,-0.028529\C,0,3.146083,-0.101715,0.56354

 Normal termination of Gaussian 16 at Tue Apr  8 23:01:05 2025.
