 Gaussian 16, Revision C.01,

 ----------------------------------------------------------------------
 #t hf aug-cc-pvdz symm=none int=(grid=ultrafine) guess=(read,tcheck) s
 table=(opt,rrhf)
 ----------------------------------------------------------------------
 -----
 title
 -----
 Symbolic Z-matrix:
 Charge =  0 Multiplicity = 1

 SCF Done:  E(RHF) =  -774.177164112     A.U. after   18 cycles
 Normal termination of Gaussian 16 at Tue Apr  8 23:03:00 2025.
 Gaussian 16:  ES64L-G16RevC.01  3-Jul-2019

 ----------------------------------------------------------------------
 #t hf aug-cc-pvdz iop(5/13=1,5/36=2,99/5=2) pseudo=read geom=check gue
 ss=(read,tcheck) scf=(maxcycle=1)
 ----------------------------------------------------------------------
 -----
 title
 -----
 Structure from the checkpoint file:  "BDE49_expt_1762_mol1.chk"
 Charge =  0 Multiplicity = 1

                         Standard orientation:
 ---------------------------------------------------------------------
 Center     Atomic      Atomic             Coordinates (Angstroms)
 Number     Number       Type             X           Y           Z
 ---------------------------------------------------------------------
      1          7           0        1.092406    0.522396   -0.430796
      2          7           0        1.537559    1.726386   -0.869133
      3          8           0        2.738177    1.798339   -1.045541
      4          6           0        1.994108   -0.642190   -0.394280
      5          8           0        1.897937   -1.502709   -1.243149
      6          7           0        2.854593   -0.653471    0.648989
      7          6           0       -0.316849    0.380001   -0.230332
      8          6           0       -1.032308    1.439689    0.343196
      9          6           0       -2.397503    1.330837    0.540612
     10          6           0       -3.074054    0.154135    0.193697
     11          6           0       -2.358472   -0.906127   -0.366728
     12          6           0       -0.986595   -0.787594   -0.588082
     13          1           0       -2.964418    2.143199    0.978162
     14          1           0       -2.852953   -1.824442   -0.652236
     15          1           0       -0.440898   -1.595943   -1.054299
     16          6           0        3.874901   -1.697232    0.690476
     17          1           0        3.860828   -2.191642    1.665739
     18          1           0        4.867140   -1.263343    0.528449
     19          1           0        3.667648   -2.423476   -0.090381
     20          6           0        2.990299    0.414966    1.631213
     21          1           0        3.200312   -0.031231    2.605968
     22          1           0        2.066921    0.983208    1.707628
     23          1           0        3.805244    1.093768    1.363928
     24          8           0       -4.412506    0.144318    0.443437
     25          1           0       -0.513275    2.347966    0.619162
     26          6           0       -5.156247   -1.019295    0.107209
     27          1           0       -6.185694   -0.804744    0.388658
     28          1           0       -4.804318   -1.895372    0.663274
     29          1           0       -5.110995   -1.227863   -0.967339
 ---------------------------------------------------------------------

 SCF Done:  E(RHF) =  -774.950410604     A.U. after    2 cycles

 The electronic state is 1-A.
 Alpha  occ. eigenvalues --  -20.59010 -20.57939 -20.52975 -15.68695 -15.58448
 Alpha  occ. eigenvalues --  -15.54731 -11.41058 -11.31553 -11.30180 -11.29414
 Alpha  occ. eigenvalues --  -11.28322 -11.27593 -11.25965 -11.25570 -11.24988
 Alpha  occ. eigenvalues --  -11.24788  -1.59540  -1.50377  -1.48873  -1.31665
 Alpha  occ. eigenvalues --   -1.26919  -1.16293  -1.05358  -1.03501  -1.02025
 Alpha  occ. eigenvalues --   -0.99550  -0.97137  -0.93231  -0.87217  -0.84511
 Alpha  occ. eigenvalues --   -0.78956  -0.77793  -0.76366  -0.72861  -0.71370
 Alpha  occ. eigenvalues --   -0.68875  -0.68219  -0.67258  -0.66326  -0.65801
 Alpha  occ. eigenvalues --   -0.64326  -0.62568  -0.61572  -0.59818  -0.58948
 Alpha  occ. eigenvalues --   -0.58345  -0.58028  -0.55962  -0.55742  -0.54818
 Alpha  occ. eigenvalues --   -0.53941  -0.51045  -0.49947  -0.47571  -0.44949
 Alpha  occ. eigenvalues --   -0.43410  -0.41262  -0.36258  -0.32065
 Alpha virt. eigenvalues --    0.03174   0.03343   0.03616   0.04286   0.04509
 Alpha virt. eigenvalues --    0.04589   0.05423   0.05859   0.06326   0.06642
 Alpha virt. eigenvalues --    0.07065   0.08158   0.08298   0.09006   0.09217

 Mulliken charges:
               1
     1  N    1.278629
     2  N    1.130053
     3  O   -1.153345
     4  C   -0.133951
     5  O   -1.457526
     6  N    0.947069
     7  C   -1.818891
     8  C    0.723641
     9  C    0.662599
    10  C    1.718504
    11  C    0.178490
    12  C    0.489466
    13  H   -0.303899
    14  H   -0.432105
    15  H   -0.334971
    16  C   -0.213000
    17  H    0.170615
    18  H    0.248936
    19  H    0.011492
    20  C   -0.215931
    21  H    0.086664
    22  H   -0.009969
    23  H    0.222238
    24  O   -1.906278
    25  H   -0.336141
    26  C    0.129935
    27  H   -0.039693
    28  H    0.176791
    29  H    0.180577
 Sum of Mulliken charges =  -0.00000

 Dipole moment (field-independent basis, Debye):
    X=             -1.0001    Y=             -1.7812    Z=              3.3657  Tot=              3.9371

 Test job not archived.
 1\1\GINC-SE273\SP\RHF\Aug-CC-pVDZ\C10H13N3O3\OHZDE\08-Apr-2025\0\\#t h
 f aug-cc-pvdz iop(5/13=1,5/36=2,99/5=2) pseudo=read geom=check guess=(
 read,tcheck) scf=(maxcycle=1)\\title\\0,1\N,0,1.092406,0.522396,-0.430
 796\N,0,1.537559,1.726386,-0.869133\O,0,2.738177,1.798339,-1.045541\C,
 0,1.994108,-0.64219,-0.39428\O,0,1.897937,-1.502709,-1.243149\N,0,2.85
 4593,-0.653471,0.648989\C,0,-0.316849,0.380001,-0.230332\C,0,-1.032308
 ,1.439689,0.343196\C,0,-2.397503,1.330837,0.540612\C,0,-3.074054,0.154
 135,0.193697\C,0,-2.358472,-0.906127,-0.366728\C,0,-0.986595,-0.787594

 Normal termination of Gaussian 16 at Tue Apr  8 23:03:36 2025.
