 Gaussian 16, Revision C.01,

 ----------------------------------------------------------------------
 #t hf aug-cc-pvdz symm=none int=(grid=ultrafine) guess=(read,tcheck) s
 table=(opt,rrhf)
 ----------------------------------------------------------------------
 -----
 title
 -----
 Symbolic Z-matrix:
 Charge =  0 Multiplicity = 1

 SCF Done:  E(RHF) =  -583.509987399     A.U. after   12 cycles
 Normal termination of Gaussian 16 at Wed Apr  9 00:45:34 2025.
 Gaussian 16:  ES64L-G16RevC.01  3-Jul-2019

 ----------------------------------------------------------------------
 #t hf aug-cc-pvdz iop(5/13=1,5/36=2,99/5=2) pseudo=read geom=check gue
 ss=(read,tcheck) scf=(maxcycle=1)
 ----------------------------------------------------------------------
 -----
 title
 -----
 Structure from the checkpoint file:  "BDE49_nonexpt_782_mol1.chk"
 Charge =  0 Multiplicity = 1

                         Standard orientation:
 ---------------------------------------------------------------------
 Center     Atomic      Atomic             Coordinates (Angstroms)
 Number     Number       Type             X           Y           Z
 ---------------------------------------------------------------------
      1         14           0        0.391019    0.626551   -0.399294
      2          5           0       -1.376221   -0.299380    0.029671
      3          8           0       -2.355944   -0.587682   -0.887357
      4          8           0       -1.611564   -0.652874    1.326360
      5          6           0        1.862707   -0.332348    0.310362
      6          6           0        1.974832   -1.790568   -0.165241
      7          1           0        1.780089   -0.303806    1.403359
      8          1           0        2.779797    0.215194    0.061643
      9          1           0        2.062116   -1.852264   -1.254297
     10          1           0        1.096490   -2.372864    0.128629
     11          6           0        0.400403    2.401260    0.253090
     12          1           0        1.348405    2.899289    0.029546
     13          1           0        0.259071    2.413276    1.337607
     14          1           0       -0.402231    2.994861   -0.193475
     15          1           0        2.851503   -2.287256    0.261398
     16          1           0       -2.122890   -0.331446   -1.783349
     17          1           0       -2.473249   -1.076707    1.436640
     18          1           0        0.540150    0.681290   -1.887235
 ---------------------------------------------------------------------

 SCF Done:  E(RHF) =  -583.852023472     A.U. after    2 cycles

 The electronic state is 1-A.
 Alpha  occ. eigenvalues --  -69.50127 -20.56213 -20.55503 -11.22648 -11.21365
 Alpha  occ. eigenvalues --  -11.21209  -7.63433  -6.17342  -3.92693  -3.92661
 Alpha  occ. eigenvalues --   -3.92642  -1.48178  -1.43701  -1.01972  -0.94500
 Alpha  occ. eigenvalues --   -0.84123  -0.77470  -0.73603  -0.68060  -0.61026
 Alpha  occ. eigenvalues --   -0.60120  -0.57285  -0.56580  -0.56004  -0.55593
 Alpha  occ. eigenvalues --   -0.55457  -0.51541  -0.49589  -0.49086  -0.44966
 Alpha  occ. eigenvalues --   -0.42603  -0.40255
 Alpha virt. eigenvalues --    0.03292   0.03702   0.03808   0.04068   0.05911
 Alpha virt. eigenvalues --    0.06282   0.06400   0.06621   0.06706   0.08818
 Alpha virt. eigenvalues --    0.09283   0.09612   0.09839   0.10017   0.10412

 Mulliken charges:
               1
     1  Si   1.292293
     2  B    1.689952
     3  O   -1.409295
     4  O   -1.326594
     5  C   -0.463690
     6  C   -0.518993
     7  H    0.138825
     8  H    0.005856
     9  H    0.147475
    10  H    0.109318
    11  C   -0.634402
    12  H    0.007291
    13  H    0.109056
    14  H   -0.086522
    15  H    0.102617
    16  H    0.524213
    17  H    0.488266
    18  H   -0.175666
 Sum of Mulliken charges =  -0.00000

 Dipole moment (field-independent basis, Debye):
    X=             -0.2063    Y=              0.1037    Z=             -0.6749  Tot=              0.7133

 Test job not archived.
 1\1\GINC-SE345\SP\RHF\Aug-CC-pVDZ\C3H11B1O2Si1\OHZDE\09-Apr-2025\0\\#t
  hf aug-cc-pvdz iop(5/13=1,5/36=2,99/5=2) pseudo=read geom=check guess
 =(read,tcheck) scf=(maxcycle=1)\\title\\0,1\Si,0,0.391019,0.626551,-0.
 399294\B,0,-1.376221,-0.29938,0.029671\O,0,-2.355944,-0.587683,-0.8873
 57\O,0,-1.611564,-0.652874,1.32636\C,0,1.862707,-0.332347,0.310362\C,0
 ,1.974832,-1.790567,-0.165241\H,0,1.780089,-0.303805,1.403359\H,0,2.77
 9797,0.215195,0.061643\H,0,2.062116,-1.852263,-1.254297\H,0,1.096491,-
 2.372864,0.128629\C,0,0.400402,2.40126,0.25309\H,0,1.348404,2.899289,0

 Normal termination of Gaussian 16 at Wed Apr  9 00:45:40 2025.
