 Gaussian 16, Revision C.01,

 ----------------------------------------------------------------------
 #t hf aug-cc-pvdz symm=none int=(grid=ultrafine) guess=(read,tcheck) s
 table=(opt,rrhf)
 ----------------------------------------------------------------------
 -----
 title
 -----
 Symbolic Z-matrix:
 Charge =  0 Multiplicity = 1

 SCF Done:  E(RHF) =  -299.982631796     A.U. after   13 cycles
 Normal termination of Gaussian 16 at Wed Apr  9 00:32:12 2025.
 Gaussian 16:  ES64L-G16RevC.01  3-Jul-2019

 ----------------------------------------------------------------------
 #t hf aug-cc-pvdz iop(5/13=1,5/36=2,99/5=2) pseudo=read geom=check gue
 ss=(read,tcheck) scf=(maxcycle=1)
 ----------------------------------------------------------------------
 -----
 title
 -----
 Structure from the checkpoint file:  "BDE49_nonexpt_386_mol1.chk"
 Charge =  0 Multiplicity = 1

                         Standard orientation:
 ---------------------------------------------------------------------
 Center     Atomic      Atomic             Coordinates (Angstroms)
 Number     Number       Type             X           Y           Z
 ---------------------------------------------------------------------
      1          9           0       -1.155367    1.130226   -0.000002
      2          9           0       -1.155370   -1.130225    0.000003
      3          5           0       -0.468322    0.000000   -0.000004
      4          6           0        1.049072   -0.000002   -0.000002
      5          6           0        2.254224   -0.000003    0.000003
      6          1           0        3.318457    0.000011    0.000007
 ---------------------------------------------------------------------

 SCF Done:  E(RHF) =  -300.261877639     A.U. after    2 cycles

 The electronic state is 1-A.
 Alpha  occ. eigenvalues --  -26.48869 -26.48869 -11.28535 -11.25261  -7.74917
 Alpha  occ. eigenvalues --   -1.64117  -1.60105  -1.06048  -0.84391  -0.78794
 Alpha  occ. eigenvalues --   -0.75429  -0.73967  -0.70331  -0.64126  -0.63395
 Alpha  occ. eigenvalues --   -0.61781  -0.44598  -0.44195
 Alpha virt. eigenvalues --    0.02959   0.04903   0.05300   0.05549   0.06278
 Alpha virt. eigenvalues --    0.06665   0.10027   0.13402   0.13508   0.15788
 Alpha virt. eigenvalues --    0.16035   0.17995   0.18733   0.19859   0.23233

 Mulliken charges:
               1
     1  F   -0.656544
     2  F   -0.656545
     3  B    1.272268
     4  C   -0.274535
     5  C    0.655182
     6  H   -0.339825
 Sum of Mulliken charges =   0.00000

 Dipole moment (field-independent basis, Debye):
    X=              2.1124    Y=              0.0000    Z=             -0.0000  Tot=              2.1124

 Test job not archived.
 1\1\GINC-SE460\SP\RHF\Aug-CC-pVDZ\C2H1B1F2\OHZDE\09-Apr-2025\0\\#t hf
 aug-cc-pvdz iop(5/13=1,5/36=2,99/5=2) pseudo=read geom=check guess=(re
 ad,tcheck) scf=(maxcycle=1)\\title\\0,1\F,0,1.155367,-1.130226,-0.0000
 02\F,0,1.15537,1.130225,0.000003\B,0,0.468322,0.,-0.000004\C,0,-1.0490
 72,0.000002,-0.000002\C,0,-2.254224,0.000003,0.000003\H,0,-3.318457,-0
 .000011,0.000007\\Version=ES64L-G16RevC.01\State=1-A\HF=-300.2618776\R
 MSD=2.444e-02\Dipole=-0.8310995,-0.0000075,-0.0000037\Quadrupole=3.815
 0068,-3.3597924,-0.4552143,0.000037,-0.0000313,-0.0000064\PG=C01 [X(C2

 Normal termination of Gaussian 16 at Wed Apr  9 00:32:14 2025.
