 Gaussian 16, Revision C.01,

 ----------------------------------------------------------------------
 #t hf aug-cc-pvdz symm=none int=(grid=ultrafine) guess=(read,tcheck) s
 table=(opt,rrhf)
 ----------------------------------------------------------------------
 -----
 title
 -----
 Symbolic Z-matrix:
 Charge =  0 Multiplicity = 1

 SCF Done:  E(RHF) =  -827.135556739     A.U. after   14 cycles
 Normal termination of Gaussian 16 at Wed Apr  9 00:13:26 2025.
 Gaussian 16:  ES64L-G16RevC.01  3-Jul-2019

 ----------------------------------------------------------------------
 #t hf aug-cc-pvdz iop(5/13=1,5/36=2,99/5=2) pseudo=read geom=check gue
 ss=(read,tcheck) scf=(maxcycle=1)
 ----------------------------------------------------------------------
 -----
 title
 -----
 Structure from the checkpoint file:  "BDE49_nonexpt_2410_mol1.chk"
 Charge =  0 Multiplicity = 1

                         Standard orientation:
 ---------------------------------------------------------------------
 Center     Atomic      Atomic             Coordinates (Angstroms)
 Number     Number       Type             X           Y           Z
 ---------------------------------------------------------------------
      1         14           0        2.267568    0.568232   -0.437211
      2         14           0        0.849482   -0.937652    0.697088
      3          1           0        1.857158    0.686027   -1.857258
      4          1           0        3.667747    0.073775   -0.404993
      5          1           0        2.235082    1.909022    0.189901
      6          6           0       -0.899008   -0.980191   -0.062968
      7          1           0        0.759003   -0.593254    2.135764
      8          1           0        1.374578   -2.323325    0.592908
      9          7           0       -1.589277    0.085661   -0.213240
     10          8           0       -0.882521    1.212351    0.250824
     11          6           0       -1.537137   -2.263506   -0.527819
     12          1           0       -0.925081   -2.744922   -1.297109
     13          1           0       -2.530419   -2.067180   -0.935415
     14          1           0       -1.625399   -2.974723    0.299546
     15          6           0       -1.677349    2.384445    0.085516
     16          1           0       -1.063675    3.208060    0.449882
     17          1           0       -2.596159    2.315009    0.674026
     18          1           0       -1.925464    2.540468   -0.967811
 ---------------------------------------------------------------------

 SCF Done:  E(RHF) =  -827.459178008     A.U. after    2 cycles

 The electronic state is 1-A.
 Alpha  occ. eigenvalues --  -69.53211 -69.52420 -20.58144 -15.56330 -11.28555
 Alpha  occ. eigenvalues --  -11.27383 -11.24459  -6.20359  -6.19564  -3.95707
 Alpha  occ. eigenvalues --   -3.95682  -3.95669  -3.94921  -3.94915  -3.94909
 Alpha  occ. eigenvalues --   -1.50346  -1.19159  -0.99859  -0.91515  -0.81675
 Alpha  occ. eigenvalues --   -0.75422  -0.71853  -0.66545  -0.65867  -0.62796
 Alpha  occ. eigenvalues --   -0.59447  -0.57356  -0.55706  -0.52697  -0.51467
 Alpha  occ. eigenvalues --   -0.49953  -0.48739  -0.47245  -0.44209  -0.41041
 Alpha  occ. eigenvalues --   -0.39097
 Alpha virt. eigenvalues --    0.03494   0.03877   0.04363   0.04692   0.05527
 Alpha virt. eigenvalues --    0.05844   0.05907   0.06284   0.07185   0.08308
 Alpha virt. eigenvalues --    0.08836   0.09199   0.09442   0.09858   0.10402

 Mulliken charges:
               1
     1  Si   0.197010
     2  Si   0.500365
     3  H   -0.021137
     4  H   -0.178929
     5  H   -0.040789
     6  C   -1.047448
     7  H   -0.105521
     8  H   -0.155200
     9  N    1.356399
    10  O   -1.207716
    11  C   -0.568431
    12  H    0.211452
    13  H    0.161363
    14  H    0.218920
    15  C    0.334431
    16  H    0.049973
    17  H    0.125759
    18  H    0.169498
 Sum of Mulliken charges =  -0.00000

 Dipole moment (field-independent basis, Debye):
    X=              0.0780    Y=             -0.4669    Z=              0.1080  Tot=              0.4855

 Test job not archived.
 1\1\GINC-SE177\SP\RHF\Aug-CC-pVDZ\C3H11N1O1Si2\OHZDE\09-Apr-2025\0\\#t
  hf aug-cc-pvdz iop(5/13=1,5/36=2,99/5=2) pseudo=read geom=check guess
 =(read,tcheck) scf=(maxcycle=1)\\title\\0,1\Si,0,2.267568,0.568232,-0.
 437211\Si,0,0.849482,-0.937652,0.697088\H,0,1.857158,0.686027,-1.85725
 8\H,0,3.667747,0.073776,-0.404993\H,0,2.235082,1.909022,0.189901\C,0,-
 0.899008,-0.980191,-0.062968\H,0,0.759003,-0.593254,2.135764\H,0,1.374
 579,-2.323325,0.592908\N,0,-1.589277,0.085661,-0.21324\O,0,-0.882521,1
 .212351,0.250824\C,0,-1.537136,-2.263506,-0.527819\H,0,-0.92508,-2.744

 Normal termination of Gaussian 16 at Wed Apr  9 00:13:34 2025.
