 Gaussian 16, Revision C.01,

 ----------------------------------------------------------------------
 #t hf aug-cc-pvdz symm=none int=(grid=ultrafine) guess=(read,tcheck) s
 table=(opt,rrhf)
 ----------------------------------------------------------------------
 -----
 title
 -----
 Symbolic Z-matrix:
 Charge =  0 Multiplicity = 1

 SCF Done:  E(RHF) =  -708.545470445     A.U. after   15 cycles
 Normal termination of Gaussian 16 at Tue Apr  8 23:45:18 2025.
 Gaussian 16:  ES64L-G16RevC.01  3-Jul-2019

 ----------------------------------------------------------------------
 #t hf aug-cc-pvdz iop(5/13=1,5/36=2,99/5=2) pseudo=read geom=check gue
 ss=(read,tcheck) scf=(maxcycle=1)
 ----------------------------------------------------------------------
 -----
 title
 -----
 Structure from the checkpoint file:  "BDE49_nonexpt_156_mol1.chk"
 Charge =  0 Multiplicity = 1

                         Standard orientation:
 ---------------------------------------------------------------------
 Center     Atomic      Atomic             Coordinates (Angstroms)
 Number     Number       Type             X           Y           Z
 ---------------------------------------------------------------------
      1          5           0        0.755234    1.412163   -0.345197
      2          5           0       -0.755244    1.412270    0.344742
      3          6           0       -1.987867    0.552364   -0.042490
      4          6           0       -3.227133    0.753517    0.599050
      5          6           0       -1.917655   -0.450439   -1.032846
      6          6           0       -3.028463   -1.216655   -1.368870
      7          6           0       -4.246574   -1.002925   -0.724552
      8          6           0       -4.321263   -0.017928    0.250440
      9          1           0       -0.976651   -0.629604   -1.541071
     10          1           0       -2.955939   -1.982678   -2.132282
     11          1           0       -5.129588   -1.582772   -0.964431
     12          6           0        1.987869    0.552407    0.042327
     13          6           0        3.227102    0.753280   -0.599364
     14          6           0        1.917700   -0.449980    1.033107
     15          6           0        3.028520   -1.216064    1.369394
     16          6           0        4.246599   -1.002614    0.724921
     17          6           0        4.321243   -0.018027   -0.250488
     18          1           0        0.976722   -0.628925    1.541457
     19          1           0        2.956031   -1.981766    2.133131
     20          1           0        5.129621   -1.582367    0.964996
     21          9           0       -5.502445    0.188357    0.876128
     22          9           0        5.502394    0.187986   -0.876326
     23          1           0       -3.336996    1.509949    1.366851
     24          1           0        3.336930    1.509390   -1.367487
     25          1           0       -0.934485    2.219231    1.220075
     26          1           0        0.934399    2.218676   -1.220959
 ---------------------------------------------------------------------

 SCF Done:  E(RHF) =  -709.243321353     A.U. after    2 cycles

 The electronic state is 1-A.
 Alpha  occ. eigenvalues --  -26.47862 -26.47862 -11.33958 -11.33957 -11.26799
 Alpha  occ. eigenvalues --  -11.26799 -11.26243 -11.26241 -11.26214 -11.26213
 Alpha  occ. eigenvalues --  -11.26073 -11.26071 -11.24007 -11.24006  -7.58256
 Alpha  occ. eigenvalues --   -7.58166  -1.60731  -1.60727  -1.16987  -1.16928
 Alpha  occ. eigenvalues --   -1.03976  -1.03959  -1.02936  -1.02657  -0.87700
 Alpha  occ. eigenvalues --   -0.86822  -0.85023  -0.85018  -0.77458  -0.75380
 Alpha  occ. eigenvalues --   -0.71433  -0.70252  -0.69970  -0.69797  -0.69580
 Alpha  occ. eigenvalues --   -0.67537  -0.67535  -0.64205  -0.63196  -0.63153
 Alpha  occ. eigenvalues --   -0.60077  -0.59961  -0.57878  -0.55368  -0.53897
 Alpha  occ. eigenvalues --   -0.53813  -0.52038  -0.52007  -0.48811  -0.48407
 Alpha  occ. eigenvalues --   -0.43090  -0.36886  -0.36883  -0.35512  -0.35328
 Alpha virt. eigenvalues --    0.02785   0.02872   0.03370   0.03412   0.03665
 Alpha virt. eigenvalues --    0.03866   0.04539   0.04977   0.05214   0.05716
 Alpha virt. eigenvalues --    0.06508   0.07078   0.07616   0.08085   0.09854

 Mulliken charges:
               1
     1  B   -0.356339
     2  B   -0.356248
     3  C   -0.100675
     4  C   -0.097882
     5  C    0.755808
     6  C    0.390312
     7  C    0.218914
     8  C    1.155223
     9  H   -0.366884
    10  H   -0.231089
    11  H   -0.188860
    12  C   -0.100655
    13  C   -0.097905
    14  C    0.755865
    15  C    0.390263
    16  C    0.218905
    17  C    1.155251
    18  H   -0.366896
    19  H   -0.231090
    20  H   -0.188858
    21  F   -0.997200
    22  F   -0.997201
    23  H   -0.288638
    24  H   -0.288628
    25  H    0.107234
    26  H    0.107276
 Sum of Mulliken charges =  -0.00000

 Dipole moment (field-independent basis, Debye):
    X=              0.0001    Y=             -1.7667    Z=              0.0005  Tot=              1.7667

 Test job not archived.
 1\1\GINC-SE393\SP\RHF\Aug-CC-pVDZ\C12H10B2F2\OHZDE\08-Apr-2025\0\\#t h
 f aug-cc-pvdz iop(5/13=1,5/36=2,99/5=2) pseudo=read geom=check guess=(
 read,tcheck) scf=(maxcycle=1)\\title\\0,1\B,0,-0.755234,1.412163,0.345
 197\B,0,0.755244,1.41227,-0.344742\C,0,1.987867,0.552364,0.04249\C,0,3
 .227133,0.753517,-0.59905\C,0,1.917655,-0.450439,1.032846\C,0,3.028463
 ,-1.216655,1.36887\C,0,4.246574,-1.002925,0.724552\C,0,4.321263,-0.017
 928,-0.25044\H,0,0.976651,-0.629604,1.541071\H,0,2.955939,-1.982678,2.
 132282\H,0,5.129588,-1.582772,0.964431\C,0,-1.987869,0.552407,-0.04232

 Normal termination of Gaussian 16 at Tue Apr  8 23:45:44 2025.
