 Gaussian 16, Revision C.01,

 ----------------------------------------------------------------------
 #t hf aug-cc-pvdz symm=none int=(grid=ultrafine) guess=(read,tcheck) s
 table=(opt,rrhf)
 ----------------------------------------------------------------------
 -----
 title
 -----
 Symbolic Z-matrix:
 Charge =  0 Multiplicity = 1

 SCF Done:  E(RHF) =  -844.962543359     A.U. after   12 cycles
 Normal termination of Gaussian 16 at Wed Apr  9 00:15:11 2025.
 Gaussian 16:  ES64L-G16RevC.01  3-Jul-2019

 ----------------------------------------------------------------------
 #t hf aug-cc-pvdz iop(5/13=1,5/36=2,99/5=2) pseudo=read geom=check gue
 ss=(read,tcheck) scf=(maxcycle=1)
 ----------------------------------------------------------------------
 -----
 title
 -----
 Structure from the checkpoint file:  "BDE49_nonexpt_2481_mol1.chk"
 Charge =  0 Multiplicity = 1

                         Standard orientation:
 ---------------------------------------------------------------------
 Center     Atomic      Atomic             Coordinates (Angstroms)
 Number     Number       Type             X           Y           Z
 ---------------------------------------------------------------------
      1          6           0        0.054433   -0.990964    0.803034
      2          6           0        1.233858   -0.016328    0.813081
      3          6           0        2.204758   -0.178767   -0.360850
      4          1           0        1.778335   -0.171978    1.754350
      5          1           0        0.861725    1.013857    0.843186
      6          6           0        3.380458    0.800096   -0.300154
      7          1           0        1.660090   -0.042672   -1.300089
      8          1           0        2.584473   -1.208005   -0.370798
      9          1           0        3.032521    1.837422   -0.324690
     10          1           0        4.057936    0.658460   -1.146228
     11          1           0        3.962894    0.668200    0.617239
     12         16           0       -1.128085   -0.794073   -0.616313
     13          1           0       -0.517242   -0.928598    1.730839
     14          1           0        0.408503   -2.020796    0.712118
     15         14           0       -2.359679    0.830045    0.069814
     16          1           0       -3.425154    0.971120   -0.944731
     17          1           0       -1.616544    2.107024    0.186068
     18          1           0       -2.943722    0.516280    1.395691
 ---------------------------------------------------------------------

 SCF Done:  E(RHF) =  -845.235993567     A.U. after    2 cycles

 The electronic state is 1-A.
 Alpha  occ. eigenvalues --  -93.93217 -69.55304 -11.27612 -11.23936 -11.22941
 Alpha  occ. eigenvalues --  -11.22527  -8.21500  -6.22159  -6.19291  -6.19160
 Alpha  occ. eigenvalues --   -6.18968  -3.97569  -3.97493  -3.97460  -1.09919
 Alpha  occ. eigenvalues --   -1.02961  -0.94685  -0.85530  -0.79827  -0.72553
 Alpha  occ. eigenvalues --   -0.64885  -0.62037  -0.60224  -0.57038  -0.54216
 Alpha  occ. eigenvalues --   -0.51280  -0.50638  -0.49646  -0.48435  -0.48075
 Alpha  occ. eigenvalues --   -0.46309  -0.42324  -0.36030
 Alpha virt. eigenvalues --    0.03388   0.03618   0.03851   0.04167   0.05519
 Alpha virt. eigenvalues --    0.06011   0.06077   0.06613   0.07660   0.08546
 Alpha virt. eigenvalues --    0.08940   0.09286   0.10319   0.10735   0.11817

 Mulliken charges:
               1
     1  C   -0.367964
     2  C   -0.266228
     3  C   -0.425976
     4  H    0.141973
     5  H    0.117593
     6  C   -0.387849
     7  H    0.173428
     8  H    0.122517
     9  H    0.159408
    10  H    0.116147
    11  H    0.167461
    12  S   -0.272563
    13  H    0.049393
    14  H    0.229122
    15  Si   0.934176
    16  H   -0.192744
    17  H   -0.140931
    18  H   -0.156962
 Sum of Mulliken charges =  -0.00000

 Dipole moment (field-independent basis, Debye):
    X=              0.8642    Y=              0.4547    Z=              1.4206  Tot=              1.7238

 Test job not archived.
 1\1\GINC-SE404\SP\RHF\Aug-CC-pVDZ\C4H12S1Si1\OHZDE\09-Apr-2025\0\\#t h
 f aug-cc-pvdz iop(5/13=1,5/36=2,99/5=2) pseudo=read geom=check guess=(
 read,tcheck) scf=(maxcycle=1)\\title\\0,1\C,0,0.054433,-0.990964,0.803
 034\C,0,1.233858,-0.016328,0.813081\C,0,2.204758,-0.178767,-0.36085\H,
 0,1.778335,-0.171978,1.75435\H,0,0.861725,1.013857,0.843186\C,0,3.3804
 58,0.800096,-0.300154\H,0,1.66009,-0.042672,-1.300089\H,0,2.584473,-1.
 208005,-0.370798\H,0,3.032521,1.837422,-0.32469\H,0,4.057936,0.65846,-
 1.146228\H,0,3.962894,0.6682,0.617239\S,0,-1.128085,-0.794073,-0.61631

 Normal termination of Gaussian 16 at Wed Apr  9 00:15:18 2025.
