 Gaussian 16, Revision C.01,

 ----------------------------------------------------------------------
 #t hf aug-cc-pvdz symm=none int=(grid=ultrafine) guess=(read,tcheck) s
 table=(opt,rrhf)
 ----------------------------------------------------------------------
 -----
 title
 -----
 Symbolic Z-matrix:
 Charge =  0 Multiplicity = 1

 SCF Done:  E(RHF) =  -788.221230930     A.U. after   13 cycles
 Normal termination of Gaussian 16 at Wed Apr  9 00:12:00 2025.
 Gaussian 16:  ES64L-G16RevC.01  3-Jul-2019

 ----------------------------------------------------------------------
 #t hf aug-cc-pvdz iop(5/13=1,5/36=2,99/5=2) pseudo=read geom=check gue
 ss=(read,tcheck) scf=(maxcycle=1)
 ----------------------------------------------------------------------
 -----
 title
 -----
 Structure from the checkpoint file:  "BDE49_nonexpt_2388_mol1.chk"
 Charge =  0 Multiplicity = 1

                         Standard orientation:
 ---------------------------------------------------------------------
 Center     Atomic      Atomic             Coordinates (Angstroms)
 Number     Number       Type             X           Y           Z
 ---------------------------------------------------------------------
      1         14           0       -2.136438   -0.778166   -0.256061
      2         14           0       -0.849461    1.136853    0.221710
      3          1           0       -1.564533   -1.495642   -1.419898
      4          1           0       -3.515272   -0.352784   -0.615087
      5          1           0       -2.218151   -1.681573    0.910667
      6          7           0        0.845608    0.926744   -0.253239
      7          1           0       -0.940808    1.498023    1.656399
      8          1           0       -1.273783    2.315856   -0.573424
      9          6           0        1.507222   -0.220165    0.106184
     10          8           0        0.931022   -1.084260    0.751336
     11          1           0        1.349721    1.620387   -0.787121
     12          6           0        2.944376   -0.365135   -0.355373
     13          1           0        2.963978   -0.612828   -1.420980
     14          1           0        3.414718   -1.173537    0.200665
     15          1           0        3.509709    0.559146   -0.213184
 ---------------------------------------------------------------------

 SCF Done:  E(RHF) =  -788.502135353     A.U. after    2 cycles

 The electronic state is 1-A.
 Alpha  occ. eigenvalues --  -69.54978 -69.51924 -20.52019 -15.51665 -11.36912
 Alpha  occ. eigenvalues --  -11.25559  -6.21807  -6.19081  -3.97208  -3.97125
 Alpha  occ. eigenvalues --   -3.97085  -3.94439  -3.94433  -3.94424  -1.46787
 Alpha  occ. eigenvalues --   -1.21426  -1.01500  -0.83281  -0.78778  -0.72498
 Alpha  occ. eigenvalues --   -0.69329  -0.63718  -0.62991  -0.58803  -0.56107
 Alpha  occ. eigenvalues --   -0.55160  -0.50075  -0.48197  -0.47239  -0.44969
 Alpha  occ. eigenvalues --   -0.43392  -0.39956
 Alpha virt. eigenvalues --    0.02747   0.04170   0.04459   0.04809   0.05223
 Alpha virt. eigenvalues --    0.06077   0.06684   0.07152   0.07407   0.08876
 Alpha virt. eigenvalues --    0.09686   0.09758   0.10459   0.11122   0.11506

 Mulliken charges:
               1
     1  Si   0.160480
     2  Si   0.525069
     3  H   -0.060944
     4  H   -0.154303
     5  H   -0.046218
     6  N    0.521771
     7  H   -0.088147
     8  H   -0.095586
     9  C    0.398230
    10  O   -1.215907
    11  H   -0.099944
    12  C   -0.431292
    13  H    0.252951
    14  H    0.157948
    15  H    0.175890
 Sum of Mulliken charges =  -0.00000

 Dipole moment (field-independent basis, Debye):
    X=              2.0201    Y=              2.2098    Z=             -1.7978  Tot=              3.4923

 Test job not archived.
 1\1\GINC-SE424\SP\RHF\Aug-CC-pVDZ\C2H9N1O1Si2\OHZDE\09-Apr-2025\0\\#t
 hf aug-cc-pvdz iop(5/13=1,5/36=2,99/5=2) pseudo=read geom=check guess=
 (read,tcheck) scf=(maxcycle=1)\\title\\0,1\Si,0,-2.136438,-0.778166,-0
 .256061\Si,0,-0.849461,1.136853,0.22171\H,0,-1.564533,-1.495642,-1.419
 898\H,0,-3.515272,-0.352784,-0.615087\H,0,-2.218151,-1.681573,0.910667
 \N,0,0.845608,0.926744,-0.253239\H,0,-0.940808,1.498023,1.656399\H,0,-
 1.273783,2.315856,-0.573424\C,0,1.507222,-0.220165,0.106184\O,0,0.9310
 22,-1.08426,0.751336\H,0,1.349721,1.620387,-0.787121\C,0,2.944376,-0.3

 Normal termination of Gaussian 16 at Wed Apr  9 00:12:06 2025.
