 Gaussian 16, Revision C.01,

 ----------------------------------------------------------------------
 #t hf aug-cc-pvdz symm=none int=(grid=ultrafine) guess=(read,tcheck) s
 table=(opt,rrhf)
 ----------------------------------------------------------------------
 -----
 title
 -----
 Symbolic Z-matrix:
 Charge =  0 Multiplicity = 1

 SCF Done:  E(RHF) =  -1454.79816377     A.U. after   13 cycles

 1\1\GINC-SE195\Stability\RHF\Aug-CC-pVDZ\C2H1Cl3\OHZDE\08-Apr-2025\0\\
 #t hf aug-cc-pvdz symm=none int=(grid=ultrafine) guess=(read,tcheck) s
 table=(opt,rrhf)\\title\\0,1\C,0,0.642036,-0.906119,-0.000004\C,0,-0.4
 25313,-0.109464,-0.000006\Cl,0,2.274137,-0.342974,0.000001\H,0,0.53631
 5,-1.980635,-0.000001\Cl,0,-0.359334,1.614587,0.\Cl,0,-2.022841,-0.796
 665,0.000002\\Version=ES64L-G16RevC.01\HF=-1454.7981638\RMSD=4.254e-09
 \Dipole=-0.0120895,-0.4162891,0.0000008\Quadrupole=-1.0660036,2.228230
 1,-1.1622265,0.0524625,-0.0000007,0.0000001\PG=Unknown\\@

 Normal termination of Gaussian 16 at Tue Apr  8 22:47:30 2025.
 Gaussian 16:  ES64L-G16RevC.01  3-Jul-2019

 ----------------------------------------------------------------------
 #t hf aug-cc-pvdz iop(5/13=1,5/36=2,99/5=2) pseudo=read geom=check gue
 ss=(read,tcheck) scf=(maxcycle=1)
 ----------------------------------------------------------------------
 -----
 title
 -----
 Structure from the checkpoint file:  "BDE49_expt_1626_mol1.chk"
 Charge =  0 Multiplicity = 1

                         Standard orientation:
 ---------------------------------------------------------------------
 Center     Atomic      Atomic             Coordinates (Angstroms)
 Number     Number       Type             X           Y           Z
 ---------------------------------------------------------------------
      1          6           0       -0.642036   -0.906119    0.000004
      2          6           0        0.425313   -0.109464    0.000006
      3         17           0       -2.274137   -0.342974   -0.000001
      4          1           0       -0.536315   -1.980635    0.000001
      5         17           0        0.359334    1.614587   -0.000000
      6         17           0        2.022841   -0.796665   -0.000002
 ---------------------------------------------------------------------

 SCF Done:  E(RHF) =  -1455.10113961     A.U. after    2 cycles

 The electronic state is 1-A.
 Alpha  occ. eigenvalues -- -105.60610-105.60523-105.59780 -11.38966 -11.33965
 Alpha  occ. eigenvalues --  -10.65406 -10.65342 -10.64585  -7.82374  -7.82314
 Alpha  occ. eigenvalues --   -7.81938  -7.81919  -7.81864  -7.81858  -7.81554
 Alpha  occ. eigenvalues --   -7.81120  -7.81119  -1.21714  -1.12536  -1.08241
 Alpha  occ. eigenvalues --   -0.98388  -0.78180  -0.69496  -0.66095  -0.60062
 Alpha  occ. eigenvalues --   -0.57947  -0.52114  -0.51411  -0.49844  -0.49193
 Alpha  occ. eigenvalues --   -0.47311  -0.37991
 Alpha virt. eigenvalues --    0.03899   0.07092   0.07204   0.08436   0.09176
 Alpha virt. eigenvalues --    0.10861   0.12797   0.13639   0.14303   0.14649
 Alpha virt. eigenvalues --    0.15364   0.15864   0.16632   0.17977   0.18423

 Mulliken charges:
               1
     1  C    0.170127
     2  C    0.075608
     3  Cl  -0.101643
     4  H    0.033781
     5  Cl  -0.048412
     6  Cl  -0.129461
 Sum of Mulliken charges =  -0.00000

 Dipole moment (field-independent basis, Debye):
    X=              0.0299    Y=             -1.0547    Z=             -0.0000  Tot=              1.0551

 Test job not archived.
 1\1\GINC-SE195\SP\RHF\Aug-CC-pVDZ\C2H1Cl3\OHZDE\08-Apr-2025\0\\#t hf a
 ug-cc-pvdz iop(5/13=1,5/36=2,99/5=2) pseudo=read geom=check guess=(rea
 d,tcheck) scf=(maxcycle=1)\\title\\0,1\C,0,0.642036,-0.906119,-0.00000
 4\C,0,-0.425313,-0.109464,-0.000006\Cl,0,2.274137,-0.342974,0.000001\H
 ,0,0.536315,-1.980635,-0.000001\Cl,0,-0.359334,1.614587,0.\Cl,0,-2.022
 841,-0.796665,0.000002\\Version=ES64L-G16RevC.01\State=1-A\HF=-1455.10
 11396\RMSD=8.697e-03\Dipole=-0.0117662,-0.4149419,0.0000008\Quadrupole
 =-0.9738867,2.2686497,-1.294763,0.0596209,-0.0000006,0.\PG=C01 [X(C2H1

 Normal termination of Gaussian 16 at Tue Apr  8 22:47:32 2025.
