 Gaussian 16, Revision C.01,

 ----------------------------------------------------------------------
 #t hf aug-cc-pvdz symm=none int=(grid=ultrafine) guess=(read,tcheck) s
 table=opt
 ----------------------------------------------------------------------
 -----
 title
 -----
 Symbolic Z-matrix:
 Charge =  0 Multiplicity = 2

 SCF Done:  E(UHF) =  -437.127920326     A.U. after   15 cycles
 Normal termination of Gaussian 16 at Tue Apr  8 22:45:27 2025.
 Gaussian 16:  ES64L-G16RevC.01  3-Jul-2019

 ----------------------------------------------------------------------
 #t hf aug-cc-pvdz iop(5/13=1,5/36=2,99/5=2) pseudo=read geom=check gue
 ss=(read,tcheck) scf=(maxcycle=1)
 ----------------------------------------------------------------------
 -----
 title
 -----
 Structure from the checkpoint file:  "BDE49_expt_1561_mol2.chk"
 Charge =  0 Multiplicity = 2

                         Standard orientation:
 ---------------------------------------------------------------------
 Center     Atomic      Atomic             Coordinates (Angstroms)
 Number     Number       Type             X           Y           Z
 ---------------------------------------------------------------------
      1         16           0       -0.694478    0.000001   -0.001970
      2          6           0        1.111007    0.000004   -0.008869
      3          1           0        1.510907    0.899423   -0.478681
      4          1           0        1.510888   -0.899275   -0.478969
      5          1           0        1.423805   -0.000180    1.042379
 ---------------------------------------------------------------------

 SCF Done:  E(UHF) =  -437.227217036     A.U. after    2 cycles

 The electronic state is 2-A.
 Alpha  occ. eigenvalues --  -93.96735 -11.27492  -8.24796  -6.23976  -6.22213
 Alpha  occ. eigenvalues --   -6.21890  -1.07271  -0.87864  -0.61336  -0.60759
 Alpha  occ. eigenvalues --   -0.50898  -0.43659  -0.37857
 Alpha virt. eigenvalues --    0.03525   0.05490   0.05532   0.07147   0.12271
 Alpha virt. eigenvalues --    0.13322   0.14125   0.14984   0.15919   0.15941
 Alpha virt. eigenvalues --    0.23929   0.26022   0.26446   0.26634   0.32886

  Beta  occ. eigenvalues --  -93.95840 -11.27620  -8.23767  -6.21693  -6.21351
  Beta  occ. eigenvalues --   -6.19997  -1.03210  -0.81965  -0.60528  -0.58854
  Beta  occ. eigenvalues --   -0.49384  -0.35638
  Beta virt. eigenvalues --    0.00866   0.03565   0.05540   0.05691   0.07327
  Beta virt. eigenvalues --    0.12426   0.14237   0.14611   0.16018   0.16199
  Beta virt. eigenvalues --    0.16379   0.24821   0.26695   0.26823   0.27570

 Mulliken charges and spin densities:
               1          2
     1  S    0.170384   1.084536
     2  C   -0.712910  -0.113627
     3  H    0.174755   0.003060
     4  H    0.174761   0.003064
     5  H    0.193011   0.022967
 Sum of Mulliken charges =   0.00000   1.00000

 Dipole moment (field-independent basis, Debye):
    X=              1.7772    Y=             -0.0000    Z=              0.0409  Tot=              1.7777
                          Isotropic Fermi Contact Couplings
        Atom                 a.u.       MegaHertz       Gauss      10(-4) cm-1
     1  S(33)              0.18367      63.08732      22.51113      21.04367
     2  C(13)             -0.02534     -28.48268     -10.16333      -9.50080
     3  H(1)               0.00399      17.83367       6.36350       5.94867
     4  H(1)               0.00399      17.84596       6.36788       5.95277
     5  H(1)               0.01717      76.72609      27.37778      25.59307
 --------------------------------------------------------
       Center         ----  Spin Dipole Couplings  ----
                      3XX-RR        3YY-RR        3ZZ-RR

 Normal termination of Gaussian 16 at Tue Apr  8 22:45:28 2025.
