 Gaussian 16, Revision C.01,

 ----------------------------------------------------------------------
 #t hf aug-cc-pvdz symm=none int=(grid=ultrafine) guess=(read,tcheck) s
 table=(opt,rrhf)
 ----------------------------------------------------------------------
 -----
 title
 -----
 Symbolic Z-matrix:
 Charge =  0 Multiplicity = 1

 SCF Done:  E(RHF) =  -743.089376929     A.U. after   16 cycles
 Normal termination of Gaussian 16 at Wed Apr  9 00:23:54 2025.
 Gaussian 16:  ES64L-G16RevC.01  3-Jul-2019

 ----------------------------------------------------------------------
 #t hf aug-cc-pvdz iop(5/13=1,5/36=2,99/5=2) pseudo=read geom=check gue
 ss=(read,tcheck) scf=(maxcycle=1)
 ----------------------------------------------------------------------
 -----
 title
 -----
 Structure from the checkpoint file:  "BDE49_nonexpt_2691_mol1.chk"
 Charge =  0 Multiplicity = 1

                         Standard orientation:
 ---------------------------------------------------------------------
 Center     Atomic      Atomic             Coordinates (Angstroms)
 Number     Number       Type             X           Y           Z
 ---------------------------------------------------------------------
      1          9           0       -2.470964    0.367092    0.950855
      2         16           0       -1.873360   -0.229556   -0.509278
      3          6           0       -0.142929   -0.073752   -0.216365
      4          6           0        0.499900    1.170121   -0.252261
      5          6           0        0.631624   -1.216895    0.027179
      6          7           0        1.952553   -1.184998    0.207619
      7          6           0        1.869535    1.212808   -0.036237
      8          6           0        2.547068    0.011402    0.180193
      9          1           0       -0.072371    2.070196   -0.441660
     10          1           0        2.410520    2.151346   -0.046766
     11          1           0        0.153688   -2.190706    0.070082
     12          1           0        3.621537    0.011113    0.340698
 ---------------------------------------------------------------------

 SCF Done:  E(RHF) =  -743.485461350     A.U. after    2 cycles

 The electronic state is 1-A.
 Alpha  occ. eigenvalues --  -94.04225 -26.46383 -15.52635 -11.31184 -11.31088
 Alpha  occ. eigenvalues --  -11.29625 -11.29356 -11.27063  -8.31454  -6.29248
 Alpha  occ. eigenvalues --   -6.28972  -6.28685  -1.56016  -1.28468  -1.13473
 Alpha  occ. eigenvalues --   -1.08178  -0.98933  -0.89942  -0.87113  -0.75365
 Alpha  occ. eigenvalues --   -0.72245  -0.68276  -0.64662  -0.64280  -0.64024
 Alpha  occ. eigenvalues --   -0.61991  -0.58760  -0.58113  -0.51417  -0.47280
 Alpha  occ. eigenvalues --   -0.43380  -0.39843  -0.37684
 Alpha virt. eigenvalues --    0.02884   0.03583   0.04000   0.04678   0.05481
 Alpha virt. eigenvalues --    0.06950   0.07401   0.08374   0.10145   0.10574
 Alpha virt. eigenvalues --    0.11345   0.12068   0.12347   0.13828   0.14589

 Mulliken charges:
               1
     1  F   -0.655740
     2  S    0.785640
     3  C    0.343369
     4  C    0.299245
     5  C   -0.702617
     6  N    0.868229
     7  C    0.529592
     8  C   -0.856081
     9  H   -0.134920
    10  H   -0.167588
    11  H   -0.155061
    12  H   -0.154067
 Sum of Mulliken charges =  -0.00000

 Dipole moment (field-independent basis, Debye):
    X=              1.7600    Y=              2.0184    Z=             -1.1315  Tot=              2.9072

 Test job not archived.
 1\1\GINC-SE404\SP\RHF\Aug-CC-pVDZ\C5H4F1N1S1\OHZDE\09-Apr-2025\0\\#t h
 f aug-cc-pvdz iop(5/13=1,5/36=2,99/5=2) pseudo=read geom=check guess=(
 read,tcheck) scf=(maxcycle=1)\\title\\0,1\F,0,-2.470964,0.367092,0.950
 855\S,0,-1.87336,-0.229556,-0.509278\C,0,-0.142929,-0.073752,-0.216365
 \C,0,0.4999,1.170121,-0.252261\C,0,0.631624,-1.216895,0.027179\N,0,1.9
 52553,-1.184998,0.207619\C,0,1.869535,1.212808,-0.036237\C,0,2.547068,
 0.011402,0.180193\H,0,-0.072371,2.070196,-0.44166\H,0,2.41052,2.151346
 ,-0.046766\H,0,0.153688,-2.190706,0.070082\H,0,3.621537,0.011113,0.340

 Normal termination of Gaussian 16 at Wed Apr  9 00:24:00 2025.
