 Gaussian 16, Revision C.01,

 ----------------------------------------------------------------------
 #t hf aug-cc-pvdz symm=none int=(grid=ultrafine) guess=(read,tcheck) s
 table=(opt,rrhf)
 ----------------------------------------------------------------------
 -----
 title
 -----
 Symbolic Z-matrix:
 Charge =  0 Multiplicity = 1

 SCF Done:  E(RHF) =  -1294.18062312     A.U. after   15 cycles
 Normal termination of Gaussian 16 at Tue Apr  8 22:59:38 2025.
 Gaussian 16:  ES64L-G16RevC.01  3-Jul-2019

 ----------------------------------------------------------------------
 #t hf aug-cc-pvdz iop(5/13=1,5/36=2,99/5=2) pseudo=read geom=check gue
 ss=(read,tcheck) scf=(maxcycle=1)
 ----------------------------------------------------------------------
 -----
 title
 -----
 Structure from the checkpoint file:  "BDE49_expt_1979_mol1.chk"
 Charge =  0 Multiplicity = 1

                         Standard orientation:
 ---------------------------------------------------------------------
 Center     Atomic      Atomic             Coordinates (Angstroms)
 Number     Number       Type             X           Y           Z
 ---------------------------------------------------------------------
      1         16           0       -1.276677   -0.352753   -0.556482
      2         16           0        0.413647   -0.830811    0.445689
      3         17           0        1.919967    0.549342   -0.160007
      4          6           0       -2.037991    0.980976    0.440991
      5          1           0       -3.006706    1.183967   -0.021206
      6          1           0       -1.418240    1.875291    0.398850
      7          1           0       -2.178056    0.653095    1.469216
 ---------------------------------------------------------------------

 SCF Done:  E(RHF) =  -1294.42302409     A.U. after    2 cycles

 The electronic state is 1-A.
 Alpha  occ. eigenvalues -- -105.58025 -94.03800 -94.00112 -11.28924 -10.62693
 Alpha  occ. eigenvalues --   -8.31361  -8.28109  -7.79619  -7.79190  -7.79161
 Alpha  occ. eigenvalues --   -6.29099  -6.28886  -6.28560  -6.25910  -6.25665
 Alpha  occ. eigenvalues --   -6.25470  -1.15174  -1.06423  -0.96729  -0.83825
 Alpha  occ. eigenvalues --   -0.62844  -0.62338  -0.58126  -0.54305  -0.52480
 Alpha  occ. eigenvalues --   -0.49203  -0.45036  -0.39612  -0.38118
 Alpha virt. eigenvalues --    0.03259   0.03290   0.05114   0.05719   0.07413
 Alpha virt. eigenvalues --    0.07785   0.11557   0.12060   0.13207   0.13450
 Alpha virt. eigenvalues --    0.14301   0.14509   0.16194   0.16515   0.16785

 Mulliken charges:
               1
     1  S    0.155768
     2  S    0.207657
     3  Cl  -0.280122
     4  C   -0.708883
     5  H    0.190719
     6  H    0.219896
     7  H    0.214965
 Sum of Mulliken charges =  -0.00000

 Dipole moment (field-independent basis, Debye):
    X=             -2.5718    Y=              0.8415    Z=              0.8634  Tot=              2.8404

 Test job not archived.
 1\1\GINC-SE072\SP\RHF\Aug-CC-pVDZ\C1H3Cl1S2\OHZDE\08-Apr-2025\0\\#t hf
  aug-cc-pvdz iop(5/13=1,5/36=2,99/5=2) pseudo=read geom=check guess=(r
 ead,tcheck) scf=(maxcycle=1)\\title\\0,1\S,0,-1.276677,-0.352753,-0.55
 6482\S,0,0.413647,-0.830811,0.445689\Cl,0,1.919967,0.549342,-0.160007\
 C,0,-2.037991,0.980976,0.440991\H,0,-3.006706,1.183967,-0.021206\H,0,-
 1.41824,1.875291,0.39885\H,0,-2.178056,0.653095,1.469216\\Version=ES64
 L-G16RevC.01\State=1-A\HF=-1294.4230241\RMSD=4.106e-03\Dipole=-1.01182
 19,0.3310526,0.3397074\Quadrupole=1.4087504,-0.0883509,-1.3203995,-2.1

 Normal termination of Gaussian 16 at Tue Apr  8 22:59:40 2025.
