 Gaussian 16, Revision C.01,

 ----------------------------------------------------------------------
 #t hf aug-cc-pvdz symm=none int=(grid=ultrafine) guess=(read,tcheck) s
 table=(opt,rrhf)
 ----------------------------------------------------------------------
 -----
 title
 -----
 Symbolic Z-matrix:
 Charge =  0 Multiplicity = 1

 SCF Done:  E(RHF) =  -744.020048183     A.U. after   14 cycles
 Normal termination of Gaussian 16 at Tue Apr  8 23:54:25 2025.
 Gaussian 16:  ES64L-G16RevC.01  3-Jul-2019

 ----------------------------------------------------------------------
 #t hf aug-cc-pvdz iop(5/13=1,5/36=2,99/5=2) pseudo=read geom=check gue
 ss=(read,tcheck) scf=(maxcycle=1)
 ----------------------------------------------------------------------
 -----
 title
 -----
 Structure from the checkpoint file:  "BDE49_nonexpt_1909_mol1.chk"
 Charge =  0 Multiplicity = 1

                         Standard orientation:
 ---------------------------------------------------------------------
 Center     Atomic      Atomic             Coordinates (Angstroms)
 Number     Number       Type             X           Y           Z
 ---------------------------------------------------------------------
      1         14           0       -0.157461   -0.871728    0.002895
      2          6           0        0.505447    0.784157   -0.677193
      3          7           0        1.931743    0.998721   -0.450572
      4          6           0        2.703038    0.016749    0.054976
      5          8           0        2.216107   -1.081216    0.338220
      6          1           0        2.344287    1.892658   -0.666526
      7          7           0       -1.913049   -0.713795   -0.373427
      8          1           0       -0.102574   -1.026054    1.463496
      9          1           0        0.123832   -2.079844   -0.793168
     10          6           0       -2.727713    0.238067    0.177268
     11          8           0       -2.286229    1.139144    0.877936
     12          1           0       -2.369692   -1.418660   -0.934986
     13          6           0        4.169834    0.306997    0.266214
     14          1           0        4.464656    1.306071   -0.059401
     15          1           0        4.755437   -0.436797   -0.277085
     16          1           0        4.398983    0.193070    1.327627
     17          6           0       -4.218866    0.105651   -0.099996
     18          1           0       -4.424532   -0.271202   -1.104996
     19          1           0       -4.691112    1.077756    0.032600
     20          1           0       -4.658548   -0.591453    0.619908
     21          1           0       -0.078919    1.566185   -0.187027
     22          1           0        0.282320    0.824830   -1.749856
 ---------------------------------------------------------------------

 SCF Done:  E(RHF) =  -744.518173810     A.U. after    2 cycles

 The electronic state is 1-A.
 Alpha  occ. eigenvalues --  -69.53844 -20.52222 -20.49612 -15.54109 -15.48762
 Alpha  occ. eigenvalues --  -11.37223 -11.34674 -11.25984 -11.25254 -11.23902
 Alpha  occ. eigenvalues --   -6.20265  -3.95698  -3.95604  -3.95572  -1.47293
 Alpha  occ. eigenvalues --   -1.44288  -1.24989  -1.18910  -1.03579  -0.99452
 Alpha  occ. eigenvalues --   -0.94690  -0.83586  -0.80646  -0.74853  -0.72631
 Alpha  occ. eigenvalues --   -0.68118  -0.66872  -0.66002  -0.61711  -0.60730
 Alpha  occ. eigenvalues --   -0.60170  -0.59847  -0.57672  -0.56873  -0.53437
 Alpha  occ. eigenvalues --   -0.52974  -0.52643  -0.48082  -0.46989  -0.44002
 Alpha  occ. eigenvalues --   -0.42129  -0.40741  -0.40584
 Alpha virt. eigenvalues --    0.02803   0.03519   0.04368   0.04854   0.05106
 Alpha virt. eigenvalues --    0.05341   0.05431   0.06469   0.06878   0.07414
 Alpha virt. eigenvalues --    0.07553   0.08575   0.10156   0.11038   0.12120

 Mulliken charges:
               1
     1  Si   0.785193
     2  C   -0.912922
     3  N    0.726807
     4  C    0.620548
     5  O   -1.364340
     6  H    0.099904
     7  N    0.575501
     8  H   -0.050847
     9  H   -0.025903
    10  C    0.425567
    11  O   -1.343658
    12  H   -0.093095
    13  C   -0.338161
    14  H    0.109164
    15  H    0.240499
    16  H    0.243760
    17  C   -0.503429
    18  H    0.148603
    19  H    0.167280
    20  H    0.258331
    21  H    0.115867
    22  H    0.115331
 Sum of Mulliken charges =   0.00000

 Dipole moment (field-independent basis, Debye):
    X=              1.8628    Y=              0.9103    Z=             -2.8170  Tot=              3.4977

 Test job not archived.
 1\1\GINC-SE099\SP\RHF\Aug-CC-pVDZ\C5H12N2O2Si1\OHZDE\08-Apr-2025\0\\#t
  hf aug-cc-pvdz iop(5/13=1,5/36=2,99/5=2) pseudo=read geom=check guess
 =(read,tcheck) scf=(maxcycle=1)\\title\\0,1\Si,0,-0.157461,-0.871728,0
 .002895\C,0,0.505447,0.784157,-0.677193\N,0,1.931743,0.998721,-0.45057
 2\C,0,2.703038,0.016749,0.054976\O,0,2.216107,-1.081216,0.33822\H,0,2.
 344287,1.892658,-0.666526\N,0,-1.913049,-0.713795,-0.373427\H,0,-0.102
 574,-1.026054,1.463496\H,0,0.123832,-2.079844,-0.793168\C,0,-2.727713,
 0.238067,0.177268\O,0,-2.286229,1.139144,0.877936\H,0,-2.369692,-1.418

 Normal termination of Gaussian 16 at Tue Apr  8 23:54:39 2025.
