 Gaussian 16, Revision C.01,

 ----------------------------------------------------------------------
 #t hf aug-cc-pvdz symm=none int=(grid=ultrafine) guess=(read,tcheck) s
 table=(opt,rrhf)
 ----------------------------------------------------------------------
 -----
 title
 -----
 Symbolic Z-matrix:
 Charge =  0 Multiplicity = 1

 SCF Done:  E(RHF) =  -76.8857373650     A.U. after   11 cycles
 Normal termination of Gaussian 16 at Tue Apr  8 23:31:59 2025.
 Gaussian 16:  ES64L-G16RevC.01  3-Jul-2019

 ----------------------------------------------------------------------
 #t hf aug-cc-pvdz iop(5/13=1,5/36=2,99/5=2) pseudo=read geom=check gue
 ss=(read,tcheck) scf=(maxcycle=1)
 ----------------------------------------------------------------------
 -----
 title
 -----
 Structure from the checkpoint file:  "BDE49_nonexpt_142_mol1.chk"
 Charge =  0 Multiplicity = 1

                         Standard orientation:
 ---------------------------------------------------------------------
 Center     Atomic      Atomic             Coordinates (Angstroms)
 Number     Number       Type             X           Y           Z
 ---------------------------------------------------------------------
      1          5           0       -1.476457   -0.214413    0.000009
      2          5           0       -0.000000    0.469061   -0.000033
      3          5           0        1.476458   -0.214410    0.000019
      4          1           0        2.048263   -0.469315    1.018517
      5          1           0        2.048322   -0.469348   -1.018436
      6          1           0        0.000004    1.676122   -0.000107
      7          1           0       -2.048265   -0.469457   -1.018452
      8          1           0       -2.048329   -0.469189    1.018501
 ---------------------------------------------------------------------

 SCF Done:  E(RHF) =  -76.9683322137     A.U. after    2 cycles

 The electronic state is 1-A.
 Alpha  occ. eigenvalues --   -7.58656  -7.58603  -7.56289  -0.78498  -0.70050
 Alpha  occ. eigenvalues --   -0.60370  -0.50698  -0.48914  -0.46048  -0.42824
 Alpha virt. eigenvalues --    0.02770   0.03467   0.03863   0.04551   0.05186
 Alpha virt. eigenvalues --    0.06111   0.06527   0.06601   0.07787   0.09714
 Alpha virt. eigenvalues --    0.09867   0.11141   0.11391   0.11797   0.11800

 Mulliken charges:
               1
     1  B   -0.646324
     2  B   -0.059233
     3  B   -0.646321
     4  H    0.302694
     5  H    0.302680
     6  H    0.141126
     7  H    0.302696
     8  H    0.302682
 Sum of Mulliken charges =  -0.00000

 Dipole moment (field-independent basis, Debye):
    X=              0.0000    Y=              0.1059    Z=             -0.0000  Tot=              0.1059

 Test job not archived.
 1\1\GINC-SE069\SP\RHF\Aug-CC-pVDZ\B3H5\OHZDE\08-Apr-2025\0\\#t hf aug-
 cc-pvdz iop(5/13=1,5/36=2,99/5=2) pseudo=read geom=check guess=(read,t
 check) scf=(maxcycle=1)\\title\\0,1\B,0,-1.476457,-0.214413,0.000009\B
 ,0,0.,0.469061,-0.000033\B,0,1.476458,-0.21441,0.000019\H,0,2.048263,-
 0.469315,1.018517\H,0,2.048322,-0.469348,-1.018436\H,0,0.000004,1.6761
 22,-0.000107\H,0,-2.048265,-0.469457,-1.018452\H,0,-2.048329,-0.469189
 ,1.018501\\Version=ES64L-G16RevC.01\State=1-A\HF=-76.9683322\RMSD=2.57
 4e-02\Dipole=0.0000025,0.0416629,-0.0000052\Quadrupole=-1.2850757,1.19

 Normal termination of Gaussian 16 at Tue Apr  8 23:32:01 2025.
