 Gaussian 16, Revision C.01,

 ----------------------------------------------------------------------
 #t hf aug-cc-pvdz symm=none int=(grid=ultrafine) guess=(read,tcheck) s
 table=opt
 ----------------------------------------------------------------------
 -----
 title
 -----
 Symbolic Z-matrix:
 Charge =  0 Multiplicity = 2

 SCF Done:  E(UHF) =  -510.828158725     A.U. after   19 cycles
 Normal termination of Gaussian 16 at Tue Apr  8 23:17:48 2025.
 Gaussian 16:  ES64L-G16RevC.01  3-Jul-2019

 ----------------------------------------------------------------------
 #t hf aug-cc-pvdz iop(5/13=1,5/36=2,99/5=2) pseudo=read geom=check gue
 ss=(read,tcheck) scf=(maxcycle=1)
 ----------------------------------------------------------------------
 -----
 title
 -----
 Structure from the checkpoint file:  "BDE49_nonexpt_1058_mol2.chk"
 Charge =  0 Multiplicity = 2

                         Standard orientation:
 ---------------------------------------------------------------------
 Center     Atomic      Atomic             Coordinates (Angstroms)
 Number     Number       Type             X           Y           Z
 ---------------------------------------------------------------------
      1          8           0       -1.516948   -0.364107   -0.000000
      2          6           0       -0.636897    0.456783   -0.000000
      3         16           0        1.047044   -0.086015   -0.000000
      4          1           0       -0.795737    1.548401    0.000001
 ---------------------------------------------------------------------

 SCF Done:  E(UHF) =  -510.988791035     A.U. after    2 cycles

 The electronic state is 2-A.
 Alpha  occ. eigenvalues --  -94.00962 -20.57349 -11.39595  -8.29179  -6.28352
 Alpha  occ. eigenvalues --   -6.26546  -6.26262  -1.50992  -1.08826  -0.83987
 Alpha  occ. eigenvalues --   -0.69882  -0.63638  -0.57829  -0.49146  -0.43953
 Alpha  occ. eigenvalues --   -0.42320
 Alpha virt. eigenvalues --    0.03397   0.06453   0.08384   0.09619   0.10890
 Alpha virt. eigenvalues --    0.11510   0.12303   0.14978   0.15440   0.21182
 Alpha virt. eigenvalues --    0.22754   0.24766   0.25824   0.29456   0.31830

  Beta  occ. eigenvalues --  -94.00033 -20.57288 -11.39689  -8.28111  -6.26031
  Beta  occ. eigenvalues --   -6.25667  -6.24250  -1.50724  -1.01838  -0.81643
  Beta  occ. eigenvalues --   -0.68564  -0.62142  -0.57759  -0.43311  -0.40105
  Beta virt. eigenvalues --   -0.02545   0.03520   0.06673   0.08349   0.10408
  Beta virt. eigenvalues --    0.10886   0.11796   0.13720   0.15075   0.15636
  Beta virt. eigenvalues --    0.22602   0.23403   0.25641   0.26150   0.29971

 Mulliken charges and spin densities:
               1          2
     1  O   -0.865631  -0.008480
     2  C    0.371701  -0.095279
     3  S    0.301980   1.099427
     4  H    0.191949   0.004331
 Sum of Mulliken charges =  -0.00000   1.00000

 Dipole moment (field-independent basis, Debye):
    X=              1.3030    Y=              2.0023    Z=              0.0000  Tot=              2.3889
                          Isotropic Fermi Contact Couplings
        Atom                 a.u.       MegaHertz       Gauss      10(-4) cm-1
     1  O(17)              0.01323      -8.02110      -2.86213      -2.67555
     2  C(13)             -0.01752     -19.70013      -7.02949      -6.57125
     3  S(33)              0.20505      70.42852      25.13065      23.49242
     4  H(1)               0.00232      10.35284       3.69415       3.45334
 --------------------------------------------------------
       Center         ----  Spin Dipole Couplings  ----
                      3XX-RR        3YY-RR        3ZZ-RR
 --------------------------------------------------------

 Normal termination of Gaussian 16 at Tue Apr  8 23:17:50 2025.
