 Gaussian 16, Revision C.01,

 ----------------------------------------------------------------------
 #t hf aug-cc-pvdz symm=none int=(grid=ultrafine) guess=(read,tcheck) s
 table=(opt,rrhf)
 ----------------------------------------------------------------------
 -----
 title
 -----
 Symbolic Z-matrix:
 Charge =  0 Multiplicity = 1

 SCF Done:  E(RHF) =  -845.005889255     A.U. after   12 cycles
 Normal termination of Gaussian 16 at Wed Apr  9 00:15:15 2025.
 Gaussian 16:  ES64L-G16RevC.01  3-Jul-2019

 ----------------------------------------------------------------------
 #t hf aug-cc-pvdz iop(5/13=1,5/36=2,99/5=2) pseudo=read geom=check gue
 ss=(read,tcheck) scf=(maxcycle=1)
 ----------------------------------------------------------------------
 -----
 title
 -----
 Structure from the checkpoint file:  "BDE49_nonexpt_2472_mol1.chk"
 Charge =  0 Multiplicity = 1

                         Standard orientation:
 ---------------------------------------------------------------------
 Center     Atomic      Atomic             Coordinates (Angstroms)
 Number     Number       Type             X           Y           Z
 ---------------------------------------------------------------------
      1         14           0        0.265513   -0.391203   -0.007862
      2          6           0       -1.455713   -0.412524   -0.778894
      3          6           0       -2.560125    0.337948   -0.013934
      4          1           0       -1.734816   -1.468366   -0.893838
      5          1           0       -1.371731   -0.019129   -1.798943
      6          1           0       -2.324287    1.399657    0.093929
      7          1           0       -2.700603   -0.068847    0.991351
      8         16           0        0.871362    1.712281   -0.028917
      9          1           0        2.047845    1.516239    0.592562
     10          6           0        1.452455   -1.414291   -1.045184
     11          1           0        2.469670   -1.368601   -0.645667
     12          1           0        1.482589   -1.055313   -2.077051
     13          1           0        1.146617   -2.466054   -1.057650
     14          6           0        0.247694   -1.033932    1.758523
     15          1           0       -0.095247   -2.073946    1.785376
     16          1           0       -0.413222   -0.439357    2.393529
     17          1           0        1.248792   -1.004061    2.198509
     18          1           0       -3.520445    0.264920   -0.532441
 ---------------------------------------------------------------------

 SCF Done:  E(RHF) =  -845.281837905     A.U. after    2 cycles

 The electronic state is 1-A.
 Alpha  occ. eigenvalues --  -93.93014 -69.53963 -11.22996 -11.22127 -11.21785
 Alpha  occ. eigenvalues --  -11.21726  -8.21249  -6.20763  -6.19086  -6.18956
 Alpha  occ. eigenvalues --   -6.18758  -3.96141  -3.96031  -3.96017  -1.03384
 Alpha  occ. eigenvalues --   -0.99267  -0.95489  -0.93534  -0.84735  -0.65979
 Alpha  occ. eigenvalues --   -0.61552  -0.58741  -0.57434  -0.56870  -0.55599
 Alpha  occ. eigenvalues --   -0.55106  -0.53387  -0.52141  -0.50054  -0.45675
 Alpha  occ. eigenvalues --   -0.43059  -0.42610  -0.36790
 Alpha virt. eigenvalues --    0.03021   0.03640   0.03990   0.04396   0.06033
 Alpha virt. eigenvalues --    0.06103   0.06433   0.06785   0.07221   0.08699
 Alpha virt. eigenvalues --    0.09182   0.09562   0.10477   0.10679   0.11650

 Mulliken charges:
               1
     1  Si   2.404179
     2  C   -0.394171
     3  C   -0.520070
     4  H    0.049222
     5  H    0.016137
     6  H    0.139564
     7  H    0.139644
     8  S   -1.067239
     9  H    0.213565
    10  C   -0.508456
    11  H   -0.036976
    12  H   -0.014995
    13  H    0.071058
    14  C   -0.554731
    15  H    0.051650
    16  H   -0.048269
    17  H   -0.039720
    18  H    0.099608
 Sum of Mulliken charges =  -0.00000

 Dipole moment (field-independent basis, Debye):
    X=              0.0253    Y=             -2.0266    Z=              0.3433  Tot=              2.0556

 Test job not archived.
 1\1\GINC-SE102\SP\RHF\Aug-CC-pVDZ\C4H12S1Si1\OHZDE\09-Apr-2025\0\\#t h
 f aug-cc-pvdz iop(5/13=1,5/36=2,99/5=2) pseudo=read geom=check guess=(
 read,tcheck) scf=(maxcycle=1)\\title\\0,1\Si,0,0.265513,-0.391203,-0.0
 07862\C,0,-1.455713,-0.412523,-0.778894\C,0,-2.560125,0.33795,-0.01393
 4\H,0,-1.734817,-1.468365,-0.893838\H,0,-1.371731,-0.019128,-1.798943\
 H,0,-2.324286,1.399659,0.093929\H,0,-2.700603,-0.068845,0.991351\S,0,0
 .871363,1.71228,-0.028917\H,0,2.047846,1.516238,0.592562\C,0,1.452454,
 -1.414292,-1.045184\H,0,2.469669,-1.368603,-0.645667\H,0,1.482588,-1.0

 Normal termination of Gaussian 16 at Wed Apr  9 00:15:23 2025.
