 Gaussian 16, Revision C.01,

 ----------------------------------------------------------------------
 #t hf aug-cc-pvdz symm=none int=(grid=ultrafine) guess=(read,tcheck) s
 table=(opt,rrhf)
 ----------------------------------------------------------------------
 -----
 title
 -----
 Symbolic Z-matrix:
 Charge =  0 Multiplicity = 1

 SCF Done:  E(RHF) =  -1914.91256366     A.U. after   12 cycles

 1\1\GINC-SE070\Stability\RHF\Aug-CC-pVDZ\C2H2Cl4\OHZDE\08-Apr-2025\0\\
 #t hf aug-cc-pvdz symm=none int=(grid=ultrafine) guess=(read,tcheck) s
 table=(opt,rrhf)\\title\\0,1\C,0,0.231256,-0.730765,-0.490486\C,0,-0.2
 31256,0.730765,-0.490486\Cl,0,-1.19089,-1.811758,-0.690872\Cl,0,1.1908
 9,-1.175853,0.943834\H,0,0.864676,-0.894047,-1.357434\H,0,-0.864676,0.
 894047,-1.357434\Cl,0,1.19089,1.811758,-0.690872\Cl,0,-1.19089,1.17585
 3,0.943834\\Version=ES64L-G16RevC.01\HF=-1914.9125637\RMSD=5.302e-09\D
 ipole=0.,0.,-0.7334613\Quadrupole=-0.0537691,-1.8631933,1.9169624,-0.8

 Normal termination of Gaussian 16 at Tue Apr  8 22:29:23 2025.
 Gaussian 16:  ES64L-G16RevC.01  3-Jul-2019

 ----------------------------------------------------------------------
 #t hf aug-cc-pvdz iop(5/13=1,5/36=2,99/5=2) pseudo=read geom=check gue
 ss=(read,tcheck) scf=(maxcycle=1)
 ----------------------------------------------------------------------
 -----
 title
 -----
 Structure from the checkpoint file:  "BDE49_expt_1015_mol1.chk"
 Charge =  0 Multiplicity = 1

                         Standard orientation:
 ---------------------------------------------------------------------
 Center     Atomic      Atomic             Coordinates (Angstroms)
 Number     Number       Type             X           Y           Z
 ---------------------------------------------------------------------
      1          6           0       -0.231256    0.730765   -0.490486
      2          6           0        0.231256   -0.730765   -0.490486
      3         17           0        1.190890    1.811758   -0.690872
      4         17           0       -1.190890    1.175853    0.943834
      5          1           0       -0.864676    0.894047   -1.357434
      6          1           0        0.864676   -0.894047   -1.357434
      7         17           0       -1.190890   -1.811758   -0.690872
      8         17           0        1.190890   -1.175853    0.943834
 ---------------------------------------------------------------------

 SCF Done:  E(RHF) =  -1915.29331587     A.U. after    2 cycles

 The electronic state is 1-A.
 Alpha  occ. eigenvalues -- -105.59657-105.59657-105.59309-105.59309 -11.40940
 Alpha  occ. eigenvalues --  -11.40920 -10.64465 -10.64465 -10.64134 -10.64130
 Alpha  occ. eigenvalues --   -7.81413  -7.81410  -7.81085  -7.81084  -7.81005
 Alpha  occ. eigenvalues --   -7.81002  -7.80988  -7.80987  -7.80662  -7.80660
 Alpha  occ. eigenvalues --   -7.80653  -7.80649  -1.22809  -1.14011  -1.07174
 Alpha  occ. eigenvalues --   -1.06332  -0.95623  -0.83429  -0.72189  -0.66931
 Alpha  occ. eigenvalues --   -0.65278  -0.60003  -0.58715  -0.51477  -0.50147
 Alpha  occ. eigenvalues --   -0.49379  -0.48788  -0.47417  -0.47159  -0.46759
 Alpha  occ. eigenvalues --   -0.46411
 Alpha virt. eigenvalues --    0.03669   0.04948   0.06764   0.07033   0.08841
 Alpha virt. eigenvalues --    0.09348   0.11452   0.12101   0.12926   0.14111
 Alpha virt. eigenvalues --    0.14868   0.15277   0.15712   0.16077   0.16547

 Mulliken charges:
               1
     1  C   -0.466297
     2  C   -0.466297
     3  Cl   0.041479
     4  Cl   0.060788
     5  H    0.364031
     6  H    0.364031
     7  Cl   0.041479
     8  Cl   0.060788
 Sum of Mulliken charges =   0.00000

 Dipole moment (field-independent basis, Debye):
    X=             -0.0000    Y=             -0.0000    Z=             -1.8619  Tot=              1.8619

 Test job not archived.
 1\1\GINC-SE070\SP\RHF\Aug-CC-pVDZ\C2H2Cl4\OHZDE\08-Apr-2025\0\\#t hf a
 ug-cc-pvdz iop(5/13=1,5/36=2,99/5=2) pseudo=read geom=check guess=(rea
 d,tcheck) scf=(maxcycle=1)\\title\\0,1\C,0,0.231256,-0.730765,-0.49048
 6\C,0,-0.231256,0.730765,-0.490486\Cl,0,-1.19089,-1.811758,-0.690872\C
 l,0,1.19089,-1.175853,0.943834\H,0,0.864676,-0.894047,-1.357434\H,0,-0
 .864676,0.894047,-1.357434\Cl,0,1.19089,1.811758,-0.690872\Cl,0,-1.190
 89,1.175853,0.943834\\Version=ES64L-G16RevC.01\State=1-A\HF=-1915.2933
 159\RMSD=5.754e-03\Dipole=0.,0.,-0.7325167\Quadrupole=-0.0575629,-1.83

 Normal termination of Gaussian 16 at Tue Apr  8 22:29:26 2025.
