 Gaussian 16, Revision C.01,

 ----------------------------------------------------------------------
 #t hf aug-cc-pvdz symm=none int=(grid=ultrafine) guess=(read,tcheck) s
 table=(opt,rrhf)
 ----------------------------------------------------------------------
 -----
 title
 -----
 Symbolic Z-matrix:
 Charge =  0 Multiplicity = 1

 SCF Done:  E(RHF) =  -845.113818853     A.U. after   14 cycles
 Normal termination of Gaussian 16 at Wed Apr  9 00:46:45 2025.
 Gaussian 16:  ES64L-G16RevC.01  3-Jul-2019

 ----------------------------------------------------------------------
 #t hf aug-cc-pvdz iop(5/13=1,5/36=2,99/5=2) pseudo=read geom=check gue
 ss=(read,tcheck) scf=(maxcycle=1)
 ----------------------------------------------------------------------
 -----
 title
 -----
 Structure from the checkpoint file:  "BDE49_nonexpt_796_mol1.chk"
 Charge =  0 Multiplicity = 1

                         Standard orientation:
 ---------------------------------------------------------------------
 Center     Atomic      Atomic             Coordinates (Angstroms)
 Number     Number       Type             X           Y           Z
 ---------------------------------------------------------------------
      1          7           0        1.439277   -0.832829   -0.000021
      2          9           0        0.983921   -1.596819    1.111034
      3          9           0        0.983904   -1.596792   -1.111087
      4         14           0        0.356657    0.659996    0.000005
      5          6           0        0.817563    1.563530   -1.566200
      6          1           0        1.889278    1.777053   -1.595865
      7          1           0        0.279593    2.514635   -1.625208
      8          1           0        0.557806    0.973405   -2.447528
      9          6           0        0.817586    1.563492    1.566226
     10          1           0        1.889301    1.777013    1.595881
     11          1           0        0.557841    0.973345    2.447543
     12          1           0        0.279617    2.514596    1.625265
     13          5           0       -1.570358   -0.003788    0.000011
     14          9           0       -2.232830   -0.218953    1.127669
     15          9           0       -2.232847   -0.218923   -1.127642
 ---------------------------------------------------------------------

 SCF Done:  E(RHF) =  -845.669074783     A.U. after    2 cycles

 The electronic state is 1-A.
 Alpha  occ. eigenvalues --  -69.56935 -26.49807 -26.49803 -26.48949 -26.48948
 Alpha  occ. eigenvalues --  -15.67939 -11.24237 -11.24237  -7.73188  -6.24011
 Alpha  occ. eigenvalues --   -3.99361  -3.99240  -3.99220  -1.64472  -1.64068
 Alpha  occ. eigenvalues --   -1.59976  -1.56748  -1.09293  -0.99099  -0.96357
 Alpha  occ. eigenvalues --   -0.82280  -0.79224  -0.75076  -0.74373  -0.73993
 Alpha  occ. eigenvalues --   -0.72526  -0.69995  -0.65143  -0.64845  -0.64005
 Alpha  occ. eigenvalues --   -0.63356  -0.60884  -0.60680  -0.59510  -0.58021
 Alpha  occ. eigenvalues --   -0.57683  -0.56728  -0.49114  -0.48637  -0.46177
 Alpha virt. eigenvalues --    0.02529   0.03810   0.03934   0.04690   0.06179
 Alpha virt. eigenvalues --    0.06252   0.06620   0.07136   0.08087   0.08951
 Alpha virt. eigenvalues --    0.09613   0.10183   0.10866   0.12198   0.13730

 Mulliken charges:
               1
     1  N    1.001277
     2  F   -0.660224
     3  F   -0.660224
     4  Si   1.820536
     5  C   -0.672147
     6  H    0.067823
     7  H   -0.007951
     8  H    0.037045
     9  C   -0.672146
    10  H    0.067821
    11  H    0.037046
    12  H   -0.007950
    13  B    1.231068
    14  F   -0.790988
    15  F   -0.790987
 Sum of Mulliken charges =  -0.00000

 Dipole moment (field-independent basis, Debye):
    X=              0.0648    Y=              3.7471    Z=              0.0000  Tot=              3.7476

 Test job not archived.
 1\1\GINC-SE015\SP\RHF\Aug-CC-pVDZ\C2H6B1F4N1Si1\OHZDE\09-Apr-2025\0\\#
 t hf aug-cc-pvdz iop(5/13=1,5/36=2,99/5=2) pseudo=read geom=check gues
 s=(read,tcheck) scf=(maxcycle=1)\\title\\0,1\N,0,1.439277,-0.832829,-0
 .000021\F,0,0.983921,-1.596819,1.111034\F,0,0.983904,-1.596792,-1.1110
 87\Si,0,0.356657,0.659996,0.000005\C,0,0.817563,1.56353,-1.5662\H,0,1.
 889278,1.777053,-1.595865\H,0,0.279594,2.514635,-1.625208\H,0,0.557806
 ,0.973405,-2.447528\C,0,0.817586,1.563492,1.566226\H,0,1.889301,1.7770
 13,1.595881\H,0,0.557841,0.973345,2.447543\H,0,0.279618,2.514596,1.625

 Normal termination of Gaussian 16 at Wed Apr  9 00:46:51 2025.
