 Gaussian 16, Revision C.01,

 ----------------------------------------------------------------------
 #t hf aug-cc-pvdz symm=none int=(grid=ultrafine) guess=(read,tcheck) s
 table=(opt,rrhf)
 ----------------------------------------------------------------------
 -----
 title
 -----
 Symbolic Z-matrix:
 Charge =  0 Multiplicity = 1

 SCF Done:  E(RHF) =  -680.272104108     A.U. after   11 cycles

 1\1\GINC-SE072\Stability\RHF\Aug-CC-pVDZ\F1H5Si2\OHZDE\08-Apr-2025\0\\
 #t hf aug-cc-pvdz symm=none int=(grid=ultrafine) guess=(read,tcheck) s
 table=(opt,rrhf)\\title\\0,1\Si,0,0.772746,-1.329421,0.\Si,0,0.,0.8979
 13,0.\F,0,-1.619883,0.909775,0.\H,0,0.451584,1.629578,1.205819\H,0,0.4
 51584,1.629578,-1.205819\H,0,0.300356,-2.047022,1.207449\H,0,2.256611,
 -1.311982,0.\H,0,0.300356,-2.047022,-1.207449\\Version=ES64L-G16RevC.0
 1\HF=-680.2721041\RMSD=1.939e-09\Dipole=0.6043679,-0.0985486,0.\Quadru
 pole=-1.5377832,0.6067345,0.9310487,1.1814444,0.,0.\PG=Unknown\\@

 Normal termination of Gaussian 16 at Tue Apr  8 23:56:19 2025.
 Gaussian 16:  ES64L-G16RevC.01  3-Jul-2019

 ----------------------------------------------------------------------
 #t hf aug-cc-pvdz iop(5/13=1,5/36=2,99/5=2) pseudo=read geom=check gue
 ss=(read,tcheck) scf=(maxcycle=1)
 ----------------------------------------------------------------------
 -----
 title
 -----
 Structure from the checkpoint file:  "BDE49_nonexpt_2020_mol1.chk"
 Charge =  0 Multiplicity = 1

                         Standard orientation:
 ---------------------------------------------------------------------
 Center     Atomic      Atomic             Coordinates (Angstroms)
 Number     Number       Type             X           Y           Z
 ---------------------------------------------------------------------
      1         14           0        0.772747   -1.329421    0.000000
      2         14           0        0.000000    0.897913    0.000000
      3          9           0       -1.619883    0.909775    0.000000
      4          1           0        0.451584    1.629578    1.205819
      5          1           0        0.451584    1.629578   -1.205819
      6          1           0        0.300357   -2.047022    1.207449
      7          1           0        2.256612   -1.311981    0.000000
      8          1           0        0.300357   -2.047022   -1.207449
 ---------------------------------------------------------------------

 SCF Done:  E(RHF) =  -680.433105476     A.U. after    2 cycles

 The electronic state is 1-A'.
 Alpha  occ. eigenvalues --  -69.58228 -69.53601 -26.44888  -6.24859  -6.20863
 Alpha  occ. eigenvalues --   -4.00284  -4.00070  -4.00064  -3.96212  -3.96208
 Alpha  occ. eigenvalues --   -3.96204  -1.55823  -0.79650  -0.73068  -0.64151
 Alpha  occ. eigenvalues --   -0.64116  -0.61513  -0.50983  -0.50131  -0.48436
 Alpha  occ. eigenvalues --   -0.42179
 Alpha virt. eigenvalues --    0.03733   0.04134   0.05270   0.05825   0.07194
 Alpha virt. eigenvalues --    0.07414   0.07556   0.08623   0.08886   0.10143
 Alpha virt. eigenvalues --    0.10431   0.12451   0.14823   0.15038   0.16005

 Mulliken charges:
               1
     1  Si   0.368775
     2  Si   1.219051
     3  F   -0.817854
     4  H   -0.168604
     5  H   -0.168604
     6  H   -0.136466
     7  H   -0.159832
     8  H   -0.136466
 Sum of Mulliken charges =   0.00000

 Dipole moment (field-independent basis, Debye):
    X=              1.4042    Y=             -0.2580    Z=             -0.0000  Tot=              1.4277

 Test job not archived.
 1\1\GINC-SE072\SP\RHF\Aug-CC-pVDZ\F1H5Si2\OHZDE\08-Apr-2025\0\\#t hf a
 ug-cc-pvdz iop(5/13=1,5/36=2,99/5=2) pseudo=read geom=check guess=(rea
 d,tcheck) scf=(maxcycle=1)\\title\\0,1\Si,0,0.772746,-1.329421,0.\Si,0
 ,0.,0.897913,0.\F,0,-1.619883,0.909775,0.\H,0,0.451584,1.629578,1.2058
 19\H,0,0.451584,1.629578,-1.205819\H,0,0.300356,-2.047022,1.207449\H,0
 ,2.256611,-1.311982,0.\H,0,0.300356,-2.047022,-1.207449\\Version=ES64L
 -G16RevC.01\State=1-A'\HF=-680.4331055\RMSD=3.858e-03\Dipole=0.5524499
 ,-0.1014926,0.\Quadrupole=-1.4597258,0.6389754,0.8207503,1.0512809,0.,

 Normal termination of Gaussian 16 at Tue Apr  8 23:56:21 2025.
