 Gaussian 16, Revision C.01,

 ----------------------------------------------------------------------
 #t hf aug-cc-pvdz symm=none int=(grid=ultrafine) guess=(read,tcheck) s
 table=(opt,rrhf)
 ----------------------------------------------------------------------
 -----
 title
 -----
 Symbolic Z-matrix:
 Charge =  0 Multiplicity = 1

 SCF Done:  E(RHF) =  -621.432933347     A.U. after   15 cycles
 Normal termination of Gaussian 16 at Tue Apr  8 23:09:15 2025.
 Gaussian 16:  ES64L-G16RevC.01  3-Jul-2019

 ----------------------------------------------------------------------
 #t hf aug-cc-pvdz iop(5/13=1,5/36=2,99/5=2) pseudo=read geom=check gue
 ss=(read,tcheck) scf=(maxcycle=1)
 ----------------------------------------------------------------------
 -----
 title
 -----
 Structure from the checkpoint file:  "BDE49_expt_464_mol1.chk"
 Charge =  0 Multiplicity = 1

                         Standard orientation:
 ---------------------------------------------------------------------
 Center     Atomic      Atomic             Coordinates (Angstroms)
 Number     Number       Type             X           Y           Z
 ---------------------------------------------------------------------
      1          6           0       -0.322194   -1.203824   -0.030325
      2          6           0       -1.708021   -1.207268   -0.013197
      3          6           0       -2.427726   -0.000000   -0.001153
      4          6           0        0.384710    0.000000   -0.040264
      5          6           0       -0.322194    1.203824   -0.030325
      6          6           0       -1.708021    1.207268   -0.013197
      7          1           0        0.216616   -2.143132   -0.044415
      8          1           0       -2.244822   -2.150067   -0.015829
      9          7           0       -3.812960   -0.000000   -0.039015
     10          1           0       -4.271635   -0.841829    0.273498
     11          1           0       -4.271635    0.841829    0.273498
     12          6           0        1.879849    0.000000    0.001731
     13          9           0        2.409801   -1.089419   -0.602385
     14          9           0        2.409801    1.089419   -0.602383
     15          9           0        2.361729   -0.000001    1.272211
     16          1           0       -2.244822    2.150067   -0.015829
     17          1           0        0.216616    2.143132   -0.044415
 ---------------------------------------------------------------------

 SCF Done:  E(RHF) =  -622.033218736     A.U. after    2 cycles

 The electronic state is 1-A.
 Alpha  occ. eigenvalues --  -26.49343 -26.49339 -26.48731 -15.52806 -11.51101
 Alpha  occ. eigenvalues --  -11.30904 -11.26841 -11.26840 -11.25608 -11.24983
 Alpha  occ. eigenvalues --  -11.24979  -1.69685  -1.59890  -1.59220  -1.24637
 Alpha  occ. eigenvalues --   -1.16127  -1.04638  -1.03868  -0.94214  -0.87134
 Alpha  occ. eigenvalues --   -0.85896  -0.79229  -0.79130  -0.78732  -0.74638
 Alpha  occ. eigenvalues --   -0.73969  -0.67394  -0.67313  -0.65287  -0.63756
 Alpha  occ. eigenvalues --   -0.62653  -0.61943  -0.61846  -0.60796  -0.60406
 Alpha  occ. eigenvalues --   -0.57483  -0.54278  -0.52140  -0.49362  -0.36776
 Alpha  occ. eigenvalues --   -0.33381
 Alpha virt. eigenvalues --    0.02242   0.03654   0.04362   0.05084   0.06096
 Alpha virt. eigenvalues --    0.08435   0.08804   0.09078   0.09251   0.10079
 Alpha virt. eigenvalues --    0.10529   0.11979   0.12956   0.13137   0.13649

 Mulliken charges:
               1
     1  C   -0.178894
     2  C    0.846172
     3  C   -1.947204
     4  C    0.810763
     5  C   -0.178893
     6  C    0.846172
     7  H   -0.281706
     8  H   -0.300347
     9  N    0.872226
    10  H    0.003799
    11  H    0.003799
    12  C    2.500717
    13  F   -0.828633
    14  F   -0.828632
    15  F   -0.757287
    16  H   -0.300347
    17  H   -0.281706
 Sum of Mulliken charges =  -0.00000

 Dipole moment (field-independent basis, Debye):
    X=             -4.3637    Y=              0.0000    Z=              0.8499  Tot=              4.4456

 Test job not archived.
 1\1\GINC-SE103\SP\RHF\Aug-CC-pVDZ\C7H6F3N1\OHZDE\08-Apr-2025\0\\#t hf
 aug-cc-pvdz iop(5/13=1,5/36=2,99/5=2) pseudo=read geom=check guess=(re
 ad,tcheck) scf=(maxcycle=1)\\title\\0,1\C,0,-0.322194,-1.203824,-0.030
 325\C,0,-1.708021,-1.207268,-0.013197\C,0,-2.427726,0.,-0.001153\C,0,0
 .38471,0.,-0.040264\C,0,-0.322194,1.203824,-0.030325\C,0,-1.708021,1.2
 07268,-0.013197\H,0,0.216616,-2.143132,-0.044415\H,0,-2.244822,-2.1500
 67,-0.015829\N,0,-3.81296,0.,-0.039015\H,0,-4.271635,-0.841829,0.27349
 8\H,0,-4.271635,0.841829,0.273498\C,0,1.879849,0.,0.001731\F,0,2.40980

 Normal termination of Gaussian 16 at Tue Apr  8 23:09:26 2025.
