 Gaussian 16, Revision C.01,

 ----------------------------------------------------------------------
 #t hf aug-cc-pvdz symm=none int=(grid=ultrafine) guess=(read,tcheck) s
 table=opt
 ----------------------------------------------------------------------
 -----
 title
 -----
 Symbolic Z-matrix:
 Charge =  0 Multiplicity = 2

 SCF Done:  E(UHF) =  -536.488483410     A.U. after   20 cycles
 Normal termination of Gaussian 16 at Tue Apr  8 23:47:31 2025.
 Gaussian 16:  ES64L-G16RevC.01  3-Jul-2019

 ----------------------------------------------------------------------
 #t hf aug-cc-pvdz iop(5/13=1,5/36=2,99/5=2) pseudo=read geom=check gue
 ss=(read,tcheck) scf=(maxcycle=1)
 ----------------------------------------------------------------------
 -----
 title
 -----
 Structure from the checkpoint file:  "BDE49_nonexpt_1784_mol2.chk"
 Charge =  0 Multiplicity = 2

                         Standard orientation:
 ---------------------------------------------------------------------
 Center     Atomic      Atomic             Coordinates (Angstroms)
 Number     Number       Type             X           Y           Z
 ---------------------------------------------------------------------
      1         14           0       -1.956331    0.347619   -0.057535
      2          6           0       -0.238190   -0.527326   -0.020467
      3          7           0        0.930157    0.182385   -0.031583
      4          6           0        0.985724    1.630852   -0.048329
      5          8           0       -0.279868   -1.752516    0.009782
      6          1           0       -0.006300    2.046084   -0.235586
      7          1           0        1.647991    1.975641   -0.849411
      8          1           0        1.356615    2.030184    0.902978
      9          6           0        2.202998   -0.523286    0.052199
     10          1           0        2.837998   -0.264483   -0.801458
     11          1           0        2.001470   -1.592142    0.046245
     12          1           0        2.732689   -0.258481    0.974025
     13          1           0       -2.180452    1.178693    1.157559
     14          1           0       -2.976725   -0.720181   -0.146456
 ---------------------------------------------------------------------

 SCF Done:  E(UHF) =  -536.770865529     A.U. after    2 cycles

 The electronic state is 2-A.
 Alpha  occ. eigenvalues --  -69.55043 -20.51320 -15.53183 -11.34637 -11.28762
 Alpha  occ. eigenvalues --  -11.26778  -6.22202  -3.98168  -3.97244  -3.97224
 Alpha  occ. eigenvalues --   -1.45637  -1.25641  -0.99452  -0.96550  -0.81256
 Alpha  occ. eigenvalues --   -0.74928  -0.67693  -0.67431  -0.66079  -0.58301
 Alpha  occ. eigenvalues --   -0.57662  -0.55542  -0.55359  -0.54561  -0.49952
 Alpha  occ. eigenvalues --   -0.41747  -0.40190  -0.34085
 Alpha virt. eigenvalues --    0.03129   0.03955   0.04519   0.04732   0.05862
 Alpha virt. eigenvalues --    0.06198   0.06547   0.07228   0.08054   0.09578
 Alpha virt. eigenvalues --    0.11013   0.11984   0.12710   0.13044   0.13856

  Beta  occ. eigenvalues --  -69.54482 -20.51031 -15.53192 -11.34634 -11.28731
  Beta  occ. eigenvalues --  -11.26778  -6.21360  -3.96859  -3.96843  -3.95972
  Beta  occ. eigenvalues --   -1.45021  -1.25594  -0.99372  -0.96431  -0.79353
  Beta  occ. eigenvalues --   -0.73665  -0.67648  -0.67244  -0.64316  -0.58100
  Beta  occ. eigenvalues --   -0.57638  -0.55382  -0.55047  -0.53430  -0.49038
  Beta  occ. eigenvalues --   -0.39883  -0.39472
  Beta virt. eigenvalues --    0.01457   0.03303   0.04225   0.04713   0.04766
  Beta virt. eigenvalues --    0.06008   0.06551   0.06817   0.07989   0.08184
  Beta virt. eigenvalues --    0.09713   0.11373   0.12290   0.13041   0.13528

 Mulliken charges and spin densities:
               1          2
     1  Si   0.486721   0.974740
     2  C    0.078025  -0.012620
     3  N    0.764964  -0.031368
     4  C   -0.378878   0.014923
     5  O   -1.160030   0.058708
     6  H   -0.014246  -0.017035
     7  H    0.162265   0.000470
     8  H    0.174019  -0.002590
     9  C   -0.287542   0.001955
    10  H    0.174701   0.000045
    11  H    0.016392  -0.000641
    12  H    0.193981   0.000527
    13  H   -0.124158  -0.010137
    14  H   -0.086214   0.023024
 Sum of Mulliken charges =  -0.00000   1.00000

 Dipole moment (field-independent basis, Debye):
    X=              1.3831    Y=              3.3374    Z=              0.0085  Tot=              3.6127
                          Isotropic Fermi Contact Couplings
        Atom                 a.u.       MegaHertz       Gauss      10(-4) cm-1
     1  Si(29)             0.54645    -485.64124    -173.28887    -161.99248
     2  C(13)              0.00730       8.21192       2.93022       2.73920
     3  N(14)             -0.00583      -1.88343      -0.67205      -0.62824
     4  C(13)              0.00470       5.27858       1.88353       1.76074
     5  O(17)              0.02879     -17.45120      -6.22702      -5.82109
     6  H(1)              -0.00051      -2.27083      -0.81029      -0.75747
     7  H(1)              -0.00007      -0.33305      -0.11884      -0.11109
     8  H(1)              -0.00034      -1.52413      -0.54385      -0.50840

 1\1\GINC-SE058\SP\UHF\Aug-CC-pVDZ\C3H8N1O1Si1(2)\OHZDE\08-Apr-2025\0\\
 #t hf aug-cc-pvdz iop(5/13=1,5/36=2,99/5=2) pseudo=read geom=check gue
 ss=(read,tcheck) scf=(maxcycle=1)\\title\\0,2\Si,0,-1.956331,0.34762,-
 0.057535\C,0,-0.23819,-0.527326,-0.020467\N,0,0.930157,0.182385,-0.031
 583\C,0,0.985725,1.630852,-0.048329\O,0,-0.279868,-1.752516,0.009782\H
 ,0,-0.006299,2.046084,-0.235586\H,0,1.647992,1.975641,-0.849411\H,0,1.
 356616,2.030184,0.902978\C,0,2.202998,-0.523286,0.052199\H,0,2.837998,
 -0.264484,-0.801458\H,0,2.00147,-1.592142,0.046245\H,0,2.732689,-0.258

 Normal termination of Gaussian 16 at Tue Apr  8 23:47:36 2025.
