 Gaussian 16, Revision C.01,

 ----------------------------------------------------------------------
 #t hf aug-cc-pvdz symm=none int=(grid=ultrafine) guess=(read,tcheck) s
 table=(opt,rrhf)
 ----------------------------------------------------------------------
 -----
 title
 -----
 Symbolic Z-matrix:
 Charge =  0 Multiplicity = 1

 SCF Done:  E(RHF) =  -182.555610236     A.U. after   12 cycles

 1\1\GINC-SE162\Stability\RHF\Aug-CC-pVDZ\C4H11B1\OHZDE\09-Apr-2025\0\\
 #t hf aug-cc-pvdz symm=none int=(grid=ultrafine) guess=(read,tcheck) s
 table=(opt,rrhf)\\title\\0,1\B,0,1.006664,0.,1.29076\C,0,-0.009833,0.,
 0.101641\C,0,-0.887305,-1.263834,0.030894\H,0,-1.583906,-1.310786,0.87
 3806\H,0,-0.28084,-2.173509,0.052185\C,0,0.977356,0.,-1.110801\H,0,-1.
 484145,-1.276666,-0.888886\H,0,0.395181,0.,-2.039673\H,0,1.617602,0.88
 7204,-1.124143\H,0,1.617603,-0.887203,-1.124143\C,0,-0.887306,1.263834
 ,0.030894\H,0,-1.583907,1.310785,0.873806\H,0,-1.484146,1.276665,-0.88

 Normal termination of Gaussian 16 at Wed Apr  9 00:25:58 2025.
 Gaussian 16:  ES64L-G16RevC.01  3-Jul-2019

 ----------------------------------------------------------------------
 #t hf aug-cc-pvdz iop(5/13=1,5/36=2,99/5=2) pseudo=read geom=check gue
 ss=(read,tcheck) scf=(maxcycle=1)
 ----------------------------------------------------------------------
 -----
 title
 -----
 Structure from the checkpoint file:  "BDE49_nonexpt_272_mol1.chk"
 Charge =  0 Multiplicity = 1

                         Standard orientation:
 ---------------------------------------------------------------------
 Center     Atomic      Atomic             Coordinates (Angstroms)
 Number     Number       Type             X           Y           Z
 ---------------------------------------------------------------------
      1          5           0       -1.006664   -0.000026    1.290760
      2          6           0        0.009833    0.000000    0.101641
      3          6           0        0.887272    1.263857    0.030894
      4          1           0        1.583872    1.310827    0.873806
      5          1           0        0.280783    2.173516    0.052185
      6          6           0       -0.977356   -0.000025   -1.110801
      7          1           0        1.484112    1.276705   -0.888886
      8          1           0       -0.395181   -0.000010   -2.039673
      9          1           0       -1.617579   -0.887246   -1.124143
     10          1           0       -1.617626    0.887161   -1.124143
     11          6           0        0.887339   -1.263811    0.030894
     12          1           0        1.583941   -1.310744    0.873806
     13          1           0        1.484179   -1.276626   -0.888886
     14          1           0        0.280899   -2.173502    0.052185
     15          1           0       -1.438332    1.027623    1.722091
     16          1           0       -1.438278   -1.027700    1.722091
 ---------------------------------------------------------------------

 SCF Done:  E(RHF) =  -182.762212229     A.U. after    2 cycles

 The electronic state is 1-A.
 Alpha  occ. eigenvalues --  -11.23291 -11.22175 -11.22155 -11.21835  -7.58788
 Alpha  occ. eigenvalues --   -1.08477  -0.93310  -0.92890  -0.79081  -0.68100
 Alpha  occ. eigenvalues --   -0.60870  -0.59892  -0.59146  -0.54766  -0.54692
 Alpha  occ. eigenvalues --   -0.52175  -0.49054  -0.47392  -0.45629  -0.42606
 Alpha virt. eigenvalues --    0.03243   0.03630   0.03855   0.04330   0.05899
 Alpha virt. eigenvalues --    0.06199   0.06285   0.06748   0.06761   0.08974
 Alpha virt. eigenvalues --    0.09664   0.09951   0.10775   0.11110   0.12762

 Mulliken charges:
               1
     1  B   -0.765079
     2  C   -1.308083
     3  C   -0.008616
     4  H    0.153546
     5  H    0.140820
     6  C   -0.134026
     7  H    0.214027
     8  H    0.188228
     9  H    0.116100
    10  H    0.116099
    11  C   -0.008615
    12  H    0.153546
    13  H    0.214027
    14  H    0.140819
    15  H    0.393605
    16  H    0.393602
 Sum of Mulliken charges =  -0.00000

 Dipole moment (field-independent basis, Debye):
    X=              0.2392    Y=              0.0000    Z=             -0.4182  Tot=              0.4818

 Test job not archived.
 1\1\GINC-SE162\SP\RHF\Aug-CC-pVDZ\C4H11B1\OHZDE\09-Apr-2025\0\\#t hf a
 ug-cc-pvdz iop(5/13=1,5/36=2,99/5=2) pseudo=read geom=check guess=(rea
 d,tcheck) scf=(maxcycle=1)\\title\\0,1\B,0,1.006664,0.,1.29076\C,0,-0.
 009833,0.,0.101641\C,0,-0.887305,-1.263834,0.030894\H,0,-1.583906,-1.3
 10786,0.873806\H,0,-0.28084,-2.173509,0.052185\C,0,0.977356,0.,-1.1108
 01\H,0,-1.484145,-1.276666,-0.888886\H,0,0.395181,0.,-2.039673\H,0,1.6
 17602,0.887204,-1.124143\H,0,1.617603,-0.887203,-1.124143\C,0,-0.88730
 6,1.263834,0.030894\H,0,-1.583907,1.310785,0.873806\H,0,-1.484146,1.27

 Normal termination of Gaussian 16 at Wed Apr  9 00:26:03 2025.
