 Gaussian 16, Revision C.01,

 ----------------------------------------------------------------------
 #t hf aug-cc-pvdz symm=none int=(grid=ultrafine) guess=(read,tcheck) s
 table=opt
 ----------------------------------------------------------------------
 -----
 title
 -----
 Symbolic Z-matrix:
 Charge =  0 Multiplicity = 2

 SCF Done:  E(UHF) =  -285.416506491     A.U. after   17 cycles
 Normal termination of Gaussian 16 at Tue Apr  8 23:04:09 2025.
 Gaussian 16:  ES64L-G16RevC.01  3-Jul-2019

 ----------------------------------------------------------------------
 #t hf aug-cc-pvdz iop(5/13=1,5/36=2,99/5=2) pseudo=read geom=check gue
 ss=(read,tcheck) scf=(maxcycle=1)
 ----------------------------------------------------------------------
 -----
 title
 -----
 Structure from the checkpoint file:  "BDE49_expt_373_mol2.chk"
 Charge =  0 Multiplicity = 2

                         Standard orientation:
 ---------------------------------------------------------------------
 Center     Atomic      Atomic             Coordinates (Angstroms)
 Number     Number       Type             X           Y           Z
 ---------------------------------------------------------------------
      1          7           0        0.928945    1.046245    0.184279
      2          6           0        1.378205   -0.299392   -0.182379
      3          6           0        0.315521   -1.304712    0.252848
      4          1           0        2.325552   -0.512144    0.321331
      5          1           0        1.528276   -0.392424   -1.268073
      6          8           0       -0.942511   -0.994079   -0.325406
      7          1           0        0.238029   -1.307154    1.351572
      8          1           0        0.578022   -2.309696   -0.082217
      9          6           0       -1.398812    0.288653    0.118055
     10          6           0       -0.391533    1.361418   -0.143680
     11          1           0       -1.639826    0.211820    1.198723
     12          1           0       -2.329145    0.491574   -0.414981
     13          1           0       -0.679052    2.399456   -0.020060
     14          1           0        1.595335    1.771677   -0.042069
 ---------------------------------------------------------------------

 SCF Done:  E(UHF) =  -285.713683030     A.U. after    2 cycles

 The electronic state is 2-A.
 Alpha  occ. eigenvalues --  -20.54019 -15.50545 -11.28211 -11.28089 -11.26430
 Alpha  occ. eigenvalues --  -11.25386  -1.45597  -1.22929  -1.04258  -0.94777
 Alpha  occ. eigenvalues --   -0.88961  -0.78110  -0.73685  -0.65512  -0.64758
 Alpha  occ. eigenvalues --   -0.63516  -0.61609  -0.59758  -0.56698  -0.51874
 Alpha  occ. eigenvalues --   -0.48396  -0.46434  -0.41642  -0.30625
 Alpha virt. eigenvalues --    0.03467   0.04345   0.04743   0.04858   0.05766
 Alpha virt. eigenvalues --    0.05906   0.06679   0.07372   0.11259   0.12446
 Alpha virt. eigenvalues --    0.12974   0.13182   0.14238   0.15020   0.16051

  Beta  occ. eigenvalues --  -20.53991 -15.50009 -11.28367 -11.28177 -11.26431
  Beta  occ. eigenvalues --  -11.23099  -1.45498  -1.21018  -1.02791  -0.93555
  Beta  occ. eigenvalues --   -0.87339  -0.76524  -0.72520  -0.64791  -0.63978
  Beta  occ. eigenvalues --   -0.62245  -0.61150  -0.56906  -0.55861  -0.51382
  Beta  occ. eigenvalues --   -0.46505  -0.43041  -0.41021
  Beta virt. eigenvalues --    0.03429   0.04369   0.04769   0.04864   0.05743
  Beta virt. eigenvalues --    0.05876   0.06636   0.07208   0.11169   0.11337
  Beta virt. eigenvalues --    0.12713   0.13026   0.14275   0.15011   0.15087

 Mulliken charges and spin densities:
               1          2
     1  N    0.385855   0.087728
     2  C   -0.274392  -0.025706
     3  C    0.381678   0.007828
     4  H    0.097344   0.002671
     5  H    0.066143  -0.002282
     6  O   -1.287643  -0.004199
     7  H    0.211473   0.001885
     8  H    0.005828   0.000042
     9  C    0.369372  -0.200228
    10  C   -0.233982   1.186662
    11  H    0.233707   0.037864
    12  H    0.015814  -0.005161
    13  H   -0.131557  -0.070464
    14  H    0.160360  -0.016640
 Sum of Mulliken charges =   0.00000   1.00000

 Dipole moment (field-independent basis, Debye):
    X=              1.3548    Y=              0.8517    Z=              0.4182  Tot=              1.6540
                          Isotropic Fermi Contact Couplings
        Atom                 a.u.       MegaHertz       Gauss      10(-4) cm-1
     1  N(14)              0.03505      11.32389       4.04064       3.77724
     2  C(13)              0.00381       4.28547       1.52916       1.42948
     3  C(13)              0.00154       1.73621       0.61952       0.57914
     4  H(1)              -0.00060      -2.66417      -0.95064      -0.88867
     5  H(1)               0.00175       7.82872       2.79348       2.61138
     6  O(17)              0.00757      -4.59015      -1.63788      -1.53111
     7  H(1)              -0.00015      -0.65818      -0.23486      -0.21955
     8  H(1)              -0.00014      -0.62187      -0.22190      -0.20743

 Normal termination of Gaussian 16 at Tue Apr  8 23:04:14 2025.
