 Gaussian 16, Revision C.01,

 ----------------------------------------------------------------------
 #t hf aug-cc-pvdz symm=none int=(grid=ultrafine) guess=(read,tcheck) s
 table=(opt,rrhf)
 ----------------------------------------------------------------------
 -----
 title
 -----
 Symbolic Z-matrix:
 Charge =  0 Multiplicity = 1

 SCF Done:  E(RHF) =  -876.880069739     A.U. after   16 cycles
 Normal termination of Gaussian 16 at Tue Apr  8 23:32:11 2025.
 Gaussian 16:  ES64L-G16RevC.01  3-Jul-2019

 ----------------------------------------------------------------------
 #t hf aug-cc-pvdz iop(5/13=1,5/36=2,99/5=2) pseudo=read geom=check gue
 ss=(read,tcheck) scf=(maxcycle=1)
 ----------------------------------------------------------------------
 -----
 title
 -----
 Structure from the checkpoint file:  "BDE49_nonexpt_1378_mol1.chk"
 Charge =  0 Multiplicity = 1

                         Standard orientation:
 ---------------------------------------------------------------------
 Center     Atomic      Atomic             Coordinates (Angstroms)
 Number     Number       Type             X           Y           Z
 ---------------------------------------------------------------------
      1          9           0       -2.709768   -0.367797   -0.532913
      2          8           0       -0.318960   -2.367537   -0.502622
      3          8           0       -1.042980    2.376796   -0.204749
      4         15           0       -1.595240   -0.192974    0.632692
      5          7           0        0.741300    0.934570    0.003010
      6          6           0       -0.589937    1.274277    0.016300
      7          6           0       -0.209924   -1.260325   -0.050995
      8          6           0        1.133384   -0.493137    0.055710
      9          6           0        1.741143    1.978680   -0.199197
     10          1           0        2.131009    1.968811   -1.221013
     11          1           0        1.258962    2.938478   -0.024190
     12          6           0        2.041769   -0.881474   -1.116317
     13          1           0        3.033308   -0.435902   -1.011537
     14          1           0        2.149944   -1.966069   -1.141149
     15          1           0        1.609517   -0.562029   -2.066901
     16          1           0        2.570983    1.853381    0.499815
     17          6           0        1.785454   -0.849289    1.407882
     18          1           0        2.719572   -0.297871    1.540126
     19          1           0        2.013337   -1.916678    1.444616
     20          1           0        1.124970   -0.605794    2.243668
 ---------------------------------------------------------------------

 SCF Done:  E(RHF) =  -877.451159147     A.U. after    2 cycles

 The electronic state is 1-A.
 Alpha  occ. eigenvalues --  -84.37176 -26.48346 -20.58247 -20.53688 -15.55725
 Alpha  occ. eigenvalues --  -11.38120 -11.37217 -11.32706 -11.28758 -11.26542
 Alpha  occ. eigenvalues --  -11.25552  -6.83644  -4.36515  -4.35762  -4.35286
 Alpha  occ. eigenvalues --   -1.59379  -1.51417  -1.48330  -1.29083  -1.10468
 Alpha  occ. eigenvalues --   -1.03058  -0.97729  -0.93331  -0.89587  -0.81721
 Alpha  occ. eigenvalues --   -0.75499  -0.71626  -0.69715  -0.69153  -0.67300
 Alpha  occ. eigenvalues --   -0.66434  -0.65593  -0.64263  -0.62537  -0.60921
 Alpha  occ. eigenvalues --   -0.59116  -0.58226  -0.57131  -0.55983  -0.55521
 Alpha  occ. eigenvalues --   -0.55107  -0.53069  -0.49064  -0.42412  -0.39421
 Alpha  occ. eigenvalues --   -0.37323
 Alpha virt. eigenvalues --    0.02741   0.03467   0.03763   0.04146   0.05186
 Alpha virt. eigenvalues --    0.05634   0.05735   0.06446   0.07202   0.08323
 Alpha virt. eigenvalues --    0.09161   0.09446   0.10385   0.10969   0.12229

 Mulliken charges:
               1
     1  F   -0.864636
     2  O   -1.368539
     3  O   -1.238541
     4  P    1.839168
     5  N    1.513940
     6  C    0.565026
     7  C    1.230749
     8  C   -3.578095
     9  C   -0.303735
    10  H    0.218519
    11  H    0.025675
    12  C    0.390712
    13  H    0.260648
    14  H    0.189106
    15  H    0.220792
    16  H    0.129414
    17  C    0.169582
    18  H    0.150628
    19  H    0.267444
    20  H    0.182144
 Sum of Mulliken charges =   0.00000

 Dipole moment (field-independent basis, Debye):
    X=              4.3998    Y=             -0.4485    Z=              1.7377  Tot=              4.7518

 Test job not archived.
 1\1\GINC-SE344\SP\RHF\Aug-CC-pVDZ\C6H9F1N1O2P1\OHZDE\08-Apr-2025\0\\#t
  hf aug-cc-pvdz iop(5/13=1,5/36=2,99/5=2) pseudo=read geom=check guess
 =(read,tcheck) scf=(maxcycle=1)\\title\\0,1\F,0,-2.709768,-0.367797,-0
 .532913\O,0,-0.31896,-2.367537,-0.502622\O,0,-1.04298,2.376796,-0.2047
 49\P,0,-1.59524,-0.192974,0.632692\N,0,0.7413,0.93457,0.00301\C,0,-0.5
 89937,1.274277,0.0163\C,0,-0.209924,-1.260325,-0.050995\C,0,1.133384,-
 0.493137,0.05571\C,0,1.741143,1.97868,-0.199197\H,0,2.131009,1.968811,
 -1.221013\H,0,1.258962,2.938478,-0.02419\C,0,2.041769,-0.881474,-1.116

 Normal termination of Gaussian 16 at Tue Apr  8 23:32:25 2025.
