 Gaussian 16, Revision C.01,

 ----------------------------------------------------------------------
 #t hf aug-cc-pvdz symm=none int=(grid=ultrafine) guess=(read,tcheck) s
 table=opt
 ----------------------------------------------------------------------
 -----
 title
 -----
 Symbolic Z-matrix:
 Charge =  0 Multiplicity = 2

 SCF Done:  E(UHF) =  -262.531011116     A.U. after   16 cycles
 Normal termination of Gaussian 16 at Wed Apr  9 00:34:47 2025.
 Gaussian 16:  ES64L-G16RevC.01  3-Jul-2019

 ----------------------------------------------------------------------
 #t hf aug-cc-pvdz iop(5/13=1,5/36=2,99/5=2) pseudo=read geom=check gue
 ss=(read,tcheck) scf=(maxcycle=1)
 ----------------------------------------------------------------------
 -----
 title
 -----
 Structure from the checkpoint file:  "BDE49_nonexpt_456_mol2.chk"
 Charge =  0 Multiplicity = 2

                         Standard orientation:
 ---------------------------------------------------------------------
 Center     Atomic      Atomic             Coordinates (Angstroms)
 Number     Number       Type             X           Y           Z
 ---------------------------------------------------------------------
      1          1           0        0.869810    1.883359   -0.954479
      2          5           0        0.856654    1.298723    0.076363
      3          6           0       -0.013535    0.025716    0.412862
      4          9           0       -1.257752    0.075878   -0.179114
      5          9           0        0.712927   -0.994916   -0.194159
      6          1           0       -0.168443   -0.259927    1.454950
 ---------------------------------------------------------------------

 SCF Done:  E(UHF) =  -262.772136694     A.U. after    2 cycles

 The electronic state is 2-A.
 Alpha  occ. eigenvalues --  -26.48298 -26.47922 -11.40906  -7.66118  -1.63580
 Alpha  occ. eigenvalues --   -1.57445  -0.96730  -0.79445  -0.75443  -0.73560
 Alpha  occ. eigenvalues --   -0.65038  -0.64387  -0.60707  -0.59331  -0.51222
 Alpha  occ. eigenvalues --   -0.38206
 Alpha virt. eigenvalues --    0.01823   0.03598   0.04984   0.05656   0.07794
 Alpha virt. eigenvalues --    0.08781   0.10151   0.12668   0.14098   0.16069
 Alpha virt. eigenvalues --    0.19754   0.22532   0.23616   0.25589   0.26268

  Beta  occ. eigenvalues --  -26.48279 -26.47749 -11.40878  -7.64221  -1.63313
  Beta  occ. eigenvalues --   -1.57169  -0.95882  -0.77882  -0.74761  -0.73154
  Beta  occ. eigenvalues --   -0.64180  -0.61989  -0.60517  -0.58878  -0.50211
  Beta virt. eigenvalues --    0.02617   0.03321   0.04599   0.05438   0.07438
  Beta virt. eigenvalues --    0.09053   0.09322   0.10894   0.13171   0.15978
  Beta virt. eigenvalues --    0.16713   0.20341   0.22955   0.24432   0.26487

 Mulliken charges and spin densities:
               1          2
     1  H    0.243540  -0.007432
     2  B   -0.126552   1.024535
     3  C    1.207974  -0.027140
     4  F   -0.700571   0.011699
     5  F   -0.674292   0.002370
     6  H    0.049900  -0.004032
 Sum of Mulliken charges =  -0.00000   1.00000

 Dipole moment (field-independent basis, Debye):
    X=              0.3415    Y=              1.0842    Z=              1.1540  Tot=              1.6198
                          Isotropic Fermi Contact Couplings
        Atom                 a.u.       MegaHertz       Gauss      10(-4) cm-1
     1  H(1)               0.00423      18.90764       6.74672       6.30691
     2  B(11)              0.26703     383.01338     136.66870     127.75951
     3  C(13)              0.03269      36.74982      13.11325      12.25842
     4  F(19)              0.03454     145.31408      51.85168      48.47156
     5  F(19)              0.00261      10.99564       3.92352       3.66775
     6  H(1)               0.00137       6.11142       2.18071       2.03855
 --------------------------------------------------------
       Center         ----  Spin Dipole Couplings  ----

 Normal termination of Gaussian 16 at Wed Apr  9 00:34:49 2025.
