 Gaussian 16, Revision C.01,

 ----------------------------------------------------------------------
 #t hf aug-cc-pvdz symm=none int=(grid=ultrafine) guess=(read,tcheck) s
 table=(opt,rrhf)
 ----------------------------------------------------------------------
 -----
 title
 -----
 Symbolic Z-matrix:
 Charge =  0 Multiplicity = 1

 SCF Done:  E(RHF) =  -1064.36253731     A.U. after   15 cycles
 Normal termination of Gaussian 16 at Wed Apr  9 00:19:03 2025.
 Gaussian 16:  ES64L-G16RevC.01  3-Jul-2019

 ----------------------------------------------------------------------
 #t hf aug-cc-pvdz iop(5/13=1,5/36=2,99/5=2) pseudo=read geom=check gue
 ss=(read,tcheck) scf=(maxcycle=1)
 ----------------------------------------------------------------------
 -----
 title
 -----
 Structure from the checkpoint file:  "BDE49_nonexpt_2584_mol1.chk"
 Charge =  0 Multiplicity = 1

                         Standard orientation:
 ---------------------------------------------------------------------
 Center     Atomic      Atomic             Coordinates (Angstroms)
 Number     Number       Type             X           Y           Z
 ---------------------------------------------------------------------
      1         17           0        2.237905    0.271006   -0.447620
      2         16           0        0.749352   -0.834147    0.533606
      3          6           0       -0.719596    0.067190    0.127558
      4          7           0       -1.633561   -0.719979   -0.307671
      5          8           0       -2.873889   -0.082816   -0.380376
      6          1           0       -3.435802   -0.768888   -0.756669
      7          6           0       -0.859125    1.524191    0.443316
      8          1           0        0.091620    2.040312    0.312637
      9          1           0       -1.174138    1.647194    1.484197
     10          1           0       -1.617330    1.974731   -0.196866
 ---------------------------------------------------------------------

 SCF Done:  E(RHF) =  -1064.70715824     A.U. after    2 cycles

 The electronic state is 1-A.
 Alpha  occ. eigenvalues -- -105.59066 -94.02562 -20.60921 -15.59331 -11.33622
 Alpha  occ. eigenvalues --  -11.25979 -10.63738  -8.30272  -7.80675  -7.80240
 Alpha  occ. eigenvalues --   -7.80201  -6.28057  -6.27826  -6.27529  -1.52689
 Alpha  occ. eigenvalues --   -1.22928  -1.11572  -1.01656  -0.96081  -0.77787
 Alpha  occ. eigenvalues --   -0.73650  -0.68397  -0.65192  -0.61000  -0.58132
 Alpha  occ. eigenvalues --   -0.57256  -0.53833  -0.51812  -0.50161  -0.46122
 Alpha  occ. eigenvalues --   -0.43754  -0.37924
 Alpha virt. eigenvalues --    0.03505   0.03599   0.04707   0.05566   0.06620
 Alpha virt. eigenvalues --    0.07604   0.09779   0.10331   0.11863   0.13024
 Alpha virt. eigenvalues --    0.13760   0.14612   0.15315   0.15655   0.16791

 Mulliken charges:
               1
     1  Cl  -0.263940
     2  S    0.448179
     3  C   -1.250000
     4  N    1.385580
     5  O   -1.155682
     6  H    0.318529
     7  C   -0.205802
     8  H    0.215007
     9  H    0.282696
    10  H    0.225433
 Sum of Mulliken charges =   0.00000

 Dipole moment (field-independent basis, Debye):
    X=             -1.6064    Y=              1.1215    Z=              0.4537  Tot=              2.0110

 Test job not archived.
 1\1\GINC-SE165\SP\RHF\Aug-CC-pVDZ\C2H4Cl1N1O1S1\OHZDE\09-Apr-2025\0\\#
 t hf aug-cc-pvdz iop(5/13=1,5/36=2,99/5=2) pseudo=read geom=check gues
 s=(read,tcheck) scf=(maxcycle=1)\\title\\0,1\Cl,0,2.237905,0.271006,-0
 .44762\S,0,0.749352,-0.834147,0.533606\C,0,-0.719596,0.06719,0.127558\
 N,0,-1.633561,-0.719979,-0.307671\O,0,-2.873889,-0.082816,-0.380376\H,
 0,-3.435802,-0.768888,-0.756669\C,0,-0.859125,1.524191,0.443316\H,0,0.
 09162,2.040312,0.312637\H,0,-1.174138,1.647194,1.484197\H,0,-1.61733,1
 .974731,-0.196866\\Version=ES64L-G16RevC.01\State=1-A\HF=-1064.7071582

 Normal termination of Gaussian 16 at Wed Apr  9 00:19:08 2025.
