 Gaussian 16, Revision C.01,

 ----------------------------------------------------------------------
 #t hf aug-cc-pvdz symm=none int=(grid=ultrafine) guess=(read,tcheck) s
 table=(opt,rrhf)
 ----------------------------------------------------------------------
 -----
 title
 -----
 Symbolic Z-matrix:
 Charge =  0 Multiplicity = 1

 SCF Done:  E(RHF) =  -431.061525583     A.U. after   14 cycles
 Normal termination of Gaussian 16 at Wed Apr  9 00:33:26 2025.
 Gaussian 16:  ES64L-G16RevC.01  3-Jul-2019

 ----------------------------------------------------------------------
 #t hf aug-cc-pvdz iop(5/13=1,5/36=2,99/5=2) pseudo=read geom=check gue
 ss=(read,tcheck) scf=(maxcycle=1)
 ----------------------------------------------------------------------
 -----
 title
 -----
 Structure from the checkpoint file:  "BDE49_nonexpt_412_mol1.chk"
 Charge =  0 Multiplicity = 1

                         Standard orientation:
 ---------------------------------------------------------------------
 Center     Atomic      Atomic             Coordinates (Angstroms)
 Number     Number       Type             X           Y           Z
 ---------------------------------------------------------------------
      1          9           0        1.655401   -1.389171   -0.000017
      2          5           0        1.194634   -0.150806    0.000039
      3          9           0        2.097901    0.826140   -0.000030
      4          6           0       -0.320508    0.198575    0.000018
      5          7           0       -1.092104   -0.832290    0.000012
      6          8           0       -2.434827   -0.480715   -0.000004
      7          1           0       -2.880023   -1.335243   -0.000006
      8          6           0       -0.822318    1.618427    0.000009
      9          1           0        0.006873    2.324416    0.000018
     10          1           0       -1.449729    1.800937    0.877098
     11          1           0       -1.449706    1.800934   -0.877097
 ---------------------------------------------------------------------

 SCF Done:  E(RHF) =  -431.473571936     A.U. after    2 cycles

 The electronic state is 1-A.
 Alpha  occ. eigenvalues --  -26.48356 -26.47814 -20.60822 -15.59593 -11.28181
 Alpha  occ. eigenvalues --  -11.24958  -7.72636  -1.63303  -1.59267  -1.52866
 Alpha  occ. eigenvalues --   -1.20079  -1.00130  -0.85165  -0.79308  -0.74896
 Alpha  occ. eigenvalues --   -0.74242  -0.70689  -0.69715  -0.65313  -0.63676
 Alpha  occ. eigenvalues --   -0.63419  -0.62448  -0.58640  -0.57000  -0.54791
 Alpha  occ. eigenvalues --   -0.48126  -0.42432
 Alpha virt. eigenvalues --    0.03460   0.04377   0.04604   0.05666   0.05905
 Alpha virt. eigenvalues --    0.06202   0.07169   0.07198   0.07775   0.13928
 Alpha virt. eigenvalues --    0.14336   0.14702   0.16218   0.16540   0.17099

 Mulliken charges:
               1
     1  F   -0.750743
     2  B    1.523571
     3  F   -0.651724
     4  C   -0.689268
     5  N    1.188814
     6  O   -1.092061
     7  H    0.302597
     8  C   -0.382921
     9  H    0.042543
    10  H    0.254600
    11  H    0.254594
 Sum of Mulliken charges =  -0.00000

 Dipole moment (field-independent basis, Debye):
    X=             -1.6000    Y=              1.1277    Z=              0.0002  Tot=              1.9575

 Test job not archived.
 1\1\GINC-SE150\SP\RHF\Aug-CC-pVDZ\C2H4B1F2N1O1\OHZDE\09-Apr-2025\0\\#t
  hf aug-cc-pvdz iop(5/13=1,5/36=2,99/5=2) pseudo=read geom=check guess
 =(read,tcheck) scf=(maxcycle=1)\\title\\0,1\F,0,1.655401,-1.389171,-0.
 000017\B,0,1.194634,-0.150806,0.000039\F,0,2.097901,0.82614,-0.00003\C
 ,0,-0.320508,0.198575,0.000018\N,0,-1.092104,-0.83229,0.000012\O,0,-2.
 434827,-0.480715,-0.000004\H,0,-2.880023,-1.335243,-0.000006\C,0,-0.82
 2318,1.618427,0.000009\H,0,0.006873,2.324416,0.000018\H,0,-1.449729,1.
 800937,0.877098\H,0,-1.449706,1.800934,-0.877097\\Version=ES64L-G16Rev

 Normal termination of Gaussian 16 at Wed Apr  9 00:33:30 2025.
