 Gaussian 16, Revision C.01,

 ----------------------------------------------------------------------
 #t hf aug-cc-pvdz symm=none int=(grid=ultrafine) guess=(read,tcheck) s
 table=opt
 ----------------------------------------------------------------------
 -----
 title
 -----
 Symbolic Z-matrix:
 Charge =  0 Multiplicity = 2

 SCF Done:  E(UHF) =  -458.989606652     A.U. after   17 cycles
 Normal termination of Gaussian 16 at Tue Apr  8 23:37:14 2025.
 Gaussian 16:  ES64L-G16RevC.01  3-Jul-2019

 ----------------------------------------------------------------------
 #t hf aug-cc-pvdz iop(5/13=1,5/36=2,99/5=2) pseudo=read geom=check gue
 ss=(read,tcheck) scf=(maxcycle=1)
 ----------------------------------------------------------------------
 -----
 title
 -----
 Structure from the checkpoint file:  "BDE49_nonexpt_1544_mol2.chk"
 Charge =  0 Multiplicity = 2

                         Standard orientation:
 ---------------------------------------------------------------------
 Center     Atomic      Atomic             Coordinates (Angstroms)
 Number     Number       Type             X           Y           Z
 ---------------------------------------------------------------------
      1         15           0       -1.429824   -0.129232   -0.103522
      2          6           0        0.377123    0.013070    0.385225
      3          6           0        1.147529   -1.231218   -0.080464
      4          1           0        1.143829   -1.310883   -1.172201
      5          1           0        0.713548   -2.150222    0.321902
      6          6           0        1.020205    1.308157   -0.139822
      7          1           0        2.191314   -1.182314    0.245307
      8          1           0        0.391361    0.042958    1.482311
      9          1           0        2.071091    1.361330    0.165087
     10          1           0        0.989257    1.348767   -1.232775
     11          1           0        0.512969    2.196563    0.243565
     12          1           0       -1.835150    1.092227    0.510002
 ---------------------------------------------------------------------

 SCF Done:  E(UHF) =  -459.163830086     A.U. after    2 cycles

 The electronic state is 2-A.
 Alpha  occ. eigenvalues --  -84.27158 -11.25005 -11.23465 -11.23255  -6.74337
 Alpha  occ. eigenvalues --   -4.26997  -4.26471  -4.25908  -1.07730  -0.93992
 Alpha  occ. eigenvalues --   -0.86995  -0.75550  -0.63390  -0.59682  -0.57710
 Alpha  occ. eigenvalues --   -0.54977  -0.50098  -0.49985  -0.44964  -0.37038
 Alpha  occ. eigenvalues --   -0.31923
 Alpha virt. eigenvalues --    0.03699   0.04378   0.04473   0.04912   0.06804
 Alpha virt. eigenvalues --    0.06995   0.07327   0.07612   0.10515   0.11337
 Alpha virt. eigenvalues --    0.12678   0.14357   0.15263   0.15749   0.16205

  Beta  occ. eigenvalues --  -84.26481 -11.25149 -11.23376 -11.23247  -6.73478
  Beta  occ. eigenvalues --   -4.25934  -4.25521  -4.23681  -1.07327  -0.93870
  Beta  occ. eigenvalues --   -0.83952  -0.72304  -0.62977  -0.59354  -0.57313
  Beta  occ. eigenvalues --   -0.54912  -0.49977  -0.49451  -0.44352  -0.35177
  Beta virt. eigenvalues --    0.03366   0.03754   0.04391   0.04979   0.06100
  Beta virt. eigenvalues --    0.06851   0.07067   0.07399   0.07886   0.10730
  Beta virt. eigenvalues --    0.12005   0.13674   0.15210   0.15406   0.15846

 Mulliken charges and spin densities:
               1          2
     1  P    0.260527   1.301587
     2  C   -0.962406  -0.138608
     3  C   -0.251980   0.019655
     4  H    0.182888  -0.003322
     5  H    0.114805  -0.003694
     6  C   -0.253463   0.017780
     7  H    0.157906  -0.000880
     8  H    0.158679  -0.006993
     9  H    0.156517   0.004812
    10  H    0.182319  -0.005216
    11  H    0.102618  -0.004727
    12  H    0.151591  -0.180395
 Sum of Mulliken charges =   0.00000   1.00000

 Dipole moment (field-independent basis, Debye):
    X=              0.9861    Y=              0.3503    Z=              0.4765  Tot=              1.1498
                          Isotropic Fermi Contact Couplings
        Atom                 a.u.       MegaHertz       Gauss      10(-4) cm-1
     1  P(31)              0.19295     349.45338     124.69366     116.56510
     2  C(13)             -0.02667     -29.98408     -10.69907     -10.00161
     3  C(13)              0.00071       0.79465       0.28355       0.26507
     4  H(1)              -0.00032      -1.41832      -0.50609      -0.47310
     5  H(1)              -0.00030      -1.35194      -0.48240      -0.45096
     6  C(13)              0.02562      28.80354      10.27782       9.60783
     7  H(1)              -0.00077      -3.45503      -1.23284      -1.15247
     8  H(1)               0.00840      37.56686      13.40479      12.53095

 Normal termination of Gaussian 16 at Tue Apr  8 23:37:19 2025.
