 Gaussian 16, Revision C.01,

 ----------------------------------------------------------------------
 #t hf aug-cc-pvdz symm=none int=(grid=ultrafine) guess=(read,tcheck) s
 table=(opt,rrhf)
 ----------------------------------------------------------------------
 -----
 title
 -----
 Symbolic Z-matrix:
 Charge =  0 Multiplicity = 1

 SCF Done:  E(RHF) =  -111.194394773     A.U. after   11 cycles
 Normal termination of Gaussian 16 at Tue Apr  8 22:50:29 2025.
 Gaussian 16:  ES64L-G16RevC.01  3-Jul-2019

 ----------------------------------------------------------------------
 #t hf aug-cc-pvdz iop(5/13=1,5/36=2,99/5=2) pseudo=read geom=check gue
 ss=(read,tcheck) scf=(maxcycle=1)
 ----------------------------------------------------------------------
 -----
 title
 -----
 Structure from the checkpoint file:  "BDE49_expt_1740_mol1.chk"
 Charge =  0 Multiplicity = 1

                         Standard orientation:
 ---------------------------------------------------------------------
 Center     Atomic      Atomic             Coordinates (Angstroms)
 Number     Number       Type             X           Y           Z
 ---------------------------------------------------------------------
      1          7           0       -0.000000    0.743553   -0.000003
      2          7           0       -0.000000   -0.743553   -0.000003
      3          1           0       -0.589969    0.986757    0.795178
      4          1           0       -0.590000    0.986755   -0.795160
      5          1           0        0.589969   -0.986757    0.795178
      6          1           0        0.590000   -0.986755   -0.795160
 ---------------------------------------------------------------------

 SCF Done:  E(RHF) =  -111.315765065     A.U. after    2 cycles

 The electronic state is 1-A.
 Alpha  occ. eigenvalues --  -15.51942 -15.51614  -1.24293  -1.03573  -0.73237
 Alpha  occ. eigenvalues --   -0.64042  -0.60603  -0.58614  -0.41522
 Alpha virt. eigenvalues --    0.03341   0.05829   0.06402   0.06919   0.13809
 Alpha virt. eigenvalues --    0.15826   0.16554   0.18141   0.18661   0.19393
 Alpha virt. eigenvalues --    0.21612   0.28242   0.28468   0.28963   0.32086

 Mulliken charges:
               1
     1  N   -0.245481
     2  N   -0.245481
     3  H    0.122741
     4  H    0.122740
     5  H    0.122741
     6  H    0.122740
 Sum of Mulliken charges =   0.00000

 Dipole moment (field-independent basis, Debye):
    X=              0.0000    Y=             -0.0000    Z=              0.0001  Tot=              0.0001

 Test job not archived.
 1\1\GINC-SE367\SP\RHF\Aug-CC-pVDZ\H4N2\OHZDE\08-Apr-2025\0\\#t hf aug-
 cc-pvdz iop(5/13=1,5/36=2,99/5=2) pseudo=read geom=check guess=(read,t
 check) scf=(maxcycle=1)\\title\\0,1\N,0,0.,0.743553,-0.000003\N,0,0.,-
 0.743553,-0.000003\H,0,-0.589969,0.986757,0.795178\H,0,-0.59,0.986755,
 -0.79516\H,0,0.589969,-0.986757,0.795178\H,0,0.59,-0.986755,-0.79516\\
 Version=ES64L-G16RevC.01\State=1-A\HF=-111.3157651\RMSD=1.709e-02\Dipo
 le=0.,0.,0.0000272\Quadrupole=-0.7754888,-0.9181749,1.6936638,-3.37420
 82,0.,0.\PG=C02 [X(H4N2)]\\@

 Normal termination of Gaussian 16 at Tue Apr  8 22:50:30 2025.
