 Gaussian 16, Revision C.01,

 ----------------------------------------------------------------------
 #t hf aug-cc-pvdz symm=none int=(grid=ultrafine) guess=(read,tcheck) s
 table=opt
 ----------------------------------------------------------------------
 -----
 title
 -----
 Symbolic Z-matrix:
 Charge =  0 Multiplicity = 2

 SCF Done:  E(UHF) =  -234.765407930     A.U. after   16 cycles
 Normal termination of Gaussian 16 at Tue Apr  8 22:47:21 2025.
 Gaussian 16:  ES64L-G16RevC.01  3-Jul-2019

 ----------------------------------------------------------------------
 #t hf aug-cc-pvdz iop(5/13=1,5/36=2,99/5=2) pseudo=read geom=check gue
 ss=(read,tcheck) scf=(maxcycle=1)
 ----------------------------------------------------------------------
 -----
 title
 -----
 Structure from the checkpoint file:  "BDE49_expt_15_mol2.chk"
 Charge =  0 Multiplicity = 2

                         Standard orientation:
 ---------------------------------------------------------------------
 Center     Atomic      Atomic             Coordinates (Angstroms)
 Number     Number       Type             X           Y           Z
 ---------------------------------------------------------------------
      1          6           0       -3.180409    0.236993    0.075538
      2          6           0       -1.862010   -0.533534   -0.037909
      3          1           0       -3.286760    0.960702   -0.738683
      4          1           0       -3.234705    0.790951    1.017935
      5          1           0       -4.041647   -0.435566    0.036032
      6          6           0       -0.626298    0.370888    0.014312
      7          1           0       -1.852100   -1.104588   -0.974362
      8          1           0       -1.801627   -1.273790    0.769209
      9          6           0        0.700447   -0.392527   -0.101409
     10          1           0       -0.630507    0.941132    0.951139
     11          1           0       -0.685128    1.111151   -0.793782
     12          6           0        1.911910    0.478599   -0.066402
     13          1           0        0.686884   -0.983293   -1.036822
     14          1           0        0.764293   -1.143919    0.699850
     15          6           0        3.276409   -0.093111    0.114672
     16          1           0        1.815903    1.508018   -0.399281
     17          1           0        3.303784   -0.820828    0.935359
     18          1           0        4.019644    0.680464    0.323622
     19          1           0        3.621671   -0.634283   -0.783022
 ---------------------------------------------------------------------

 SCF Done:  E(UHF) =  -235.029054711     A.U. after    2 cycles

 The electronic state is 2-A.
 Alpha  occ. eigenvalues --  -11.23074 -11.22501 -11.22463 -11.22419 -11.22333
 Alpha  occ. eigenvalues --  -11.22062  -1.09226  -1.04127  -0.96620  -0.87865
 Alpha  occ. eigenvalues --   -0.79802  -0.78423  -0.65126  -0.61627  -0.60047
 Alpha  occ. eigenvalues --   -0.59163  -0.55980  -0.55415  -0.53767  -0.50554
 Alpha  occ. eigenvalues --   -0.49627  -0.47275  -0.46802  -0.46372  -0.32880
 Alpha virt. eigenvalues --    0.03520   0.03579   0.03963   0.04158   0.05430
 Alpha virt. eigenvalues --    0.05767   0.06139   0.07085   0.08104   0.08671
 Alpha virt. eigenvalues --    0.08840   0.10006   0.11283   0.11725   0.13728

  Beta  occ. eigenvalues --  -11.22829 -11.22754 -11.22469 -11.22287 -11.22063
  Beta  occ. eigenvalues --  -11.20587  -1.08008  -1.01888  -0.96340  -0.87282
  Beta  occ. eigenvalues --   -0.79415  -0.74366  -0.64444  -0.61036  -0.58874
  Beta  occ. eigenvalues --   -0.57597  -0.54791  -0.54564  -0.53522  -0.49914
  Beta  occ. eigenvalues --   -0.49123  -0.47079  -0.46601  -0.46021
  Beta virt. eigenvalues --    0.03543   0.03596   0.03984   0.04170   0.05433
  Beta virt. eigenvalues --    0.05791   0.06130   0.06959   0.08087   0.08644
  Beta virt. eigenvalues --    0.08731   0.09994   0.10878   0.11727   0.12515

 Mulliken charges and spin densities:
               1          2
     1  C   -0.404504   0.000292
     2  C   -0.220159  -0.004895
     3  H    0.158133  -0.000054
     4  H    0.159098   0.000188
     5  H    0.117102   0.000195
     6  C   -0.283047   0.034233
     7  H    0.120899  -0.000629
     8  H    0.114306   0.000317
     9  C   -0.599365  -0.312885
    10  H    0.133556  -0.001004
    11  H    0.120879  -0.003933
    12  C    0.525438   1.516897
    13  H    0.192658   0.043564
    14  H    0.172088   0.013664
    15  C   -0.654659  -0.269845
    16  H   -0.195709  -0.078724
    17  H    0.176252   0.016195
    18  H    0.140329   0.002262
    19  H    0.226705   0.044161
 Sum of Mulliken charges =  -0.00000   1.00000

 Dipole moment (field-independent basis, Debye):
    X=              0.0147    Y=             -0.1351    Z=             -0.1319  Tot=              0.1893
                          Isotropic Fermi Contact Couplings
        Atom                 a.u.       MegaHertz       Gauss      10(-4) cm-1
     1  C(13)             -0.00014      -0.15585      -0.05561      -0.05199
     2  C(13)             -0.00209      -2.34859      -0.83804      -0.78341
     3  H(1)               0.00001       0.04614       0.01646       0.01539
     4  H(1)               0.00005       0.20149       0.07190       0.06721
     5  H(1)               0.00003       0.13697       0.04887       0.04569
     6  C(13)              0.01009      11.34669       4.04878       3.78485
     7  H(1)               0.00016       0.69438       0.24777       0.23162
     8  H(1)               0.00014       0.63035       0.22492       0.21026

 Normal termination of Gaussian 16 at Tue Apr  8 22:47:28 2025.
