 Gaussian 16, Revision C.01,

 ----------------------------------------------------------------------
 #t hf aug-cc-pvdz symm=none int=(grid=ultrafine) guess=(read,tcheck) s
 table=(opt,rrhf)
 ----------------------------------------------------------------------
 -----
 title
 -----
 Symbolic Z-matrix:
 Charge =  0 Multiplicity = 1

 SCF Done:  E(RHF) =  -235.392664730     A.U. after   11 cycles
 Normal termination of Gaussian 16 at Tue Apr  8 22:44:23 2025.
 Gaussian 16:  ES64L-G16RevC.01  3-Jul-2019

 ----------------------------------------------------------------------
 #t hf aug-cc-pvdz iop(5/13=1,5/36=2,99/5=2) pseudo=read geom=check gue
 ss=(read,tcheck) scf=(maxcycle=1)
 ----------------------------------------------------------------------
 -----
 title
 -----
 Structure from the checkpoint file:  "BDE49_expt_14_mol1.chk"
 Charge =  0 Multiplicity = 1

                         Standard orientation:
 ---------------------------------------------------------------------
 Center     Atomic      Atomic             Coordinates (Angstroms)
 Number     Number       Type             X           Y           Z
 ---------------------------------------------------------------------
      1          6           0        1.413141    2.903795    0.000000
      2          6           0        1.413141    1.372727    0.000000
      3          1           0        0.900930    3.299766    0.882749
      4          1           0        0.900930    3.299766   -0.882749
      5          1           0        2.430694    3.304226    0.000000
      6          6           0        0.005413    0.766131    0.000000
      7          1           0        1.963083    1.007350    0.876033
      8          1           0        1.963083    1.007350   -0.876033
      9          6           0       -0.005413   -0.766131    0.000000
     10          1           0       -0.545056    1.132613   -0.876653
     11          1           0       -0.545056    1.132613    0.876653
     12          6           0       -1.413141   -1.372727    0.000000
     13          1           0        0.545056   -1.132613    0.876653
     14          1           0        0.545056   -1.132613   -0.876653
     15          6           0       -1.413141   -2.903795    0.000000
     16          1           0       -1.963083   -1.007350   -0.876033
     17          1           0       -1.963083   -1.007350    0.876033
     18          1           0       -0.900930   -3.299766   -0.882749
     19          1           0       -2.430694   -3.304226    0.000000
     20          1           0       -0.900930   -3.299766    0.882749
 ---------------------------------------------------------------------

 SCF Done:  E(RHF) =  -235.661866246     A.U. after    2 cycles

 The electronic state is 1-AG.
 Alpha  occ. eigenvalues --  -11.22376 -11.22374 -11.22137 -11.22112 -11.22004
 Alpha  occ. eigenvalues --  -11.22001  -1.08657  -1.03544  -0.96035  -0.87311
 Alpha  occ. eigenvalues --   -0.80062  -0.78727  -0.65524  -0.61396  -0.60179
 Alpha  occ. eigenvalues --   -0.58452  -0.55860  -0.53789  -0.53351  -0.50614
 Alpha  occ. eigenvalues --   -0.48706  -0.47232  -0.46609  -0.46219  -0.45044
 Alpha virt. eigenvalues --    0.03535   0.03608   0.03742   0.04236   0.05344
 Alpha virt. eigenvalues --    0.05827   0.06125   0.06613   0.07999   0.08755
 Alpha virt. eigenvalues --    0.08839   0.09708   0.10837   0.11172   0.12440

 Mulliken charges:
               1
     1  C   -0.413711
     2  C   -0.217379
     3  H    0.160936
     4  H    0.160936
     5  H    0.115446
     6  C   -0.260147
     7  H    0.119743
     8  H    0.119743
     9  C   -0.260147
    10  H    0.107216
    11  H    0.107216
    12  C   -0.217379
    13  H    0.107216
    14  H    0.107216
    15  C   -0.413711
    16  H    0.119743
    17  H    0.119743
    18  H    0.160936
    19  H    0.115446
    20  H    0.160936
 Sum of Mulliken charges =   0.00000

 Dipole moment (field-independent basis, Debye):
    X=             -0.0000    Y=              0.0000    Z=             -0.0000  Tot=              0.0000

 Test job not archived.
 1\1\GINC-SE038\SP\RHF\Aug-CC-pVDZ\C6H14\OHZDE\08-Apr-2025\0\\#t hf aug
 -cc-pvdz iop(5/13=1,5/36=2,99/5=2) pseudo=read geom=check guess=(read,
 tcheck) scf=(maxcycle=1)\\title\\0,1\C,0,1.413141,2.903795,0.\C,0,1.41
 3141,1.372727,0.\H,0,0.90093,3.299766,0.882749\H,0,0.90093,3.299766,-0
 .882749\H,0,2.430694,3.304226,0.\C,0,0.005413,0.766131,0.\H,0,1.963083
 ,1.00735,0.876033\H,0,1.963083,1.00735,-0.876033\C,0,-0.005413,-0.7661
 31,0.\H,0,-0.545056,1.132613,-0.876653\H,0,-0.545056,1.132613,0.876653
 \C,0,-1.413141,-1.372727,0.\H,0,0.545056,-1.132613,0.876653\H,0,0.5450

 Normal termination of Gaussian 16 at Tue Apr  8 22:44:29 2025.
