 Gaussian 16, Revision C.01,

 ----------------------------------------------------------------------
 #t hf aug-cc-pvdz symm=none int=(grid=ultrafine) guess=(read,tcheck) s
 table=(opt,rrhf)
 ----------------------------------------------------------------------
 -----
 title
 -----
 Symbolic Z-matrix:
 Charge =  0 Multiplicity = 1

 SCF Done:  E(RHF) =  -468.321783167     A.U. after   13 cycles
 Normal termination of Gaussian 16 at Wed Apr  9 00:45:05 2025.
 Gaussian 16:  ES64L-G16RevC.01  3-Jul-2019

 ----------------------------------------------------------------------
 #t hf aug-cc-pvdz iop(5/13=1,5/36=2,99/5=2) pseudo=read geom=check gue
 ss=(read,tcheck) scf=(maxcycle=1)
 ----------------------------------------------------------------------
 -----
 title
 -----
 Structure from the checkpoint file:  "BDE49_nonexpt_788_mol1.chk"
 Charge =  0 Multiplicity = 1

                         Standard orientation:
 ---------------------------------------------------------------------
 Center     Atomic      Atomic             Coordinates (Angstroms)
 Number     Number       Type             X           Y           Z
 ---------------------------------------------------------------------
      1         14           0       -0.189250   -1.124669   -0.000007
      2          5           0        1.657770   -0.276818   -0.000108
      3          8           0        1.796531    1.072104    0.000033
      4          6           0       -1.644590    0.055629    0.000026
      5          6           0       -1.545028    1.387933   -0.000002
      6          1           0       -2.644834   -0.379184    0.000071
      7          1           0       -0.583405    1.890414   -0.000051
      8          1           0       -2.423376    2.029102    0.000020
      9          1           0        2.713646    1.368632    0.000116
     10          1           0        2.643664   -0.964511    0.000058
     11          1           0       -0.289749   -2.026582    1.182882
     12          1           0       -0.289832   -2.026614   -1.182863
 ---------------------------------------------------------------------

 SCF Done:  E(RHF) =  -468.539060604     A.U. after    2 cycles

 The electronic state is 1-A.
 Alpha  occ. eigenvalues --  -69.50636 -20.57882 -11.24129 -11.22364  -7.62590
 Alpha  occ. eigenvalues --   -6.17901  -3.93252  -3.93251  -3.93226  -1.47663
 Alpha  occ. eigenvalues --   -1.03085  -0.80517  -0.77617  -0.69984  -0.66464
 Alpha  occ. eigenvalues --   -0.62468  -0.56575  -0.54593  -0.53888  -0.47951
 Alpha  occ. eigenvalues --   -0.45433  -0.40428  -0.37516
 Alpha virt. eigenvalues --    0.02841   0.04104   0.04530   0.04839   0.05605
 Alpha virt. eigenvalues --    0.06165   0.07449   0.07687   0.09104   0.09614
 Alpha virt. eigenvalues --    0.09824   0.10240   0.10640   0.11776   0.12508

 Mulliken charges:
               1
     1  Si   0.946068
     2  B    0.257698
     3  O   -1.034738
     4  C   -0.325665
     5  C    0.255916
     6  H   -0.261313
     7  H   -0.008304
     8  H   -0.070905
     9  H    0.522974
    10  H    0.077678
    11  H   -0.179695
    12  H   -0.179713
 Sum of Mulliken charges =  -0.00000

 Dipole moment (field-independent basis, Debye):
    X=              1.6119    Y=              1.0853    Z=             -0.0000  Tot=              1.9432

 Test job not archived.
 1\1\GINC-SE159\SP\RHF\Aug-CC-pVDZ\C2H7B1O1Si1\OHZDE\09-Apr-2025\0\\#t
 hf aug-cc-pvdz iop(5/13=1,5/36=2,99/5=2) pseudo=read geom=check guess=
 (read,tcheck) scf=(maxcycle=1)\\title\\0,1\Si,0,-0.18925,-1.124669,-0.
 000007\B,0,1.65777,-0.276818,-0.000108\O,0,1.796531,1.072104,0.000033\
 C,0,-1.64459,0.055629,0.000026\C,0,-1.545028,1.387933,-0.000002\H,0,-2
 .644834,-0.379184,0.000071\H,0,-0.583405,1.890414,-0.000051\H,0,-2.423
 376,2.029102,0.00002\H,0,2.713646,1.368633,0.000116\H,0,2.643664,-0.96
 451,0.000058\H,0,-0.289749,-2.026582,1.182882\H,0,-0.289832,-2.026614,

 Normal termination of Gaussian 16 at Wed Apr  9 00:45:09 2025.
