 Gaussian 16, Revision C.01,

 ----------------------------------------------------------------------
 #t hf aug-cc-pvdz symm=none int=(grid=ultrafine) guess=(read,tcheck) s
 table=(opt,rrhf)
 ----------------------------------------------------------------------
 -----
 title
 -----
 Symbolic Z-matrix:
 Charge =  0 Multiplicity = 1

 SCF Done:  E(RHF) =  -831.758763582     A.U. after   16 cycles
 Normal termination of Gaussian 16 at Tue Apr  8 23:40:11 2025.
 Gaussian 16:  ES64L-G16RevC.01  3-Jul-2019

 ----------------------------------------------------------------------
 #t hf aug-cc-pvdz iop(5/13=1,5/36=2,99/5=2) pseudo=read geom=check gue
 ss=(read,tcheck) scf=(maxcycle=1)
 ----------------------------------------------------------------------
 -----
 title
 -----
 Structure from the checkpoint file:  "BDE49_nonexpt_1557_mol1.chk"
 Charge =  0 Multiplicity = 1

                         Standard orientation:
 ---------------------------------------------------------------------
 Center     Atomic      Atomic             Coordinates (Angstroms)
 Number     Number       Type             X           Y           Z
 ---------------------------------------------------------------------
      1          6           0        2.128397   -1.140333    0.297680
      2          6           0        0.799091   -1.371988   -0.027223
      3          6           0        2.689052    0.135618    0.126581
      4          6           0        1.869969    1.164962   -0.375277
      5          6           0        0.543513    0.924905   -0.690584
      6          6           0       -0.026682   -0.351396   -0.526450
      7          1           0       -0.069755    1.738019   -1.057137
      8          1           0        2.744223   -1.950137    0.675758
      9          1           0        0.391528   -2.369454    0.102861
     10          7           0       -2.716844    0.140194    0.295436
     11          8           0       -2.414838   -0.361639    1.585848
     12          8           0       -2.363011    1.530494    0.283839
     13          7           0        4.028867    0.364925    0.388962
     14          1           0        4.488742   -0.287751    1.004532
     15          1           0        4.303438    1.322944    0.541209
     16          1           0        2.288953    2.156210   -0.518305
     17          1           0       -1.463068   -0.201557    1.716821
     18          1           0       -3.184898    1.955779    0.559252
     19         15           0       -1.765830   -0.773293   -0.911272
     20          1           0       -1.993121    0.178057   -1.932562
 ---------------------------------------------------------------------

 SCF Done:  E(RHF) =  -832.297655690     A.U. after    2 cycles

 The electronic state is 1-A.
 Alpha  occ. eigenvalues --  -84.29634 -20.58574 -20.58294 -15.60279 -15.52520
 Alpha  occ. eigenvalues --  -11.30483 -11.26147 -11.25941 -11.24265 -11.24166
 Alpha  occ. eigenvalues --  -11.23944  -6.76394  -4.29408  -4.29030  -4.28495
 Alpha  occ. eigenvalues --   -1.53076  -1.43414  -1.24253  -1.14535  -1.05891
 Alpha  occ. eigenvalues --   -1.02894  -1.00492  -0.86843  -0.85784  -0.80642
 Alpha  occ. eigenvalues --   -0.74517  -0.74273  -0.73562  -0.67312  -0.65869
 Alpha  occ. eigenvalues --   -0.63904  -0.63142  -0.62066  -0.60587  -0.60291
 Alpha  occ. eigenvalues --   -0.56875  -0.51183  -0.50398  -0.49380  -0.48173
 Alpha  occ. eigenvalues --   -0.46718  -0.43370  -0.36011  -0.34907  -0.32550
 Alpha virt. eigenvalues --    0.02404   0.03752   0.04128   0.05127   0.05598
 Alpha virt. eigenvalues --    0.06086   0.06607   0.07608   0.08272   0.08488
 Alpha virt. eigenvalues --    0.09292   0.09898   0.10715   0.11320   0.12670

 Mulliken charges:
               1
     1  C    0.821083
     2  C   -0.817849
     3  C   -1.691464
     4  C    0.953136
     5  C    0.383793
     6  C    0.702556
     7  H   -0.339602
     8  H   -0.296290
     9  H   -0.268152
    10  N    1.306251
    11  O   -1.206692
    12  O   -1.258019
    13  N    0.869612
    14  H    0.003154
    15  H    0.003436
    16  H   -0.302963
    17  H    0.392905
    18  H    0.369956
    19  P    0.042317
    20  H    0.332835
 Sum of Mulliken charges =  -0.00000

 Dipole moment (field-independent basis, Debye):
    X=              3.7340    Y=              1.6050    Z=              0.6864  Tot=              4.1219

 Test job not archived.
 1\1\GINC-SE090\SP\RHF\Aug-CC-pVDZ\C6H9N2O2P1\OHZDE\08-Apr-2025\0\\#t h
 f aug-cc-pvdz iop(5/13=1,5/36=2,99/5=2) pseudo=read geom=check guess=(
 read,tcheck) scf=(maxcycle=1)\\title\\0,1\C,0,2.128397,-1.140333,0.297
 68\C,0,0.799091,-1.371988,-0.027223\C,0,2.689052,0.135618,0.126581\C,0
 ,1.869969,1.164962,-0.375277\C,0,0.543513,0.924905,-0.690584\C,0,-0.02
 6682,-0.351396,-0.52645\H,0,-0.069755,1.738019,-1.057137\H,0,2.744223,
 -1.950137,0.675758\H,0,0.391528,-2.369454,0.102861\N,0,-2.716844,0.140
 194,0.295436\O,0,-2.414838,-0.361639,1.585848\O,0,-2.363011,1.530494,0

 Normal termination of Gaussian 16 at Tue Apr  8 23:40:25 2025.
