 Gaussian 16, Revision C.01,

 ----------------------------------------------------------------------
 #t hf aug-cc-pvdz symm=none int=(grid=ultrafine) guess=(read,tcheck) s
 table=(opt,rrhf)
 ----------------------------------------------------------------------
 -----
 title
 -----
 Symbolic Z-matrix:
 Charge =  0 Multiplicity = 1

 SCF Done:  E(RHF) =  -1166.52162242     A.U. after   16 cycles
 Normal termination of Gaussian 16 at Wed Apr  9 00:46:07 2025.
 Gaussian 16:  ES64L-G16RevC.01  3-Jul-2019

 ----------------------------------------------------------------------
 #t hf aug-cc-pvdz iop(5/13=1,5/36=2,99/5=2) pseudo=read geom=check gue
 ss=(read,tcheck) scf=(maxcycle=1)
 ----------------------------------------------------------------------
 -----
 title
 -----
 Structure from the checkpoint file:  "BDE49_nonexpt_754_mol1.chk"
 Charge =  0 Multiplicity = 1

                         Standard orientation:
 ---------------------------------------------------------------------
 Center     Atomic      Atomic             Coordinates (Angstroms)
 Number     Number       Type             X           Y           Z
 ---------------------------------------------------------------------
      1          6           0        2.105714   -0.425339    0.101818
      2          6           0        1.102915   -1.358533   -0.135516
      3          6           0       -0.196174   -0.914469   -0.326647
      4          6           0        1.786898    0.926795    0.147080
      5          6           0        0.472710    1.334118   -0.048780
      6          6           0       -0.562082    0.426905   -0.281380
      7          9           0        3.363696   -0.825741    0.288905
      8          9           0        1.393900   -2.660902   -0.177314
      9          9           0       -1.152526   -1.854027   -0.558877
     10          9           0        2.746547    1.826044    0.376915
     11          9           0        0.218687    2.651571   -0.006343
     12          5           0       -3.425985    0.148747    0.672910
     13          8           0       -3.349340   -1.115644    1.117836
     14          1           0       -2.627355   -1.637989    0.748185
     15         15           0       -2.285630    0.972821   -0.671764
     16          1           0       -4.345371    0.814321    1.041019
     17          1           0       -2.210797    2.243394   -0.068990
 ---------------------------------------------------------------------

 SCF Done:  E(RHF) =  -1167.33558318     A.U. after    2 cycles

 The electronic state is 1-A.
 Alpha  occ. eigenvalues --  -84.29288 -26.53480 -26.52672 -26.52589 -26.52258
 Alpha  occ. eigenvalues --  -26.52004 -20.58515 -11.39519 -11.39301 -11.39189
 Alpha  occ. eigenvalues --  -11.39112 -11.38975 -11.31449  -7.65465  -6.76627
 Alpha  occ. eigenvalues --   -4.29711  -4.29218  -4.28404  -1.67112  -1.66413
 Alpha  occ. eigenvalues --   -1.65674  -1.64800  -1.64153  -1.48803  -1.22583
 Alpha  occ. eigenvalues --   -1.09481  -1.07710  -0.95744  -0.92540  -0.87707
 Alpha  occ. eigenvalues --   -0.84505  -0.81910  -0.80109  -0.78235  -0.76039
 Alpha  occ. eigenvalues --   -0.75854  -0.75684  -0.74160  -0.73074  -0.71935
 Alpha  occ. eigenvalues --   -0.70170  -0.69447  -0.68130  -0.67179  -0.65980
 Alpha  occ. eigenvalues --   -0.63405  -0.62596  -0.60159  -0.60006  -0.55921
 Alpha  occ. eigenvalues --   -0.54880  -0.53052  -0.45934  -0.42684  -0.39060
 Alpha  occ. eigenvalues --   -0.33690
 Alpha virt. eigenvalues --    0.03519   0.03985   0.04616   0.04759   0.06676
 Alpha virt. eigenvalues --    0.07086   0.07206   0.07676   0.08687   0.08788
 Alpha virt. eigenvalues --    0.09325   0.09406   0.10369   0.10784   0.11519

 Mulliken charges:
               1
     1  C    1.508844
     2  C    0.628626
     3  C    1.417147
     4  C    0.742708
     5  C    1.509584
     6  C   -1.124257
     7  F   -0.992983
     8  F   -0.970780
     9  F   -1.049567
    10  F   -0.971899
    11  F   -1.030909
    12  B    0.964796
    13  O   -1.228204
    14  H    0.723258
    15  P   -0.440792
    16  H    0.082162
    17  H    0.232266
 Sum of Mulliken charges =   0.00000

 Dipole moment (field-independent basis, Debye):
    X=             -0.4568    Y=              0.2410    Z=             -0.4142  Tot=              0.6620

 Test job not archived.
 1\1\GINC-SE343\SP\RHF\Aug-CC-pVDZ\C6H3B1F5O1P1\OHZDE\09-Apr-2025\0\\#t
  hf aug-cc-pvdz iop(5/13=1,5/36=2,99/5=2) pseudo=read geom=check guess
 =(read,tcheck) scf=(maxcycle=1)\\title\\0,1\C,0,2.105714,-0.425339,0.1
 01818\C,0,1.102915,-1.358533,-0.135516\C,0,-0.196174,-0.914469,-0.3266
 47\C,0,1.786898,0.926795,0.14708\C,0,0.47271,1.334118,-0.04878\C,0,-0.
 562082,0.426905,-0.28138\F,0,3.363696,-0.825741,0.288905\F,0,1.3939,-2
 .660902,-0.177314\F,0,-1.152526,-1.854027,-0.558877\F,0,2.746547,1.826
 044,0.376915\F,0,0.218687,2.651571,-0.006343\B,0,-3.425985,0.148747,0.

 Normal termination of Gaussian 16 at Wed Apr  9 00:46:18 2025.
