 Gaussian 16, Revision C.01,

 ----------------------------------------------------------------------
 #t hf aug-cc-pvdz symm=none int=(grid=ultrafine) guess=(read,tcheck) s
 table=(opt,rrhf)
 ----------------------------------------------------------------------
 -----
 title
 -----
 Symbolic Z-matrix:
 Charge =  0 Multiplicity = 1

 SCF Done:  E(RHF) =  -285.768823037     A.U. after   14 cycles
 Normal termination of Gaussian 16 at Tue Apr  8 22:37:47 2025.
 Gaussian 16:  ES64L-G16RevC.01  3-Jul-2019

 ----------------------------------------------------------------------
 #t hf aug-cc-pvdz iop(5/13=1,5/36=2,99/5=2) pseudo=read geom=check gue
 ss=(read,tcheck) scf=(maxcycle=1)
 ----------------------------------------------------------------------
 -----
 title
 -----
 Structure from the checkpoint file:  "BDE49_expt_1178_mol1.chk"
 Charge =  0 Multiplicity = 1

                         Standard orientation:
 ---------------------------------------------------------------------
 Center     Atomic      Atomic             Coordinates (Angstroms)
 Number     Number       Type             X           Y           Z
 ---------------------------------------------------------------------
      1          6           0        1.206523    0.167376    0.000000
      2          6           0       -0.000000    0.875700    0.000000
      3          6           0        1.178566   -1.223384    0.000000
      4          6           0       -0.053287   -1.868702    0.000000
      5          6           0       -1.202601   -1.080909    0.000000
      6          7           0       -1.187970    0.252781    0.000000
      7          1           0        2.149915    0.701358    0.000000
      8          1           0        2.102367   -1.791559    0.000000
      9          1           0       -0.126938   -2.949641    0.000000
     10          1           0       -2.185637   -1.545130    0.000000
     11          6           0       -0.035932    2.381817    0.000000
     12          1           0        0.966705    2.813185    0.000000
     13          1           0       -0.575117    2.745467    0.878855
     14          1           0       -0.575117    2.745467   -0.878855
 ---------------------------------------------------------------------

 SCF Done:  E(RHF) =  -286.066170304     A.U. after    2 cycles

 The electronic state is 1-A'.
 Alpha  occ. eigenvalues --  -15.49721 -11.28469 -11.27900 -11.26459 -11.24333
 Alpha  occ. eigenvalues --  -11.24286 -11.23296  -1.25643  -1.08821  -1.05917
 Alpha  occ. eigenvalues --   -0.95858  -0.87290  -0.83900  -0.71621  -0.69141
 Alpha  occ. eigenvalues --   -0.64840  -0.59982  -0.59625  -0.58768  -0.54911
 Alpha  occ. eigenvalues --   -0.53267  -0.52679  -0.44627  -0.40102  -0.34644
 Alpha virt. eigenvalues --    0.03309   0.03836   0.03995   0.05071   0.05709
 Alpha virt. eigenvalues --    0.05985   0.07992   0.08128   0.10577   0.10758
 Alpha virt. eigenvalues --    0.11743   0.12362   0.12456   0.14071   0.14383

 Mulliken charges:
               1
     1  C    0.762646
     2  C   -1.184860
     3  C    0.021711
     4  C    0.548521
     5  C   -0.733646
     6  N    1.156800
     7  H   -0.239393
     8  H   -0.175453
     9  H   -0.189160
    10  H   -0.192501
    11  C   -0.405123
    12  H    0.126906
    13  H    0.251776
    14  H    0.251776
 Sum of Mulliken charges =  -0.00000

 Dipole moment (field-independent basis, Debye):
    X=              2.1212    Y=             -0.8772    Z=              0.0000  Tot=              2.2954

 Test job not archived.
 1\1\GINC-SE095\SP\RHF\Aug-CC-pVDZ\C6H7N1\OHZDE\08-Apr-2025\0\\#t hf au
 g-cc-pvdz iop(5/13=1,5/36=2,99/5=2) pseudo=read geom=check guess=(read
 ,tcheck) scf=(maxcycle=1)\\title\\0,1\C,0,1.206523,0.167376,0.\C,0,0.,
 0.8757,0.\C,0,1.178566,-1.223384,0.\C,0,-0.053287,-1.868702,0.\C,0,-1.
 202601,-1.080909,0.\N,0,-1.18797,0.252781,0.\H,0,2.149915,0.701358,0.\
 H,0,2.102367,-1.791559,0.\H,0,-0.126938,-2.949641,0.\H,0,-2.185637,-1.
 54513,0.\C,0,-0.035932,2.381817,0.\H,0,0.966705,2.813185,0.\H,0,-0.575
 117,2.745467,0.878855\H,0,-0.575117,2.745467,-0.878855\\Version=ES64L-

 Normal termination of Gaussian 16 at Tue Apr  8 22:37:52 2025.
